<event>
 7    1  0.6444902E-006  0.1017942E+03  0.7818608E-02  0.1310352E+00
          2   -1    0    0  502    0  0.00000000000E+00  0.00000000000E+00  0.63766558089E+03  0.63766558089E+03  0.00000000000E+00 0. -1.
          1   -1    0    0  501    0 -0.00000000000E+00 -0.00000000000E+00 -0.71445089223E+03  0.71445089223E+03  0.00000000000E+00 0. -1.
         25    2    1    2    0    0  0.87438223179E+02  0.31044789237E+02  0.13797015813E+03  0.20801580139E+03  0.12500234911E+03 0.  0.
          2    1    1    2  501    0 -0.45117885437E+02 -0.92126286818E+02 -0.67254299775E+03  0.68032121835E+03  0.00000000000E+00 0. -1.
          1    1    1    2  502    0 -0.42320337741E+02  0.61081497580E+02  0.45778752827E+03  0.46377945338E+03  0.00000000000E+00 0. -1.
         22    1    3    3    0    0  0.11822370318E+03  0.36041351985E+02  0.11864485063E+03  0.17132549030E+03  0.00000000000E+00 0. -1.
         22    1    3    3    0    0 -0.30785480000E+02 -0.49965627478E+01  0.19325307500E+02  0.36690311092E+02  0.00000000000E+00 0. -1.
</event>
<event>
 7    1  0.6444902E-006  0.1214562E+03  0.7818608E-02  0.1340075E+00
          2   -1    0    0  502    0  0.00000000000E+00  0.00000000000E+00  0.35264373667E+03  0.35264373667E+03  0.00000000000E+00 0. -1.
          1   -1    0    0  501    0 -0.00000000000E+00 -0.00000000000E+00 -0.64121752687E+03  0.64121752687E+03  0.00000000000E+00 0. -1.
         25    2    1    2    0    0 -0.11127257220E+03  0.43705162692E+01 -0.43170653806E+02  0.17289024375E+03  0.12500657702E+03 0.  0.
          2    1    1    2  501    0  0.11185872470E+03 -0.52223357986E+02 -0.52397367804E+03  0.53831967147E+03  0.00000000000E+00 0. -1.
          1    1    1    2  502    0 -0.58615250001E+00  0.47852841717E+02  0.27857054164E+03  0.28265134832E+03  0.00000000000E+00 0. -1.
         22    1    3    3    0    0 -0.15667151100E+02  0.48227422516E+02  0.14753359769E+02  0.52811036068E+02  0.00000000000E+00 0. -1.
         22    1    3    3    0    0 -0.95605421100E+02 -0.43856906247E+02 -0.57924013574E+02  0.12007920768E+03  0.00000000000E+00 0. -1.
</event>
<event>
 7    1  0.8169624E-006  0.6209637E+02  0.7818608E-02  0.1396076E+00
          2   -1    0    0  502    0  0.00000000000E+00  0.00000000000E+00  0.10682378972E+04  0.10682378972E+04  0.00000000000E+00 0. -1.
          1   -1    0    0  501    0 -0.00000000000E+00 -0.00000000000E+00 -0.20715570404E+04  0.20715570404E+04  0.00000000000E+00 0. -1.
         25    2    1    2    0    0  0.34652810648E+02  0.55719941383E+02 -0.41199230024E+03  0.43550368069E+03  0.12498108371E+03 0.  0.
          2    1    1    2  501    0 -0.58769081387E+02  0.15586461234E+01 -0.16463699525E+04  0.16474192711E+04  0.00000000000E+00 0. -1.
          1    1    1    2  502    0  0.24116270739E+02 -0.57278587506E+02  0.10550431096E+04  0.10568719858E+04  0.00000000000E+00 0. -1.
         22    1    3    3    0    0 -0.30370513271E+02 -0.10370082930E+02 -0.21965009558E+03  0.22198214159E+03  0.00000000000E+00 0. -1.
         22    1    3    3    0    0  0.65023323919E+02  0.66090024313E+02 -0.19234220466E+03  0.21352153910E+03  0.00000000000E+00 0. -1.
</event>
<event>
 7    1  0.6444902E-006  0.1092455E+03  0.7818608E-02  0.1293203E+00
          2   -1    0    0  502    0  0.00000000000E+00  0.00000000000E+00  0.96356755790E+03  0.96356755790E+03  0.00000000000E+00 0. -1.
          1   -1    0    0  501    0 -0.00000000000E+00 -0.00000000000E+00 -0.53104352532E+02  0.53104352532E+02  0.00000000000E+00 0. -1.
         25    2    1    2    0    0 -0.68803140248E+02  0.18598959974E+02  0.52283723693E+03  0.54227514348E+03  0.12499504591E+03 0.  0.
          2    1    1    2  501    0 -0.10599976678E+02 -0.10873003004E+03  0.58257002793E+02  0.12380814720E+03  0.00000000000E+00 0. -1.
          1    1    1    2  502    0  0.79403116926E+02  0.90131070064E+02  0.32936896565E+03  0.35058861976E+03  0.00000000000E+00 0. -1.
         22    1    3    3    0    0 -0.56507729037E+02 -0.35851827716E+02  0.13755584628E+03  0.15297087251E+03  0.00000000000E+00 0.  1.
         22    1    3    3    0    0 -0.12295411211E+02  0.54450787690E+02  0.38528139065E+03  0.38930427097E+03  0.00000000000E+00 0.  1.
</event>
<event>
 7    1  0.6444902E-006  0.2908264E+02  0.7818608E-02  0.1628956E+00
          2   -1    0    0  502    0  0.00000000000E+00  0.00000000000E+00  0.52711729893E+03  0.52711729893E+03  0.00000000000E+00 0. -1.
          1   -1    0    0  501    0 -0.00000000000E+00 -0.00000000000E+00 -0.11511041827E+04  0.11511041827E+04  0.00000000000E+00 0. -1.
         25    2    1    2    0    0 -0.49052659644E+01 -0.29669603930E+02  0.44668710205E+02  0.13609854010E+03  0.12499268744E+03 0.  0.
          2    1    1    2  501    0  0.25459244158E+02  0.14103520496E+02 -0.11048169200E+04  0.11052002122E+04  0.00000000000E+00 0. -1.
          1    1    1    2  502    0 -0.20553978194E+02  0.15566083435E+02  0.43616132607E+03  0.43692272925E+03  0.00000000000E+00 0. -1.
         22    1    3    3    0    0  0.47297412217E+02 -0.52757713885E+02  0.31373707476E+02  0.77490200010E+02  0.00000000000E+00 0.  1.
         22    1    3    3    0    0 -0.52202678182E+02  0.23088109955E+02  0.13295002729E+02  0.58608340091E+02  0.00000000000E+00 0.  1.
</event>
<event>
 7    1  0.6444902E-006  0.4681827E+02  0.7818608E-02  0.1491678E+00
          2   -1    0    0  502    0  0.00000000000E+00  0.00000000000E+00  0.10970756359E+04  0.10970756359E+04  0.00000000000E+00 0. -1.
          1   -1    0    0  501    0 -0.00000000000E+00 -0.00000000000E+00 -0.11346744242E+04  0.11346744242E+04  0.00000000000E+00 0. -1.
         25    2    1    2    0    0 -0.11509774676E+00  0.41103008627E+02 -0.87448355000E+03  0.88432780624E+03  0.12499887640E+03 0.  0.
          2    1    1    2  501    0 -0.38154277459E+02 -0.39949672185E+02 -0.25193959484E+03  0.25792495933E+03  0.00000000000E+00 0. -1.
          1    1    1    2  502    0  0.38269375206E+02 -0.11533364414E+01  0.10888243566E+04  0.10894972945E+04  0.00000000000E+00 0. -1.
         22    1    3    3    0    0 -0.24557490516E+02 -0.24917302672E+02 -0.87992248210E+02  0.94692016865E+02  0.00000000000E+00 0.  1.
         22    1    3    3    0    0  0.24442392769E+02  0.66020311299E+02 -0.78649130179E+03  0.78963578938E+03  0.00000000000E+00 0.  1.
</event>
<event>
 7    1  0.6444902E-006  0.9474445E+02  0.7818608E-02  0.1370863E+00
          2   -1    0    0  502    0  0.00000000000E+00  0.00000000000E+00  0.40833459196E+03  0.40833459196E+03  0.00000000000E+00 0. -1.
          1   -1    0    0  501    0 -0.00000000000E+00 -0.00000000000E+00 -0.13817136582E+03  0.13817136582E+03  0.00000000000E+00 0. -1.
         25    2    1    2    0    0 -0.40390764050E+02 -0.12709269304E+03  0.15219435445E+03  0.23786004867E+03  0.12502125732E+03 0.  0.
          2    1    1    2  501    0  0.11243343082E+02  0.89868424979E+02 -0.70224572981E+02  0.11460469983E+03  0.00000000000E+00 0. -1.
          1    1    1    2  502    0  0.29147420968E+02  0.37224268065E+02  0.18819344467E+03  0.19404120928E+03  0.00000000000E+00 0. -1.
         22    1    3    3    0    0 -0.41370495780E+02 -0.14989844133E+03  0.11200589324E+03  0.19164128145E+03  0.00000000000E+00 0.  1.
         22    1    3    3    0    0  0.97973172985E+00  0.22805748290E+02  0.40188461207E+02  0.46218767222E+02  0.00000000000E+00 0.  1.
</event>
<event>
 7    1  0.6444902E-006  0.6354542E+02  0.7818608E-02  0.1406593E+00
          2   -1    0    0  502    0  0.00000000000E+00  0.00000000000E+00  0.67596401073E+02  0.67596401073E+02  0.00000000000E+00 0. -1.
          1   -1    0    0  501    0 -0.00000000000E+00 -0.00000000000E+00 -0.51700962088E+03  0.51700962088E+03  0.00000000000E+00 0. -1.
         25    2    1    2    0    0 -0.13087965165E+01 -0.23467830358E+02 -0.45274739666E+02  0.13498967828E+03  0.12497983510E+03 0.  0.
          2    1    1    2  501    0  0.50170929709E+02  0.43653357324E+02 -0.38897236919E+03  0.39461657567E+03  0.00000000000E+00 0. -1.
          1    1    1    2  502    0 -0.48862133193E+02 -0.20185526966E+02 -0.15166110947E+02  0.54999768002E+02  0.00000000000E+00 0. -1.
         22    1    3    3    0    0  0.50896537536E+02  0.20106014162E+02 -0.27619738282E+01  0.54793593038E+02  0.00000000000E+00 0. -1.
         22    1    3    3    0    0 -0.52205334052E+02 -0.43573844520E+02 -0.42512765838E+02  0.80196085247E+02  0.00000000000E+00 0. -1.
</event>
<event>
 7    1  0.6444902E-006  0.5374389E+02  0.7818608E-02  0.1431614E+00
          2   -1    0    0  502    0  0.00000000000E+00  0.00000000000E+00  0.72260855893E+03  0.72260855893E+03  0.00000000000E+00 0. -1.
          1   -1    0    0  501    0 -0.00000000000E+00 -0.00000000000E+00 -0.58353650479E+02  0.58353650479E+02  0.00000000000E+00 0. -1.
         25    2    1    2    0    0 -0.36176913951E+02 -0.18802513903E+02  0.79749301372E+02  0.15377653805E+03  0.12499987581E+03 0.  0.
          2    1    1    2  501    0  0.11930746620E+02  0.64298681686E+02  0.32954066338E+02  0.73230005255E+02  0.00000000000E+00 0. -1.
          1    1    1    2  502    0  0.24246167331E+02 -0.45496167783E+02  0.55155154075E+03  0.55395566611E+03  0.00000000000E+00 0. -1.
         22    1    3    3    0    0 -0.14870202487E+02 -0.72189167632E+02  0.39676534541E+02  0.83705592636E+02  0.00000000000E+00 0. -1.
         22    1    3    3    0    0 -0.21306711465E+02  0.53386653729E+02  0.40072766830E+02  0.70070945414E+02  0.00000000000E+00 0. -1.
</event>
<event>
 7    1  0.6444902E-006  0.7321216E+02  0.7818608E-02  0.1411472E+00
          2   -1    0    0  502    0  0.00000000000E+00  0.00000000000E+00  0.25135714552E+03  0.25135714552E+03  0.00000000000E+00 0. -1.
          1   -1    0    0  501    0 -0.00000000000E+00 -0.00000000000E+00 -0.32720874536E+03  0.32720874536E+03  0.00000000000E+00 0. -1.
         25    2    1    2    0    0  0.31399843134E+02 -0.94341628173E+02 -0.30399449155E+02  0.16258796832E+03  0.12499771189E+03 0.  0.
          2    1    1    2  501    0 -0.47793936323E+02  0.53326057080E+02 -0.22237709291E+03  0.23362255920E+03  0.00000000000E+00 0. -1.
          1    1    1    2  502    0  0.16394093189E+02  0.41015571093E+02  0.17692494223E+03  0.18235536336E+03  0.00000000000E+00 0. -1.
         22    1    3    3    0    0 -0.32602186638E+02  0.36744206732E+01  0.16202535273E+02  0.36591339004E+02  0.00000000000E+00 0.  1.
         22    1    3    3    0    0  0.64002029772E+02 -0.98016048846E+02 -0.46601984427E+02  0.12599662932E+03  0.00000000000E+00 0.  1.
</event>
<event>
 7    1  0.6444902E-006  0.4637094E+02  0.7818608E-02  0.1512254E+00
          2   -1    0    0  502    0  0.00000000000E+00  0.00000000000E+00  0.81861548096E+02  0.81861548096E+02  0.00000000000E+00 0. -1.
          1   -1    0    0  501    0 -0.00000000000E+00 -0.00000000000E+00 -0.10148896676E+04  0.10148896676E+04  0.00000000000E+00 0. -1.
         25    2    1    2    0    0 -0.43849521791E+02  0.17213794198E+02 -0.83188648622E+02  0.15736702040E+03  0.12499973031E+03 0.  0.
          2    1    1    2  501    0  0.20818935813E+02 -0.41640623064E+02 -0.88762149796E+03  0.88884154562E+03  0.00000000000E+00 0. -1.
          1    1    1    2  502    0  0.23030585977E+02  0.24426828866E+02  0.37782027121E+02  0.50542649636E+02  0.00000000000E+00 0. -1.
         22    1    3    3    0    0 -0.54557122188E+02 -0.33589207099E+01 -0.10944433544E+03  0.12233488664E+03  0.00000000000E+00 0. -1.
         22    1    3    3    0    0  0.10707600397E+02  0.20572714908E+02  0.26255686820E+02  0.35032133754E+02  0.00000000000E+00 0. -1.
</event>
<event>
 7    1  0.6444902E-006  0.1226717E+03  0.7818608E-02  0.1254818E+00
          2   -1    0    0  502    0  0.00000000000E+00  0.00000000000E+00  0.14247192755E+04  0.14247192755E+04  0.00000000000E+00 0. -1.
          1   -1    0    0  501    0 -0.00000000000E+00 -0.00000000000E+00 -0.24654820720E+03  0.24654820720E+03  0.00000000000E+00 0. -1.
         25    2    1    2    0    0  0.48205410363E+02  0.14816415128E+03  0.20747150194E+03  0.28800317516E+03  0.12500010989E+03 0.  0.
          2    1    1    2  501    0  0.49866704166E+02 -0.11238274666E+03 -0.18539889668E+03  0.22246195365E+03  0.00000000000E+00 0. -1.
          1    1    1    2  502    0 -0.98072114529E+02 -0.35781404624E+02  0.11560984631E+04  0.11608023539E+04  0.00000000000E+00 0. -1.
         22    1    3    3    0    0  0.39159198303E+02  0.55183014184E+02  0.85067525852E+01  0.68198040336E+02  0.00000000000E+00 0.  1.
         22    1    3    3    0    0  0.90462120600E+01  0.92981137096E+02  0.19896474936E+03  0.21980513482E+03  0.00000000000E+00 0.  1.
</event>
<event>
 7    1  0.6444902E-006  0.1332862E+03  0.7818608E-02  0.1364707E+00
          2   -1    0    0  502    0  0.00000000000E+00  0.00000000000E+00  0.48833999216E+03  0.48833999216E+03  0.00000000000E+00 0. -1.
          1   -1    0    0  501    0 -0.00000000000E+00 -0.00000000000E+00 -0.27428691216E+03  0.27428691216E+03  0.00000000000E+00 0. -1.
         25    2    1    2    0    0  0.57088789375E+01  0.10235010849E+03  0.20145332271E+01  0.16169400454E+03  0.12503102317E+03 0.  0.
          2    1    1    2  501    0  0.45193773491E+01  0.35079966315E+02 -0.18100569636E+03  0.18442909457E+03  0.00000000000E+00 0. -1.
          1    1    1    2  502    0 -0.10228256287E+02 -0.13743007480E+03  0.39304424313E+03  0.41650380520E+03  0.00000000000E+00 0. -1.
         22    1    3    3    0    0  0.39064357767E+02  0.11835830699E+03 -0.52334023499E-01  0.12463833929E+03  0.00000000000E+00 0.  1.
         22    1    3    3    0    0 -0.33355478830E+02 -0.16008198504E+02  0.20668672506E+01  0.37055665256E+02  0.00000000000E+00 0.  1.
</event>
<event>
 7    1  0.6444902E-006  0.5168731E+02  0.7818608E-02  0.1437705E+00
          2   -1    0    0  502    0  0.00000000000E+00  0.00000000000E+00  0.29738565425E+04  0.29738565425E+04  0.00000000000E+00 0. -1.
          1   -1    0    0  501    0 -0.00000000000E+00 -0.00000000000E+00 -0.10117844075E+04  0.10117844075E+04  0.00000000000E+00 0. -1.
         25    2    1    2    0    0  0.95097241331E+02 -0.16403050092E+02 -0.15245257196E+03  0.21949779307E+03  0.12499979642E+03 0.  0.
          2    1    1    2  501    0 -0.50339975111E+02 -0.93546584351E+01 -0.82478856098E+03  0.82637630233E+03  0.00000000000E+00 0. -1.
          1    1    1    2  502    0 -0.44757266220E+02  0.25757708527E+02  0.29393132679E+04  0.29397668546E+04  0.00000000000E+00 0. -1.
         22    1    3    3    0    0  0.15935665993E+02 -0.20480432518E+02  0.17955414582E+02  0.31556148047E+02  0.00000000000E+00 0. -1.
         22    1    3    3    0    0  0.79161575338E+02  0.40773824258E+01 -0.17040798654E+03  0.18794164502E+03  0.00000000000E+00 0. -1.
</event>
<event>
 7    1  0.6444902E-006  0.8789473E+02  0.7818608E-02  0.1443342E+00
          2   -1    0    0  502    0  0.00000000000E+00  0.00000000000E+00  0.14436614911E+03  0.14436614911E+03  0.00000000000E+00 0. -1.
          1   -1    0    0  501    0 -0.00000000000E+00 -0.00000000000E+00 -0.81780800554E+03  0.81780800554E+03  0.00000000000E+00 0. -1.
         25    2    1    2    0    0  0.68322668024E+02 -0.20944339943E+02 -0.23772524082E+02  0.14594224719E+03  0.12500941673E+03 0.  0.
          2    1    1    2  501    0 -0.73803722988E+02  0.49287976151E+02 -0.72766913612E+03  0.73306116101E+03  0.00000000000E+00 0. -1.
          1    1    1    2  502    0  0.54810549636E+01 -0.28343636208E+02  0.77999803777E+02  0.83170746457E+02  0.00000000000E+00 0. -1.
         22    1    3    3    0    0  0.97386775724E+02 -0.20464135404E+02 -0.45725160001E+02  0.10951600422E+03  0.00000000000E+00 0.  1.
         22    1    3    3    0    0 -0.29064107699E+02 -0.48020453937E+00  0.21952635919E+02  0.36426242965E+02  0.00000000000E+00 0.  1.
</event>
<event>
 7    1  0.6444902E-006  0.1334754E+03  0.7818608E-02  0.1304779E+00
          2   -1    0    0  502    0  0.00000000000E+00  0.00000000000E+00  0.87228567805E+03  0.87228567805E+03  0.00000000000E+00 0. -1.
          1   -1    0    0  501    0 -0.00000000000E+00 -0.00000000000E+00 -0.28642225928E+03  0.28642225928E+03  0.00000000000E+00 0. -1.
         25    2    1    2    0    0  0.99925355982E+02  0.12626225140E+03 -0.55961917873E+01  0.20392095097E+03  0.12500081594E+03 0.  0.
          2    1    1    2  501    0 -0.40430739001E+02 -0.12234765091E+03 -0.15747955274E+03  0.20347825897E+03  0.00000000000E+00 0. -1.
          1    1    1    2  502    0 -0.59494616981E+02 -0.39146004873E+01  0.74893916329E+03  0.75130872740E+03  0.00000000000E+00 0. -1.
         22    1    3    3    0    0  0.11942776774E+03  0.92284218408E+02 -0.35004227332E+02  0.15493438807E+03  0.00000000000E+00 0.  1.
         22    1    3    3    0    0 -0.19502411758E+02  0.33978032993E+02  0.29408035545E+02  0.48986562903E+02  0.00000000000E+00 0.  1.
</event>
<event>
 7    1  0.6444902E-006  0.4521836E+02  0.7818608E-02  0.1490928E+00
          2   -1    0    0  502    0  0.00000000000E+00  0.00000000000E+00  0.11556310873E+04  0.11556310873E+04  0.00000000000E+00 0. -1.
          1   -1    0    0  501    0 -0.00000000000E+00 -0.00000000000E+00 -0.15189078135E+03  0.15189078135E+03  0.00000000000E+00 0. -1.
         25    2    1    2    0    0  0.53510452452E+02  0.61614079576E+02  0.51183251610E+01  0.14936461995E+03  0.12499571640E+03 0.  0.
          2    1    1    2  501    0 -0.23282425424E+02 -0.35648934402E+02 -0.73689195728E+02  0.85105907108E+02  0.00000000000E+00 0. -1.
          1    1    1    2  502    0 -0.30228027027E+02 -0.25965145174E+02  0.10723111765E+04  0.10730513416E+04  0.00000000000E+00 0. -1.
         22    1    3    3    0    0 -0.35508495839E+02  0.47120903893E+02 -0.42318508818E+00  0.59003490965E+02  0.00000000000E+00 0. -1.
         22    1    3    3    0    0  0.89018948291E+02  0.14493175683E+02  0.55415102491E+01  0.90361128988E+02  0.00000000000E+00 0. -1.
</event>
<event>
 7    1  0.6444902E-006  0.1742043E+03  0.7818608E-02  0.1221776E+00
          2   -1    0    0  502    0  0.00000000000E+00  0.00000000000E+00  0.28861949975E+04  0.28861949975E+04  0.00000000000E+00 0. -1.
          1   -1    0    0  501    0 -0.00000000000E+00 -0.00000000000E+00 -0.85383813164E+02  0.85383813164E+02  0.00000000000E+00 0. -1.
         25    2    1    2    0    0 -0.82099751762E+02  0.24295798245E+03  0.49288026523E+03  0.56949497628E+03  0.12499848670E+03 0.  0.
          2    1    1    2  501    0  0.58025074012E+02 -0.14288744596E+03  0.83693080221E+02  0.17546584598E+03  0.00000000000E+00 0. -1.
          1    1    1    2  502    0  0.24074677750E+02 -0.10007053649E+03  0.22242378389E+04  0.22266179884E+04  0.00000000000E+00 0. -1.
         22    1    3    3    0    0 -0.42359835507E+02  0.12574821312E+03  0.12867543154E+03  0.18483596903E+03  0.00000000000E+00 0.  1.
         22    1    3    3    0    0 -0.39739916255E+02  0.11720976933E+03  0.36420483370E+03  0.38465900725E+03  0.00000000000E+00 0.  1.
</event>
<event>
 7    1  0.6444902E-006  0.1683612E+03  0.7818608E-02  0.1186114E+00
          2   -1    0    0  502    0  0.00000000000E+00  0.00000000000E+00  0.22885528902E+04  0.22885528902E+04  0.00000000000E+00 0. -1.
          1   -1    0    0  501    0 -0.00000000000E+00 -0.00000000000E+00 -0.58748374208E+03  0.58748374208E+03  0.00000000000E+00 0. -1.
         25    2    1    2    0    0 -0.83422578108E+00  0.10525576773E+03 -0.75044277844E+02  0.17982313454E+03  0.12500097401E+03 0.  0.
          2    1    1    2  501    0 -0.15014036604E+03 -0.14637746308E+03 -0.43324507694E+03  0.48132087832E+03  0.00000000000E+00 0. -1.
          1    1    1    2  502    0  0.15097459182E+03  0.41121695352E+02  0.22093585029E+04  0.22148926194E+04  0.00000000000E+00 0. -1.
         22    1    3    3    0    0  0.30562992341E+01  0.12435385094E+03 -0.91415272687E+02  0.15436959963E+03  0.00000000000E+00 0. -1.
         22    1    3    3    0    0 -0.38905250152E+01 -0.19098083211E+02  0.16370994843E+02  0.25453534909E+02  0.00000000000E+00 0. -1.
</event>
<event>
 7    1  0.6444902E-006  0.4871749E+02  0.7818608E-02  0.1568516E+00
          2   -1    0    0  502    0  0.00000000000E+00  0.00000000000E+00  0.23750078252E+04  0.23750078252E+04  0.00000000000E+00 0. -1.
          1   -1    0    0  501    0 -0.00000000000E+00 -0.00000000000E+00 -0.41047547490E+03  0.41047547490E+03  0.00000000000E+00 0. -1.
         25    2    1    2    0    0 -0.33690766236E+02  0.31707953956E+01  0.12999252376E+04  0.13063595822E+04  0.12499845176E+03 0.  0.
          2    1    1    2  501    0  0.46371746291E+02  0.14999284079E+02 -0.40568511073E+03  0.40860216157E+03  0.00000000000E+00 0. -1.
          1    1    1    2  502    0 -0.12680980055E+02 -0.18170079475E+02  0.10702922234E+04  0.10705215563E+04  0.00000000000E+00 0. -1.
         22    1    3    3    0    0  0.10180804573E+00  0.18546435856E+02  0.26236990106E+02  0.32130364108E+02  0.00000000000E+00 0.  1.
         22    1    3    3    0    0 -0.33792574282E+02 -0.15375640461E+02  0.12736882475E+04  0.12742292181E+04  0.00000000000E+00 0.  1.
</event>
<event>
 7    1  0.6444902E-006  0.2360227E+03  0.7818608E-02  0.1160371E+00
          2   -1    0    0  502    0  0.00000000000E+00  0.00000000000E+00  0.90408079914E+03  0.90408079914E+03  0.00000000000E+00 0. -1.
          1   -1    0    0  501    0 -0.00000000000E+00 -0.00000000000E+00 -0.18108310382E+04  0.18108310382E+04  0.00000000000E+00 0. -1.
         25    2    1    2    0    0 -0.41621824202E+02  0.79571107552E+02  0.43660647994E+03  0.46294091258E+03  0.12500053123E+03 0.  0.
          2    1    1    2  501    0  0.13176193043E+03 -0.19894725675E+03 -0.17771562481E+04  0.17931050018E+04  0.00000000000E+00 0. -1.
          1    1    1    2  502    0 -0.90140106227E+02  0.11937614920E+03  0.43379952913E+03  0.45886592293E+03  0.00000000000E+00 0. -1.
         22    1    3    3    0    0 -0.81448623770E+02  0.22867926293E+02  0.24392388471E+03  0.25817761696E+03  0.00000000000E+00 0. -1.
         22    1    3    3    0    0  0.39826799568E+02  0.56703181259E+02  0.19268259523E+03  0.20476329562E+03  0.00000000000E+00 0. -1.
</event>
<event>
 7    1  0.6444902E-006  0.5024016E+02  0.7818608E-02  0.1562306E+00
          2   -1    0    0  502    0  0.00000000000E+00  0.00000000000E+00  0.35123088390E+04  0.35123088390E+04  0.00000000000E+00 0. -1.
          1   -1    0    0  501    0 -0.00000000000E+00 -0.00000000000E+00 -0.93463480748E+01  0.93463480748E+01  0.00000000000E+00 0. -1.
         25    2    1    2    0    0  0.12618752909E+02 -0.60654242996E+02  0.22141929051E+04  0.22185836300E+04  0.12499972971E+03 0.  0.
          2    1    1    2  501    0 -0.18405536928E+02  0.12665584987E+02  0.11950038100E+02  0.25337407982E+02  0.00000000000E+00 0. -1.
          1    1    1    2  502    0  0.57867840186E+01  0.47988658009E+02  0.12768195478E+04  0.12777341491E+04  0.00000000000E+00 0. -1.
         22    1    3    3    0    0 -0.24748085800E+02 -0.25166307044E+02  0.16454771040E+03  0.16829070016E+03  0.00000000000E+00 0. -1.
         22    1    3    3    0    0  0.37366838709E+02 -0.35487935953E+02  0.20496451947E+04  0.20502929299E+04  0.00000000000E+00 0. -1.
</event>
<event>
 7    1  0.6444902E-006  0.1330373E+03  0.7818608E-02  0.1275492E+00
          2   -1    0    0  502    0  0.00000000000E+00  0.00000000000E+00  0.31600231984E+03  0.31600231984E+03  0.00000000000E+00 0. -1.
          1   -1    0    0  501    0 -0.00000000000E+00 -0.00000000000E+00 -0.14835797692E+04  0.14835797692E+04  0.00000000000E+00 0. -1.
         25    2    1    2    0    0 -0.16490159744E+02 -0.13530456927E+03 -0.30130345301E+03  0.35353397723E+03  0.12499300152E+03 0.  0.
          2    1    1    2  501    0 -0.71013586494E+02  0.33909940297E+02 -0.11392613184E+04  0.11419759915E+04  0.00000000000E+00 0. -1.
          1    1    1    2  502    0  0.87503746239E+02  0.10139462897E+03  0.27298732202E+03  0.30407212035E+03  0.00000000000E+00 0. -1.
         22    1    3    3    0    0 -0.49953473946E+01 -0.12805880249E+03 -0.13305123462E+03  0.18473397475E+03  0.00000000000E+00 0.  1.
         22    1    3    3    0    0 -0.11494812350E+02 -0.72457667794E+01 -0.16825221838E+03  0.16880000248E+03  0.00000000000E+00 0.  1.
</event>
<event>
 7    1  0.6444902E-006  0.7822921E+02  0.7818608E-02  0.1348822E+00
          2   -1    0    0  502    0  0.00000000000E+00  0.00000000000E+00  0.20699647728E+03  0.20699647728E+03  0.00000000000E+00 0. -1.
          1   -1    0    0  501    0 -0.00000000000E+00 -0.00000000000E+00 -0.45618873518E+03  0.45618873518E+03  0.00000000000E+00 0. -1.
         25    2    1    2    0    0  0.10200908930E+02  0.39630340590E+02 -0.16643431973E+03  0.21212152476E+03  0.12498214291E+03 0.  0.
          2    1    1    2  501    0  0.67252688590E+02 -0.50618941241E+02 -0.25142336437E+03  0.26513941519E+03  0.00000000000E+00 0. -1.
          1    1    1    2  502    0 -0.77453597520E+02  0.10988600651E+02  0.16866542620E+03  0.18592427251E+03  0.00000000000E+00 0. -1.
         22    1    3    3    0    0  0.51796800772E+02  0.59426943125E+02 -0.13506896021E+03  0.15639083781E+03  0.00000000000E+00 0. -1.
         22    1    3    3    0    0 -0.41595891842E+02 -0.19796602536E+02 -0.31365359515E+02  0.55730686947E+02  0.00000000000E+00 0. -1.
</event>
<event>
 7    1  0.6444902E-006  0.1181057E+03  0.7818608E-02  0.1307872E+00
          2   -1    0    0  502    0  0.00000000000E+00  0.00000000000E+00  0.32519073884E+03  0.32519073884E+03  0.00000000000E+00 0. -1.
          1   -1    0    0  501    0 -0.00000000000E+00 -0.00000000000E+00 -0.21505247087E+04  0.21505247087E+04  0.00000000000E+00 0. -1.
         25    2    1    2    0    0  0.60970421669E+02  0.68534983690E+02 -0.37351575802E+03  0.40441713957E+03  0.12499905990E+03 0.  0.
          2    1    1    2  501    0 -0.22375190524E+02 -0.12146436554E+03 -0.17559011815E+04  0.17602395293E+04  0.00000000000E+00 0. -1.
          1    1    1    2  502    0 -0.38595231145E+02  0.52929381854E+02  0.30408296969E+03  0.31105877867E+03  0.00000000000E+00 0. -1.
         22    1    3    3    0    0  0.67364713476E+02  0.95615074280E+00 -0.87362552658E+02  0.11032286460E+03  0.00000000000E+00 0.  1.
         22    1    3    3    0    0 -0.63942918068E+01  0.67578832947E+02 -0.28615320536E+03  0.29409427497E+03  0.00000000000E+00 0.  1.
</event>
<event>
 7    1  0.6444902E-006  0.6874109E+02  0.7818608E-02  0.1432241E+00
          2   -1    0    0  502    0  0.00000000000E+00  0.00000000000E+00  0.15104770255E+04  0.15104770255E+04  0.00000000000E+00 0. -1.
          1   -1    0    0  501    0 -0.00000000000E+00 -0.00000000000E+00 -0.21451451607E+02  0.21451451607E+02  0.00000000000E+00 0. -1.
         25    2    1    2    0    0 -0.10255857684E+03 -0.13078794430E+02  0.73997280114E+03  0.75754415574E+03  0.12499633961E+03 0.  0.
          2    1    1    2  501    0  0.64805005617E+02 -0.48359621949E+00  0.74925008449E+02  0.99064017228E+02  0.00000000000E+00 0. -1.
          1    1    1    2  502    0  0.37753571222E+02  0.13562390650E+02  0.67412776428E+03  0.67532030411E+03  0.00000000000E+00 0. -1.
         22    1    3    3    0    0 -0.40065306562E+02 -0.67961942032E+02  0.37648540548E+03  0.38466259877E+03  0.00000000000E+00 0. -1.
         22    1    3    3    0    0 -0.62493270277E+02  0.54883147602E+02  0.36348739566E+03  0.37288155696E+03  0.00000000000E+00 0. -1.
</event>
<event>
 7    1  0.6444902E-006  0.5641935E+02  0.7818608E-02  0.1444674E+00
          2   -1    0    0  502    0  0.00000000000E+00  0.00000000000E+00  0.16299753336E+03  0.16299753336E+03  0.00000000000E+00 0. -1.
          1   -1    0    0  501    0 -0.00000000000E+00 -0.00000000000E+00 -0.18876249393E+04  0.18876249393E+04  0.00000000000E+00 0. -1.
         25    2    1    2    0    0 -0.26978803216E+02  0.36611844970E+02 -0.23557815653E+02  0.13508415629E+03  0.12499790233E+03 0.  0.
          2    1    1    2  501    0  0.56540033674E+02 -0.33079179745E+01 -0.18032170001E+04  0.18041062239E+04  0.00000000000E+00 0. -1.
          1    1    1    2  502    0 -0.29561230458E+02 -0.33303926995E+02  0.10214740981E+03  0.11143209246E+03  0.00000000000E+00 0. -1.
         22    1    3    3    0    0 -0.43739165428E+02 -0.16803962191E+02  0.31581967787E+02  0.56505826487E+02  0.00000000000E+00 0.  1.
         22    1    3    3    0    0  0.16760362212E+02  0.53415807161E+02 -0.55139783440E+02  0.78578329799E+02  0.00000000000E+00 0.  1.
</event>
<event>
 7    1  0.6444902E-006  0.9516806E+02  0.7818608E-02  0.1321100E+00
          2   -1    0    0  502    0  0.00000000000E+00  0.00000000000E+00  0.65923253707E+03  0.65923253707E+03  0.00000000000E+00 0. -1.
          1   -1    0    0  501    0 -0.00000000000E+00 -0.00000000000E+00 -0.52655073737E+03  0.52655073737E+03  0.00000000000E+00 0. -1.
         25    2    1    2    0    0  0.12099777433E+03 -0.64639014689E+02 -0.30382541921E+03  0.35602460158E+03  0.12499987184E+03 0.  0.
          2    1    1    2  501    0 -0.26130293069E+02  0.67262808279E+02 -0.18628719215E+03  0.19977486217E+03  0.00000000000E+00 0. -1.
          1    1    1    2  502    0 -0.94867481258E+02 -0.26237935902E+01  0.62279441106E+03  0.62998381069E+03  0.00000000000E+00 0. -1.
         22    1    3    3    0    0  0.11519352833E+03  0.14504372303E+01 -0.15538184190E+03  0.19343001197E+03  0.00000000000E+00 0.  1.
         22    1    3    3    0    0  0.58042459930E+01 -0.66089451919E+02 -0.14844357731E+03  0.16259458961E+03  0.00000000000E+00 0.  1.
</event>
<event>
 7    1  0.6444902E-006  0.2368026E+03  0.7818608E-02  0.1285096E+00
          2   -1    0    0  502    0  0.00000000000E+00  0.00000000000E+00  0.17957831271E+03  0.17957831271E+03  0.00000000000E+00 0. -1.
          1   -1    0    0  501    0 -0.00000000000E+00 -0.00000000000E+00 -0.42549983730E+03  0.42549983730E+03  0.00000000000E+00 0. -1.
         25    2    1    2    0    0 -0.53396156603E+02  0.21574433290E+03 -0.13759774873E+03  0.28974964620E+03  0.12499980121E+03 0.  0.
          2    1    1    2  501    0  0.25381041999E+02  0.31370055409E+02 -0.41338437229E+02  0.57768019369E+02  0.00000000000E+00 0. -1.
          1    1    1    2  502    0  0.28015114604E+02 -0.24711438830E+03 -0.66985338629E+02  0.25756048444E+03  0.00000000000E+00 0. -1.
         22    1    3    3    0    0 -0.61283503223E+02  0.17031676357E+03 -0.45319978460E+02  0.18659412683E+03  0.00000000000E+00 0.  1.
         22    1    3    3    0    0  0.78873466201E+01  0.45427569325E+02 -0.92277770266E+02  0.10315551937E+03  0.00000000000E+00 0.  1.
</event>
<event>
 7    1  0.6444902E-006  0.1325335E+03  0.7818608E-02  0.1252363E+00
          2   -1    0    0  502    0  0.00000000000E+00  0.00000000000E+00  0.14355151197E+04  0.14355151197E+04  0.00000000000E+00 0. -1.
          1   -1    0    0  501    0 -0.00000000000E+00 -0.00000000000E+00 -0.16635377542E+03  0.16635377542E+03  0.00000000000E+00 0. -1.
         25    2    1    2    0    0  0.49747757394E+02  0.77260240113E+02 -0.11728257342E+02  0.15559260719E+03  0.12501009288E+03 0.  0.
          2    1    1    2  501    0 -0.83012186928E+02  0.53966338721E+02 -0.48331857878E+02  0.11017875194E+03  0.00000000000E+00 0. -1.
          1    1    1    2  502    0  0.33264429533E+02 -0.13122657883E+03  0.13292214595E+04  0.13360975359E+04  0.00000000000E+00 0. -1.
         22    1    3    3    0    0  0.88912351905E+02  0.73527824598E+02 -0.36766754290E+01  0.11543511274E+03  0.00000000000E+00 0. -1.
         22    1    3    3    0    0 -0.39164594511E+02  0.37324155145E+01 -0.80515819135E+01  0.40157494444E+02  0.00000000000E+00 0. -1.
</event>
<event>
 7    1  0.6444902E-006  0.8267967E+02  0.7818608E-02  0.1339997E+00
          2   -1    0    0  502    0  0.00000000000E+00  0.00000000000E+00  0.61877998065E+03  0.61877998065E+03  0.00000000000E+00 0. -1.
          1   -1    0    0  501    0 -0.00000000000E+00 -0.00000000000E+00 -0.70419216247E+02  0.70419216247E+02  0.00000000000E+00 0. -1.
         25    2    1    2    0    0  0.21757078351E+02  0.60517812457E+01  0.16058523476E+03  0.20475814579E+03  0.12501314382E+03 0.  0.
          2    1    1    2  501    0  0.13825325458E+02 -0.81515571008E+02 -0.50687307310E+01  0.82834895859E+02  0.00000000000E+00 0. -1.
          1    1    1    2  502    0 -0.35582403809E+02  0.75463789762E+02  0.39284426037E+03  0.40160615525E+03  0.00000000000E+00 0. -1.
         22    1    3    3    0    0 -0.48185780086E+02  0.25312282217E+02  0.65717860674E+02  0.85331226670E+02  0.00000000000E+00 0. -1.
         22    1    3    3    0    0  0.69942858437E+02 -0.19260500971E+02  0.94867374083E+02  0.11942691911E+03  0.00000000000E+00 0. -1.
</event>
<event>
 7    1  0.6444902E-006  0.5186397E+02  0.7818608E-02  0.1464530E+00
          2   -1    0    0  502    0  0.00000000000E+00  0.00000000000E+00  0.25611516711E+04  0.25611516711E+04  0.00000000000E+00 0. -1.
          1   -1    0    0  501    0 -0.00000000000E+00 -0.00000000000E+00 -0.95104550718E+02  0.95104550718E+02  0.00000000000E+00 0. -1.
         25    2    1    2    0    0  0.15104262340E+02 -0.77243383879E+01  0.89399516835E+03  0.90285114629E+03  0.12500010877E+03 0.  0.
          2    1    1    2  501    0  0.15529727219E+02 -0.38904345650E+02 -0.85344152833E+02  0.95070210691E+02  0.00000000000E+00 0. -1.
          1    1    1    2  502    0 -0.30633989559E+02  0.46628684038E+02  0.16573961048E+04  0.16583348648E+04  0.00000000000E+00 0. -1.
         22    1    3    3    0    0  0.47065294280E+02 -0.11059724249E+02  0.82837984636E+03  0.82978950902E+03  0.00000000000E+00 0. -1.
         22    1    3    3    0    0 -0.31961031940E+02  0.33353858613E+01  0.65615321984E+02  0.73061637270E+02  0.00000000000E+00 0. -1.
</event>
<event>
 7    1  0.6444902E-006  0.4630573E+02  0.7818608E-02  0.1539288E+00
          2   -1    0    0  502    0  0.00000000000E+00  0.00000000000E+00  0.13663049128E+04  0.13663049128E+04  0.00000000000E+00 0. -1.
          1   -1    0    0  501    0 -0.00000000000E+00 -0.00000000000E+00 -0.23769839633E+03  0.23769839633E+03  0.00000000000E+00 0. -1.
         25    2    1    2    0    0 -0.35129495942E+02  0.64508137296E+00 -0.15548122810E+03  0.20255676221E+03  0.12498132665E+03 0.  0.
          2    1    1    2  501    0  0.47041193617E+02 -0.26094121211E+02 -0.46171025217E+02  0.70891047589E+02  0.00000000000E+00 0. -1.
          1    1    1    2  502    0 -0.11911697675E+02  0.25449039838E+02  0.13302587698E+04  0.13305554993E+04  0.00000000000E+00 0. -1.
         22    1    3    3    0    0  0.41132257406E+02  0.26100865572E+02 -0.69154926387E+02  0.84590316387E+02  0.00000000000E+00 0.  1.
         22    1    3    3    0    0 -0.76261753347E+02 -0.25455784199E+02 -0.86326301715E+02  0.11796644582E+03  0.00000000000E+00 0.  1.
</event>
<event>
 7    1  0.6444902E-006  0.1121302E+03  0.7818608E-02  0.1294104E+00
          2   -1    0    0  502    0  0.00000000000E+00  0.00000000000E+00  0.27710948453E+03  0.27710948453E+03  0.00000000000E+00 0. -1.
          1   -1    0    0  501    0 -0.00000000000E+00 -0.00000000000E+00 -0.49094711293E+03  0.49094711293E+03  0.00000000000E+00 0. -1.
         25    2    1    2    0    0 -0.50355963662E+02  0.11904722271E+02 -0.50744047931E+02  0.14452158009E+03  0.12503632761E+03 0.  0.
          2    1    1    2  501    0 -0.48652934790E+02  0.61373643009E+02 -0.37246910293E+03  0.38061406274E+03  0.00000000000E+00 0. -1.
          1    1    1    2  502    0  0.99008898452E+02 -0.73278365281E+02  0.20937552246E+03  0.24292095462E+03  0.00000000000E+00 0. -1.
         22    1    3    3    0    0 -0.43916722195E+02 -0.52180870637E+02 -0.40451955661E+02  0.79296169300E+02  0.00000000000E+00 0. -1.
         22    1    3    3    0    0 -0.64392414665E+01  0.64085592909E+02 -0.10292092270E+02  0.65225410788E+02  0.00000000000E+00 0. -1.
</event>
<event>
 7    1  0.6444902E-006  0.1140530E+03  0.7818608E-02  0.1314921E+00
          2   -1    0    0  502    0  0.00000000000E+00  0.00000000000E+00  0.70638217736E+03  0.70638217736E+03  0.00000000000E+00 0. -1.
          1   -1    0    0  501    0 -0.00000000000E+00 -0.00000000000E+00 -0.10957980254E+04  0.10957980254E+04  0.00000000000E+00 0. -1.
         25    2    1    2    0    0  0.12047434874E+03  0.32335424477E+02 -0.26989761694E+03  0.32253680783E+03  0.12500248156E+03 0.  0.
          2    1    1    2  501    0 -0.80419787736E+02 -0.81789544316E+02 -0.79396147381E+03  0.80220427181E+03  0.00000000000E+00 0. -1.
          1    1    1    2  502    0 -0.40054561006E+02  0.49454119839E+02  0.67444324274E+03  0.67743912309E+03  0.00000000000E+00 0. -1.
         22    1    3    3    0    0  0.12656416850E+03  0.64370514556E+02 -0.19863448489E+03  0.24416738209E+03  0.00000000000E+00 0. -1.
         22    1    3    3    0    0 -0.60898197545E+01 -0.32035090079E+02 -0.71263132052E+02  0.78369425740E+02  0.00000000000E+00 0. -1.
</event>
<event>
 7    1  0.6444902E-006  0.8324484E+02  0.7818608E-02  0.1347127E+00
          2   -1    0    0  502    0  0.00000000000E+00  0.00000000000E+00  0.31701840112E+04  0.31701840112E+04  0.00000000000E+00 0. -1.
          1   -1    0    0  501    0 -0.00000000000E+00 -0.00000000000E+00 -0.19116393528E+04  0.19116393528E+04  0.00000000000E+00 0. -1.
         25    2    1    2    0    0  0.47643487911E+01 -0.14693643296E+03  0.17923579011E+03  0.26337853296E+03  0.12501907382E+03 0.  0.
          2    1    1    2  501    0  0.67469175754E+01  0.65360701811E+02 -0.18684149482E+04  0.18695699936E+04  0.00000000000E+00 0. -1.
          1    1    1    2  502    0 -0.11511266367E+02  0.81575731146E+02  0.29477238165E+04  0.29488748375E+04  0.00000000000E+00 0. -1.
         22    1    3    3    0    0 -0.22061230318E+02 -0.60637943955E+02  0.21455794572E+01  0.64562075876E+02  0.00000000000E+00 0.  1.
         22    1    3    3    0    0  0.26825579109E+02 -0.86298489001E+02  0.17709021065E+03  0.19881645709E+03  0.00000000000E+00 0.  1.
</event>
<event>
 7    1  0.6444902E-006  0.9721052E+02  0.7818608E-02  0.1315357E+00
          2   -1    0    0  502    0  0.00000000000E+00  0.00000000000E+00  0.43253197040E+03  0.43253197040E+03  0.00000000000E+00 0. -1.
          1   -1    0    0  501    0 -0.00000000000E+00 -0.00000000000E+00 -0.46397854494E+03  0.46397854494E+03  0.00000000000E+00 0. -1.
         25    2    1    2    0    0  0.71448246875E+02 -0.89237102277E+02 -0.31973825462E+02  0.17236846694E+03  0.12498180058E+03 0.  0.
          2    1    1    2  501    0 -0.96039936860E+02  0.19046497851E+02 -0.35122303610E+03  0.36461494709E+03  0.00000000000E+00 0. -1.
          1    1    1    2  502    0  0.24591689985E+02  0.70190604426E+02  0.35175028702E+03  0.35952710132E+03  0.00000000000E+00 0. -1.
         22    1    3    3    0    0  0.83695679108E+02 -0.11416370556E+03 -0.28232168989E+02  0.14434463528E+03  0.00000000000E+00 0.  1.
         22    1    3    3    0    0 -0.12247432233E+02  0.24926603283E+02 -0.37416564723E+01  0.28023831656E+02  0.00000000000E+00 0.  1.
</event>
<event>
 7    1  0.6444902E-006  0.7931972E+02  0.7818608E-02  0.1484321E+00
          2   -1    0    0  502    0  0.00000000000E+00  0.00000000000E+00  0.17360547987E+04  0.17360547987E+04  0.00000000000E+00 0. -1.
          1   -1    0    0  501    0 -0.00000000000E+00 -0.00000000000E+00 -0.17938417442E+02  0.17938417442E+02  0.00000000000E+00 0. -1.
         25    2    1    2    0    0 -0.86727621015E+02 -0.17650539161E+02  0.62128651489E+03  0.63988669867E+03  0.12499932708E+03 0.  0.
          2    1    1    2  501    0  0.77245744741E+02 -0.41687548625E+01  0.16781178988E+03  0.18478387489E+03  0.00000000000E+00 0. -1.
          1    1    1    2  502    0  0.94818762739E+01  0.21819294023E+02  0.92901807646E+03  0.92932264255E+03  0.00000000000E+00 0. -1.
         22    1    3    3    0    0  0.34403652102E+01  0.22228902880E+02  0.35863966540E+03  0.35934436107E+03  0.00000000000E+00 0.  1.
         22    1    3    3    0    0 -0.90167986226E+02 -0.39879442041E+02  0.26264684949E+03  0.28054233759E+03  0.00000000000E+00 0.  1.
</event>
<event>
 7    1  0.6444902E-006  0.6725054E+02  0.7818608E-02  0.1424518E+00
          2   -1    0    0  502    0  0.00000000000E+00  0.00000000000E+00  0.56619455947E+03  0.56619455947E+03  0.00000000000E+00 0. -1.
          1   -1    0    0  501    0 -0.00000000000E+00 -0.00000000000E+00 -0.17723293872E+04  0.17723293872E+04  0.00000000000E+00 0. -1.
         25    2    1    2    0    0 -0.90955151268E+02  0.43776198580E+02 -0.41071215516E+03  0.44102106465E+03  0.12500363979E+03 0.  0.
          2    1    1    2  501    0  0.24283698295E+02 -0.36070415010E+02 -0.13440662576E+04  0.13447694515E+04  0.00000000000E+00 0. -1.
          1    1    1    2  502    0  0.66671452973E+02 -0.77057835693E+01  0.54864358507E+03  0.55273343049E+03  0.00000000000E+00 0. -1.
         22    1    3    3    0    0 -0.32285292134E+02  0.81925992812E+02 -0.26756463435E+03  0.28168251977E+03  0.00000000000E+00 0. -1.
         22    1    3    3    0    0 -0.58669859135E+02 -0.38149794232E+02 -0.14314752081E+03  0.15933854488E+03  0.00000000000E+00 0. -1.
</event>
<event>
 7    1  0.6444902E-006  0.6927400E+02  0.7818608E-02  0.1471309E+00
          2   -1    0    0  502    0  0.00000000000E+00  0.00000000000E+00  0.43697728997E+03  0.43697728997E+03  0.00000000000E+00 0. -1.
          1   -1    0    0  501    0 -0.00000000000E+00 -0.00000000000E+00 -0.74786044787E+03  0.74786044787E+03  0.00000000000E+00 0. -1.
         25    2    1    2    0    0 -0.67475832958E+02 -0.98632260733E+01  0.31617439435E+02  0.14585866815E+03  0.12499926934E+03 0.  0.
          2    1    1    2  501    0  0.66478373012E+02 -0.19991313624E+02 -0.68835025340E+03  0.69184181577E+03  0.00000000000E+00 0. -1.
          1    1    1    2  502    0  0.99745994651E+00  0.29854539697E+02  0.34584965605E+03  0.34713725392E+03  0.00000000000E+00 0. -1.
         22    1    3    3    0    0  0.32262014075E+02 -0.40465834977E+01  0.32465120487E+02  0.45947757709E+02  0.00000000000E+00 0.  1.
         22    1    3    3    0    0 -0.99737847033E+02 -0.58166425755E+01 -0.84768105194E+00  0.99910910440E+02  0.00000000000E+00 0.  1.
</event>
<event>
 7    1  0.6444902E-006  0.2495421E+02  0.7818608E-02  0.1673850E+00
          2   -1    0    0  502    0  0.00000000000E+00  0.00000000000E+00  0.79056200716E+03  0.79056200716E+03  0.00000000000E+00 0. -1.
          1   -1    0    0  501    0 -0.00000000000E+00 -0.00000000000E+00 -0.48060420890E+02  0.48060420890E+02  0.00000000000E+00 0. -1.
         25    2    1    2    0    0 -0.44609967178E+01 -0.36230321519E+02  0.40271632169E+03  0.42324736937E+03  0.12500145293E+03 0.  0.
          2    1    1    2  501    0 -0.13444738903E+02  0.19065728517E+02 -0.33743855690E+02  0.41023295880E+02  0.00000000000E+00 0. -1.
          1    1    1    2  502    0  0.17905735620E+02  0.17164593002E+02  0.37352912027E+03  0.37435176280E+03  0.00000000000E+00 0. -1.
         22    1    3    3    0    0  0.30270187183E+02 -0.21384751173E+02  0.27538784015E+02  0.46173330396E+02  0.00000000000E+00 0. -1.
         22    1    3    3    0    0 -0.34731183901E+02 -0.14845570346E+02  0.37517753767E+03  0.37707403897E+03  0.00000000000E+00 0. -1.
</event>
<event>
 7    1  0.6444902E-006  0.9190974E+02  0.7818608E-02  0.1345145E+00
          2   -1    0    0  502    0  0.00000000000E+00  0.00000000000E+00  0.24881697047E+03  0.24881697047E+03  0.00000000000E+00 0. -1.
          1   -1    0    0  501    0 -0.00000000000E+00 -0.00000000000E+00 -0.10923228760E+04  0.10923228760E+04  0.00000000000E+00 0. -1.
         25    2    1    2    0    0  0.12371006358E+03 -0.29176895820E+02  0.66065785794E+02  0.19012125122E+03  0.12500372407E+03 0.  0.
          2    1    1    2  501    0 -0.56064409750E+02 -0.22829200995E+02 -0.10142021649E+04  0.10160070973E+04  0.00000000000E+00 0. -1.
          1    1    1    2  502    0 -0.67645653833E+02  0.52006096815E+02  0.10463047356E+03  0.13501149798E+03  0.00000000000E+00 0. -1.
         22    1    3    3    0    0  0.12516501983E+03  0.15801519358E+02  0.23801027790E+02  0.12838402988E+03  0.00000000000E+00 0. -1.
         22    1    3    3    0    0 -0.14549562516E+01 -0.44978415178E+02  0.42264758004E+02  0.61737221340E+02  0.00000000000E+00 0. -1.
</event>
<event>
 7    1  0.6444902E-006  0.7318316E+02  0.7818608E-02  0.1405072E+00
          2   -1    0    0  502    0  0.00000000000E+00  0.00000000000E+00  0.67547379874E+03  0.67547379874E+03  0.00000000000E+00 0. -1.
          1   -1    0    0  501    0 -0.00000000000E+00 -0.00000000000E+00 -0.13368313910E+04  0.13368313910E+04  0.00000000000E+00 0. -1.
         25    2    1    2    0    0  0.84550786191E+02 -0.72007720084E+02  0.14699742010E+03  0.22263421552E+03  0.12499522073E+03 0.  0.
          2    1    1    2  501    0 -0.66993516596E+02  0.28996694772E+02 -0.12968845937E+04  0.12989374846E+04  0.00000000000E+00 0. -1.
          1    1    1    2  502    0 -0.17557269595E+02  0.43011025311E+02  0.48852958132E+03  0.49073348962E+03  0.00000000000E+00 0. -1.
         22    1    3    3    0    0  0.82557316993E+02 -0.47291110317E+02  0.25318017418E+02  0.98453855740E+02  0.00000000000E+00 0. -1.
         22    1    3    3    0    0  0.19934691980E+01 -0.24716609767E+02  0.12167940268E+03  0.12418035978E+03  0.00000000000E+00 0. -1.
</event>
<event>
 7    1  0.6444902E-006  0.5023584E+02  0.7818608E-02  0.1547642E+00
          2   -1    0    0  502    0  0.00000000000E+00  0.00000000000E+00  0.95571729304E+03  0.95571729304E+03  0.00000000000E+00 0. -1.
          1   -1    0    0  501    0 -0.00000000000E+00 -0.00000000000E+00 -0.20654706162E+03  0.20654706162E+03  0.00000000000E+00 0. -1.
         25    2    1    2    0    0 -0.69419414942E+02 -0.17231218480E+01 -0.10694743052E+02  0.14339426549E+03  0.12500205409E+03 0.  0.
          2    1    1    2  501    0  0.47386123934E+02  0.12518819625E+02 -0.12468905091E+03  0.13397583739E+03  0.00000000000E+00 0. -1.
          1    1    1    2  502    0  0.22033291008E+02 -0.10795697777E+02  0.88455402538E+03  0.88489425177E+03  0.00000000000E+00 0. -1.
         22    1    3    3    0    0 -0.99800646294E+02 -0.19003388852E+02 -0.26562998727E+02  0.10500900290E+03  0.00000000000E+00 0. -1.
         22    1    3    3    0    0  0.30381231352E+02  0.17280267004E+02  0.15868255675E+02  0.38385262594E+02  0.00000000000E+00 0. -1.
</event>
<event>
 7    1  0.6444902E-006  0.9506191E+02  0.7818608E-02  0.1313658E+00
          2   -1    0    0  502    0  0.00000000000E+00  0.00000000000E+00  0.10112585626E+03  0.10112585626E+03  0.00000000000E+00 0. -1.
          1   -1    0    0  501    0 -0.00000000000E+00 -0.00000000000E+00 -0.10436296069E+04  0.10436296069E+04  0.00000000000E+00 0. -1.
         25    2    1    2    0    0  0.10330666463E+03 -0.81483476417E+02 -0.32035333035E+03  0.36818878655E+03  0.12499960954E+03 0.  0.
          2    1    1    2  501    0 -0.92800321684E+02  0.49732886320E+01 -0.67603831605E+03  0.68239610057E+03  0.00000000000E+00 0. -1.
          1    1    1    2  502    0 -0.10506342950E+02  0.76510187785E+02  0.53887895786E+02  0.94170576027E+02  0.00000000000E+00 0. -1.
         22    1    3    3    0    0  0.92142432076E+02 -0.94751455759E+02 -0.16284908019E+03  0.20973289937E+03  0.00000000000E+00 0.  1.
         22    1    3    3    0    0  0.11164232558E+02  0.13267979341E+02 -0.15750425016E+03  0.15845588719E+03  0.00000000000E+00 0.  1.
</event>
<event>
 7    1  0.6444902E-006  0.1790748E+03  0.7818608E-02  0.1252955E+00
          2   -1    0    0  502    0  0.00000000000E+00  0.00000000000E+00  0.12554005074E+04  0.12554005074E+04  0.00000000000E+00 0. -1.
          1   -1    0    0  501    0 -0.00000000000E+00 -0.00000000000E+00 -0.22197901425E+04  0.22197901425E+04  0.00000000000E+00 0. -1.
         25    2    1    2    0    0  0.19295237422E+03 -0.12115878372E+03 -0.20377939153E+03  0.33024475866E+03  0.12500196246E+03 0.  0.
          2    1    1    2  501    0 -0.12051278790E+03  0.12887176373E+03 -0.19476736572E+04  0.19556492371E+04  0.00000000000E+00 0. -1.
          1    1    1    2  502    0 -0.72439586323E+02 -0.77129800061E+01  0.11870634136E+04  0.11892966541E+04  0.00000000000E+00 0. -1.
         22    1    3    3    0    0  0.85566681837E+02 -0.82410866491E+02 -0.17668628337E+03  0.21291136815E+03  0.00000000000E+00 0. -1.
         22    1    3    3    0    0  0.10738569238E+03 -0.38747917228E+02 -0.27093108158E+02  0.11733339051E+03  0.00000000000E+00 0. -1.
</event>
<event>
 7    1  0.6444902E-006  0.6674678E+02  0.7818608E-02  0.1494168E+00
          2   -1    0    0  502    0  0.00000000000E+00  0.00000000000E+00  0.52261908419E+03  0.52261908419E+03  0.00000000000E+00 0. -1.
          1   -1    0    0  501    0 -0.00000000000E+00 -0.00000000000E+00 -0.18919566131E+04  0.18919566131E+04  0.00000000000E+00 0. -1.
         25    2    1    2    0    0  0.37682737421E+02 -0.24360146354E+02 -0.96958603918E+03  0.97863884821E+03  0.12499400955E+03 0.  0.
          2    1    1    2  501    0  0.26039342958E+02  0.43210370205E+01 -0.91550003856E+03  0.91588047219E+03  0.00000000000E+00 0. -1.
          1    1    1    2  502    0 -0.63722080378E+02  0.20039109333E+02  0.51574854888E+03  0.52005637685E+03  0.00000000000E+00 0. -1.
         22    1    3    3    0    0  0.55628036922E+02 -0.10361877871E+02 -0.17911944757E+03  0.18784467920E+03  0.00000000000E+00 0.  1.
         22    1    3    3    0    0 -0.17945299501E+02 -0.13998268483E+02 -0.79046659161E+03  0.79079416902E+03  0.00000000000E+00 0.  1.
</event>
<event>
 7    1  0.6444902E-006  0.8228242E+02  0.7818608E-02  0.1349043E+00
          2   -1    0    0  502    0  0.00000000000E+00  0.00000000000E+00  0.95247793080E+03  0.95247793080E+03  0.00000000000E+00 0. -1.
          1   -1    0    0  501    0 -0.00000000000E+00 -0.00000000000E+00 -0.49576708400E+03  0.49576708400E+03  0.00000000000E+00 0. -1.
         25    2    1    2    0    0 -0.68742824025E+02 -0.12419338235E+03  0.38784960947E+03  0.43151139288E+03  0.12500076216E+03 0.  0.
          2    1    1    2  501    0  0.21565875804E+02  0.78906515907E+02 -0.46840907549E+03  0.47549804128E+03  0.00000000000E+00 0. -1.
          1    1    1    2  502    0  0.47176948222E+02  0.45286866446E+02  0.53727031282E+03  0.54123558064E+03  0.00000000000E+00 0. -1.
         22    1    3    3    0    0  0.15430259937E+02  0.10559855437E+02  0.91163114491E+01  0.20801697119E+02  0.00000000000E+00 0.  1.
         22    1    3    3    0    0 -0.84173083963E+02 -0.13475323779E+03  0.37873329802E+03  0.41070969576E+03  0.00000000000E+00 0.  1.
</event>
<event>
 7    1  0.1085685E-005  0.8967493E+02  0.7818608E-02  0.1406572E+00
          2   -1    0    0  502    0  0.00000000000E+00  0.00000000000E+00  0.21155069943E+04  0.21155069943E+04  0.00000000000E+00 0. -1.
          1   -1    0    0  501    0 -0.00000000000E+00 -0.00000000000E+00 -0.13803361156E+04  0.13803361156E+04  0.00000000000E+00 0. -1.
         25    2    1    2    0    0 -0.68802971777E+02 -0.82829298109E+02 -0.26047351764E+03  0.30832581452E+03  0.12499525174E+03 0.  0.
          2    1    1    2  501    0  0.31334438199E+02  0.83012366396E+02 -0.10939722935E+04  0.10975647038E+04  0.00000000000E+00 0. -1.
          1    1    1    2  502    0  0.37468533578E+02 -0.18306828665E+00  0.20896166899E+04  0.20899525916E+04  0.00000000000E+00 0. -1.
         22    1    3    3    0    0 -0.69344734776E+02 -0.36760987908E+02 -0.50435198097E+02  0.93294006668E+02  0.00000000000E+00 0.  1.
         22    1    3    3    0    0  0.54176299918E+00 -0.46068310201E+02 -0.21003831954E+03  0.21503180785E+03  0.00000000000E+00 0.  1.
</event>
<event>
 7    1  0.6444902E-006  0.4275508E+02  0.7818608E-02  0.1520159E+00
          2   -1    0    0  502    0  0.00000000000E+00  0.00000000000E+00  0.23807363892E+04  0.23807363892E+04  0.00000000000E+00 0. -1.
          1   -1    0    0  501    0 -0.00000000000E+00 -0.00000000000E+00 -0.19196181477E+02  0.19196181477E+02  0.00000000000E+00 0. -1.
         25    2    1    2    0    0  0.12133614630E+02  0.67950748014E+02  0.30233332923E+03  0.33435622826E+03  0.12499646655E+03 0.  0.
          2    1    1    2  501    0 -0.81294879145E+01 -0.33656517227E+02  0.95785780687E+02  0.10185168387E+03  0.00000000000E+00 0. -1.
          1    1    1    2  502    0 -0.40041267160E+01 -0.34294230787E+02  0.19634210978E+04  0.19637246585E+04  0.00000000000E+00 0. -1.
         22    1    3    3    0    0 -0.49367309041E+02  0.22049515998E+02  0.19535433842E+03  0.20269837171E+03  0.00000000000E+00 0. -1.
         22    1    3    3    0    0  0.61500923671E+02  0.45901232016E+02  0.10697899082E+03  0.13165785654E+03  0.00000000000E+00 0. -1.
</event>
<event>
 7    1  0.6444902E-006  0.8022288E+02  0.7818608E-02  0.1377919E+00
          2   -1    0    0  502    0  0.00000000000E+00  0.00000000000E+00  0.83111184507E+03  0.83111184507E+03  0.00000000000E+00 0. -1.
          1   -1    0    0  501    0 -0.00000000000E+00 -0.00000000000E+00 -0.60357749098E+03  0.60357749098E+03  0.00000000000E+00 0. -1.
         25    2    1    2    0    0  0.64117814478E+02  0.10054462608E+03  0.18696487668E+03  0.25456146399E+03  0.12500143146E+03 0.  0.
          2    1    1    2  501    0 -0.63886156197E+02 -0.47856797718E+02 -0.56583556387E+03  0.57143818509E+03  0.00000000000E+00 0. -1.
          1    1    1    2  502    0 -0.23165828071E+00 -0.52687828361E+02  0.60640504128E+03  0.60868968697E+03  0.00000000000E+00 0. -1.
         22    1    3    3    0    0  0.11957786388E+02  0.10809015816E+03  0.16466500237E+03  0.19733482702E+03  0.00000000000E+00 0. -1.
         22    1    3    3    0    0  0.52160028089E+02 -0.75455320844E+01  0.22299874309E+02  0.57226636970E+02  0.00000000000E+00 0. -1.
</event>
<event>
 7    1  0.6444902E-006  0.5452990E+02  0.7818608E-02  0.1530056E+00
          2   -1    0    0  502    0  0.00000000000E+00  0.00000000000E+00  0.50156034205E+03  0.50156034205E+03  0.00000000000E+00 0. -1.
          1   -1    0    0  501    0 -0.00000000000E+00 -0.00000000000E+00 -0.63863528762E+03  0.63863528762E+03  0.00000000000E+00 0. -1.
         25    2    1    2    0    0  0.56430873689E+02  0.48990535751E+02 -0.10734954011E+03  0.18092458892E+03  0.12500106806E+03 0.  0.
          2    1    1    2  501    0 -0.24901670494E+02 -0.47452565446E+01 -0.49258345131E+03  0.49323530607E+03  0.00000000000E+00 0. -1.
          1    1    1    2  502    0 -0.31529203195E+02 -0.44245279206E+02  0.46285804585E+03  0.46603573467E+03  0.00000000000E+00 0. -1.
         22    1    3    3    0    0  0.79202829173E+02  0.63136442601E+02 -0.40833133638E+02  0.10920917240E+03  0.00000000000E+00 0.  1.
         22    1    3    3    0    0 -0.22771955484E+02 -0.14145906850E+02 -0.66516406473E+02  0.71715416524E+02  0.00000000000E+00 0.  1.
</event>
<event>
 7    1  0.6444902E-006  0.2008380E+03  0.7818608E-02  0.1180169E+00
          2   -1    0    0  502    0  0.00000000000E+00  0.00000000000E+00  0.19145608519E+04  0.19145608519E+04  0.00000000000E+00 0. -1.
          1   -1    0    0  501    0 -0.00000000000E+00 -0.00000000000E+00 -0.46087431868E+03  0.46087431868E+03  0.00000000000E+00 0. -1.
         25    2    1    2    0    0  0.15509485123E+03  0.12187048390E+03  0.14926227999E+03  0.27714585117E+03  0.12499506739E+03 0.  0.
          2    1    1    2  501    0 -0.40563413445E+02 -0.20270583763E+03 -0.36688181977E+03  0.42111437495E+03  0.00000000000E+00 0. -1.
          1    1    1    2  502    0 -0.11453143779E+03  0.80835353730E+02  0.16713060730E+04  0.16771749445E+04  0.00000000000E+00 0. -1.
         22    1    3    3    0    0  0.13274660882E+03  0.14589074372E+03  0.10952144818E+03  0.22561187661E+03  0.00000000000E+00 0.  1.
         22    1    3    3    0    0  0.22348242413E+02 -0.24020259826E+02  0.39740831810E+02  0.51533974561E+02  0.00000000000E+00 0.  1.
</event>
<event>
 7    1  0.6444902E-006  0.9353329E+02  0.7818608E-02  0.1314782E+00
          2   -1    0    0  502    0  0.00000000000E+00  0.00000000000E+00  0.63734838547E+02  0.63734838547E+02  0.00000000000E+00 0. -1.
          1   -1    0    0  501    0 -0.00000000000E+00 -0.00000000000E+00 -0.89169013674E+03  0.89169013674E+03  0.00000000000E+00 0. -1.
         25    2    1    2    0    0 -0.95033529659E+02  0.63956447098E+02 -0.46389664210E+03  0.49390992882E+03  0.12500049739E+03 0.  0.
          2    1    1    2  501    0  0.18990693807E+01 -0.77675790720E+02 -0.35892166622E+03  0.36723547951E+03  0.00000000000E+00 0. -1.
          1    1    1    2  502    0  0.93134460278E+02  0.13719343622E+02 -0.51369898699E+01  0.94279566958E+02  0.00000000000E+00 0. -1.
         22    1    3    3    0    0 -0.11670284429E+03  0.54975119577E+02 -0.44634494847E+03  0.46461342066E+03  0.00000000000E+00 0. -1.
         22    1    3    3    0    0  0.21669314632E+02  0.89813275211E+01 -0.17551693636E+02  0.29296508156E+02  0.00000000000E+00 0. -1.
</event>
<event>
 7    1  0.6444902E-006  0.1107300E+03  0.7818608E-02  0.1411351E+00
          2   -1    0    0  502    0  0.00000000000E+00  0.00000000000E+00  0.12399947103E+03  0.12399947103E+03  0.00000000000E+00 0. -1.
          1   -1    0    0  501    0 -0.00000000000E+00 -0.00000000000E+00 -0.15485946454E+04  0.15485946454E+04  0.00000000000E+00 0. -1.
         25    2    1    2    0    0  0.86559543721E+02  0.67783289710E+02 -0.95304218170E+02  0.19182349397E+03  0.12500491937E+03 0.  0.
          2    1    1    2  501    0 -0.66349840674E+02 -0.88903899418E+02 -0.13999318840E+04  0.14043202927E+04  0.00000000000E+00 0. -1.
          1    1    1    2  502    0 -0.20209703047E+02  0.21120609708E+02  0.70640927755E+02  0.76450329795E+02  0.00000000000E+00 0. -1.
         22    1    3    3    0    0  0.11679007956E+03  0.69981957687E+02 -0.78790140304E+02  0.15730633584E+03  0.00000000000E+00 0.  1.
         22    1    3    3    0    0 -0.30230535839E+02 -0.21986679770E+01 -0.16514077866E+02  0.34517158136E+02  0.00000000000E+00 0.  1.
</event>
<event>
 7    1  0.6444902E-006  0.7043601E+02  0.7818608E-02  0.1365404E+00
          2   -1    0    0  502    0  0.00000000000E+00  0.00000000000E+00  0.41505247917E+03  0.41505247917E+03  0.00000000000E+00 0. -1.
          1   -1    0    0  501    0 -0.00000000000E+00 -0.00000000000E+00 -0.21449567661E+03  0.21449567661E+03  0.00000000000E+00 0. -1.
         25    2    1    2    0    0 -0.30103429940E+02  0.44875439552E+02  0.23000465165E+03  0.26729640471E+03  0.12500082647E+03 0.  0.
          2    1    1    2  501    0  0.71274252570E+02  0.74014672071E+01 -0.18211899244E+03  0.19570929514E+03  0.00000000000E+00 0. -1.
          1    1    1    2  502    0 -0.41170822631E+02 -0.52276906759E+02  0.15267114335E+03  0.16654245594E+03  0.00000000000E+00 0. -1.
         22    1    3    3    0    0  0.33679428806E+02  0.58609688051E+02  0.87532104703E+02  0.11059506685E+03  0.00000000000E+00 0. -1.
         22    1    3    3    0    0 -0.63782858745E+02 -0.13734248500E+02  0.14247254695E+03  0.15670133785E+03  0.00000000000E+00 0. -1.
</event>
<event>
 7    1  0.6444902E-006  0.1692217E+03  0.7818608E-02  0.1299605E+00
          2   -1    0    0  502    0  0.00000000000E+00  0.00000000000E+00  0.13586124523E+03  0.13586124523E+03  0.00000000000E+00 0. -1.
          1   -1    0    0  501    0 -0.00000000000E+00 -0.00000000000E+00 -0.47197690064E+03  0.47197690064E+03  0.00000000000E+00 0. -1.
         25    2    1    2    0    0 -0.24105689809E+02 -0.14519574569E+03 -0.58955470031E+02  0.20190016332E+03  0.12500015861E+03 0.  0.
          2    1    1    2  501    0  0.11817245922E+01 -0.49303143775E+02 -0.18130571790E+03  0.18789347993E+03  0.00000000000E+00 0. -1.
          1    1    1    2  502    0  0.22923965217E+02  0.19449888947E+03 -0.95854467480E+02  0.21804450262E+03  0.00000000000E+00 0. -1.
         22    1    3    3    0    0 -0.41054569346E+01 -0.15340185511E+03 -0.16606831738E+02  0.15435274791E+03  0.00000000000E+00 0. -1.
         22    1    3    3    0    0 -0.20000232874E+02  0.82061094145E+01 -0.42348638293E+02  0.47547415409E+02  0.00000000000E+00 0. -1.
</event>
<event>
 7    1  0.6444902E-006  0.1881869E+03  0.7818608E-02  0.1216370E+00
          2   -1    0    0  502    0  0.00000000000E+00  0.00000000000E+00  0.24006736813E+04  0.24006736813E+04  0.00000000000E+00 0. -1.
          1   -1    0    0  501    0 -0.00000000000E+00 -0.00000000000E+00 -0.34760386243E+03  0.34760386243E+03  0.00000000000E+00 0. -1.
         25    2    1    2    0    0  0.60300125746E+02  0.10701097729E+03  0.12215418780E+03  0.21362163942E+03  0.12500041921E+03 0.  0.
          2    1    1    2  501    0 -0.25389090582E+02 -0.20162699160E+03 -0.26638014926E+03  0.33504691251E+03  0.00000000000E+00 0. -1.
          1    1    1    2  502    0 -0.34911035164E+02  0.94616014309E+02  0.21972957804E+04  0.21996089918E+04  0.00000000000E+00 0. -1.
         22    1    3    3    0    0 -0.94822857992E+01  0.23188437096E+02  0.99003306573E+02  0.10212380756E+03  0.00000000000E+00 0.  1.
         22    1    3    3    0    0  0.69782411546E+02  0.83822540199E+02  0.23150881227E+02  0.11149783185E+03  0.00000000000E+00 0.  1.
</event>
<event>
 7    1  0.6444902E-006  0.2291598E+03  0.7818608E-02  0.1256063E+00
          2   -1    0    0  502    0  0.00000000000E+00  0.00000000000E+00  0.82563322205E+03  0.82563322205E+03  0.00000000000E+00 0. -1.
          1   -1    0    0  501    0 -0.00000000000E+00 -0.00000000000E+00 -0.39807200188E+03  0.39807200188E+03  0.00000000000E+00 0. -1.
         25    2    1    2    0    0 -0.22126030085E+03  0.15097509434E+03  0.23753816870E+03  0.37920739497E+03  0.12499706786E+03 0.  0.
          2    1    1    2  501    0  0.32012720157E+02 -0.44968574234E+02 -0.30188328477E+03  0.30688842360E+03  0.00000000000E+00 0. -1.
          1    1    1    2  502    0  0.18924758069E+03 -0.10600652010E+03  0.49190633624E+03  0.53760940536E+03  0.00000000000E+00 0. -1.
         22    1    3    3    0    0 -0.10119502175E+03  0.69354872076E+01  0.12318663225E+03  0.15957280399E+03  0.00000000000E+00 0.  1.
         22    1    3    3    0    0 -0.12006527909E+03  0.14403960713E+03  0.11435153645E+03  0.21963459098E+03  0.00000000000E+00 0.  1.
</event>
<event>
 7    1  0.6444902E-006  0.3571968E+02  0.7818608E-02  0.1601511E+00
          2   -1    0    0  502    0  0.00000000000E+00  0.00000000000E+00  0.35583241151E+03  0.35583241151E+03  0.00000000000E+00 0. -1.
          1   -1    0    0  501    0 -0.00000000000E+00 -0.00000000000E+00 -0.23794913607E+03  0.23794913607E+03  0.00000000000E+00 0. -1.
         25    2    1    2    0    0 -0.37693864367E+02  0.15319703735E+02 -0.84903424881E+02  0.15648996799E+03  0.12499999117E+03 0.  0.
          2    1    1    2  501    0  0.34726120255E+02  0.91838712230E+01 -0.11401007984E+03  0.11953470301E+03  0.00000000000E+00 0. -1.
          1    1    1    2  502    0  0.29677441118E+01 -0.24503574958E+02  0.31679678016E+03  0.31775687657E+03  0.00000000000E+00 0. -1.
         22    1    3    3    0    0 -0.13636902387E+02  0.59437608749E+02 -0.86943687177E+02  0.10619792456E+03  0.00000000000E+00 0.  1.
         22    1    3    3    0    0 -0.24056961979E+02 -0.44117905013E+02  0.20402622958E+01  0.50292043433E+02  0.00000000000E+00 0.  1.
</event>
<event>
 7    1  0.6444902E-006  0.9392297E+02  0.7818608E-02  0.1370487E+00
          2   -1    0    0  502    0  0.00000000000E+00  0.00000000000E+00  0.52784268429E+03  0.52784268429E+03  0.00000000000E+00 0. -1.
          1   -1    0    0  501    0 -0.00000000000E+00 -0.00000000000E+00 -0.28705176990E+03  0.28705176990E+03  0.00000000000E+00 0. -1.
         25    2    1    2    0    0  0.58266618751E+02  0.63379180026E+02  0.44235059369E+03  0.46766793769E+03  0.12500933118E+03 0.  0.
          2    1    1    2  501    0  0.38371519895E+02  0.28571158737E+02 -0.20824128283E+03  0.21366589930E+03  0.00000000000E+00 0. -1.
          1    1    1    2  502    0 -0.96638138647E+02 -0.91950338763E+02  0.66816035199E+01  0.13356061719E+03  0.00000000000E+00 0. -1.
         22    1    3    3    0    0  0.88163496062E+01 -0.19107342441E+02  0.75478797721E+01  0.22355962171E+02  0.00000000000E+00 0. -1.
         22    1    3    3    0    0  0.49450269145E+02  0.82486522467E+02  0.43480271392E+03  0.44531197552E+03  0.00000000000E+00 0. -1.
</event>
<event>
 7    1  0.6444902E-006  0.1105912E+03  0.7818608E-02  0.1364758E+00
          2   -1    0    0  502    0  0.00000000000E+00  0.00000000000E+00  0.12904567259E+04  0.12904567259E+04  0.00000000000E+00 0. -1.
          1   -1    0    0  501    0 -0.00000000000E+00 -0.00000000000E+00 -0.45431596158E+03  0.45431596158E+03  0.00000000000E+00 0. -1.
         25    2    1    2    0    0  0.10723833132E+02 -0.14094322433E+03  0.10223553232E+02  0.18896918242E+03  0.12499935113E+03 0.  0.
          2    1    1    2  501    0 -0.27636663044E+02  0.32432123004E+02 -0.36115607767E+03  0.36366102373E+03  0.00000000000E+00 0. -1.
          1    1    1    2  502    0  0.16912829912E+02  0.10851110132E+03  0.11870732887E+04  0.11921424813E+04  0.00000000000E+00 0. -1.
         22    1    3    3    0    0  0.18922469535E+02 -0.15715002638E+03 -0.13762677471E+02  0.15888235249E+03  0.00000000000E+00 0.  1.
         22    1    3    3    0    0 -0.81986364032E+01  0.16206802050E+02  0.23986230703E+02  0.30086829924E+02  0.00000000000E+00 0.  1.
</event>
<event>
 7    1  0.6444902E-006  0.1026657E+03  0.7818608E-02  0.1297827E+00
          2   -1    0    0  502    0  0.00000000000E+00  0.00000000000E+00  0.88559408049E+02  0.88559408049E+02  0.00000000000E+00 0. -1.
          1   -1    0    0  501    0 -0.00000000000E+00 -0.00000000000E+00 -0.17719982833E+04  0.17719982833E+04  0.00000000000E+00 0. -1.
         25    2    1    2    0    0 -0.19234834914E+02 -0.12494843462E+03 -0.41261689257E+03  0.44928879084E+03  0.12500250939E+03 0.  0.
          2    1    1    2  501    0 -0.58973731579E+02  0.57884915642E+02 -0.13012293063E+04  0.13038505558E+04  0.00000000000E+00 0. -1.
          1    1    1    2  502    0  0.78208566494E+02  0.67063518973E+02  0.30407323563E+02  0.10741834469E+03  0.00000000000E+00 0. -1.
         22    1    3    3    0    0 -0.29197202556E+01  0.25779755793E+02 -0.68797145170E+02  0.73526646590E+02  0.00000000000E+00 0.  1.
         22    1    3    3    0    0 -0.16315114659E+02 -0.15072819041E+03 -0.34381974740E+03  0.37576214425E+03  0.00000000000E+00 0.  1.
</event>
<event>
 7    1  0.6444902E-006  0.1127072E+03  0.7818608E-02  0.1350688E+00
          2   -1    0    0  502    0  0.00000000000E+00  0.00000000000E+00  0.21018310039E+04  0.21018310039E+04  0.00000000000E+00 0. -1.
          1   -1    0    0  501    0 -0.00000000000E+00 -0.00000000000E+00 -0.65172754348E+03  0.65172754348E+03  0.00000000000E+00 0. -1.
         25    2    1    2    0    0  0.14794024012E+02 -0.84895448586E+02 -0.87864406744E+02  0.17541584725E+03  0.12499786061E+03 0.  0.
          2    1    1    2  501    0  0.20916230835E+02  0.11557163023E+03 -0.51318312834E+03  0.52645153019E+03  0.00000000000E+00 0. -1.
          1    1    1    2  502    0 -0.35710254847E+02 -0.30676181639E+02  0.20511509955E+04  0.20516911700E+04  0.00000000000E+00 0. -1.
         22    1    3    3    0    0 -0.29647846848E+02 -0.67359216460E+02 -0.10182925741E+03  0.12564018677E+03  0.00000000000E+00 0.  1.
         22    1    3    3    0    0  0.44441870860E+02 -0.17536232126E+02  0.13964850670E+02  0.49775660488E+02  0.00000000000E+00 0.  1.
</event>
<event>
 7    1  0.9029140E-006  0.4045094E+02  0.7818608E-02  0.1532913E+00
          2   -1    0    0  502    0  0.00000000000E+00  0.00000000000E+00  0.12518302928E+04  0.12518302928E+04  0.00000000000E+00 0. -1.
          1   -1    0    0  501    0 -0.00000000000E+00 -0.00000000000E+00 -0.10654547885E+04  0.10654547885E+04  0.00000000000E+00 0. -1.
         25    2    1    2    0    0 -0.35073926011E+01 -0.77670651672E+01 -0.30308636166E+03  0.32796272638E+03  0.12500231265E+03 0.  0.
          2    1    1    2  501    0  0.87241331581E+01 -0.32381165651E+02 -0.74922443587E+03  0.74997460336E+03  0.00000000000E+00 0. -1.
          1    1    1    2  502    0 -0.52167405570E+01  0.40148230818E+02  0.12386863019E+04  0.12393477515E+04  0.00000000000E+00 0. -1.
         22    1    3    3    0    0 -0.62789355235E+02 -0.15971094333E+02 -0.17424459955E+03  0.18589986406E+03  0.00000000000E+00 0. -1.
         22    1    3    3    0    0  0.59281962634E+02  0.82040291661E+01 -0.12884176211E+03  0.14206286232E+03  0.00000000000E+00 0. -1.
</event>
<event>
 7    1  0.6444902E-006  0.1211500E+03  0.7818608E-02  0.1259684E+00
          2   -1    0    0  502    0  0.00000000000E+00  0.00000000000E+00  0.72249191900E+03  0.72249191900E+03  0.00000000000E+00 0. -1.
          1   -1    0    0  501    0 -0.00000000000E+00 -0.00000000000E+00 -0.10972523499E+04  0.10972523499E+04  0.00000000000E+00 0. -1.
         25    2    1    2    0    0 -0.25460814326E+02  0.51213379711E+02 -0.25235992543E+01  0.13748486077E+03  0.12499862024E+03 0.  0.
          2    1    1    2  501    0  0.74627459326E+02  0.67683858987E+02 -0.10184202477E+04  0.10233915005E+04  0.00000000000E+00 0. -1.
          1    1    1    2  502    0 -0.49166645000E+02 -0.11889723870E+03  0.64618341609E+03  0.65886790754E+03  0.00000000000E+00 0. -1.
         22    1    3    3    0    0  0.13758697927E+02  0.60026422257E+02 -0.47048769843E+02  0.77498773419E+02  0.00000000000E+00 0. -1.
         22    1    3    3    0    0 -0.39219512253E+02 -0.88130425456E+01  0.44525170589E+02  0.59986087356E+02  0.00000000000E+00 0. -1.
</event>
<event>
 7    1  0.6444902E-006  0.1525373E+03  0.7818608E-02  0.1252473E+00
          2   -1    0    0  502    0  0.00000000000E+00  0.00000000000E+00  0.23790326523E+04  0.23790326523E+04  0.00000000000E+00 0. -1.
          1   -1    0    0  501    0 -0.00000000000E+00 -0.00000000000E+00 -0.77991093448E+03  0.77991093448E+03  0.00000000000E+00 0. -1.
         25    2    1    2    0    0 -0.18798747229E+02 -0.76357527210E+02  0.31019914941E+02  0.15089988752E+03  0.12499870428E+03 0.  0.
          2    1    1    2  501    0  0.34020819023E+02 -0.78912632544E+02 -0.71473472622E+03  0.71988217687E+03  0.00000000000E+00 0. -1.
          1    1    1    2  502    0 -0.15222071794E+02  0.15527015975E+03  0.22828365291E+04  0.22881615224E+04  0.00000000000E+00 0. -1.
         22    1    3    3    0    0 -0.43722475171E+02  0.19975178414E+02  0.12754193876E+02  0.49732605493E+02  0.00000000000E+00 0.  1.
         22    1    3    3    0    0  0.24923727942E+02 -0.96332705623E+02  0.18265721066E+02  0.10116728203E+03  0.00000000000E+00 0.  1.
</event>
<event>
 7    1  0.6444902E-006  0.5385804E+02  0.7818608E-02  0.1479995E+00
          2   -1    0    0  502    0  0.00000000000E+00  0.00000000000E+00  0.24338334260E+04  0.24338334260E+04  0.00000000000E+00 0. -1.
          1   -1    0    0  501    0 -0.00000000000E+00 -0.00000000000E+00 -0.17719826274E+03  0.17719826274E+03  0.00000000000E+00 0. -1.
         25    2    1    2    0    0 -0.86203046902E+02 -0.24958649657E+02  0.74544618961E+02  0.17098507328E+03  0.12500038232E+03 0.  0.
          2    1    1    2  501    0  0.34575558642E+02  0.10454118061E+02 -0.12613145394E+03  0.13120175880E+03  0.00000000000E+00 0. -1.
          1    1    1    2  502    0  0.51627488260E+02  0.14504531597E+02  0.23082219982E+04  0.23088448566E+04  0.00000000000E+00 0. -1.
         22    1    3    3    0    0 -0.96464792607E+02  0.27593846741E+02  0.48894397533E+02  0.11161334464E+03  0.00000000000E+00 0.  1.
         22    1    3    3    0    0  0.10261745705E+02 -0.52552496398E+02  0.25650221429E+02  0.59371728642E+02  0.00000000000E+00 0.  1.
</event>
<event>
 7    1  0.6444902E-006  0.8343578E+02  0.7818608E-02  0.1495140E+00
          2   -1    0    0  502    0  0.00000000000E+00  0.00000000000E+00  0.24346911752E+03  0.24346911752E+03  0.00000000000E+00 0. -1.
          1   -1    0    0  501    0 -0.00000000000E+00 -0.00000000000E+00 -0.12385158086E+03  0.12385158086E+03  0.00000000000E+00 0. -1.
         25    2    1    2    0    0  0.71300366789E+02 -0.47344062597E+00  0.71143818516E+02  0.16053158795E+03  0.12499992547E+03 0.  0.
          2    1    1    2  501    0 -0.84714315455E+02 -0.15650614718E+02 -0.54342332011E+02  0.10185551547E+03  0.00000000000E+00 0. -1.
          1    1    1    2  502    0  0.13413948666E+02  0.16124055344E+02  0.10281605016E+03  0.10493359495E+03  0.00000000000E+00 0. -1.
         22    1    3    3    0    0  0.26673370752E+02  0.82396670375E+01  0.10188813630E+03  0.10564351915E+03  0.00000000000E+00 0.  1.
         22    1    3    3    0    0  0.44626996038E+02 -0.87131076635E+01 -0.30744317786E+02  0.54888068800E+02  0.00000000000E+00 0.  1.
</event>
<event>
 7    1  0.6444902E-006  0.4405156E+02  0.7818608E-02  0.1528353E+00
          2   -1    0    0  502    0  0.00000000000E+00  0.00000000000E+00  0.22393878739E+04  0.22393878739E+04  0.00000000000E+00 0. -1.
          1   -1    0    0  501    0 -0.00000000000E+00 -0.00000000000E+00 -0.10433209120E+02  0.10433209120E+02  0.00000000000E+00 0. -1.
         25    2    1    2    0    0  0.40004319957E+02 -0.11289751239E+02  0.19131148300E+04  0.19176448041E+04  0.12500175114E+03 0.  0.
          2    1    1    2  501    0 -0.39564989821E+02 -0.20441667162E+02  0.61866817975E+02  0.76228297516E+02  0.00000000000E+00 0. -1.
          1    1    1    2  502    0 -0.43933013655E+00  0.31731418402E+02  0.25397301680E+03  0.25594798141E+03  0.00000000000E+00 0. -1.
         22    1    3    3    0    0  0.54987403421E+02  0.88384708128E-01  0.18674078661E+04  0.18682172681E+04  0.00000000000E+00 0.  1.
         22    1    3    3    0    0 -0.14983083464E+02 -0.11378135948E+02  0.45706963879E+02  0.49427535997E+02  0.00000000000E+00 0.  1.
</event>
<event>
 7    1  0.7335807E-006  0.7380296E+02  0.7818608E-02  0.1352939E+00
          2   -1    0    0  502    0  0.00000000000E+00  0.00000000000E+00  0.49585187920E+03  0.49585187920E+03  0.00000000000E+00 0. -1.
          1   -1    0    0  501    0 -0.00000000000E+00 -0.00000000000E+00 -0.22926999863E+04  0.22926999863E+04  0.00000000000E+00 0. -1.
         25    2    1    2    0    0 -0.58955509330E+02 -0.67400611660E+02 -0.99564840598E+03  0.10074529870E+04  0.12500871260E+03 0.  0.
          2    1    1    2  501    0  0.75831531190E+02 -0.10798892365E+01 -0.12874894311E+04  0.12897211413E+04  0.00000000000E+00 0. -1.
          1    1    1    2  502    0 -0.16876021860E+02  0.68480500897E+02  0.48628972993E+03  0.49137773714E+03  0.00000000000E+00 0. -1.
         22    1    3    3    0    0 -0.23965165897E+02 -0.54504999918E+02 -0.93037501304E+03  0.93227827878E+03  0.00000000000E+00 0. -1.
         22    1    3    3    0    0 -0.34990343433E+02 -0.12895611742E+02 -0.65273392936E+02  0.75174708254E+02  0.00000000000E+00 0. -1.
</event>
<event>
 7    1  0.6444902E-006  0.1153699E+03  0.7818608E-02  0.1369688E+00
          2   -1    0    0  502    0  0.00000000000E+00  0.00000000000E+00  0.15742557332E+04  0.15742557332E+04  0.00000000000E+00 0. -1.
          1   -1    0    0  501    0 -0.00000000000E+00 -0.00000000000E+00 -0.84125062515E+03  0.84125062515E+03  0.00000000000E+00 0. -1.
         25    2    1    2    0    0 -0.54554616347E+02  0.88484785977E+02 -0.58189790840E+02  0.17267545725E+03  0.12499999305E+03 0.  0.
          2    1    1    2  501    0  0.24857629011E+02 -0.11408063381E+03 -0.72086677378E+03  0.73026104803E+03  0.00000000000E+00 0. -1.
          1    1    1    2  502    0  0.29696987336E+02  0.25595847837E+02  0.15120616727E+04  0.15125698531E+04  0.00000000000E+00 0. -1.
         22    1    3    3    0    0 -0.44998731621E+02  0.55840779692E+02  0.30315202851E+02  0.77859424914E+02  0.00000000000E+00 0. -1.
         22    1    3    3    0    0 -0.95558847251E+01  0.32644006285E+02 -0.88504993691E+02  0.94816032333E+02  0.00000000000E+00 0. -1.
</event>
<event>
 7    1  0.6444902E-006  0.4330685E+02  0.7818608E-02  0.1491672E+00
          2   -1    0    0  502    0  0.00000000000E+00  0.00000000000E+00  0.71126371651E+03  0.71126371651E+03  0.00000000000E+00 0. -1.
          1   -1    0    0  501    0 -0.00000000000E+00 -0.00000000000E+00 -0.18625915056E+03  0.18625915056E+03  0.00000000000E+00 0. -1.
         25    2    1    2    0    0 -0.22322665395E+02  0.48071921684E+02  0.56791061216E+02  0.14717550131E+03  0.12500476993E+03 0.  0.
          2    1    1    2  501    0 -0.18194663500E+02 -0.39603994481E+02 -0.13697667449E+03  0.14374328337E+03  0.00000000000E+00 0. -1.
          1    1    1    2  502    0  0.40517328895E+02 -0.84679272029E+01  0.60519017923E+03  0.60660408239E+03  0.00000000000E+00 0. -1.
         22    1    3    3    0    0 -0.64556166364E+02  0.19407175673E+02 -0.43242419366E+01  0.67548768690E+02  0.00000000000E+00 0. -1.
         22    1    3    3    0    0  0.42233500969E+02  0.28664746010E+02  0.61115303153E+02  0.79626732618E+02  0.00000000000E+00 0. -1.
</event>
<event>
 7    1  0.6444902E-006  0.1251451E+03  0.7818608E-02  0.1265904E+00
          2   -1    0    0  502    0  0.00000000000E+00  0.00000000000E+00  0.17458772832E+04  0.17458772832E+04  0.00000000000E+00 0. -1.
          1   -1    0    0  501    0 -0.00000000000E+00 -0.00000000000E+00 -0.12335963435E+04  0.12335963435E+04  0.00000000000E+00 0. -1.
         25    2    1    2    0    0 -0.13893201450E+03 -0.15508262504E+03 -0.74972356011E+02  0.25415957817E+03  0.12499404694E+03 0.  0.
          2    1    1    2  501    0  0.97791405249E+02  0.73045247489E+02 -0.10642680361E+04  0.10712447058E+04  0.00000000000E+00 0. -1.
          1    1    1    2  502    0  0.41140609248E+02  0.82037377548E+02  0.16515213318E+04  0.16540693427E+04  0.00000000000E+00 0. -1.
         22    1    3    3    0    0 -0.13881113577E+03 -0.15251338346E+03 -0.99866057636E+02  0.22913335204E+03  0.00000000000E+00 0.  1.
         22    1    3    3    0    0 -0.12087872769E+00 -0.25692415740E+01  0.24893701626E+02  0.25026226135E+02  0.00000000000E+00 0.  1.
</event>
<event>
 7    1  0.6444902E-006  0.5519607E+02  0.7818608E-02  0.1468248E+00
          2   -1    0    0  502    0  0.00000000000E+00  0.00000000000E+00  0.64428277123E+02  0.64428277123E+02  0.00000000000E+00 0. -1.
          1   -1    0    0  501    0 -0.00000000000E+00 -0.00000000000E+00 -0.59335723834E+03  0.59335723834E+03  0.00000000000E+00 0. -1.
         25    2    1    2    0    0 -0.65759622236E+01 -0.33422406849E+02 -0.14812131646E+03  0.19678668116E+03  0.12499909173E+03 0.  0.
          2    1    1    2  501    0 -0.38010610746E+02 -0.48683181067E+01 -0.39793986189E+03  0.39978074082E+03  0.00000000000E+00 0. -1.
          1    1    1    2  502    0  0.44586572970E+02  0.38290724955E+02  0.17132217126E+02  0.61218093489E+02  0.00000000000E+00 0. -1.
         22    1    3    3    0    0 -0.21796219109E+02 -0.78204421300E+02 -0.81066472018E+02  0.11472915743E+03  0.00000000000E+00 0. -1.
         22    1    3    3    0    0  0.15220256886E+02  0.44782014451E+02 -0.67054844437E+02  0.82057523729E+02  0.00000000000E+00 0. -1.
</event>
<event>
 7    1  0.6444902E-006  0.1271331E+03  0.7818608E-02  0.1356308E+00
          2   -1    0    0  502    0  0.00000000000E+00  0.00000000000E+00  0.11870296942E+03  0.11870296942E+03  0.00000000000E+00 0. -1.
          1   -1    0    0  501    0 -0.00000000000E+00 -0.00000000000E+00 -0.23884030138E+04  0.23884030138E+04  0.00000000000E+00 0. -1.
         25    2    1    2    0    0 -0.50027008075E+02  0.14927865377E+03 -0.89359549880E+03  0.91592903861E+03  0.12500508100E+03 0.  0.
          2    1    1    2  501    0  0.31190096564E+02 -0.24709119214E+02 -0.14463728584E+04  0.14469201112E+04  0.00000000000E+00 0. -1.
          1    1    1    2  502    0  0.18836911512E+02 -0.12456953456E+03  0.70268312877E+02  0.14425683335E+03  0.00000000000E+00 0. -1.
         22    1    3    3    0    0 -0.49056740140E+02  0.16741606066E+03 -0.86207424482E+03  0.87954914854E+03  0.00000000000E+00 0.  1.
         22    1    3    3    0    0 -0.97026793591E+00 -0.18137406889E+02 -0.31521253984E+02  0.36379890067E+02  0.00000000000E+00 0.  1.
</event>
<event>
 7    1  0.6444902E-006  0.5070540E+02  0.7818608E-02  0.1459525E+00
          2   -1    0    0  502    0  0.00000000000E+00  0.00000000000E+00  0.12258958147E+04  0.12258958147E+04  0.00000000000E+00 0. -1.
          1   -1    0    0  501    0 -0.00000000000E+00 -0.00000000000E+00 -0.11357992059E+03  0.11357992059E+03  0.00000000000E+00 0. -1.
         25    2    1    2    0    0 -0.54418641876E+02 -0.73626970387E+02  0.26037679748E+03  0.30299283719E+03  0.12500505339E+03 0.  0.
          2    1    1    2  501    0  0.17209280006E+02  0.40960027465E+02 -0.86232929995E+02  0.97005161635E+02  0.00000000000E+00 0. -1.
          1    1    1    2  502    0  0.37209361870E+02  0.32666942921E+02  0.93817202661E+03  0.93947773645E+03  0.00000000000E+00 0. -1.
         22    1    3    3    0    0 -0.53073985104E+02 -0.11143511011E+02  0.25470431460E+02  0.59914677761E+02  0.00000000000E+00 0. -1.
         22    1    3    3    0    0 -0.13446567721E+01 -0.62483459376E+02  0.23490636602E+03  0.24307815943E+03  0.00000000000E+00 0. -1.
</event>
<event>
 7    1  0.6444902E-006  0.2736461E+03  0.7818608E-02  0.1196981E+00
          2   -1    0    0  502    0  0.00000000000E+00  0.00000000000E+00  0.46075787081E+03  0.46075787081E+03  0.00000000000E+00 0. -1.
          1   -1    0    0  501    0 -0.00000000000E+00 -0.00000000000E+00 -0.42732122074E+03  0.42732122074E+03  0.00000000000E+00 0. -1.
         25    2    1    2    0    0  0.25697090050E+03  0.81343899788E+02  0.38498827080E+02  0.29960740051E+03  0.12502624132E+03 0.  0.
          2    1    1    2  501    0 -0.27901752126E+03  0.11696568053E+01 -0.22120447578E+03  0.35606679904E+03  0.00000000000E+00 0. -1.
          1    1    1    2  502    0  0.22046620766E+02 -0.82513556593E+02  0.21614229877E+03  0.23240489201E+03  0.00000000000E+00 0. -1.
         22    1    3    3    0    0  0.68997453556E+02  0.53008990031E+02 -0.37676033942E+02  0.94816059583E+02  0.00000000000E+00 0. -1.
         22    1    3    3    0    0  0.18797344694E+03  0.28334909757E+02  0.76174861022E+02  0.20479134093E+03  0.00000000000E+00 0. -1.
</event>
<event>
 7    1  0.6444902E-006  0.7684766E+02  0.7818608E-02  0.1508538E+00
          2   -1    0    0  502    0  0.00000000000E+00  0.00000000000E+00  0.76388309021E+03  0.76388309021E+03  0.00000000000E+00 0. -1.
          1   -1    0    0  501    0 -0.00000000000E+00 -0.00000000000E+00 -0.12090159879E+03  0.12090159879E+03  0.00000000000E+00 0. -1.
         25    2    1    2    0    0 -0.47373500894E+02  0.72315885800E+02  0.68783294826E+02  0.16682314366E+03  0.12499993476E+03 0.  0.
          2    1    1    2  501    0 -0.77504231982E+01 -0.19274432761E+02 -0.68061859277E+02  0.71161713767E+02  0.00000000000E+00 0. -1.
          1    1    1    2  502    0  0.55123924092E+02 -0.53041453038E+02  0.64226005587E+03  0.64679983157E+03  0.00000000000E+00 0. -1.
         22    1    3    3    0    0  0.34714463010E+02  0.14117511309E+02  0.53085603677E+02  0.64980607764E+02  0.00000000000E+00 0. -1.
         22    1    3    3    0    0 -0.82087963903E+02  0.58198374491E+02  0.15697691148E+02  0.10184253590E+03  0.00000000000E+00 0. -1.
</event>
<event>
 7    1  0.6444902E-006  0.5834870E+02  0.7818608E-02  0.1417339E+00
          2   -1    0    0  502    0  0.00000000000E+00  0.00000000000E+00  0.10645095329E+04  0.10645095329E+04  0.00000000000E+00 0. -1.
          1   -1    0    0  501    0 -0.00000000000E+00 -0.00000000000E+00 -0.29778562195E+02  0.29778562195E+02  0.00000000000E+00 0. -1.
         25    2    1    2    0    0  0.30526868069E+02 -0.68385931744E+02  0.40946609276E+03  0.43462159181E+03  0.12499968646E+03 0.  0.
          2    1    1    2  501    0  0.24142272809E+02  0.47134536417E+02  0.28718258201E+02  0.60243275258E+02  0.00000000000E+00 0. -1.
          1    1    1    2  502    0 -0.54669140878E+02  0.21251395327E+02  0.59654661974E+03  0.59942322802E+03  0.00000000000E+00 0. -1.
         22    1    3    3    0    0  0.25731818682E+02 -0.13405266674E+02  0.35795244671E+03  0.35912641475E+03  0.00000000000E+00 0. -1.
         22    1    3    3    0    0  0.47950493876E+01 -0.54980665070E+02  0.51513646052E+02  0.75495177063E+02  0.00000000000E+00 0. -1.
</event>
<event>
 7    1  0.6444902E-006  0.5171311E+02  0.7818608E-02  0.1490669E+00
          2   -1    0    0  502    0  0.00000000000E+00  0.00000000000E+00  0.53370193413E+03  0.53370193413E+03  0.00000000000E+00 0. -1.
          1   -1    0    0  501    0 -0.00000000000E+00 -0.00000000000E+00 -0.28830980263E+03  0.28830980263E+03  0.00000000000E+00 0. -1.
         25    2    1    2    0    0 -0.37684376227E+02 -0.75659859684E+01  0.18358497880E+03  0.22540127129E+03  0.12499972921E+03 0.  0.
          2    1    1    2  501    0  0.30917546998E+02  0.41810655079E+02 -0.26393225253E+03  0.26900605851E+03  0.00000000000E+00 0. -1.
          1    1    1    2  502    0  0.67668292290E+01 -0.34244669111E+02  0.32573940523E+03  0.32760440696E+03  0.00000000000E+00 0. -1.
         22    1    3    3    0    0  0.14697073525E+02 -0.39522586382E+02  0.13014017927E+02  0.44129394593E+02  0.00000000000E+00 0.  1.
         22    1    3    3    0    0 -0.52381449752E+02  0.31956600414E+02  0.17057096087E+03  0.18127187669E+03  0.00000000000E+00 0.  1.
</event>
<event>
 7    1  0.6444902E-006  0.1663833E+03  0.7818608E-02  0.1262749E+00
          2   -1    0    0  502    0  0.00000000000E+00  0.00000000000E+00  0.22303395829E+04  0.22303395829E+04  0.00000000000E+00 0. -1.
          1   -1    0    0  501    0 -0.00000000000E+00 -0.00000000000E+00 -0.20132875304E+03  0.20132875304E+03  0.00000000000E+00 0. -1.
         25    2    1    2    0    0  0.74706175017E+02 -0.14062250553E+03  0.12656980777E+04  0.12817847307E+04  0.12499908094E+03 0.  0.
          2    1    1    2  501    0 -0.85024624803E+01  0.16678744873E+03 -0.15557595991E+03  0.22824159180E+03  0.00000000000E+00 0. -1.
          1    1    1    2  502    0 -0.66203712537E+02 -0.26164943200E+02  0.91888871209E+03  0.92164201348E+03  0.00000000000E+00 0. -1.
         22    1    3    3    0    0  0.10559094639E+03 -0.12994417105E+03  0.11215116838E+04  0.11339415296E+04  0.00000000000E+00 0. -1.
         22    1    3    3    0    0 -0.30884771371E+02 -0.10678334484E+02  0.14418639392E+03  0.14784320113E+03  0.00000000000E+00 0. -1.
</event>
<event>
 7    1  0.6444902E-006  0.1271367E+03  0.7818608E-02  0.1343588E+00
          2   -1    0    0  502    0  0.00000000000E+00  0.00000000000E+00  0.61311069049E+03  0.61311069049E+03  0.00000000000E+00 0. -1.
          1   -1    0    0  501    0 -0.00000000000E+00 -0.00000000000E+00 -0.43435276174E+03  0.43435276174E+03  0.00000000000E+00 0. -1.
         25    2    1    2    0    0  0.95550270751E+02  0.35101785605E+02  0.84719096402E+02  0.18210953684E+03  0.12499827406E+03 0.  0.
          2    1    1    2  501    0 -0.10280406930E+03 -0.78856128300E+02 -0.37369679795E+03  0.39552024276E+03  0.00000000000E+00 0. -1.
          1    1    1    2  502    0  0.72537985524E+01  0.43754342695E+02  0.46773563029E+03  0.46983367264E+03  0.00000000000E+00 0. -1.
         22    1    3    3    0    0 -0.41065719303E+01  0.44366202688E+02  0.67006166873E+02  0.80467697078E+02  0.00000000000E+00 0.  1.
         22    1    3    3    0    0  0.99656842681E+02 -0.92644170826E+01  0.17712929529E+02  0.10164183976E+03  0.00000000000E+00 0.  1.
</event>
<event>
 7    1  0.6444902E-006  0.4312349E+02  0.7818608E-02  0.1489562E+00
          2   -1    0    0  502    0  0.00000000000E+00  0.00000000000E+00  0.48609612061E+03  0.48609612061E+03  0.00000000000E+00 0. -1.
          1   -1    0    0  501    0 -0.00000000000E+00 -0.00000000000E+00 -0.24439257937E+03  0.24439257937E+03  0.00000000000E+00 0. -1.
         25    2    1    2    0    0 -0.48854169747E+02 -0.13435547889E+02 -0.66031506310E+02  0.15016760278E+03  0.12499162072E+03 0.  0.
          2    1    1    2  501    0  0.16702574837E+02  0.40743859264E+02 -0.13169968391E+03  0.13886628394E+03  0.00000000000E+00 0. -1.
          1    1    1    2  502    0  0.32151594910E+02 -0.27308311375E+02  0.43943473146E+03  0.44145481325E+03  0.00000000000E+00 0. -1.
         22    1    3    3    0    0 -0.13615414768E+02  0.45432139048E+02  0.92396340261E+01  0.48320074655E+02  0.00000000000E+00 0.  1.
         22    1    3    3    0    0 -0.35238754979E+02 -0.58867686937E+02 -0.75271140336E+02  0.10184752813E+03  0.00000000000E+00 0.  1.
</event>
<event>
 7    1  0.6444902E-006  0.1693800E+03  0.7818608E-02  0.1352075E+00
          2   -1    0    0  502    0  0.00000000000E+00  0.00000000000E+00  0.77094935718E+03  0.77094935718E+03  0.00000000000E+00 0. -1.
          1   -1    0    0  501    0 -0.00000000000E+00 -0.00000000000E+00 -0.27746641513E+04  0.27746641513E+04  0.00000000000E+00 0. -1.
         25    2    1    2    0    0 -0.25475693295E+02  0.19510874004E+03 -0.54241141626E+03  0.59038281811E+03  0.12500118415E+03 0.  0.
          2    1    1    2  501    0  0.22444958858E+02 -0.16429961905E+03 -0.22048313857E+04  0.22110584752E+04  0.00000000000E+00 0. -1.
          1    1    1    2  502    0  0.30307344368E+01 -0.30809120993E+02  0.74352800792E+03  0.74417221518E+03  0.00000000000E+00 0. -1.
         22    1    3    3    0    0 -0.52751103105E+02  0.19794818597E+03 -0.49307424939E+03  0.53393668034E+03  0.00000000000E+00 0. -1.
         22    1    3    3    0    0  0.27275409811E+02 -0.28394459283E+01 -0.49337166870E+02  0.56446137763E+02  0.00000000000E+00 0. -1.
</event>
<event>
 7    1  0.6444902E-006  0.2558469E+03  0.7818608E-02  0.1208193E+00
          2   -1    0    0  502    0  0.00000000000E+00  0.00000000000E+00  0.27613179770E+04  0.27613179770E+04  0.00000000000E+00 0. -1.
          1   -1    0    0  501    0 -0.00000000000E+00 -0.00000000000E+00 -0.35615267638E+03  0.35615267638E+03  0.00000000000E+00 0. -1.
         25    2    1    2    0    0 -0.29994098420E+03 -0.13213188897E+03  0.42515344766E+03  0.55118435683E+03  0.12500124428E+03 0.  0.
          2    1    1    2  501    0  0.22172184463E+03  0.11139606576E+03 -0.23975833774E+03  0.34504162122E+03  0.00000000000E+00 0. -1.
          1    1    1    2  502    0  0.78219139565E+02  0.20735823210E+02  0.22197701907E+04  0.22212446753E+04  0.00000000000E+00 0. -1.
         22    1    3    3    0    0 -0.22765007098E+03 -0.15294380616E+03  0.35226176231E+03  0.44643556292E+03  0.00000000000E+00 0.  1.
         22    1    3    3    0    0 -0.72290913223E+02  0.20811917187E+02  0.72891685350E+02  0.10474879391E+03  0.00000000000E+00 0.  1.
</event>
<event>
 7    1  0.6444902E-006  0.7508662E+02  0.7818608E-02  0.1402641E+00
          2   -1    0    0  502    0  0.00000000000E+00  0.00000000000E+00  0.17037821181E+04  0.17037821181E+04  0.00000000000E+00 0. -1.
          1   -1    0    0  501    0 -0.00000000000E+00 -0.00000000000E+00 -0.14183806832E+03  0.14183806832E+03  0.00000000000E+00 0. -1.
         25    2    1    2    0    0 -0.11847711909E+03 -0.18569901590E+02  0.59335530323E+02  0.18310585901E+03  0.12500152580E+03 0.  0.
          2    1    1    2  501    0  0.44212431032E+02  0.13245800236E+02 -0.72338582181E+02  0.85808279050E+02  0.00000000000E+00 0. -1.
          1    1    1    2  502    0  0.74264688054E+02  0.53241013544E+01  0.15749471017E+04  0.15767060484E+04  0.00000000000E+00 0. -1.
         22    1    3    3    0    0  0.17236408881E+02 -0.22148693779E+01 -0.18843321042E+02  0.25633380296E+02  0.00000000000E+00 0. -1.
         22    1    3    3    0    0 -0.13571352797E+03 -0.16355032212E+02  0.78178851366E+02  0.15747247872E+03  0.00000000000E+00 0. -1.
</event>
<event>
 7    1  0.6444902E-006  0.1196140E+03  0.7818608E-02  0.1377437E+00
          2   -1    0    0  502    0  0.00000000000E+00  0.00000000000E+00  0.63782055647E+03  0.63782055647E+03  0.00000000000E+00 0. -1.
          1   -1    0    0  501    0 -0.00000000000E+00 -0.00000000000E+00 -0.10551462919E+04  0.10551462919E+04  0.00000000000E+00 0. -1.
         25    2    1    2    0    0  0.33980137303E+02  0.12982619864E+03  0.10673172613E+03  0.21219624403E+03  0.12500437206E+03 0.  0.
          2    1    1    2  501    0  0.23446362491E+02 -0.26624691946E+02 -0.99480329024E+03  0.99543567969E+03  0.00000000000E+00 0. -1.
          1    1    1    2  502    0 -0.57426499794E+02 -0.10320150669E+03  0.47074582868E+03  0.48533492464E+03  0.00000000000E+00 0. -1.
         22    1    3    3    0    0  0.51948130483E+02  0.45788745251E+02  0.10556619331E+03  0.12625148958E+03  0.00000000000E+00 0. -1.
         22    1    3    3    0    0 -0.17967993180E+02  0.84037453385E+02  0.11655328208E+01  0.85944754448E+02  0.00000000000E+00 0. -1.
</event>
<event>
 7    1  0.6444902E-006  0.5624292E+02  0.7818608E-02  0.1514442E+00
          2   -1    0    0  502    0  0.00000000000E+00  0.00000000000E+00  0.86586742741E+03  0.86586742741E+03  0.00000000000E+00 0. -1.
          1   -1    0    0  501    0 -0.00000000000E+00 -0.00000000000E+00 -0.12788484353E+04  0.12788484353E+04  0.00000000000E+00 0. -1.
         25    2    1    2    0    0  0.50902212823E+02 -0.57268441745E+02 -0.30501323392E+03  0.33842146799E+03  0.12500122975E+03 0.  0.
          2    1    1    2  501    0 -0.35304326275E+01  0.27044291747E+02 -0.95600677243E+03  0.95639573744E+03  0.00000000000E+00 0. -1.
          1    1    1    2  502    0 -0.47371780196E+02  0.30224149998E+02  0.84803899844E+03  0.84989865730E+03  0.00000000000E+00 0. -1.
         22    1    3    3    0    0  0.56422657015E+02 -0.35855882745E+02 -0.30882909044E+03  0.31598191033E+03  0.00000000000E+00 0. -1.
         22    1    3    3    0    0 -0.55204441917E+01 -0.21412559000E+02  0.38158565213E+01  0.22439557661E+02  0.00000000000E+00 0. -1.
</event>
<event>
 7    1  0.6444902E-006  0.2063009E+03  0.7818608E-02  0.1292128E+00
          2   -1    0    0  502    0  0.00000000000E+00  0.00000000000E+00  0.16138099894E+04  0.16138099894E+04  0.00000000000E+00 0. -1.
          1   -1    0    0  501    0 -0.00000000000E+00 -0.00000000000E+00 -0.10864172220E+04  0.10864172220E+04  0.00000000000E+00 0. -1.
         25    2    1    2    0    0  0.17022806572E+03  0.19740411314E+02  0.26553231275E+03  0.33985302596E+03  0.12500156776E+03 0.  0.
          2    1    1    2  501    0  0.42375533120E+02  0.91848658815E+01 -0.10400239194E+04  0.10409273752E+04  0.00000000000E+00 0. -1.
          1    1    1    2  502    0 -0.21260359884E+03 -0.28925277196E+02  0.13018843740E+04  0.13194468103E+04  0.00000000000E+00 0. -1.
         22    1    3    3    0    0  0.34306104691E+02 -0.41805753130E+02  0.32342092952E+02  0.63013020800E+02  0.00000000000E+00 0. -1.
         22    1    3    3    0    0  0.13592196103E+03  0.61546164445E+02  0.23319021980E+03  0.27684000516E+03  0.00000000000E+00 0. -1.
</event>
<event>
 7    1  0.6444902E-006  0.7956511E+02  0.7818608E-02  0.1448515E+00
          2   -1    0    0  502    0  0.00000000000E+00  0.00000000000E+00  0.95223728210E+03  0.95223728210E+03  0.00000000000E+00 0. -1.
          1   -1    0    0  501    0 -0.00000000000E+00 -0.00000000000E+00 -0.49786450989E+03  0.49786450989E+03  0.00000000000E+00 0. -1.
         25    2    1    2    0    0 -0.28838343520E+02 -0.50764222186E+02  0.57741813238E+02  0.14956010707E+03  0.12500180926E+03 0.  0.
          2    1    1    2  501    0  0.12359105415E+02 -0.28093209444E+02 -0.44951889121E+03  0.45056543304E+03  0.00000000000E+00 0. -1.
          1    1    1    2  502    0  0.16479238105E+02  0.78857431630E+02  0.84614985017E+03  0.84997625188E+03  0.00000000000E+00 0. -1.
         22    1    3    3    0    0 -0.46236407889E+02 -0.81983996561E+02  0.17496115348E+02  0.95735548042E+02  0.00000000000E+00 0.  1.
         22    1    3    3    0    0  0.17398064368E+02  0.31219774375E+02  0.40245697890E+02  0.53824559027E+02  0.00000000000E+00 0.  1.
</event>
<event>
 7    1  0.6444902E-006  0.1456532E+03  0.7818608E-02  0.1322975E+00
          2   -1    0    0  502    0  0.00000000000E+00  0.00000000000E+00  0.24000792749E+03  0.24000792749E+03  0.00000000000E+00 0. -1.
          1   -1    0    0  501    0 -0.00000000000E+00 -0.00000000000E+00 -0.19231602734E+03  0.19231602734E+03  0.00000000000E+00 0. -1.
         25    2    1    2    0    0 -0.12976801208E+03  0.47674314609E+02 -0.60256332201E+02  0.19587785273E+03  0.12499892154E+03 0.  0.
          2    1    1    2  501    0  0.16318401603E+03 -0.15528677702E+02  0.86780013536E+02  0.18547488689E+03  0.00000000000E+00 0. -1.
          1    1    1    2  502    0 -0.33416003944E+02 -0.32145636907E+02  0.21168218814E+02  0.50971215206E+02  0.00000000000E+00 0. -1.
         22    1    3    3    0    0 -0.93955237324E+02  0.48217182362E+02 -0.97838910050E+02  0.14396157687E+03  0.00000000000E+00 0.  1.
         22    1    3    3    0    0 -0.35812774758E+02 -0.54286775278E+00  0.37582577849E+02  0.51916275859E+02  0.00000000000E+00 0.  1.
</event>
<event>
 7    1  0.6444902E-006  0.5137845E+02  0.7818608E-02  0.1455486E+00
          2   -1    0    0  502    0  0.00000000000E+00  0.00000000000E+00  0.21264013043E+03  0.21264013043E+03  0.00000000000E+00 0. -1.
          1   -1    0    0  501    0 -0.00000000000E+00 -0.00000000000E+00 -0.38943880133E+03  0.38943880133E+03  0.00000000000E+00 0. -1.
         25    2    1    2    0    0  0.30901240886E+02 -0.72207765166E+01  0.27744840800E+02  0.13192183022E+03  0.12500626702E+03 0.  0.
          2    1    1    2  501    0 -0.10627200460E+02 -0.43888315504E+02 -0.33005535922E+03  0.33313009737E+03  0.00000000000E+00 0. -1.
          1    1    1    2  502    0 -0.20274040427E+02  0.51109092020E+02  0.12551184752E+03  0.13702700416E+03  0.00000000000E+00 0. -1.
         22    1    3    3    0    0  0.71535514666E+02 -0.12620122853E+02 -0.13373930783E+02  0.73861081660E+02  0.00000000000E+00 0.  1.
         22    1    3    3    0    0 -0.40634273779E+02  0.53993463368E+01  0.41118771583E+02  0.58060748556E+02  0.00000000000E+00 0.  1.
</event>
<event>
 7    1  0.6444902E-006  0.6900827E+02  0.7818608E-02  0.1384012E+00
          2   -1    0    0  502    0  0.00000000000E+00  0.00000000000E+00  0.33621508328E+04  0.33621508328E+04  0.00000000000E+00 0. -1.
          1   -1    0    0  501    0 -0.00000000000E+00 -0.00000000000E+00 -0.90379327978E+02  0.90379327978E+02  0.00000000000E+00 0. -1.
         25    2    1    2    0    0  0.16855705148E+02  0.11304984744E+03  0.18762666259E+04  0.18838964374E+04  0.12499980974E+03 0.  0.
          2    1    1    2  501    0  0.10317771843E+02 -0.57365337406E+02 -0.76026717567E+02  0.95798226161E+02  0.00000000000E+00 0. -1.
          1    1    1    2  502    0 -0.27173476991E+02 -0.55684510036E+02  0.14715315964E+04  0.14728354972E+04  0.00000000000E+00 0. -1.
         22    1    3    3    0    0 -0.52279416284E+02  0.36805975950E+02  0.56782967186E+03  0.57141784490E+03  0.00000000000E+00 0.  1.
         22    1    3    3    0    0  0.69135121432E+02  0.76243871493E+02  0.13084369541E+04  0.13124785925E+04  0.00000000000E+00 0.  1.
</event>
<event>
 7    1  0.6444902E-006  0.5917614E+02  0.7818608E-02  0.1428104E+00
          2   -1    0    0  502    0  0.00000000000E+00  0.00000000000E+00  0.95651682324E+03  0.95651682324E+03  0.00000000000E+00 0. -1.
          1   -1    0    0  501    0 -0.00000000000E+00 -0.00000000000E+00 -0.28342471778E+03  0.28342471778E+03  0.00000000000E+00 0. -1.
         25    2    1    2    0    0 -0.97401244489E+02 -0.24871338919E+02  0.40076111029E+03  0.43166988330E+03  0.12499533870E+03 0.  0.
          2    1    1    2  501    0  0.48078963727E+02 -0.67964792630E+00 -0.26436828259E+03  0.26870548472E+03  0.00000000000E+00 0. -1.
          1    1    1    2  502    0  0.49322280762E+02  0.25550986845E+02  0.53669927776E+03  0.53956617301E+03  0.00000000000E+00 0. -1.
         22    1    3    3    0    0  0.71004493846E+00  0.34400202909E+02  0.38155571366E+02  0.51378261456E+02  0.00000000000E+00 0. -1.
         22    1    3    3    0    0 -0.98111289427E+02 -0.59271541828E+02  0.36260553893E+03  0.38029162184E+03  0.00000000000E+00 0. -1.
</event>
<event>
 7    1  0.6444902E-006  0.7369959E+02  0.7818608E-02  0.1366162E+00
          2   -1    0    0  502    0  0.00000000000E+00  0.00000000000E+00  0.85171893211E+03  0.85171893211E+03  0.00000000000E+00 0. -1.
          1   -1    0    0  501    0 -0.00000000000E+00 -0.00000000000E+00 -0.59865310725E+03  0.59865310725E+03  0.00000000000E+00 0. -1.
         25    2    1    2    0    0  0.31189195956E+02  0.13081914138E+03  0.55806001914E+02  0.19190132232E+03  0.12500157583E+03 0.  0.
          2    1    1    2  501    0 -0.79066274265E+01 -0.72068727183E+02 -0.52674598493E+03  0.53171209205E+03  0.00000000000E+00 0. -1.
          1    1    1    2  502    0 -0.23282568530E+02 -0.58750414202E+02  0.72400580787E+03  0.72675862499E+03  0.00000000000E+00 0. -1.
         22    1    3    3    0    0 -0.16653601584E+02  0.17188703373E+02 -0.32418157143E+02  0.40295544194E+02  0.00000000000E+00 0. -1.
         22    1    3    3    0    0  0.47842797540E+02  0.11363043801E+03  0.88224159057E+02  0.15160577812E+03  0.00000000000E+00 0. -1.
</event>
<event>
 7    1  0.6444902E-006  0.4535644E+02  0.7818608E-02  0.1481455E+00
          2   -1    0    0  502    0  0.00000000000E+00  0.00000000000E+00  0.52482335431E+03  0.52482335431E+03  0.00000000000E+00 0. -1.
          1   -1    0    0  501    0 -0.00000000000E+00 -0.00000000000E+00 -0.24172508291E+04  0.24172508291E+04  0.00000000000E+00 0. -1.
         25    2    1    2    0    0  0.30616558548E+02  0.73018844216E+02  0.26317997884E+03  0.30192591256E+03  0.12500572043E+03 0.  0.
          2    1    1    2  501    0 -0.29534265702E+02 -0.30494644357E+02 -0.23958211604E+04  0.23961972433E+04  0.00000000000E+00 0. -1.
          1    1    1    2  502    0 -0.10822928456E+01 -0.42524199859E+02  0.24021370676E+03  0.24395102755E+03  0.00000000000E+00 0. -1.
         22    1    3    3    0    0 -0.23266555326E+02  0.79005803809E+02  0.21172807257E+03  0.22718280381E+03  0.00000000000E+00 0. -1.
         22    1    3    3    0    0  0.53883113874E+02 -0.59869595928E+01  0.51451906269E+02  0.74743108743E+02  0.00000000000E+00 0. -1.
</event>
<event>
 7    1  0.6444902E-006  0.1342695E+03  0.7818608E-02  0.1383246E+00
          2   -1    0    0  502    0  0.00000000000E+00  0.00000000000E+00  0.64422684297E+03  0.64422684297E+03  0.00000000000E+00 0. -1.
          1   -1    0    0  501    0 -0.00000000000E+00 -0.00000000000E+00 -0.30145536001E+03  0.30145536001E+03  0.00000000000E+00 0. -1.
         25    2    1    2    0    0 -0.99492127767E+02 -0.43652002402E+02 -0.79840924960E+02  0.18385841863E+03  0.12500065600E+03 0.  0.
          2    1    1    2  501    0 -0.30018812904E+02  0.27312989874E+01 -0.16039580665E+03  0.16320356587E+03  0.00000000000E+00 0. -1.
          1    1    1    2  502    0  0.12951094067E+03  0.40920703414E+02  0.58300821456E+03  0.59862021848E+03  0.00000000000E+00 0. -1.
         22    1    3    3    0    0  0.21386311493E+02  0.25269511507E+01  0.12490822563E+02  0.24895390129E+02  0.00000000000E+00 0.  1.
         22    1    3    3    0    0 -0.12087843926E+03 -0.46178953552E+02 -0.92331747523E+02  0.15896302850E+03  0.00000000000E+00 0.  1.
</event>
<event>
 7    1  0.6444902E-006  0.8816044E+02  0.7818608E-02  0.1350424E+00
          2   -1    0    0  502    0  0.00000000000E+00  0.00000000000E+00  0.12561983516E+04  0.12561983516E+04  0.00000000000E+00 0. -1.
          1   -1    0    0  501    0 -0.00000000000E+00 -0.00000000000E+00 -0.59467727336E+03  0.59467727336E+03  0.00000000000E+00 0. -1.
         25    2    1    2    0    0 -0.93204624726E+02 -0.74620063953E+02  0.10352252459E+03  0.20148969525E+03  0.12500371266E+03 0.  0.
          2    1    1    2  501    0  0.59980619296E+02 -0.63922812521E+01 -0.54228215811E+03  0.54562668094E+03  0.00000000000E+00 0. -1.
          1    1    1    2  502    0  0.33224005430E+02  0.81012345205E+02  0.11002807117E+04  0.11037592487E+04  0.00000000000E+00 0. -1.
         22    1    3    3    0    0  0.27555046359E+02 -0.43648721490E+01  0.38096967766E+02  0.47219822551E+02  0.00000000000E+00 0. -1.
         22    1    3    3    0    0 -0.12075967109E+03 -0.70255191804E+02  0.65425556827E+02  0.15426987270E+03  0.00000000000E+00 0. -1.
</event>
<event>
 7    1  0.6444902E-006  0.1038306E+03  0.7818608E-02  0.1273078E+00
          2   -1    0    0  502    0  0.00000000000E+00  0.00000000000E+00  0.28235816503E+04  0.28235816503E+04  0.00000000000E+00 0. -1.
          1   -1    0    0  501    0 -0.00000000000E+00 -0.00000000000E+00 -0.18242242980E+04  0.18242242980E+04  0.00000000000E+00 0. -1.
         25    2    1    2    0    0  0.61924840683E+02 -0.59484448798E+02  0.31697078861E+03  0.35137982016E+03  0.12499684652E+03 0.  0.
          2    1    1    2  501    0  0.40202974690E+02  0.95041940505E+02 -0.18043703918E+04  0.18073189426E+04  0.00000000000E+00 0. -1.
          1    1    1    2  502    0 -0.10212781537E+03 -0.35557491708E+02  0.24867569554E+04  0.24891071855E+04  0.00000000000E+00 0. -1.
         22    1    3    3    0    0 -0.23047452964E+02 -0.51124710531E+02  0.19203013351E+03  0.20005122666E+03  0.00000000000E+00 0.  1.
         22    1    3    3    0    0  0.84972293647E+02 -0.83597382674E+01  0.12494065510E+03  0.15132859349E+03  0.00000000000E+00 0.  1.
</event>
<event>
 7    1  0.6444902E-006  0.8000679E+02  0.7818608E-02  0.1471461E+00
          2   -1    0    0  502    0  0.00000000000E+00  0.00000000000E+00  0.11326621832E+04  0.11326621832E+04  0.00000000000E+00 0. -1.
          1   -1    0    0  501    0 -0.00000000000E+00 -0.00000000000E+00 -0.12595624094E+03  0.12595624094E+03  0.00000000000E+00 0. -1.
         25    2    1    2    0    0 -0.56396928889E+02  0.27824250252E+02  0.79312384473E+03  0.80536747452E+03  0.12496612920E+03 0.  0.
          2    1    1    2  501    0  0.78897180746E+02 -0.15126631141E+02 -0.10579037671E+03  0.13283517570E+03  0.00000000000E+00 0. -1.
          1    1    1    2  502    0 -0.22500251856E+02 -0.12697619111E+02  0.31937247425E+03  0.32041577391E+03  0.00000000000E+00 0. -1.
         22    1    3    3    0    0 -0.44116950780E+02  0.12358873908E+00  0.75671291633E+03  0.75799786172E+03  0.00000000000E+00 0.  1.
         22    1    3    3    0    0 -0.12279978110E+02  0.27700661513E+02  0.36410928395E+02  0.47369612804E+02  0.00000000000E+00 0.  1.
</event>
<event>
 7    1  0.6444902E-006  0.7832227E+02  0.7818608E-02  0.1413058E+00
          2   -1    0    0  502    0  0.00000000000E+00  0.00000000000E+00  0.24827070730E+04  0.24827070730E+04  0.00000000000E+00 0. -1.
          1   -1    0    0  501    0 -0.00000000000E+00 -0.00000000000E+00 -0.38266337436E+03  0.38266337436E+03  0.00000000000E+00 0. -1.
         25    2    1    2    0    0 -0.92908240527E+01 -0.60226540425E+02  0.29855890509E+03  0.32935679247E+03  0.12499968543E+03 0.  0.
          2    1    1    2  501    0 -0.29457072157E+02  0.72946505274E+02 -0.36285728511E+03  0.37128738342E+03  0.00000000000E+00 0. -1.
          1    1    1    2  502    0  0.38747896209E+02 -0.12719964849E+02  0.21643420786E+04  0.21647262715E+04  0.00000000000E+00 0. -1.
         22    1    3    3    0    0 -0.47266580225E+02 -0.80410554350E+02  0.23272262464E+03  0.25071858103E+03  0.00000000000E+00 0.  1.
         22    1    3    3    0    0  0.37975756172E+02  0.20184013925E+02  0.65836280453E+02  0.78638211442E+02  0.00000000000E+00 0.  1.
</event>
<event>
 7    1  0.6444902E-006  0.7713229E+02  0.7818608E-02  0.1439093E+00
          2   -1    0    0  502    0  0.00000000000E+00  0.00000000000E+00  0.14895254951E+03  0.14895254951E+03  0.00000000000E+00 0. -1.
          1   -1    0    0  501    0 -0.00000000000E+00 -0.00000000000E+00 -0.55309600272E+03  0.55309600272E+03  0.00000000000E+00 0. -1.
         25    2    1    2    0    0  0.96231061973E+02  0.23003234285E+01 -0.17260256507E+03  0.23384558742E+03  0.12500561790E+03 0.  0.
          2    1    1    2  501    0 -0.24489433462E+02  0.23522203306E+02 -0.33664590710E+03  0.33835409436E+03  0.00000000000E+00 0. -1.
          1    1    1    2  502    0 -0.71741628512E+02 -0.25822526735E+02  0.10510501897E+03  0.12984887046E+03  0.00000000000E+00 0. -1.
         22    1    3    3    0    0  0.67547954294E+02  0.89488482728E+01 -0.18846270161E+03  0.20040209059E+03  0.00000000000E+00 0. -1.
         22    1    3    3    0    0  0.28683107679E+02 -0.66485248443E+01  0.15860136539E+02  0.33443496823E+02  0.00000000000E+00 0. -1.
</event>
<event>
 7    1  0.6444902E-006  0.8043951E+02  0.7818608E-02  0.1332215E+00
          2   -1    0    0  502    0  0.00000000000E+00  0.00000000000E+00  0.21151270247E+03  0.21151270247E+03  0.00000000000E+00 0. -1.
          1   -1    0    0  501    0 -0.00000000000E+00 -0.00000000000E+00 -0.83547454861E+03  0.83547454861E+03  0.00000000000E+00 0. -1.
         25    2    1    2    0    0  0.14799253261E+03 -0.47136096875E+02 -0.24197456757E+03  0.31352827539E+03  0.12499874711E+03 0.  0.
          2    1    1    2  501    0 -0.72694016282E+02  0.26522360724E+02 -0.54618894011E+03  0.55164319439E+03  0.00000000000E+00 0. -1.
          1    1    1    2  502    0 -0.75298516331E+02  0.20613736151E+02  0.16420166154E+03  0.18181578131E+03  0.00000000000E+00 0. -1.
         22    1    3    3    0    0  0.16601703034E+03 -0.22466794049E+02 -0.19065454568E+03  0.25380222022E+03  0.00000000000E+00 0. -1.
         22    1    3    3    0    0 -0.18024497724E+02 -0.24669302827E+02 -0.51320021883E+02  0.59726055171E+02  0.00000000000E+00 0. -1.
</event>
<event>
 7    1  0.6444902E-006  0.1022690E+03  0.7818608E-02  0.1387114E+00
          2   -1    0    0  502    0  0.00000000000E+00  0.00000000000E+00  0.12154360556E+04  0.12154360556E+04  0.00000000000E+00 0. -1.
          1   -1    0    0  501    0 -0.00000000000E+00 -0.00000000000E+00 -0.67170789536E+02  0.67170789536E+02  0.00000000000E+00 0. -1.
         25    2    1    2    0    0  0.74036018596E+02  0.70370746403E+02  0.80686577750E+03  0.82285551531E+03  0.12500176871E+03 0.  0.
          2    1    1    2  501    0 -0.43167918632E+02 -0.93136467285E+02 -0.12828747143E+02  0.10345263404E+03  0.00000000000E+00 0. -1.
          1    1    1    2  502    0 -0.30868099964E+02  0.22765720882E+02  0.35422823573E+03  0.35629869580E+03  0.00000000000E+00 0. -1.
         22    1    3    3    0    0 -0.33279776563E+02  0.28498948396E+02  0.29133830324E+03  0.29461456264E+03  0.00000000000E+00 0. -1.
         22    1    3    3    0    0  0.10731579516E+03  0.41871798006E+02  0.51552747426E+03  0.52824095266E+03  0.00000000000E+00 0. -1.
</event>
<event>
 7    1  0.6444902E-006  0.2447182E+02  0.7818608E-02  0.1688209E+00
          2   -1    0    0  502    0  0.00000000000E+00  0.00000000000E+00  0.20222993140E+03  0.20222993140E+03  0.00000000000E+00 0. -1.
          1   -1    0    0  501    0 -0.00000000000E+00 -0.00000000000E+00 -0.11859654992E+04  0.11859654992E+04  0.00000000000E+00 0. -1.
         25    2    1    2    0    0 -0.44809268148E+02 -0.64836558773E+00  0.11879360303E+03  0.17817099737E+03  0.12499877316E+03 0.  0.
          2    1    1    2  501    0  0.22000959274E+02  0.34445240173E+00 -0.11537470090E+04  0.11539568110E+04  0.00000000000E+00 0. -1.
          1    1    1    2  502    0  0.22808308875E+02  0.30391318600E+00  0.51217838172E+02  0.56067622243E+02  0.00000000000E+00 0. -1.
         22    1    3    3    0    0  0.11824072491E+02 -0.49985748059E+02  0.75986982427E+02  0.91719164833E+02  0.00000000000E+00 0. -1.
         22    1    3    3    0    0 -0.56633340640E+02  0.49337382471E+02  0.42806620605E+02  0.86451832535E+02  0.00000000000E+00 0. -1.
</event>
<event>
 7    1  0.6444902E-006  0.1982564E+03  0.7818608E-02  0.1232884E+00
          2   -1    0    0  502    0  0.00000000000E+00  0.00000000000E+00  0.99221609786E+03  0.99221609786E+03  0.00000000000E+00 0. -1.
          1   -1    0    0  501    0 -0.00000000000E+00 -0.00000000000E+00 -0.11706136415E+04  0.11706136415E+04  0.00000000000E+00 0. -1.
         25    2    1    2    0    0  0.17514919009E+02  0.18221404199E+03 -0.22740910617E+03  0.31756690588E+03  0.12500043464E+03 0.  0.
          2    1    1    2  501    0 -0.80287246956E+02  0.70752082786E+01 -0.88577802110E+03  0.88943735207E+03  0.00000000000E+00 0. -1.
          1    1    1    2  502    0  0.62772327948E+02 -0.18928925027E+03  0.93478958358E+03  0.95582548145E+03  0.00000000000E+00 0. -1.
         22    1    3    3    0    0  0.52475315701E+02  0.90072357150E+02 -0.18045852032E+03  0.20840337290E+03  0.00000000000E+00 0.  1.
         22    1    3    3    0    0 -0.34960396692E+02  0.92141684838E+02 -0.46950585843E+02  0.10916353298E+03  0.00000000000E+00 0.  1.
</event>
<event>
 7    1  0.6444902E-006  0.1017692E+03  0.7818608E-02  0.1310653E+00
          2   -1    0    0  502    0  0.00000000000E+00  0.00000000000E+00  0.27721563824E+04  0.27721563824E+04  0.00000000000E+00 0. -1.
          1   -1    0    0  501    0 -0.00000000000E+00 -0.00000000000E+00 -0.47250817035E+02  0.47250817035E+02  0.00000000000E+00 0. -1.
         25    2    1    2    0    0 -0.16096157985E+03 -0.16948063162E+02  0.44645326644E+03  0.49106223334E+03  0.12500292342E+03 0.  0.
          2    1    1    2  501    0  0.87396541806E+02  0.26044465032E+02  0.61138424657E+02  0.10979242528E+03  0.00000000000E+00 0. -1.
          1    1    1    2  502    0  0.73565038044E+02 -0.90964018692E+01  0.22173138743E+04  0.22185525408E+04  0.00000000000E+00 0. -1.
         22    1    3    3    0    0 -0.60554923777E+02 -0.19068419060E+02  0.46503482994E+02  0.78696107462E+02  0.00000000000E+00 0. -1.
         22    1    3    3    0    0 -0.10040665607E+03  0.21203558977E+01  0.39994978344E+03  0.41236612588E+03  0.00000000000E+00 0. -1.
</event>
<event>
 7    1  0.6444902E-006  0.8686633E+02  0.7818608E-02  0.1401698E+00
          2   -1    0    0  502    0  0.00000000000E+00  0.00000000000E+00  0.16999847418E+03  0.16999847418E+03  0.00000000000E+00 0. -1.
          1   -1    0    0  501    0 -0.00000000000E+00 -0.00000000000E+00 -0.82026304110E+03  0.82026304110E+03  0.00000000000E+00 0. -1.
         25    2    1    2    0    0  0.30356188502E+02  0.66830193844E+02 -0.20343935987E+03  0.24980041660E+03  0.12499960799E+03 0.  0.
          2    1    1    2  501    0  0.38427799268E+02 -0.11781135596E+02 -0.57966788582E+03  0.58105967746E+03  0.00000000000E+00 0. -1.
          1    1    1    2  502    0 -0.68783987770E+02 -0.55049058248E+02  0.13284267877E+03  0.15940142123E+03  0.00000000000E+00 0. -1.
         22    1    3    3    0    0 -0.40510850610E+02  0.39058989505E+02 -0.13939924136E+03  0.15032924589E+03  0.00000000000E+00 0. -1.
         22    1    3    3    0    0  0.70867039112E+02  0.27771204339E+02 -0.64040118508E+02  0.99471170706E+02  0.00000000000E+00 0. -1.
</event>
<event>
 7    1  0.6444902E-006  0.1813189E+03  0.7818608E-02  0.1264448E+00
          2   -1    0    0  502    0  0.00000000000E+00  0.00000000000E+00  0.98499509734E+03  0.98499509734E+03  0.00000000000E+00 0. -1.
          1   -1    0    0  501    0 -0.00000000000E+00 -0.00000000000E+00 -0.36518290401E+03  0.36518290401E+03  0.00000000000E+00 0. -1.
         25    2    1    2    0    0 -0.10144652171E+03  0.11713773550E+03  0.65816273957E+02  0.20968696901E+03  0.12499678879E+03 0.  0.
          2    1    1    2  501    0  0.72127053759E+02 -0.17430547045E+03 -0.26151610082E+03  0.32245213583E+03  0.00000000000E+00 0. -1.
          1    1    1    2  502    0  0.29319467948E+02  0.57167734950E+02  0.81551202019E+03  0.81803889651E+03  0.00000000000E+00 0. -1.
         22    1    3    3    0    0 -0.45611669183E+02  0.73120240463E+02 -0.29219588543E+02  0.90998781781E+02  0.00000000000E+00 0.  1.
         22    1    3    3    0    0 -0.55834852524E+02  0.44017495039E+02  0.95035862500E+02  0.11868818723E+03  0.00000000000E+00 0.  1.
</event>
<event>
 7    1  0.6444902E-006  0.2145985E+03  0.7818608E-02  0.1222402E+00
          2   -1    0    0  502    0  0.00000000000E+00  0.00000000000E+00  0.42010992874E+03  0.42010992874E+03  0.00000000000E+00 0. -1.
          1   -1    0    0  501    0 -0.00000000000E+00 -0.00000000000E+00 -0.14307444354E+04  0.14307444354E+04  0.00000000000E+00 0. -1.
         25    2    1    2    0    0 -0.13245671232E+03  0.23869440530E+02 -0.82036455151E+03  0.84067411535E+03  0.12498175868E+03 0.  0.
          2    1    1    2  501    0 -0.80080623969E+02  0.21845619812E+02 -0.56817438483E+03  0.57420577236E+03  0.00000000000E+00 0. -1.
          1    1    1    2  502    0  0.21253733629E+03 -0.45715060342E+02  0.37790442972E+03  0.43597447639E+03  0.00000000000E+00 0. -1.
         22    1    3    3    0    0 -0.12727069401E+03  0.63800766023E+02 -0.59983084449E+03  0.61649445197E+03  0.00000000000E+00 0.  1.
         22    1    3    3    0    0 -0.51860183103E+01 -0.39931325493E+02 -0.22053370702E+03  0.22417966338E+03  0.00000000000E+00 0.  1.
</event>
<event>
 7    1  0.6444902E-006  0.6328497E+02  0.7818608E-02  0.1511836E+00
          2   -1    0    0  502    0  0.00000000000E+00  0.00000000000E+00  0.45160464336E+03  0.45160464336E+03  0.00000000000E+00 0. -1.
          1   -1    0    0  501    0 -0.00000000000E+00 -0.00000000000E+00 -0.24902741035E+03  0.24902741035E+03  0.00000000000E+00 0. -1.
         25    2    1    2    0    0 -0.72748553099E+02  0.34837754387E+00 -0.16229936744E+03  0.21739040566E+03  0.12500012183E+03 0.  0.
          2    1    1    2  501    0  0.13190210615E+02  0.20846381362E+02 -0.54133553924E+02  0.59489452279E+02  0.00000000000E+00 0. -1.
          1    1    1    2  502    0  0.59558342484E+02 -0.21194758906E+02  0.41901015436E+03  0.42375219577E+03  0.00000000000E+00 0. -1.
         22    1    3    3    0    0 -0.62166648389E+02  0.47238759080E+02 -0.43827628814E+02  0.89538000752E+02  0.00000000000E+00 0. -1.
         22    1    3    3    0    0 -0.10581904710E+02 -0.46890381536E+02 -0.11847173862E+03  0.12785240491E+03  0.00000000000E+00 0. -1.
</event>
<event>
 7    1  0.6444902E-006  0.1079777E+03  0.7818608E-02  0.1428176E+00
          2   -1    0    0  502    0  0.00000000000E+00  0.00000000000E+00  0.14553437052E+04  0.14553437052E+04  0.00000000000E+00 0. -1.
          1   -1    0    0  501    0 -0.00000000000E+00 -0.00000000000E+00 -0.32397771164E+02  0.32397771164E+02  0.00000000000E+00 0. -1.
         25    2    1    2    0    0  0.60395843713E+02  0.78377603698E+02  0.68035829099E+03  0.69878668154E+03  0.12499886195E+03 0.  0.
          2    1    1    2  501    0 -0.11902913808E+02  0.23494359971E+02 -0.98396964005E+01  0.28115546106E+02  0.00000000000E+00 0. -1.
          1    1    1    2  502    0 -0.48492929905E+02 -0.10187196367E+03  0.75242733944E+03  0.76083924870E+03  0.00000000000E+00 0. -1.
         22    1    3    3    0    0  0.89171018803E+02  0.50478149567E+02  0.31523974064E+03  0.33147489839E+03  0.00000000000E+00 0.  1.
         22    1    3    3    0    0 -0.28775175090E+02  0.27899454131E+02  0.36511855034E+03  0.36731178316E+03  0.00000000000E+00 0.  1.
</event>
<event>
 7    1  0.6444902E-006  0.1249664E+03  0.7818608E-02  0.1288364E+00
          2   -1    0    0  502    0  0.00000000000E+00  0.00000000000E+00  0.12680016912E+04  0.12680016912E+04  0.00000000000E+00 0. -1.
          1   -1    0    0  501    0 -0.00000000000E+00 -0.00000000000E+00 -0.29382791738E+03  0.29382791738E+03  0.00000000000E+00 0. -1.
         25    2    1    2    0    0  0.10716316023E+03 -0.12539246108E+03  0.67376509266E+03  0.70483452560E+03  0.12500038473E+03 0.  0.
          2    1    1    2  501    0 -0.59933664339E+01  0.73904596701E+02 -0.26763679404E+03  0.27771795653E+03  0.00000000000E+00 0. -1.
          1    1    1    2  502    0 -0.10116979380E+03  0.51487864378E+02  0.56804547519E+03  0.57927712646E+03  0.00000000000E+00 0. -1.
         22    1    3    3    0    0 -0.31219625418E+01  0.20468179020E+02  0.37763790179E+02  0.43067352498E+02  0.00000000000E+00 0.  1.
         22    1    3    3    0    0  0.11028512277E+03 -0.14586064010E+03  0.63600130248E+03  0.66176717310E+03  0.00000000000E+00 0.  1.
</event>
<event>
 7    1  0.6444902E-006  0.6336795E+02  0.7818608E-02  0.1388054E+00
          2   -1    0    0  502    0  0.00000000000E+00  0.00000000000E+00  0.52174891741E+03  0.52174891741E+03  0.00000000000E+00 0. -1.
          1   -1    0    0  501    0 -0.00000000000E+00 -0.00000000000E+00 -0.55372817203E+03  0.55372817203E+03  0.00000000000E+00 0. -1.
         25    2    1    2    0    0  0.62317090940E+01 -0.58382582842E+02 -0.18756840352E+03  0.23292642347E+03  0.12500181029E+03 0.  0.
          2    1    1    2  501    0  0.53692602161E+02  0.37777388358E+02 -0.33830084927E+03  0.34461208803E+03  0.00000000000E+00 0. -1.
          1    1    1    2  502    0 -0.59924311255E+02  0.20605194484E+02  0.49388999816E+03  0.49793857794E+03  0.00000000000E+00 0. -1.
         22    1    3    3    0    0 -0.15484463036E+02  0.21625296702E+02 -0.12827175053E+03  0.13100024442E+03  0.00000000000E+00 0. -1.
         22    1    3    3    0    0  0.21716172130E+02 -0.80007879544E+02 -0.59296652985E+02  0.10192617905E+03  0.00000000000E+00 0. -1.
</event>
<event>
 7    1  0.6444902E-006  0.5353203E+02  0.7818608E-02  0.1482062E+00
          2   -1    0    0  502    0  0.00000000000E+00  0.00000000000E+00  0.63179020861E+03  0.63179020861E+03  0.00000000000E+00 0. -1.
          1   -1    0    0  501    0 -0.00000000000E+00 -0.00000000000E+00 -0.25641656911E+03  0.25641656911E+03  0.00000000000E+00 0. -1.
         25    2    1    2    0    0  0.32913598571E+02  0.48351979070E+02  0.79987279027E+02  0.15951139456E+03  0.12499880534E+03 0.  0.
          2    1    1    2  501    0 -0.35413675137E+02  0.53484820795E+01 -0.21374948538E+03  0.21672927155E+03  0.00000000000E+00 0. -1.
          1    1    1    2  502    0  0.25000765660E+01 -0.53700461150E+02  0.50913584586E+03  0.51196611162E+03  0.00000000000E+00 0. -1.
         22    1    3    3    0    0 -0.33879289324E+02 -0.22311863639E+02  0.19628438035E+02  0.45065519900E+02  0.00000000000E+00 0.  1.
         22    1    3    3    0    0  0.66792887895E+02  0.70663842710E+02  0.60358840992E+02  0.11444587466E+03  0.00000000000E+00 0.  1.
</event>
<event>
 7    1  0.6444902E-006  0.8521809E+02  0.7818608E-02  0.1377148E+00
          2   -1    0    0  502    0  0.00000000000E+00  0.00000000000E+00  0.37964637549E+03  0.37964637549E+03  0.00000000000E+00 0. -1.
          1   -1    0    0  501    0 -0.00000000000E+00 -0.00000000000E+00 -0.65572995726E+03  0.65572995726E+03  0.00000000000E+00 0. -1.
         25    2    1    2    0    0 -0.75340272758E+01  0.12635568148E+03 -0.25210411324E+03  0.30855151805E+03  0.12500014225E+03 0.  0.
          2    1    1    2  501    0  0.24437683375E+02 -0.43522547352E+02 -0.36861125806E+03  0.37197536486E+03  0.00000000000E+00 0. -1.
          1    1    1    2  502    0 -0.16903656099E+02 -0.82833134132E+02  0.34463178953E+03  0.35484944985E+03  0.00000000000E+00 0. -1.
         22    1    3    3    0    0  0.32393861822E+02  0.62145097027E+02 -0.34357090502E+02  0.78049888123E+02  0.00000000000E+00 0. -1.
         22    1    3    3    0    0 -0.39927889097E+02  0.64210584457E+02 -0.21774702274E+03  0.23050162992E+03  0.00000000000E+00 0. -1.
</event>
<event>
 7    1  0.6444902E-006  0.2106477E+03  0.7818608E-02  0.1309062E+00
          2   -1    0    0  502    0  0.00000000000E+00  0.00000000000E+00  0.69668902935E+03  0.69668902935E+03  0.00000000000E+00 0. -1.
          1   -1    0    0  501    0 -0.00000000000E+00 -0.00000000000E+00 -0.64986672047E+03  0.64986672047E+03  0.00000000000E+00 0. -1.
         25    2    1    2    0    0 -0.38336665976E+02  0.17582753192E+03  0.42524843515E+03  0.47837887544E+03  0.12500038372E+03 0.  0.
          2    1    1    2  501    0  0.63301289846E+02 -0.20222525106E+03 -0.60379462124E+03  0.63989846859E+03  0.00000000000E+00 0. -1.
          1    1    1    2  502    0 -0.24964623871E+02  0.26397719141E+02  0.22536849497E+03  0.22827840578E+03  0.00000000000E+00 0. -1.
         22    1    3    3    0    0 -0.28156790761E+02  0.44313249609E+02  0.27376498881E+02  0.59210992627E+02  0.00000000000E+00 0. -1.
         22    1    3    3    0    0 -0.10179875215E+02  0.13151428231E+03  0.39787193627E+03  0.41916788281E+03  0.00000000000E+00 0. -1.
</event>
<event>
 7    1  0.6444902E-006  0.1877368E+03  0.7818608E-02  0.1294143E+00
          2   -1    0    0  502    0  0.00000000000E+00  0.00000000000E+00  0.16125832683E+04  0.16125832683E+04  0.00000000000E+00 0. -1.
          1   -1    0    0  501    0 -0.00000000000E+00 -0.00000000000E+00 -0.19466787761E+04  0.19466787761E+04  0.00000000000E+00 0. -1.
         25    2    1    2    0    0  0.29779693553E+00  0.16578860800E+03 -0.22842249818E+03  0.30868962050E+03  0.12500597149E+03 0.  0.
          2    1    1    2  501    0 -0.43358047393E+02  0.17511012734E+02 -0.16721581255E+04  0.16728118102E+04  0.00000000000E+00 0. -1.
          1    1    1    2  502    0  0.43060250457E+02 -0.18329962073E+03  0.15664851158E+04  0.15777606137E+04  0.00000000000E+00 0. -1.
         22    1    3    3    0    0  0.51013226042E+02  0.13974984044E+03 -0.18270642278E+03  0.23561409987E+03  0.00000000000E+00 0.  1.
         22    1    3    3    0    0 -0.50715429106E+02  0.26038767557E+02 -0.45716075399E+02  0.73075520629E+02  0.00000000000E+00 0.  1.
</event>
<event>
 7    1  0.6444902E-006  0.5538913E+02  0.7818608E-02  0.1461614E+00
          2   -1    0    0  502    0  0.00000000000E+00  0.00000000000E+00  0.13348407617E+04  0.13348407617E+04  0.00000000000E+00 0. -1.
          1   -1    0    0  501    0 -0.00000000000E+00 -0.00000000000E+00 -0.54780562888E+03  0.54780562888E+03  0.00000000000E+00 0. -1.
         25    2    1    2    0    0 -0.59950617566E+02 -0.33048675667E+02 -0.39311343111E+03  0.41815554078E+03  0.12501837889E+03 0.  0.
          2    1    1    2  501    0  0.22971351182E+02  0.48452907787E+02 -0.13679955066E+03  0.14693360511E+03  0.00000000000E+00 0. -1.
          1    1    1    2  502    0  0.36979266384E+02 -0.15404232120E+02  0.13169481146E+04  0.13175572447E+04  0.00000000000E+00 0. -1.
         22    1    3    3    0    0 -0.87047744828E+02  0.44412053282E+01 -0.17888136046E+03  0.19898636964E+03  0.00000000000E+00 0. -1.
         22    1    3    3    0    0  0.27097127262E+02 -0.37489880995E+02 -0.21423207065E+03  0.21916917114E+03  0.00000000000E+00 0. -1.
</event>
<event>
 7    1  0.6444902E-006  0.2553585E+03  0.7818608E-02  0.1347574E+00
          2   -1    0    0  502    0  0.00000000000E+00  0.00000000000E+00  0.46841751094E+03  0.46841751094E+03  0.00000000000E+00 0. -1.
          1   -1    0    0  501    0 -0.00000000000E+00 -0.00000000000E+00 -0.48449046298E+03  0.48449046298E+03  0.00000000000E+00 0. -1.
         25    2    1    2    0    0 -0.15452365248E+03  0.19591490888E+03 -0.24004154676E+03  0.36811022095E+03  0.12499991960E+03 0.  0.
          2    1    1    2  501    0  0.17579464146E+03 -0.19761085570E+03 -0.82909816129E+02  0.27717836111E+03  0.00000000000E+00 0. -1.
          1    1    1    2  502    0 -0.21270988974E+02  0.16959468227E+01  0.30687841085E+03  0.30761939187E+03  0.00000000000E+00 0. -1.
         22    1    3    3    0    0 -0.11527856657E+03  0.19693346171E+03 -0.23658336676E+03  0.32869990216E+03  0.00000000000E+00 0. -1.
         22    1    3    3    0    0 -0.39245085911E+02 -0.10185528346E+01 -0.34581799976E+01  0.39410318787E+02  0.00000000000E+00 0. -1.
</event>
<event>
 7    1  0.6444902E-006  0.7480139E+02  0.7818608E-02  0.1352510E+00
          2   -1    0    0  502    0  0.00000000000E+00  0.00000000000E+00  0.59094861201E+03  0.59094861201E+03  0.00000000000E+00 0. -1.
          1   -1    0    0  501    0 -0.00000000000E+00 -0.00000000000E+00 -0.91374119831E+02  0.91374119831E+02  0.00000000000E+00 0. -1.
         25    2    1    2    0    0 -0.36609361636E+02 -0.93042007638E+01  0.30798318357E+02  0.13416526448E+03  0.12499987307E+03 0.  0.
          2    1    1    2  501    0  0.66567061973E+02  0.77844582612E+02  0.35395454538E+02  0.10836877310E+03  0.00000000000E+00 0. -1.
          1    1    1    2  502    0 -0.29957700338E+02 -0.68540381848E+02  0.43338071928E+03  0.43978869426E+03  0.00000000000E+00 0. -1.
         22    1    3    3    0    0 -0.10088047634E+02  0.55472764045E+02  0.30637868739E+02  0.64169114508E+02  0.00000000000E+00 0. -1.
         22    1    3    3    0    0 -0.26521314001E+02 -0.64776964809E+02  0.16044961825E+00  0.69996149968E+02  0.00000000000E+00 0. -1.
</event>
<event>
 7    1  0.6444902E-006  0.8909614E+02  0.7818608E-02  0.1424209E+00
          2   -1    0    0  502    0  0.00000000000E+00  0.00000000000E+00  0.80109347513E+03  0.80109347513E+03  0.00000000000E+00 0. -1.
          1   -1    0    0  501    0 -0.00000000000E+00 -0.00000000000E+00 -0.10673950510E+03  0.10673950510E+03  0.00000000000E+00 0. -1.
         25    2    1    2    0    0  0.70534647528E+02  0.44995533040E+00  0.29957743922E+02  0.14662168497E+03  0.12500045249E+03 0.  0.
          2    1    1    2  501    0  0.14538216598E+02  0.29512431657E+02 -0.39587348161E+02  0.51473308603E+02  0.00000000000E+00 0. -1.
          1    1    1    2  502    0 -0.85072864126E+02 -0.29962386988E+02  0.70398357427E+03  0.70973798665E+03  0.00000000000E+00 0. -1.
         22    1    3    3    0    0  0.76446649007E+02 -0.56063916594E+01  0.71140838974E+02  0.10457791708E+03  0.00000000000E+00 0.  1.
         22    1    3    3    0    0 -0.59120014792E+01  0.60563469898E+01 -0.41183095051E+02  0.42043767890E+02  0.00000000000E+00 0.  1.
</event>
<event>
 7    1  0.8068267E-006  0.9185276E+02  0.7818608E-02  0.1307288E+00
          2   -1    0    0  502    0  0.00000000000E+00  0.00000000000E+00  0.18120173741E+04  0.18120173741E+04  0.00000000000E+00 0. -1.
          1   -1    0    0  501    0 -0.00000000000E+00 -0.00000000000E+00 -0.10127711853E+04  0.10127711853E+04  0.00000000000E+00 0. -1.
         25    2    1    2    0    0 -0.11595097123E+03  0.20419802952E+02 -0.33379681842E+03  0.37537441470E+03  0.12499615653E+03 0.  0.
          2    1    1    2  501    0  0.41265625798E+02 -0.73943248140E+02 -0.65427697609E+03  0.65973389882E+03  0.00000000000E+00 0. -1.
          1    1    1    2  502    0  0.74685345427E+02  0.53523445188E+02  0.17873199832E+04  0.17896802459E+04  0.00000000000E+00 0. -1.
         22    1    3    3    0    0 -0.39706190604E+02 -0.35818225061E+02 -0.40285169309E+02  0.66950890099E+02  0.00000000000E+00 0. -1.
         22    1    3    3    0    0 -0.76244780621E+02  0.56238028013E+02 -0.29351164911E+03  0.30842352460E+03  0.00000000000E+00 0. -1.
</event>
<event>
 7    1  0.6444902E-006  0.1277525E+03  0.7818608E-02  0.1284553E+00
          2   -1    0    0  502    0  0.00000000000E+00  0.00000000000E+00  0.19885232013E+04  0.19885232013E+04  0.00000000000E+00 0. -1.
          1   -1    0    0  501    0 -0.00000000000E+00 -0.00000000000E+00 -0.34221918813E+03  0.34221918813E+03  0.00000000000E+00 0. -1.
         25    2    1    2    0    0 -0.63119696235E+02 -0.44561022055E+02  0.59384161019E+03  0.61175364740E+03  0.12499954551E+03 0.  0.
          2    1    1    2  501    0 -0.70048325812E+02 -0.27301125374E+02 -0.32482593492E+03  0.33341266831E+03  0.00000000000E+00 0. -1.
          1    1    1    2  502    0  0.13316802205E+03  0.71862147429E+02  0.13772883379E+04  0.13855760737E+04  0.00000000000E+00 0. -1.
         22    1    3    3    0    0 -0.10145196089E+02 -0.80922415423E+02  0.36941068263E+03  0.37830624468E+03  0.00000000000E+00 0. -1.
         22    1    3    3    0    0 -0.52974500145E+02  0.36361393369E+02  0.22443092756E+03  0.23344740272E+03  0.00000000000E+00 0. -1.
</event>
<event>
 7    1  0.6444902E-006  0.5890699E+02  0.7818608E-02  0.1415462E+00
          2   -1    0    0  502    0  0.00000000000E+00  0.00000000000E+00  0.36928917828E+04  0.36928917828E+04  0.00000000000E+00 0. -1.
          1   -1    0    0  501    0 -0.00000000000E+00 -0.00000000000E+00 -0.23204842841E+03  0.23204842841E+03  0.00000000000E+00 0. -1.
         25    2    1    2    0    0  0.66927801948E+02  0.75624233393E+02  0.30814563583E+04  0.30856443615E+04  0.12501792727E+03 0.  0.
          2    1    1    2  501    0 -0.17357315866E+02 -0.56249165955E+02 -0.22499841870E+03  0.23257156641E+03  0.00000000000E+00 0. -1.
          1    1    1    2  502    0 -0.49570486081E+02 -0.19375067438E+02  0.60438541479E+03  0.60672428329E+03  0.00000000000E+00 0. -1.
         22    1    3    3    0    0  0.96466453109E+02  0.78147206948E+02  0.20455864394E+04  0.20493502979E+04  0.00000000000E+00 0.  1.
         22    1    3    3    0    0 -0.29538651162E+02 -0.25229735547E+01  0.10358699189E+04  0.10362940635E+04  0.00000000000E+00 0.  1.
</event>
<event>
 7    1  0.6444902E-006  0.4631499E+02  0.7818608E-02  0.1589988E+00
          2   -1    0    0  502    0  0.00000000000E+00  0.00000000000E+00  0.15268376930E+04  0.15268376930E+04  0.00000000000E+00 0. -1.
          1   -1    0    0  501    0 -0.00000000000E+00 -0.00000000000E+00 -0.47483766747E+03  0.47483766747E+03  0.00000000000E+00 0. -1.
         25    2    1    2    0    0 -0.24141976951E+02  0.12233393700E+02  0.54820802543E+03  0.56293060240E+03  0.12500533190E+03 0.  0.
          2    1    1    2  501    0  0.44543404008E+02 -0.12835346117E+02 -0.46621958049E+03  0.46851847155E+03  0.00000000000E+00 0. -1.
          1    1    1    2  502    0 -0.20401427057E+02  0.60195241697E+00  0.97001158060E+03  0.97022628653E+03  0.00000000000E+00 0. -1.
         22    1    3    3    0    0  0.41467763181E+01 -0.45901733415E+02  0.37899410199E+03  0.38178618915E+03  0.00000000000E+00 0.  1.
         22    1    3    3    0    0 -0.28288753270E+02  0.58135127115E+02  0.16921392344E+03  0.18114441325E+03  0.00000000000E+00 0.  1.
</event>
<event>
 7    1  0.6444902E-006  0.1587499E+03  0.7818608E-02  0.1362616E+00
          2   -1    0    0  502    0  0.00000000000E+00  0.00000000000E+00  0.12151361913E+04  0.12151361913E+04  0.00000000000E+00 0. -1.
          1   -1    0    0  501    0 -0.00000000000E+00 -0.00000000000E+00 -0.12445772638E+04  0.12445772638E+04  0.00000000000E+00 0. -1.
         25    2    1    2    0    0 -0.81439914523E+02 -0.17006952806E+03  0.42698330103E+03  0.48321812358E+03  0.12501564519E+03 0.  0.
          2    1    1    2  501    0  0.70097854384E+02  0.14205880617E+03 -0.12109988594E+04  0.12213159505E+04  0.00000000000E+00 0. -1.
          1    1    1    2  502    0  0.11342060139E+02  0.28010721886E+02  0.75457448578E+03  0.75517938098E+03  0.00000000000E+00 0. -1.
         22    1    3    3    0    0 -0.35068815851E+02 -0.14802377789E+03  0.39360291128E+03  0.42197643588E+03  0.00000000000E+00 0. -1.
         22    1    3    3    0    0 -0.46371098671E+02 -0.22045750166E+02  0.33380389750E+02  0.61241687699E+02  0.00000000000E+00 0. -1.
</event>
<event>
 7    1  0.6444902E-006  0.1100395E+03  0.7818608E-02  0.1278892E+00
          2   -1    0    0  502    0  0.00000000000E+00  0.00000000000E+00  0.19012147698E+04  0.19012147698E+04  0.00000000000E+00 0. -1.
          1   -1    0    0  501    0 -0.00000000000E+00 -0.00000000000E+00 -0.18070563248E+03  0.18070563248E+03  0.00000000000E+00 0. -1.
         25    2    1    2    0    0 -0.39510987490E+02 -0.12312035420E+03  0.56876942175E+02  0.18862235607E+03  0.12499466751E+03 0.  0.
          2    1    1    2  501    0 -0.49826727545E+02  0.10073684451E+03 -0.85830689927E+02  0.14141259475E+03  0.00000000000E+00 0. -1.
          1    1    1    2  502    0  0.89337715035E+02  0.22383509689E+02  0.17494628851E+04  0.17518854515E+04  0.00000000000E+00 0. -1.
         22    1    3    3    0    0  0.41497533402E+02 -0.72167859500E+02  0.35850733298E+02  0.90639507397E+02  0.00000000000E+00 0. -1.
         22    1    3    3    0    0 -0.81008520892E+02 -0.50952494701E+02  0.21026208877E+02  0.97982848668E+02  0.00000000000E+00 0. -1.
</event>
<event>
 7    1  0.6444902E-006  0.1179255E+03  0.7818608E-02  0.1366992E+00
          2   -1    0    0  502    0  0.00000000000E+00  0.00000000000E+00  0.44462558061E+03  0.44462558061E+03  0.00000000000E+00 0. -1.
          1   -1    0    0  501    0 -0.00000000000E+00 -0.00000000000E+00 -0.35090664791E+03  0.35090664791E+03  0.00000000000E+00 0. -1.
         25    2    1    2    0    0 -0.23160360570E+02  0.15315822628E+03  0.21475638619E+03  0.29281405970E+03  0.12500369424E+03 0.  0.
          2    1    1    2  501    0  0.23539141546E+02 -0.11393677298E+03 -0.29881501561E+03  0.32066507913E+03  0.00000000000E+00 0. -1.
          1    1    1    2  502    0 -0.37878097586E+00 -0.39221453297E+02  0.17777756212E+03  0.18205308969E+03  0.00000000000E+00 0. -1.
         22    1    3    3    0    0 -0.39559696747E+02  0.94593810255E+02  0.20764793553E+03  0.23158286567E+03  0.00000000000E+00 0. -1.
         22    1    3    3    0    0  0.16399336177E+02  0.58564416026E+02  0.71084506608E+01  0.61231194030E+02  0.00000000000E+00 0. -1.
</event>
<event>
 7    1  0.6444902E-006  0.5474972E+02  0.7818608E-02  0.1462602E+00
          2   -1    0    0  502    0  0.00000000000E+00  0.00000000000E+00  0.29003300007E+04  0.29003300007E+04  0.00000000000E+00 0. -1.
          1   -1    0    0  501    0 -0.00000000000E+00 -0.00000000000E+00 -0.76171457017E+02  0.76171457017E+02  0.00000000000E+00 0. -1.
         25    2    1    2    0    0  0.77592917330E+02 -0.29289419938E+02  0.97002301335E+03  0.98155357660E+03  0.12499698549E+03 0.  0.
          2    1    1    2  501    0 -0.38458253148E+02  0.38649234554E+02 -0.59606987293E+02  0.80782383605E+02  0.00000000000E+00 0. -1.
          1    1    1    2  502    0 -0.39134664182E+02 -0.93598146158E+01  0.19137425177E+04  0.19141654976E+04  0.00000000000E+00 0. -1.
         22    1    3    3    0    0  0.13266945646E+01  0.40948857283E+01  0.67487202882E+03  0.67488575588E+03  0.00000000000E+00 0. -1.
         22    1    3    3    0    0  0.76266222765E+02 -0.33384305667E+02  0.29515098452E+03  0.30666782072E+03  0.00000000000E+00 0. -1.
</event>
<event>
 7    1  0.6444902E-006  0.1116996E+03  0.7818608E-02  0.1447154E+00
          2   -1    0    0  502    0  0.00000000000E+00  0.00000000000E+00  0.14942073136E+03  0.14942073136E+03  0.00000000000E+00 0. -1.
          1   -1    0    0  501    0 -0.00000000000E+00 -0.00000000000E+00 -0.23449722698E+03  0.23449722698E+03  0.00000000000E+00 0. -1.
         25    2    1    2    0    0  0.44938026094E-01 -0.11464695087E+03  0.36753250978E+02  0.17354529418E+03  0.12499296905E+03 0.  0.
          2    1    1    2  501    0  0.20961991459E+02  0.69464849545E+01 -0.94833302355E+02  0.97370498483E+02  0.00000000000E+00 0. -1.
          1    1    1    2  502    0 -0.21006929485E+02  0.10770046592E+03 -0.26996444243E+02  0.11300216567E+03  0.00000000000E+00 0. -1.
         22    1    3    3    0    0  0.20634276894E+02 -0.10263818885E+03 -0.24756255693E+02  0.10757900998E+03  0.00000000000E+00 0. -1.
         22    1    3    3    0    0 -0.20589338868E+02 -0.12008762024E+02  0.61509506671E+02  0.65966284201E+02  0.00000000000E+00 0. -1.
</event>
<event>
 7    1  0.6444902E-006  0.9704594E+02  0.7818608E-02  0.1369572E+00
          2   -1    0    0  502    0  0.00000000000E+00  0.00000000000E+00  0.36361258916E+04  0.36361258916E+04  0.00000000000E+00 0. -1.
          1   -1    0    0  501    0 -0.00000000000E+00 -0.00000000000E+00 -0.14413425447E+02  0.14413425447E+02  0.00000000000E+00 0. -1.
         25    2    1    2    0    0  0.65137278980E+02 -0.26445898197E+02  0.18867714478E+04  0.18922139791E+04  0.12499998325E+03 0.  0.
          2    1    1    2  501    0  0.43993277396E+02 -0.15526505878E+02  0.46597284132E+02  0.65937756477E+02  0.00000000000E+00 0. -1.
          1    1    1    2  502    0 -0.10913055638E+03  0.41972404075E+02  0.16883437343E+04  0.16923875815E+04  0.00000000000E+00 0. -1.
         22    1    3    3    0    0 -0.20954822876E+02 -0.32808139216E+02  0.23619772486E+03  0.23938430155E+03  0.00000000000E+00 0. -1.
         22    1    3    3    0    0  0.86092101856E+02  0.63622410188E+01  0.16505737229E+04  0.16528296775E+04  0.00000000000E+00 0. -1.
</event>
<event>
 7    1  0.6444902E-006  0.5079287E+02  0.7818608E-02  0.1488343E+00
          2   -1    0    0  502    0  0.00000000000E+00  0.00000000000E+00  0.13033845734E+03  0.13033845734E+03  0.00000000000E+00 0. -1.
          1   -1    0    0  501    0 -0.00000000000E+00 -0.00000000000E+00 -0.17597052999E+04  0.17597052999E+04  0.00000000000E+00 0. -1.
         25    2    1    2    0    0 -0.30725872174E+02 -0.73780295282E+02 -0.40326447465E+03  0.42969193378E+03  0.12500124100E+03 0.  0.
          2    1    1    2  501    0  0.32681887422E+02  0.37712995319E+02 -0.13399667346E+04  0.13408956803E+04  0.00000000000E+00 0. -1.
          1    1    1    2  502    0 -0.19560152477E+01  0.36067299963E+02  0.11386436669E+03  0.11945614310E+03  0.00000000000E+00 0. -1.
         22    1    3    3    0    0  0.46458929674E+02 -0.17954459069E+02 -0.18414966314E+03  0.19076659346E+03  0.00000000000E+00 0. -1.
         22    1    3    3    0    0 -0.77184801848E+02 -0.55825836213E+02 -0.21911481151E+03  0.23892534032E+03  0.00000000000E+00 0. -1.
</event>
<event>
 7    1  0.6444902E-006  0.3384528E+02  0.7818608E-02  0.1567303E+00
          2   -1    0    0  502    0  0.00000000000E+00  0.00000000000E+00  0.99944403615E+03  0.99944403615E+03  0.00000000000E+00 0. -1.
          1   -1    0    0  501    0 -0.00000000000E+00 -0.00000000000E+00 -0.44944528469E+03  0.44944528469E+03  0.00000000000E+00 0. -1.
         25    2    1    2    0    0 -0.49279259464E+01 -0.63356367482E+01  0.44037779783E+03  0.45784469931E+03  0.12499895646E+03 0.  0.
          2    1    1    2  501    0  0.28639847036E+02 -0.18035024080E+02 -0.43953541286E+03  0.44083657073E+03  0.00000000000E+00 0. -1.
          1    1    1    2  502    0 -0.23711921090E+02  0.24370660828E+02  0.54915636648E+03  0.55020805080E+03  0.00000000000E+00 0. -1.
         22    1    3    3    0    0 -0.47414289652E+02  0.13885508218E+02  0.77361964870E+02  0.91792133706E+02  0.00000000000E+00 0. -1.
         22    1    3    3    0    0  0.42486363706E+02 -0.20221144966E+02  0.36301583296E+03  0.36605256561E+03  0.00000000000E+00 0. -1.
</event>
<event>
 7    1  0.6444902E-006  0.8549672E+02  0.7818608E-02  0.1315398E+00
          2   -1    0    0  502    0  0.00000000000E+00  0.00000000000E+00  0.12494682197E+04  0.12494682197E+04  0.00000000000E+00 0. -1.
          1   -1    0    0  501    0 -0.00000000000E+00 -0.00000000000E+00 -0.12052733836E+04  0.12052733836E+04  0.00000000000E+00 0. -1.
         25    2    1    2    0    0 -0.37064170005E+02 -0.98204814660E+02  0.18459217775E+03  0.24640692768E+03  0.12499665437E+03 0.  0.
          2    1    1    2  501    0 -0.44666108764E+02  0.72901493130E+02 -0.11710349892E+04  0.11741518790E+04  0.00000000000E+00 0. -1.
          1    1    1    2  502    0  0.81730278769E+02  0.25303321530E+02  0.10306376474E+04  0.10341827966E+04  0.00000000000E+00 0. -1.
         22    1    3    3    0    0 -0.25751932380E+02 -0.12741967321E+03  0.16236908147E+03  0.20799676382E+03  0.00000000000E+00 0. -1.
         22    1    3    3    0    0 -0.11312237625E+02  0.29214858546E+02  0.22223096281E+02  0.38410163867E+02  0.00000000000E+00 0. -1.
</event>
<event>
 7    1  0.6444902E-006  0.8116743E+02  0.7818608E-02  0.1406775E+00
          2   -1    0    0  502    0  0.00000000000E+00  0.00000000000E+00  0.10782167086E+04  0.10782167086E+04  0.00000000000E+00 0. -1.
          1   -1    0    0  501    0 -0.00000000000E+00 -0.00000000000E+00 -0.13775922757E+04  0.13775922757E+04  0.00000000000E+00 0. -1.
         25    2    1    2    0    0 -0.43765939552E+02  0.11338825510E+03  0.20889239286E+03  0.27209105995E+03  0.12500063700E+03 0.  0.
          2    1    1    2  501    0  0.35041163614E+02 -0.72989217959E+02 -0.13442644031E+04  0.13467004473E+04  0.00000000000E+00 0. -1.
          1    1    1    2  502    0  0.87247759381E+01 -0.40399037140E+02  0.83599644320E+03  0.83701747709E+03  0.00000000000E+00 0. -1.
         22    1    3    3    0    0 -0.12537663021E+02  0.10783010164E+03  0.21400379453E+03  0.23996280522E+03  0.00000000000E+00 0.  1.
         22    1    3    3    0    0 -0.31228276531E+02  0.55581534544E+01 -0.51114016722E+01  0.32128254730E+02  0.00000000000E+00 0.  1.
</event>
<event>
 7    1  0.6444902E-006  0.1096318E+03  0.7818608E-02  0.1374532E+00
          2   -1    0    0  502    0  0.00000000000E+00  0.00000000000E+00  0.78750206024E+03  0.78750206024E+03  0.00000000000E+00 0. -1.
          1   -1    0    0  501    0 -0.00000000000E+00 -0.00000000000E+00 -0.30380315253E+03  0.30380315253E+03  0.00000000000E+00 0. -1.
         25    2    1    2    0    0 -0.79271106790E+02 -0.11738477651E+03  0.25400368982E+03  0.31655451424E+03  0.12500316762E+03 0.  0.
          2    1    1    2  501    0  0.12060567802E+02  0.37761435085E+02 -0.26563658700E+03  0.26857806990E+03  0.00000000000E+00 0. -1.
          1    1    1    2  502    0  0.67210538988E+02  0.79623341420E+02  0.49533180489E+03  0.50617262864E+03  0.00000000000E+00 0. -1.
         22    1    3    3    0    0 -0.25683867385E+02 -0.73504334307E+02  0.23068888060E+03  0.24347465543E+03  0.00000000000E+00 0.  1.
         22    1    3    3    0    0 -0.53587239405E+02 -0.43880442198E+02  0.23314809229E+02  0.73079858812E+02  0.00000000000E+00 0.  1.
</event>
<event>
 7    1  0.6444902E-006  0.4300471E+02  0.7818608E-02  0.1492660E+00
          2   -1    0    0  502    0  0.00000000000E+00  0.00000000000E+00  0.29696580727E+03  0.29696580727E+03  0.00000000000E+00 0. -1.
          1   -1    0    0  501    0 -0.00000000000E+00 -0.00000000000E+00 -0.28075288190E+03  0.28075288190E+03  0.00000000000E+00 0. -1.
         25    2    1    2    0    0  0.11058506592E+02 -0.14760259592E+02 -0.89932541537E+02  0.15508902740E+03  0.12499835424E+03 0.  0.
          2    1    1    2  501    0 -0.46058337969E+02 -0.73495830811E+01 -0.15312711732E+03  0.16007279883E+03  0.00000000000E+00 0. -1.
          1    1    1    2  502    0  0.34999831377E+02  0.22109842673E+02  0.25927258423E+03  0.26255686293E+03  0.00000000000E+00 0. -1.
         22    1    3    3    0    0  0.37470234222E+02  0.22331949669E+02  0.10456181276E+02  0.44856060410E+02  0.00000000000E+00 0. -1.
         22    1    3    3    0    0 -0.26411727630E+02 -0.37092209260E+02 -0.10038872281E+03  0.11023296699E+03  0.00000000000E+00 0. -1.
</event>
<event>
 7    1  0.6444902E-006  0.8221206E+02  0.7818608E-02  0.1322927E+00
          2   -1    0    0  502    0  0.00000000000E+00  0.00000000000E+00  0.11622262967E+04  0.11622262967E+04  0.00000000000E+00 0. -1.
          1   -1    0    0  501    0 -0.00000000000E+00 -0.00000000000E+00 -0.39011719923E+03  0.39011719923E+03  0.00000000000E+00 0. -1.
         25    2    1    2    0    0  0.60819037077E+01 -0.44586850242E+02  0.32139542207E+03  0.34776908728E+03  0.12499337571E+03 0.  0.
          2    1    1    2  501    0 -0.82075673811E+02  0.13221755363E+02 -0.37026835404E+03  0.37948634369E+03  0.00000000000E+00 0. -1.
          1    1    1    2  502    0  0.75993770103E+02  0.31365094879E+02  0.82098202947E+03  0.82508806499E+03  0.00000000000E+00 0. -1.
         22    1    3    3    0    0 -0.22081946302E+02 -0.82093940634E+02  0.22615882617E+03  0.24160886179E+03  0.00000000000E+00 0.  1.
         22    1    3    3    0    0  0.28163850009E+02  0.37507090392E+02  0.95236595903E+02  0.10616022549E+03  0.00000000000E+00 0.  1.
</event>
<event>
 7    1  0.6444902E-006  0.5153138E+02  0.7818608E-02  0.1511963E+00
          2   -1    0    0  502    0  0.00000000000E+00  0.00000000000E+00  0.17539563471E+04  0.17539563471E+04  0.00000000000E+00 0. -1.
          1   -1    0    0  501    0 -0.00000000000E+00 -0.00000000000E+00 -0.80087851490E+02  0.80087851490E+02  0.00000000000E+00 0. -1.
         25    2    1    2    0    0  0.79164019905E+02  0.19323472733E+02  0.86539674248E+03  0.87816673739E+03  0.12499983252E+03 0.  0.
          2    1    1    2  501    0 -0.49649082687E+02 -0.12606186587E+02 -0.64508323500E+02  0.82372757346E+02  0.00000000000E+00 0. -1.
          1    1    1    2  502    0 -0.29514937219E+02 -0.67172861468E+01  0.87298007665E+03  0.87350470387E+03  0.00000000000E+00 0. -1.
         22    1    3    3    0    0  0.38739077421E+02  0.52996793901E+02  0.72939421588E+03  0.73234233692E+03  0.00000000000E+00 0.  1.
         22    1    3    3    0    0  0.40424942484E+02 -0.33673321167E+02  0.13600252659E+03  0.14582440047E+03  0.00000000000E+00 0.  1.
</event>
<event>
 7    1  0.6444902E-006  0.9139443E+02  0.7818608E-02  0.1347888E+00
          2   -1    0    0  502    0  0.00000000000E+00  0.00000000000E+00  0.40673832354E+04  0.40673832354E+04  0.00000000000E+00 0. -1.
          1   -1    0    0  501    0 -0.00000000000E+00 -0.00000000000E+00 -0.63610652976E+03  0.63610652976E+03  0.00000000000E+00 0. -1.
         25    2    1    2    0    0  0.85568559123E+02  0.10870117052E+03 -0.35428851271E+03  0.40035423949E+03  0.12500097621E+03 0.  0.
          2    1    1    2  501    0 -0.90898005465E+01 -0.58761022071E+02 -0.25484670963E+03  0.26169128300E+03  0.00000000000E+00 0. -1.
          1    1    1    2  502    0 -0.76478758577E+02 -0.49940148448E+02  0.40404119280E+04  0.40414442427E+04  0.00000000000E+00 0. -1.
         22    1    3    3    0    0  0.11679052967E+03  0.72796333777E+02 -0.28236014331E+03  0.31411237570E+03  0.00000000000E+00 0.  1.
         22    1    3    3    0    0 -0.31221970548E+02  0.35904836742E+02 -0.71928369395E+02  0.86241863792E+02  0.00000000000E+00 0.  1.
</event>
<event>
 7    1  0.6444902E-006  0.1219404E+03  0.7818608E-02  0.1301885E+00
          2   -1    0    0  502    0  0.00000000000E+00  0.00000000000E+00  0.10807258682E+04  0.10807258682E+04  0.00000000000E+00 0. -1.
          1   -1    0    0  501    0 -0.00000000000E+00 -0.00000000000E+00 -0.39000690495E+03  0.39000690495E+03  0.00000000000E+00 0. -1.
         25    2    1    2    0    0  0.17332790299E+03 -0.23694051742E+01  0.18271410508E+03  0.28117014145E+03  0.12499611278E+03 0.  0.
          2    1    1    2  501    0 -0.11470828081E+03  0.34853361324E+02 -0.32885361286E+03  0.35002492078E+03  0.00000000000E+00 0. -1.
          1    1    1    2  502    0 -0.58619622183E+02 -0.32483956150E+02  0.83685847098E+03  0.83953771087E+03  0.00000000000E+00 0. -1.
         22    1    3    3    0    0  0.75889625406E+02 -0.19787323397E+02  0.60419298659E+01  0.78659254560E+02  0.00000000000E+00 0. -1.
         22    1    3    3    0    0  0.97438277586E+02  0.17417918222E+02  0.17667217521E+03  0.20251088689E+03  0.00000000000E+00 0. -1.
</event>
<event>
 7    1  0.6444902E-006  0.2533288E+02  0.7818608E-02  0.1666392E+00
          2   -1    0    0  502    0  0.00000000000E+00  0.00000000000E+00  0.60118626014E+03  0.60118626014E+03  0.00000000000E+00 0. -1.
          1   -1    0    0  501    0 -0.00000000000E+00 -0.00000000000E+00 -0.10490750748E+03  0.10490750748E+03  0.00000000000E+00 0. -1.
         25    2    1    2    0    0  0.48493428803E+02  0.25739085482E+01  0.25185414926E+03  0.28532873153E+03  0.12499493946E+03 0.  0.
          2    1    1    2  501    0 -0.23798020243E+02 -0.26419899089E+01 -0.86075375729E+02  0.89343696952E+02  0.00000000000E+00 0. -1.
          1    1    1    2  502    0 -0.24695408560E+02  0.68081360749E-01  0.33049997912E+03  0.33142133914E+03  0.00000000000E+00 0. -1.
         22    1    3    3    0    0  0.28539096700E+02  0.40195909872E+02  0.26465062669E+02  0.55951682306E+02  0.00000000000E+00 0.  1.
         22    1    3    3    0    0  0.19954332103E+02 -0.37622001323E+02  0.22538908660E+03  0.22937704922E+03  0.00000000000E+00 0.  1.
</event>
<event>
 7    1  0.6444902E-006  0.8127864E+02  0.7818608E-02  0.1361833E+00
          2   -1    0    0  502    0  0.00000000000E+00  0.00000000000E+00  0.93623026618E+02  0.93623026618E+02  0.00000000000E+00 0. -1.
          1   -1    0    0  501    0 -0.00000000000E+00 -0.00000000000E+00 -0.14557344647E+04  0.14557344647E+04  0.00000000000E+00 0. -1.
         25    2    1    2    0    0 -0.13602289557E+03  0.21607912360E+02 -0.16463261345E+03  0.24839070075E+03  0.12499965125E+03 0.  0.
          2    1    1    2  501    0  0.76610117349E+02 -0.21513216206E+02 -0.12304486906E+04  0.12330190221E+04  0.00000000000E+00 0. -1.
          1    1    1    2  502    0  0.59412778221E+02 -0.94696153418E-01  0.32969865969E+02  0.67947768509E+02  0.00000000000E+00 0. -1.
         22    1    3    3    0    0 -0.67522661500E+02 -0.49198682369E+02 -0.10114654710E+03  0.13118858240E+03  0.00000000000E+00 0. -1.
         22    1    3    3    0    0 -0.68500234071E+02  0.70806594729E+02 -0.63486066352E+02  0.11720211835E+03  0.00000000000E+00 0. -1.
</event>
<event>
 7    1  0.6444902E-006  0.1446565E+03  0.7818608E-02  0.1386953E+00
          2   -1    0    0  502    0  0.00000000000E+00  0.00000000000E+00  0.15947337433E+04  0.15947337433E+04  0.00000000000E+00 0. -1.
          1   -1    0    0  501    0 -0.00000000000E+00 -0.00000000000E+00 -0.15205749461E+03  0.15205749461E+03  0.00000000000E+00 0. -1.
         25    2    1    2    0    0 -0.12974695080E+03  0.59027555723E+02  0.19187023825E+03  0.26973521969E+03  0.12499750733E+03 0.  0.
          2    1    1    2  501    0  0.11887955821E+03 -0.83909271188E+02 -0.66135709653E+02  0.15983443697E+03  0.00000000000E+00 0. -1.
          1    1    1    2  502    0  0.10867392593E+02  0.24881715465E+02  0.13169417201E+04  0.13172215813E+04  0.00000000000E+00 0. -1.
         22    1    3    3    0    0 -0.88425193642E+02  0.87953524457E+02  0.83183277996E+02  0.14991429243E+03  0.00000000000E+00 0. -1.
         22    1    3    3    0    0 -0.41321757158E+02 -0.28925968734E+02  0.10868696025E+03  0.11982092726E+03  0.00000000000E+00 0. -1.
</event>
<event>
 7    1  0.6444902E-006  0.1420821E+03  0.7818608E-02  0.1380602E+00
          2   -1    0    0  502    0  0.00000000000E+00  0.00000000000E+00  0.14524049460E+04  0.14524049460E+04  0.00000000000E+00 0. -1.
          1   -1    0    0  501    0 -0.00000000000E+00 -0.00000000000E+00 -0.31930103006E+03  0.31930103006E+03  0.00000000000E+00 0. -1.
         25    2    1    2    0    0  0.57063108225E+02 -0.14925792880E+03 -0.12066430251E+03  0.23605355509E+03  0.12500911703E+03 0.  0.
          2    1    1    2  501    0 -0.27063079597E+02  0.10708279635E+02 -0.13579395045E+03  0.13887791225E+03  0.00000000000E+00 0. -1.
          1    1    1    2  502    0 -0.30000028628E+02  0.13854964916E+03  0.13895621689E+04  0.13967745087E+04  0.00000000000E+00 0. -1.
         22    1    3    3    0    0  0.71118217953E+02 -0.94641028339E+02 -0.19145925997E+02  0.11992202322E+03  0.00000000000E+00 0. -1.
         22    1    3    3    0    0 -0.14055109728E+02 -0.54616900457E+02 -0.10151837651E+03  0.11613153187E+03  0.00000000000E+00 0. -1.
</event>
<event>
 7    1  0.6444902E-006  0.8754289E+02  0.7818608E-02  0.1461163E+00
          2   -1    0    0  502    0  0.00000000000E+00  0.00000000000E+00  0.57922946174E+02  0.57922946174E+02  0.00000000000E+00 0. -1.
          1   -1    0    0  501    0 -0.00000000000E+00 -0.00000000000E+00 -0.81808818082E+03  0.81808818082E+03  0.00000000000E+00 0. -1.
         25    2    1    2    0    0  0.51636400728E+02 -0.55997542913E+02 -0.56181467529E+03  0.58057083215E+03  0.12499887630E+03 0.  0.
          2    1    1    2  501    0 -0.60956214417E+02  0.79657082065E+02 -0.23229610710E+03  0.25302646536E+03  0.00000000000E+00 0. -1.
          1    1    1    2  502    0  0.93198136888E+01 -0.23659539152E+02  0.33945547744E+02  0.42413829486E+02  0.00000000000E+00 0. -1.
         22    1    3    3    0    0  0.69246097575E+02  0.11097724163E+02 -0.37025758233E+03  0.37684062784E+03  0.00000000000E+00 0.  1.
         22    1    3    3    0    0 -0.17609696846E+02 -0.67095267076E+02 -0.19155709296E+03  0.20373020431E+03  0.00000000000E+00 0.  1.
</event>
<event>
 7    1  0.6444902E-006  0.1235389E+03  0.7818608E-02  0.1331775E+00
          2   -1    0    0  502    0  0.00000000000E+00  0.00000000000E+00  0.15027707269E+04  0.15027707269E+04  0.00000000000E+00 0. -1.
          1   -1    0    0  501    0 -0.00000000000E+00 -0.00000000000E+00 -0.19465755880E+04  0.19465755880E+04  0.00000000000E+00 0. -1.
         25    2    1    2    0    0  0.29960119158E+02 -0.67912440711E+02 -0.88406155489E+02  0.17014826954E+03  0.12500030782E+03 0.  0.
          2    1    1    2  501    0  0.14242792151E+02 -0.48533254191E+02 -0.18142923103E+04  0.18149972234E+04  0.00000000000E+00 0. -1.
          1    1    1    2  502    0 -0.44202911309E+02  0.11644569490E+03  0.14588936047E+04  0.14642008220E+04  0.00000000000E+00 0. -1.
         22    1    3    3    0    0 -0.26376546812E+02 -0.68382392824E+02 -0.87046109983E+02  0.11379322973E+03  0.00000000000E+00 0.  1.
         22    1    3    3    0    0  0.56336665970E+02  0.46995211297E+00 -0.13600455062E+01  0.56355039804E+02  0.00000000000E+00 0.  1.
</event>
<event>
 7    1  0.6444902E-006  0.7728537E+02  0.7818608E-02  0.1344853E+00
          2   -1    0    0  502    0  0.00000000000E+00  0.00000000000E+00  0.10574479063E+04  0.10574479063E+04  0.00000000000E+00 0. -1.
          1   -1    0    0  501    0 -0.00000000000E+00 -0.00000000000E+00 -0.52005802695E+03  0.52005802695E+03  0.00000000000E+00 0. -1.
         25    2    1    2    0    0 -0.16938810659E+02  0.10376453878E+03  0.12142009932E+03  0.20352320046E+03  0.12499939917E+03 0.  0.
          2    1    1    2  501    0  0.61412427807E+02 -0.46926565846E+02 -0.47441923054E+03  0.48067368888E+03  0.00000000000E+00 0. -1.
          1    1    1    2  502    0 -0.44473617148E+02 -0.56837972930E+02  0.89038901062E+03  0.89330904396E+03  0.00000000000E+00 0. -1.
         22    1    3    3    0    0  0.57707634108E+01  0.12015665826E+03  0.56669802110E+02  0.13297515070E+03  0.00000000000E+00 0. -1.
         22    1    3    3    0    0 -0.22709574070E+02 -0.16392119480E+02  0.64750297209E+02  0.70548049754E+02  0.00000000000E+00 0. -1.
</event>
<event>
 7    1  0.6444902E-006  0.6981751E+02  0.7818608E-02  0.1372425E+00
          2   -1    0    0  502    0  0.00000000000E+00  0.00000000000E+00  0.14024598032E+04  0.14024598032E+04  0.00000000000E+00 0. -1.
          1   -1    0    0  501    0 -0.00000000000E+00 -0.00000000000E+00 -0.37187426833E+03  0.37187426833E+03  0.00000000000E+00 0. -1.
         25    2    1    2    0    0  0.23030456126E+02  0.60253550838E+02 -0.14503344749E+00  0.14066258950E+03  0.12500020301E+03 0.  0.
          2    1    1    2  501    0 -0.69622127586E+02 -0.17350850590E+02 -0.29643520941E+03  0.30499528856E+03  0.00000000000E+00 0. -1.
          1    1    1    2  502    0  0.46591671459E+02 -0.42902700248E+02  0.13271657777E+04  0.13286761934E+04  0.00000000000E+00 0. -1.
         22    1    3    3    0    0 -0.40174743265E+02 -0.26202484919E+01 -0.25892403305E+02  0.47867444547E+02  0.00000000000E+00 0. -1.
         22    1    3    3    0    0  0.63205199392E+02  0.62873799330E+02  0.25747369857E+02  0.92795144953E+02  0.00000000000E+00 0. -1.
</event>
<event>
 7    1  0.6444902E-006  0.7026875E+02  0.7818608E-02  0.1483960E+00
          2   -1    0    0  502    0  0.00000000000E+00  0.00000000000E+00  0.15990130065E+04  0.15990130065E+04  0.00000000000E+00 0. -1.
          1   -1    0    0  501    0 -0.00000000000E+00 -0.00000000000E+00 -0.12618335793E+04  0.12618335793E+04  0.00000000000E+00 0. -1.
         25    2    1    2    0    0 -0.20807843361E+02  0.42088994733E+02  0.10589389572E+03  0.17042076394E+03  0.12500107924E+03 0.  0.
          2    1    1    2  501    0  0.44743915677E+02 -0.54414159494E+02 -0.12284368369E+04  0.12304551926E+04  0.00000000000E+00 0. -1.
          1    1    1    2  502    0 -0.23936072316E+02  0.12325164761E+02  0.14597223684E+04  0.14599706292E+04  0.00000000000E+00 0. -1.
         22    1    3    3    0    0  0.29389193388E+02  0.14999720507E-01 -0.14946289828E+02  0.32971449659E+02  0.00000000000E+00 0.  1.
         22    1    3    3    0    0 -0.50197036750E+02  0.42073995013E+02  0.12084018555E+03  0.13744931429E+03  0.00000000000E+00 0.  1.
</event>
<event>
 7    1  0.6444902E-006  0.1611172E+03  0.7818608E-02  0.1399190E+00
          2   -1    0    0  502    0  0.00000000000E+00  0.00000000000E+00  0.74225875920E+03  0.74225875920E+03  0.00000000000E+00 0. -1.
          1   -1    0    0  501    0 -0.00000000000E+00 -0.00000000000E+00 -0.51640771453E+03  0.51640771453E+03  0.00000000000E+00 0. -1.
         25    2    1    2    0    0  0.16434286908E+03  0.60827177768E+02 -0.36352441908E+03  0.42247368309E+03  0.12500194181E+03 0.  0.
          2    1    1    2  501    0 -0.87198666473E+01 -0.20311808185E+02 -0.11325651708E+03  0.11539343260E+03  0.00000000000E+00 0. -1.
          1    1    1    2  502    0 -0.15562300244E+03 -0.40515369584E+02  0.70263198083E+03  0.72079935804E+03  0.00000000000E+00 0. -1.
         22    1    3    3    0    0  0.49765539328E+02  0.70244358104E+02 -0.84208834662E+02  0.12042427739E+03  0.00000000000E+00 0. -1.
         22    1    3    3    0    0  0.11457732976E+03 -0.94171803353E+01 -0.27931558442E+03  0.30204940569E+03  0.00000000000E+00 0. -1.
</event>
<event>
 7    1  0.6444902E-006  0.8668282E+02  0.7818608E-02  0.1449837E+00
          2   -1    0    0  502    0  0.00000000000E+00  0.00000000000E+00  0.15523891403E+04  0.15523891403E+04  0.00000000000E+00 0. -1.
          1   -1    0    0  501    0 -0.00000000000E+00 -0.00000000000E+00 -0.16081476778E+03  0.16081476778E+03  0.00000000000E+00 0. -1.
         25    2    1    2    0    0  0.52840509618E+02 -0.69720968100E+02  0.64801023890E+03  0.66572869439E+03  0.12499716781E+03 0.  0.
          2    1    1    2  501    0 -0.71561653117E+02  0.49037045166E+02 -0.13933581220E+03  0.16413461109E+03  0.00000000000E+00 0. -1.
          1    1    1    2  502    0  0.18721143499E+02  0.20683922934E+02  0.88289994582E+03  0.88334060260E+03  0.00000000000E+00 0. -1.
         22    1    3    3    0    0 -0.34375236337E+02 -0.44165277287E+02  0.16473903965E+03  0.17398614823E+03  0.00000000000E+00 0. -1.
         22    1    3    3    0    0  0.87215745955E+02 -0.25555690813E+02  0.48327119925E+03  0.49174254616E+03  0.00000000000E+00 0. -1.
</event>
<event>
 7    1  0.6444902E-006  0.6134751E+02  0.7818608E-02  0.1451251E+00
          2   -1    0    0  502    0  0.00000000000E+00  0.00000000000E+00  0.69013235737E+02  0.69013235737E+02  0.00000000000E+00 0. -1.
          1   -1    0    0  501    0 -0.00000000000E+00 -0.00000000000E+00 -0.27521441491E+04  0.27521441491E+04  0.00000000000E+00 0. -1.
         25    2    1    2    0    0 -0.14843687230E+02  0.21158213191E+02 -0.17268734124E+04  0.17315844471E+04  0.12499964049E+03 0.  0.
          2    1    1    2  501    0 -0.37099744131E+02  0.12061999394E+02 -0.10081985340E+04  0.10089530053E+04  0.00000000000E+00 0. -1.
          1    1    1    2  502    0  0.51943431361E+02 -0.33220212585E+02  0.51941033064E+02  0.80619932409E+02  0.00000000000E+00 0. -1.
         22    1    3    3    0    0 -0.49517469251E+02 -0.29888353287E+02 -0.53561849669E+03  0.53873227806E+03  0.00000000000E+00 0.  1.
         22    1    3    3    0    0  0.34673782021E+02  0.51046566478E+02 -0.11912549157E+04  0.11928521691E+04  0.00000000000E+00 0.  1.
</event>
<event>
 7    1  0.6444902E-006  0.5284261E+02  0.7818608E-02  0.1477228E+00
          2   -1    0    0  502    0  0.00000000000E+00  0.00000000000E+00  0.85719633451E+03  0.85719633451E+03  0.00000000000E+00 0. -1.
          1   -1    0    0  501    0 -0.00000000000E+00 -0.00000000000E+00 -0.12867764942E+04  0.12867764942E+04  0.00000000000E+00 0. -1.
         25    2    1    2    0    0  0.19263386561E+02  0.70562432158E+01  0.98453213164E+02  0.16043318529E+03  0.12499961252E+03 0.  0.
          2    1    1    2  501    0 -0.51626237001E+02  0.11974362409E+02 -0.12547425756E+04  0.12558612919E+04  0.00000000000E+00 0. -1.
          1    1    1    2  502    0  0.32362850440E+02 -0.19030605625E+02  0.72670920265E+03  0.72767835151E+03  0.00000000000E+00 0. -1.
         22    1    3    3    0    0  0.27619936662E+02 -0.10729343426E+02 -0.22931721238E+02  0.37467900268E+02  0.00000000000E+00 0.  1.
         22    1    3    3    0    0 -0.83565501015E+01  0.17785586642E+02  0.12138493440E+03  0.12296528503E+03  0.00000000000E+00 0.  1.
</event>
<event>
 7    1  0.6444902E-006  0.1371400E+03  0.7818608E-02  0.1368941E+00
          2   -1    0    0  502    0  0.00000000000E+00  0.00000000000E+00  0.20238781834E+04  0.20238781834E+04  0.00000000000E+00 0. -1.
          1   -1    0    0  501    0 -0.00000000000E+00 -0.00000000000E+00 -0.37456319530E+03  0.37456319530E+03  0.00000000000E+00 0. -1.
         25    2    1    2    0    0  0.12401954621E+02 -0.12424302923E+03 -0.27189028814E+03  0.32425229820E+03  0.12500034125E+03 0.  0.
          2    1    1    2  501    0 -0.31036406806E+02 -0.11750666009E+02 -0.70415377142E+02  0.77843831079E+02  0.00000000000E+00 0. -1.
          1    1    1    2  502    0  0.18634452185E+02  0.13599369524E+03  0.19916206533E+04  0.19963452494E+04  0.00000000000E+00 0. -1.
         22    1    3    3    0    0 -0.10528137945E+02 -0.11012432482E+02  0.10926845533E+02  0.18748634912E+02  0.00000000000E+00 0. -1.
         22    1    3    3    0    0  0.22930092567E+02 -0.11323059675E+03 -0.28281713367E+03  0.30550366329E+03  0.00000000000E+00 0. -1.
</event>
<event>
 7    1  0.6444902E-006  0.3127215E+02  0.7818608E-02  0.1589613E+00
          2   -1    0    0  502    0  0.00000000000E+00  0.00000000000E+00  0.26878665397E+03  0.26878665397E+03  0.00000000000E+00 0. -1.
          1   -1    0    0  501    0 -0.00000000000E+00 -0.00000000000E+00 -0.70511993040E+03  0.70511993040E+03  0.00000000000E+00 0. -1.
         25    2    1    2    0    0  0.34125140832E+02 -0.69813142844E+01 -0.14677256187E+03  0.19590927077E+03  0.12499997387E+03 0.  0.
          2    1    1    2  501    0 -0.21255965514E+02 -0.21589860582E+02 -0.53234132711E+03  0.53320280072E+03  0.00000000000E+00 0. -1.
          1    1    1    2  502    0 -0.12869175318E+02  0.28571174866E+02  0.24278061255E+03  0.24479451289E+03  0.00000000000E+00 0. -1.
         22    1    3    3    0    0  0.25129787940E+02 -0.63269518510E+02 -0.53442417318E+02  0.86548426810E+02  0.00000000000E+00 0.  1.
         22    1    3    3    0    0  0.89953528920E+01  0.56288204226E+02 -0.93330144554E+02  0.10936084396E+03  0.00000000000E+00 0.  1.
</event>
<event>
 7    1  0.6444902E-006  0.6596766E+02  0.7818608E-02  0.1429333E+00
          2   -1    0    0  502    0  0.00000000000E+00  0.00000000000E+00  0.62488232434E+03  0.62488232434E+03  0.00000000000E+00 0. -1.
          1   -1    0    0  501    0 -0.00000000000E+00 -0.00000000000E+00 -0.81551009992E+02  0.81551009992E+02  0.00000000000E+00 0. -1.
         25    2    1    2    0    0 -0.50416102934E+02  0.40799449555E+02  0.90139356472E+02  0.16720082142E+03  0.12499853030E+03 0.  0.
          2    1    1    2  501    0  0.35186220610E+02  0.24249412570E+02 -0.29508154990E+02  0.51931063360E+02  0.00000000000E+00 0. -1.
          1    1    1    2  502    0  0.15229882324E+02 -0.65048862125E+02  0.48270011287E+03  0.48730144956E+03  0.00000000000E+00 0. -1.
         22    1    3    3    0    0  0.36713903211E+02  0.19870143807E+02  0.24389081760E+01  0.41817240188E+02  0.00000000000E+00 0. -1.
         22    1    3    3    0    0 -0.87130006145E+02  0.20929305748E+02  0.87700448296E+02  0.12538358123E+03  0.00000000000E+00 0. -1.
</event>
<event>
 7    1  0.6444902E-006  0.1033046E+03  0.7818608E-02  0.1275879E+00
          2   -1    0    0  502    0  0.00000000000E+00  0.00000000000E+00  0.21124295070E+04  0.21124295070E+04  0.00000000000E+00 0. -1.
          1   -1    0    0  501    0 -0.00000000000E+00 -0.00000000000E+00 -0.14753979082E+03  0.14753979082E+03  0.00000000000E+00 0. -1.
         25    2    1    2    0    0  0.44759402813E+02 -0.95350619083E+02  0.61008636987E+02  0.17447510078E+03  0.12499744920E+03 0.  0.
          2    1    1    2  501    0  0.58541397318E+02  0.94461870890E+02 -0.54926842373E+02  0.12396410071E+03  0.00000000000E+00 0. -1.
          1    1    1    2  502    0 -0.10330080013E+03  0.88874819387E+00  0.19588079215E+04  0.19615300963E+04  0.00000000000E+00 0. -1.
         22    1    3    3    0    0  0.10459737110E+02 -0.72679101646E+01 -0.36507060241E+02  0.38665153123E+02  0.00000000000E+00 0.  1.
         22    1    3    3    0    0  0.34299665703E+02 -0.88082708919E+02  0.97515697228E+02  0.13580994766E+03  0.00000000000E+00 0.  1.
</event>
<event>
 7    1  0.6444902E-006  0.1497078E+03  0.7818608E-02  0.1232035E+00
          2   -1    0    0  502    0  0.00000000000E+00  0.00000000000E+00  0.65245345991E+03  0.65245345991E+03  0.00000000000E+00 0. -1.
          1   -1    0    0  501    0 -0.00000000000E+00 -0.00000000000E+00 -0.12727555451E+04  0.12727555451E+04  0.00000000000E+00 0. -1.
         25    2    1    2    0    0 -0.77127654139E+02 -0.22532471905E+03 -0.23746982087E+02  0.27001640628E+03  0.12500014583E+03 0.  0.
          2    1    1    2  501    0  0.86957675886E+02  0.11810344261E+03 -0.11155484360E+04  0.11251481563E+04  0.00000000000E+00 0. -1.
          1    1    1    2  502    0 -0.98300217471E+01  0.10722127644E+03  0.51899333285E+03  0.53004444247E+03  0.00000000000E+00 0. -1.
         22    1    3    3    0    0 -0.57934150770E+02 -0.23707448339E+03 -0.11329344580E+02  0.24431338594E+03  0.00000000000E+00 0. -1.
         22    1    3    3    0    0 -0.19193503369E+02  0.11749764340E+02 -0.12417637507E+02  0.25703020346E+02  0.00000000000E+00 0. -1.
</event>
<event>
 7    1  0.6444902E-006  0.5576525E+02  0.7818608E-02  0.1457864E+00
          2   -1    0    0  502    0  0.00000000000E+00  0.00000000000E+00  0.10066351374E+04  0.10066351374E+04  0.00000000000E+00 0. -1.
          1   -1    0    0  501    0 -0.00000000000E+00 -0.00000000000E+00 -0.26686903891E+03  0.26686903891E+03  0.00000000000E+00 0. -1.
         25    2    1    2    0    0 -0.22090536476E+02  0.26150921327E+01  0.98243333993E+02  0.16053194186E+03  0.12499568462E+03 0.  0.
          2    1    1    2  501    0  0.41732775845E+02 -0.38476540511E+02 -0.23182227497E+03  0.23867055940E+03  0.00000000000E+00 0. -1.
          1    1    1    2  502    0 -0.19642239369E+02  0.35861448378E+02  0.87334503948E+03  0.87430167507E+03  0.00000000000E+00 0. -1.
         22    1    3    3    0    0 -0.45677821348E+02 -0.14652545495E+02  0.11655306233E+03  0.12603879082E+03  0.00000000000E+00 0. -1.
         22    1    3    3    0    0  0.23587284872E+02  0.17267637628E+02 -0.18309728336E+02  0.34493151039E+02  0.00000000000E+00 0. -1.
</event>
<event>
 7    1  0.6444902E-006  0.6878791E+02  0.7818608E-02  0.1490036E+00
          2   -1    0    0  502    0  0.00000000000E+00  0.00000000000E+00  0.10932743593E+04  0.10932743593E+04  0.00000000000E+00 0. -1.
          1   -1    0    0  501    0 -0.00000000000E+00 -0.00000000000E+00 -0.33262880435E+03  0.33262880435E+03  0.00000000000E+00 0. -1.
         25    2    1    2    0    0 -0.55211856783E+02  0.44624924967E+00  0.24149680887E+03  0.27747392250E+03  0.12499008242E+03 0.  0.
          2    1    1    2  501    0  0.64675572330E+02  0.24154288193E+02 -0.31064131534E+03  0.31822065629E+03  0.00000000000E+00 0. -1.
          1    1    1    2  502    0 -0.94637155471E+01 -0.24600537443E+02  0.82979006140E+03  0.83020858484E+03  0.00000000000E+00 0. -1.
         22    1    3    3    0    0  0.20347291820E+02  0.11981684401E+02  0.17371994025E+03  0.17531739984E+03  0.00000000000E+00 0.  1.
         22    1    3    3    0    0 -0.75559148603E+02 -0.11535435151E+02  0.67776868620E+02  0.10215652266E+03  0.00000000000E+00 0.  1.
</event>
<event>
 7    1  0.6444902E-006  0.6605339E+02  0.7818608E-02  0.1432562E+00
          2   -1    0    0  502    0  0.00000000000E+00  0.00000000000E+00  0.33900876184E+04  0.33900876184E+04  0.00000000000E+00 0. -1.
          1   -1    0    0  501    0 -0.00000000000E+00 -0.00000000000E+00 -0.77990906312E+03  0.77990906312E+03  0.00000000000E+00 0. -1.
         25    2    1    2    0    0 -0.47548558006E+01  0.10337705259E+03 -0.34512877308E+02  0.16590482327E+03  0.12499539203E+03 0.  0.
          2    1    1    2  501    0 -0.12485040781E+02 -0.39731422505E+02 -0.67873491615E+03  0.68001143268E+03  0.00000000000E+00 0. -1.
          1    1    1    2  502    0  0.17239896581E+02 -0.63645630082E+02  0.33234263488E+04  0.33240804256E+04  0.00000000000E+00 0. -1.
         22    1    3    3    0    0 -0.93692630865E+01 -0.24466324914E+02 -0.27205978050E+02  0.37769688736E+02  0.00000000000E+00 0. -1.
         22    1    3    3    0    0  0.46144072859E+01  0.12784337750E+03 -0.73068992579E+01  0.12813513453E+03  0.00000000000E+00 0. -1.
</event>
<event>
 7    1  0.6444902E-006  0.1007245E+03  0.7818608E-02  0.1287613E+00
          2   -1    0    0  502    0  0.00000000000E+00  0.00000000000E+00  0.81999744448E+02  0.81999744448E+02  0.00000000000E+00 0. -1.
          1   -1    0    0  501    0 -0.00000000000E+00 -0.00000000000E+00 -0.12312234961E+04  0.12312234961E+04  0.00000000000E+00 0. -1.
         25    2    1    2    0    0  0.60061925779E+01 -0.57604130740E+02 -0.21122257133E+03  0.25217721106E+03  0.12499624359E+03 0.  0.
          2    1    1    2  501    0 -0.10006872967E+03  0.21580990815E+02 -0.95363646989E+03  0.95911522067E+03  0.00000000000E+00 0. -1.
          1    1    1    2  502    0  0.94062537097E+02  0.36023139924E+02  0.15635289612E+02  0.10193080877E+03  0.00000000000E+00 0. -1.
         22    1    3    3    0    0  0.26164742870E+02  0.32996937952E+02 -0.91195988885E+02  0.10044949016E+03  0.00000000000E+00 0.  1.
         22    1    3    3    0    0 -0.20158550292E+02 -0.90601068692E+02 -0.12002658245E+03  0.15172772091E+03  0.00000000000E+00 0.  1.
</event>
<event>
 7    1  0.6444902E-006  0.1585700E+03  0.7818608E-02  0.1316256E+00
          2   -1    0    0  502    0  0.00000000000E+00  0.00000000000E+00  0.20575273169E+04  0.20575273169E+04  0.00000000000E+00 0. -1.
          1   -1    0    0  501    0 -0.00000000000E+00 -0.00000000000E+00 -0.18930314485E+04  0.18930314485E+04  0.00000000000E+00 0. -1.
         25    2    1    2    0    0 -0.24233591018E+00  0.13454858435E+03 -0.66842308850E+03  0.69319377120E+03  0.12499919565E+03 0.  0.
          2    1    1    2  501    0  0.30356634566E+02 -0.16829207964E+03 -0.12059399711E+04  0.12180045005E+04  0.00000000000E+00 0. -1.
          1    1    1    2  502    0 -0.30114298656E+02  0.33743495293E+02  0.20388589280E+04  0.20393604936E+04  0.00000000000E+00 0. -1.
         22    1    3    3    0    0  0.62124249491E+02  0.75394258128E+02 -0.35722187519E+03  0.37033928316E+03  0.00000000000E+00 0. -1.
         22    1    3    3    0    0 -0.62366585402E+02  0.59154326220E+02 -0.31120121330E+03  0.32285448804E+03  0.00000000000E+00 0. -1.
</event>
<event>
 7    1  0.6444902E-006  0.1179466E+03  0.7818608E-02  0.1441215E+00
          2   -1    0    0  502    0  0.00000000000E+00  0.00000000000E+00  0.15208955877E+04  0.15208955877E+04  0.00000000000E+00 0. -1.
          1   -1    0    0  501    0 -0.00000000000E+00 -0.00000000000E+00 -0.32237569092E+03  0.32237569092E+03  0.00000000000E+00 0. -1.
         25    2    1    2    0    0  0.90218085660E+02  0.33832430591E+02 -0.16074195309E+03  0.22527191185E+03  0.12500208976E+03 0.  0.
          2    1    1    2  501    0  0.20528841524E+02  0.75021597878E+01 -0.12608035039E+03  0.12796081623E+03  0.00000000000E+00 0. -1.
          1    1    1    2  502    0 -0.11074692718E+03 -0.41334590379E+02  0.14853422002E+04  0.14900385505E+04  0.00000000000E+00 0. -1.
         22    1    3    3    0    0 -0.20117455799E+02  0.18129590213E+02  0.29513438838E+01  0.27241595032E+02  0.00000000000E+00 0. -1.
         22    1    3    3    0    0  0.11033554146E+03  0.15702840378E+02 -0.16369329697E+03  0.19803031682E+03  0.00000000000E+00 0. -1.
</event>
<event>
 7    1  0.6444902E-006  0.6248543E+02  0.7818608E-02  0.1411207E+00
          2   -1    0    0  502    0  0.00000000000E+00  0.00000000000E+00  0.78992262415E+03  0.78992262415E+03  0.00000000000E+00 0. -1.
          1   -1    0    0  501    0 -0.00000000000E+00 -0.00000000000E+00 -0.17764577215E+04  0.17764577215E+04  0.00000000000E+00 0. -1.
         25    2    1    2    0    0  0.17242217402E+02 -0.16904585714E+02  0.11420865124E+03  0.17102970660E+03  0.12499794175E+03 0.  0.
          2    1    1    2  501    0  0.47817953381E+02  0.20072187635E+02 -0.17460225541E+04  0.17467925489E+04  0.00000000000E+00 0. -1.
          1    1    1    2  502    0 -0.65060170782E+02 -0.31676019215E+01  0.64527880551E+03  0.64855809020E+03  0.00000000000E+00 0. -1.
         22    1    3    3    0    0 -0.23192098433E+02 -0.62156260355E+02  0.65318633990E+02  0.93101010077E+02  0.00000000000E+00 0.  1.
         22    1    3    3    0    0  0.40434315834E+02  0.45251674641E+02  0.48890017247E+02  0.77928696519E+02  0.00000000000E+00 0.  1.
</event>
<event>
 7    1  0.6444902E-006  0.3895324E+02  0.7818608E-02  0.1602384E+00
          2   -1    0    0  502    0  0.00000000000E+00  0.00000000000E+00  0.16358270124E+03  0.16358270124E+03  0.00000000000E+00 0. -1.
          1   -1    0    0  501    0 -0.00000000000E+00 -0.00000000000E+00 -0.11150001869E+04  0.11150001869E+04  0.00000000000E+00 0. -1.
         25    2    1    2    0    0  0.34646435954E+02  0.43500701995E+01  0.94068720657E+02  0.16029031176E+03  0.12499904480E+03 0.  0.
          2    1    1    2  501    0 -0.28929717536E+02 -0.26127610577E+02 -0.10780216452E+04  0.10787262155E+04  0.00000000000E+00 0. -1.
          1    1    1    2  502    0 -0.57167184178E+01  0.21777540377E+02  0.32535438825E+02  0.39566360888E+02  0.00000000000E+00 0. -1.
         22    1    3    3    0    0 -0.10826302849E+02  0.56787101303E+02  0.27116150262E+02  0.63853498830E+02  0.00000000000E+00 0.  1.
         22    1    3    3    0    0  0.45472738802E+02 -0.52437031103E+02  0.66952570395E+02  0.96436812928E+02  0.00000000000E+00 0.  1.
</event>
<event>
 7    1  0.6444902E-006  0.2018057E+03  0.7818608E-02  0.1355745E+00
          2   -1    0    0  502    0  0.00000000000E+00  0.00000000000E+00  0.73543303298E+03  0.73543303298E+03  0.00000000000E+00 0. -1.
          1   -1    0    0  501    0 -0.00000000000E+00 -0.00000000000E+00 -0.14125397719E+04  0.14125397719E+04  0.00000000000E+00 0. -1.
         25    2    1    2    0    0 -0.36359371471E+02  0.17896267855E+03 -0.71154423830E+03  0.74516440073E+03  0.12500054743E+03 0.  0.
          2    1    1    2  501    0  0.12571465927E+02  0.21825499284E+02 -0.66972178138E+03  0.67019523919E+03  0.00000000000E+00 0. -1.
          1    1    1    2  502    0  0.23787905544E+02 -0.20078817783E+03  0.70415928075E+03  0.73261316496E+03  0.00000000000E+00 0. -1.
         22    1    3    3    0    0 -0.55020645015E+02  0.73380481723E+02 -0.49619399599E+03  0.50459929462E+03  0.00000000000E+00 0.  1.
         22    1    3    3    0    0  0.18661273544E+02  0.10558219682E+03 -0.21535024231E+03  0.24056510611E+03  0.00000000000E+00 0.  1.
</event>
<event>
 7    1  0.6444902E-006  0.8145287E+02  0.7818608E-02  0.1426267E+00
          2   -1    0    0  502    0  0.00000000000E+00  0.00000000000E+00  0.76032473937E+03  0.76032473937E+03  0.00000000000E+00 0. -1.
          1   -1    0    0  501    0 -0.00000000000E+00 -0.00000000000E+00 -0.37068367420E+03  0.37068367420E+03  0.00000000000E+00 0. -1.
         25    2    1    2    0    0  0.16707169341E+02  0.64412737796E+02  0.34197283743E+03  0.37013021166E+03  0.12499128669E+03 0.  0.
          2    1    1    2  501    0 -0.27188336902E+02  0.22709782982E+02 -0.35094099653E+03  0.35272442920E+03  0.00000000000E+00 0. -1.
          1    1    1    2  502    0  0.10481167561E+02 -0.87122520778E+02  0.39860922427E+03  0.40815377271E+03  0.00000000000E+00 0. -1.
         22    1    3    3    0    0  0.45384363312E+02  0.85149043691E+02  0.17890058285E+03  0.20326219181E+03  0.00000000000E+00 0. -1.
         22    1    3    3    0    0 -0.28677193971E+02 -0.20736305895E+02  0.16307225458E+03  0.16686801985E+03  0.00000000000E+00 0. -1.
</event>
<event>
 7    1  0.6444902E-006  0.1502226E+03  0.7818608E-02  0.1225238E+00
          2   -1    0    0  502    0  0.00000000000E+00  0.00000000000E+00  0.37065512083E+04  0.37065512083E+04  0.00000000000E+00 0. -1.
          1   -1    0    0  501    0 -0.00000000000E+00 -0.00000000000E+00 -0.11984750017E+03  0.11984750017E+03  0.00000000000E+00 0. -1.
         25    2    1    2    0    0 -0.45774128435E+02 -0.26212653132E+02  0.78746686558E+03  0.79907524179E+03  0.12503920839E+03 0.  0.
          2    1    1    2  501    0  0.15745262395E+03 -0.17321546303E+01 -0.57973176551E+02  0.16779516783E+03  0.00000000000E+00 0. -1.
          1    1    1    2  502    0 -0.11167849551E+03  0.27944807763E+02  0.28572100192E+04  0.28595282989E+04  0.00000000000E+00 0. -1.
         22    1    3    3    0    0 -0.44715034536E+02  0.33604422022E+02  0.59253645088E+03  0.59517067897E+03  0.00000000000E+00 0.  1.
         22    1    3    3    0    0 -0.10590938987E+01 -0.59817075155E+02  0.19493041470E+03  0.20390456281E+03  0.00000000000E+00 0.  1.
</event>
<event>
 7    1  0.6444902E-006  0.4130977E+02  0.7818608E-02  0.1513611E+00
          2   -1    0    0  502    0  0.00000000000E+00  0.00000000000E+00  0.63305022309E+03  0.63305022309E+03  0.00000000000E+00 0. -1.
          1   -1    0    0  501    0 -0.00000000000E+00 -0.00000000000E+00 -0.14532077397E+03  0.14532077397E+03  0.00000000000E+00 0. -1.
         25    2    1    2    0    0  0.32846124438E+02  0.63776192487E+01 -0.31424205791E+02  0.13315946358E+03  0.12499768043E+03 0.  0.
          2    1    1    2  501    0 -0.48292463618E+01 -0.37027888280E+02 -0.56684135657E+02  0.67878401322E+02  0.00000000000E+00 0. -1.
          1    1    1    2  502    0 -0.28016878076E+02  0.30650269031E+02  0.57583779056E+03  0.57733313216E+03  0.00000000000E+00 0. -1.
         22    1    3    3    0    0 -0.45490596128E+02  0.17416464141E+02 -0.22139099953E+02  0.53505768904E+02  0.00000000000E+00 0.  1.
         22    1    3    3    0    0  0.78336720565E+02 -0.11038844892E+02 -0.92851058376E+01  0.79653694678E+02  0.00000000000E+00 0.  1.
</event>
<event>
 7    1  0.6444902E-006  0.6582806E+02  0.7818608E-02  0.1415089E+00
          2   -1    0    0  502    0  0.00000000000E+00  0.00000000000E+00  0.13904998381E+02  0.13904998381E+02  0.00000000000E+00 0. -1.
          1   -1    0    0  501    0 -0.00000000000E+00 -0.00000000000E+00 -0.17931996565E+04  0.17931996565E+04  0.00000000000E+00 0. -1.
         25    2    1    2    0    0 -0.31348768902E+02 -0.40382756539E+02 -0.57474591764E+03  0.59039945896E+03  0.12500055586E+03 0.  0.
          2    1    1    2  501    0  0.68868663291E+02  0.10823957750E+02 -0.10947446570E+04  0.10969621301E+04  0.00000000000E+00 0. -1.
          1    1    1    2  502    0 -0.37519894389E+02  0.29558798789E+02 -0.10980408341E+03  0.11974306575E+03  0.00000000000E+00 0. -1.
         22    1    3    3    0    0 -0.39555854628E+02 -0.82748727610E+02 -0.37635946560E+03  0.38737380514E+03  0.00000000000E+00 0. -1.
         22    1    3    3    0    0  0.82070857256E+01  0.42365971071E+02 -0.19838645203E+03  0.20302565382E+03  0.00000000000E+00 0. -1.
</event>
<event>
 7    1  0.6444902E-006  0.3458898E+02  0.7818608E-02  0.1613887E+00
          2   -1    0    0  502    0  0.00000000000E+00  0.00000000000E+00  0.25990361077E+03  0.25990361077E+03  0.00000000000E+00 0. -1.
          1   -1    0    0  501    0 -0.00000000000E+00 -0.00000000000E+00 -0.19132308270E+03  0.19132308270E+03  0.00000000000E+00 0. -1.
         25    2    1    2    0    0 -0.72961190404E+01  0.15111551408E+02  0.15018940332E+03  0.19611809192E+03  0.12499542700E+03 0.  0.
          2    1    1    2  501    0  0.30960258857E+02 -0.15914886163E+02 -0.16489122194E+03  0.16852577341E+03  0.00000000000E+00 0. -1.
          1    1    1    2  502    0 -0.23664139817E+02  0.80333475550E+00  0.83282346688E+02  0.86582828147E+02  0.00000000000E+00 0. -1.
         22    1    3    3    0    0  0.54453289844E+02  0.29439093272E+02  0.85413407613E+02  0.10548588146E+03  0.00000000000E+00 0. -1.
         22    1    3    3    0    0 -0.61749408885E+02 -0.14327541864E+02  0.64775995708E+02  0.90632210463E+02  0.00000000000E+00 0. -1.
</event>
<event>
 7    1  0.6444902E-006  0.6403635E+02  0.7818608E-02  0.1485063E+00
          2   -1    0    0  502    0  0.00000000000E+00  0.00000000000E+00  0.62823736659E+02  0.62823736659E+02  0.00000000000E+00 0. -1.
          1   -1    0    0  501    0 -0.00000000000E+00 -0.00000000000E+00 -0.46231590294E+03  0.46231590294E+03  0.00000000000E+00 0. -1.
         25    2    1    2    0    0  0.31817775929E+02  0.28406487515E+02 -0.43216457861E+02  0.13895374859E+03  0.12498472954E+03 0.  0.
          2    1    1    2  501    0 -0.60853663967E+02 -0.24367588561E+02 -0.35015545115E+03  0.35623838614E+03  0.00000000000E+00 0. -1.
          1    1    1    2  502    0  0.29035888038E+02 -0.40388989541E+01 -0.61202572691E+01  0.29947504870E+02  0.00000000000E+00 0. -1.
         22    1    3    3    0    0 -0.26285712838E+02  0.47099222514E+02 -0.54729192537E+02  0.76841134664E+02  0.00000000000E+00 0. -1.
         22    1    3    3    0    0  0.58103488768E+02 -0.18692734998E+02  0.11512734675E+02  0.62112613923E+02  0.00000000000E+00 0. -1.
</event>
<event>
 7    1  0.6444902E-006  0.8267290E+02  0.7818608E-02  0.1382822E+00
          2   -1    0    0  502    0  0.00000000000E+00  0.00000000000E+00  0.34517227819E+03  0.34517227819E+03  0.00000000000E+00 0. -1.
          1   -1    0    0  501    0 -0.00000000000E+00 -0.00000000000E+00 -0.27182763959E+03  0.27182763959E+03  0.00000000000E+00 0. -1.
         25    2    1    2    0    0 -0.94774970476E+02 -0.65261254801E+02  0.65063941805E+02  0.18192499038E+03  0.12498823622E+03 0.  0.
          2    1    1    2  501    0  0.45681136230E+02  0.66982264263E+02 -0.20277228521E+03  0.21838037820E+03  0.00000000000E+00 0. -1.
          1    1    1    2  502    0  0.49093834246E+02 -0.17210094614E+01  0.21105298201E+03  0.21669454919E+03  0.00000000000E+00 0. -1.
         22    1    3    3    0    0  0.25728035852E+02 -0.16832624371E+02 -0.94900166485E+01  0.32176536296E+02  0.00000000000E+00 0.  1.
         22    1    3    3    0    0 -0.12050300633E+03 -0.48428630430E+02  0.74553958453E+02  0.14974845408E+03  0.00000000000E+00 0.  1.
</event>
<event>
 7    1  0.6444902E-006  0.1337758E+03  0.7818608E-02  0.1279159E+00
          2   -1    0    0  502    0  0.00000000000E+00  0.00000000000E+00  0.50577709543E+02  0.50577709543E+02  0.00000000000E+00 0. -1.
          1   -1    0    0  501    0 -0.00000000000E+00 -0.00000000000E+00 -0.92635877621E+03  0.92635877621E+03  0.00000000000E+00 0. -1.
         25    2    1    2    0    0 -0.43818948502E+02 -0.10163076484E+03 -0.26283590799E+03  0.31137134970E+03  0.12498195981E+03 0.  0.
          2    1    1    2  501    0  0.16472321336E+02 -0.73747794300E+02 -0.12186504341E+03  0.14339164320E+03  0.00000000000E+00 0. -1.
          1    1    1    2  502    0  0.27346627166E+02  0.17537855914E+03 -0.49108011527E+03  0.52217349285E+03  0.00000000000E+00 0. -1.
         22    1    3    3    0    0 -0.67962368332E+02 -0.11724212868E+03 -0.23545498532E+03  0.27166827264E+03  0.00000000000E+00 0. -1.
         22    1    3    3    0    0  0.24143419830E+02  0.15611363843E+02 -0.27380922667E+02  0.39703077063E+02  0.00000000000E+00 0. -1.
</event>
<event>
 7    1  0.6444902E-006  0.1246210E+03  0.7818608E-02  0.1276809E+00
          2   -1    0    0  502    0  0.00000000000E+00  0.00000000000E+00  0.11119371847E+04  0.11119371847E+04  0.00000000000E+00 0. -1.
          1   -1    0    0  501    0 -0.00000000000E+00 -0.00000000000E+00 -0.13431394463E+04  0.13431394463E+04  0.00000000000E+00 0. -1.
         25    2    1    2    0    0 -0.83021461056E+02  0.11429179893E+03 -0.91656078946E+02  0.20971811534E+03  0.12500269115E+03 0.  0.
          2    1    1    2  501    0  0.76952895595E+00 -0.12508539911E+03 -0.11875282851E+04  0.11940981439E+04  0.00000000000E+00 0. -1.
          1    1    1    2  502    0  0.82251932100E+02  0.10793600184E+02  0.10479821025E+04  0.10512603718E+04  0.00000000000E+00 0. -1.
         22    1    3    3    0    0 -0.10270971614E+03  0.97945292467E+02 -0.32981929769E+02  0.14570646450E+03  0.00000000000E+00 0.  1.
         22    1    3    3    0    0  0.19688255081E+02  0.16346506463E+02 -0.58674149177E+02  0.64011650841E+02  0.00000000000E+00 0.  1.
</event>
<event>
 7    1  0.6444902E-006  0.1303850E+03  0.7818608E-02  0.1320181E+00
          2   -1    0    0  502    0  0.00000000000E+00  0.00000000000E+00  0.33857361675E+04  0.33857361675E+04  0.00000000000E+00 0. -1.
          1   -1    0    0  501    0 -0.00000000000E+00 -0.00000000000E+00 -0.15875877340E+03  0.15875877340E+03  0.00000000000E+00 0. -1.
         25    2    1    2    0    0 -0.10462813085E+03  0.73860969599E+02  0.16161036405E+04  0.16259826149E+04  0.12500399454E+03 0.  0.
          2    1    1    2  501    0  0.33538546533E+02  0.41172537485E+02 -0.14655978153E+03  0.15588387187E+03  0.00000000000E+00 0. -1.
          1    1    1    2  502    0  0.71089584319E+02 -0.11503350708E+03  0.17574335351E+04  0.17626284541E+04  0.00000000000E+00 0. -1.
         22    1    3    3    0    0 -0.14055431386E+02  0.49561712559E+02  0.11144064646E+04  0.11155965609E+04  0.00000000000E+00 0. -1.
         22    1    3    3    0    0 -0.90572699467E+02  0.24299257040E+02  0.50169717592E+03  0.51038605399E+03  0.00000000000E+00 0. -1.
</event>
<event>
 7    1  0.6444902E-006  0.8346081E+02  0.7818608E-02  0.1416483E+00
          2   -1    0    0  502    0  0.00000000000E+00  0.00000000000E+00  0.81128040656E+03  0.81128040656E+03  0.00000000000E+00 0. -1.
          1   -1    0    0  501    0 -0.00000000000E+00 -0.00000000000E+00 -0.57670100945E+03  0.57670100945E+03  0.00000000000E+00 0. -1.
         25    2    1    2    0    0 -0.30895846565E+01  0.10439699451E+03 -0.17926683037E+03  0.24221707989E+03  0.12499695725E+03 0.  0.
          2    1    1    2  501    0 -0.22984173823E+02 -0.77767033836E+02 -0.36101336940E+03  0.37000896839E+03  0.00000000000E+00 0. -1.
          1    1    1    2  502    0  0.26073758480E+02 -0.26629960673E+02  0.77485959689E+03  0.77575536774E+03  0.00000000000E+00 0. -1.
         22    1    3    3    0    0 -0.19303989541E+02  0.11119652626E+02  0.14483678825E+02  0.26571933295E+02  0.00000000000E+00 0. -1.
         22    1    3    3    0    0  0.16214404884E+02  0.93277341884E+02 -0.19375050920E+03  0.21564514659E+03  0.00000000000E+00 0. -1.
</event>
<event>
 7    1  0.6444902E-006  0.3357932E+02  0.7818608E-02  0.1592712E+00
          2   -1    0    0  502    0  0.00000000000E+00  0.00000000000E+00  0.18113785560E+04  0.18113785560E+04  0.00000000000E+00 0. -1.
          1   -1    0    0  501    0 -0.00000000000E+00 -0.00000000000E+00 -0.24086123565E+02  0.24086123565E+02  0.00000000000E+00 0. -1.
         25    2    1    2    0    0  0.21613607751E+01 -0.14457441380E+02  0.34758311637E+03  0.36966787162E+03  0.12500649357E+03 0.  0.
          2    1    1    2  501    0 -0.25818862750E+02 -0.10002424134E+02  0.20820176088E+01  0.27766832005E+02  0.00000000000E+00 0. -1.
          1    1    1    2  502    0  0.23657501975E+02  0.24459865513E+02  0.14376272985E+04  0.14380299759E+04  0.00000000000E+00 0. -1.
         22    1    3    3    0    0  0.20861561273E+02 -0.35644362276E+02  0.30534269783E+02  0.51362115727E+02  0.00000000000E+00 0.  1.
         22    1    3    3    0    0 -0.18700200498E+02  0.21186920896E+02  0.31704884658E+03  0.31830575589E+03  0.00000000000E+00 0.  1.
</event>
<event>
 7    1  0.6444902E-006  0.8883458E+02  0.7818608E-02  0.1396802E+00
          2   -1    0    0  502    0  0.00000000000E+00  0.00000000000E+00  0.10844312511E+03  0.10844312511E+03  0.00000000000E+00 0. -1.
          1   -1    0    0  501    0 -0.00000000000E+00 -0.00000000000E+00 -0.16976364948E+04  0.16976364948E+04  0.00000000000E+00 0. -1.
         25    2    1    2    0    0  0.85234371581E+02 -0.43290460087E+02  0.84035737786E+01  0.15758976712E+03  0.12499981047E+03 0.  0.
          2    1    1    2  501    0 -0.54490774282E+02  0.70201336697E+02 -0.16045804492E+04  0.16070394800E+04  0.00000000000E+00 0. -1.
          1    1    1    2  502    0 -0.30743597298E+02 -0.26910876610E+02  0.69835057482E+01  0.41450372824E+02  0.00000000000E+00 0. -1.
         22    1    3    3    0    0  0.56227850364E+01 -0.66222209534E+02 -0.20966775103E+02  0.69689327773E+02  0.00000000000E+00 0. -1.
         22    1    3    3    0    0  0.79611586544E+02  0.22931749447E+02  0.29370348881E+02  0.87900439352E+02  0.00000000000E+00 0. -1.
</event>
<event>
 7    1  0.6444902E-006  0.7078321E+02  0.7818608E-02  0.1431528E+00
          2   -1    0    0  502    0  0.00000000000E+00  0.00000000000E+00  0.20514205059E+03  0.20514205059E+03  0.00000000000E+00 0. -1.
          1   -1    0    0  501    0 -0.00000000000E+00 -0.00000000000E+00 -0.15691564860E+04  0.15691564860E+04  0.00000000000E+00 0. -1.
         25    2    1    2    0    0  0.10894092421E+03 -0.51071115090E+01 -0.12199408499E+04  0.12311663800E+04  0.12498308125E+03 0.  0.
          2    1    1    2  501    0 -0.38954235415E+02 -0.40948780574E+01 -0.33618684101E+03  0.33846091732E+03  0.00000000000E+00 0. -1.
          1    1    1    2  502    0 -0.69986688793E+02  0.92019895663E+01  0.19211325549E+03  0.20467123920E+03  0.00000000000E+00 0. -1.
         22    1    3    3    0    0  0.11092530657E+03 -0.56681760195E+01 -0.54402921600E+03  0.55525160038E+03  0.00000000000E+00 0.  1.
         22    1    3    3    0    0 -0.19843823585E+01  0.56106451051E+00 -0.67591163386E+03  0.67591477965E+03  0.00000000000E+00 0.  1.
</event>
<event>
 7    1  0.6444902E-006  0.6037115E+02  0.7818608E-02  0.1397758E+00
          2   -1    0    0  502    0  0.00000000000E+00  0.00000000000E+00  0.80422259431E+02  0.80422259431E+02  0.00000000000E+00 0. -1.
          1   -1    0    0  501    0 -0.00000000000E+00 -0.00000000000E+00 -0.10135764656E+04  0.10135764656E+04  0.00000000000E+00 0. -1.
         25    2    1    2    0    0  0.66260963004E+02 -0.24127848304E+02 -0.15962630209E+03  0.21465850464E+03  0.12500019605E+03 0.  0.
          2    1    1    2  501    0 -0.49905631692E+02 -0.33985654712E+02 -0.80771011141E+03  0.80996371577E+03  0.00000000000E+00 0. -1.
          1    1    1    2  502    0 -0.16355331312E+02  0.58113503017E+02  0.34182207329E+02  0.69376504618E+02  0.00000000000E+00 0. -1.
         22    1    3    3    0    0 -0.35065211306E+02  0.73919550044E+01 -0.54950420047E+02  0.65603038848E+02  0.00000000000E+00 0.  1.
         22    1    3    3    0    0  0.10132617431E+03 -0.31519803309E+02 -0.10467588205E+03  0.14905546579E+03  0.00000000000E+00 0.  1.
</event>
<event>
 7    1  0.6444902E-006  0.1967764E+03  0.7818608E-02  0.1233921E+00
          2   -1    0    0  502    0  0.00000000000E+00  0.00000000000E+00  0.63260460140E+03  0.63260460140E+03  0.00000000000E+00 0. -1.
          1   -1    0    0  501    0 -0.00000000000E+00 -0.00000000000E+00 -0.26210981695E+04  0.26210981695E+04  0.00000000000E+00 0. -1.
         25    2    1    2    0    0  0.50809447448E+02 -0.13464530254E+03  0.31280147868E+02  0.19318047499E+03  0.12501716210E+03 0.  0.
          2    1    1    2  501    0 -0.26577903881E+02 -0.75821482222E+02 -0.25179175959E+04  0.25191991390E+04  0.00000000000E+00 0. -1.
          1    1    1    2  502    0 -0.24231543566E+02  0.21046678476E+03  0.49814387989E+03  0.54132315696E+03  0.00000000000E+00 0. -1.
         22    1    3    3    0    0 -0.26133878838E+02  0.65999973890E+01  0.16629628133E+02  0.31671503287E+02  0.00000000000E+00 0.  1.
         22    1    3    3    0    0  0.76943326285E+02 -0.14124529993E+03  0.14650519735E+02  0.16150897170E+03  0.00000000000E+00 0.  1.
</event>
<event>
 7    1  0.6444902E-006  0.5463070E+02  0.7818608E-02  0.1535783E+00
          2   -1    0    0  502    0  0.00000000000E+00  0.00000000000E+00  0.75593487431E+02  0.75593487431E+02  0.00000000000E+00 0. -1.
          1   -1    0    0  501    0 -0.00000000000E+00 -0.00000000000E+00 -0.21927126654E+04  0.21927126654E+04  0.00000000000E+00 0. -1.
         25    2    1    2    0    0 -0.58114711995E+02 -0.35789696745E+02 -0.16790024578E+03  0.22016748848E+03  0.12500003322E+03 0.  0.
          2    1    1    2  501    0  0.34580206214E+02  0.42109796874E+02 -0.19952826123E+04  0.19960264849E+04  0.00000000000E+00 0. -1.
          1    1    1    2  502    0  0.23534505780E+02 -0.63201001285E+01  0.46063680058E+02  0.52112179463E+02  0.00000000000E+00 0. -1.
         22    1    3    3    0    0 -0.74804114869E+02 -0.13957128213E+02 -0.17580960591E+03  0.19157106922E+03  0.00000000000E+00 0. -1.
         22    1    3    3    0    0  0.16689402875E+02 -0.21832568532E+02  0.79093601292E+01  0.28596419263E+02  0.00000000000E+00 0. -1.
</event>
<event>
 7    1  0.6444902E-006  0.3169478E+02  0.7818608E-02  0.1640593E+00
          2   -1    0    0  502    0  0.00000000000E+00  0.00000000000E+00  0.12350930329E+04  0.12350930329E+04  0.00000000000E+00 0. -1.
          1   -1    0    0  501    0 -0.00000000000E+00 -0.00000000000E+00 -0.78562677127E+03  0.78562677127E+03  0.00000000000E+00 0. -1.
         25    2    1    2    0    0  0.14375982781E+01  0.51510157282E+02  0.69977409339E+03  0.71271645130E+03  0.12500238070E+03 0.  0.
          2    1    1    2  501    0 -0.56170857364E+01 -0.21400568683E+02 -0.77856147684E+03  0.77887579832E+03  0.00000000000E+00 0. -1.
          1    1    1    2  502    0  0.41794874583E+01 -0.30109588600E+02  0.52825364508E+03  0.52912755454E+03  0.00000000000E+00 0. -1.
         22    1    3    3    0    0  0.21641774628E+02  0.60469956186E+02  0.68010225732E+03  0.68312814495E+03  0.00000000000E+00 0.  1.
         22    1    3    3    0    0 -0.20204176349E+02 -0.89597989032E+01  0.19671836071E+02  0.29588306351E+02  0.00000000000E+00 0.  1.
</event>
<event>
 7    1  0.6444902E-006  0.2038345E+03  0.7818608E-02  0.1350295E+00
          2   -1    0    0  502    0  0.00000000000E+00  0.00000000000E+00  0.21523317258E+04  0.21523317258E+04  0.00000000000E+00 0. -1.
          1   -1    0    0  501    0 -0.00000000000E+00 -0.00000000000E+00 -0.25446034538E+04  0.25446034538E+04  0.00000000000E+00 0. -1.
         25    2    1    2    0    0  0.13388571659E+03 -0.15954578217E+03  0.27391404220E+03  0.36610773346E+03  0.12500291305E+03 0.  0.
          2    1    1    2  501    0 -0.14944197986E+03  0.13856607770E+03 -0.24942573414E+04  0.25025693094E+04  0.00000000000E+00 0. -1.
          1    1    1    2  502    0  0.15556263275E+02  0.20979704469E+02  0.18280715711E+04  0.18282581367E+04  0.00000000000E+00 0. -1.
         22    1    3    3    0    0  0.77341599338E+02 -0.14285661371E+03  0.12201366216E+03  0.20316758802E+03  0.00000000000E+00 0. -1.
         22    1    3    3    0    0  0.56544117248E+02 -0.16689168459E+02  0.15190038004E+03  0.16294014544E+03  0.00000000000E+00 0. -1.
</event>
<event>
 7    1  0.6444902E-006  0.4066283E+02  0.7818608E-02  0.1519124E+00
          2   -1    0    0  502    0  0.00000000000E+00  0.00000000000E+00  0.12516386476E+04  0.12516386476E+04  0.00000000000E+00 0. -1.
          1   -1    0    0  501    0 -0.00000000000E+00 -0.00000000000E+00 -0.22376407911E+02  0.22376407911E+02  0.00000000000E+00 0. -1.
         25    2    1    2    0    0  0.59671622097E+01 -0.13012369324E+02  0.68545312817E+03  0.69690236071E+03  0.12498792211E+03 0.  0.
          2    1    1    2  501    0  0.23296580183E+02  0.34920921212E+02  0.11466579205E+02  0.43516477629E+02  0.00000000000E+00 0. -1.
          1    1    1    2  502    0 -0.29263742393E+02 -0.21908551888E+02  0.53234253231E+03  0.53359621717E+03  0.00000000000E+00 0. -1.
         22    1    3    3    0    0 -0.29319688357E+02 -0.58194335957E+02  0.44279770427E+03  0.44756679029E+03  0.00000000000E+00 0.  1.
         22    1    3    3    0    0  0.35286850567E+02  0.45181966632E+02  0.24265542389E+03  0.24933557042E+03  0.00000000000E+00 0.  1.
</event>
<event>
 7    1  0.6444902E-006  0.3037244E+03  0.7818608E-02  0.1153890E+00
          2   -1    0    0  502    0  0.00000000000E+00  0.00000000000E+00  0.24864692393E+03  0.24864692393E+03  0.00000000000E+00 0. -1.
          1   -1    0    0  501    0 -0.00000000000E+00 -0.00000000000E+00 -0.24568533164E+04  0.24568533164E+04  0.00000000000E+00 0. -1.
         25    2    1    2    0    0 -0.36741795772E+03  0.27720979776E+02 -0.16412019337E+04  0.16866929584E+04  0.12499976209E+03 0.  0.
          2    1    1    2  501    0  0.24354469706E+03 -0.47218441739E+02 -0.75394122315E+03  0.79370710509E+03  0.00000000000E+00 0. -1.
          1    1    1    2  502    0  0.12387326065E+03  0.19497461963E+02  0.18693676436E+03  0.22510017680E+03  0.00000000000E+00 0. -1.
         22    1    3    3    0    0 -0.16258347702E+03 -0.49830638250E+02 -0.70982346096E+03  0.72990809370E+03  0.00000000000E+00 0. -1.
         22    1    3    3    0    0 -0.20483448069E+03  0.77551618027E+02 -0.93137847273E+03  0.95678486475E+03  0.00000000000E+00 0. -1.
</event>
<event>
 7    1  0.6444902E-006  0.2559701E+03  0.7818608E-02  0.1332525E+00
          2   -1    0    0  502    0  0.00000000000E+00  0.00000000000E+00  0.90108336237E+02  0.90108336237E+02  0.00000000000E+00 0. -1.
          1   -1    0    0  501    0 -0.00000000000E+00 -0.00000000000E+00 -0.26069959657E+04  0.26069959657E+04  0.00000000000E+00 0. -1.
         25    2    1    2    0    0  0.26092595617E+02  0.25732090529E+03 -0.42358409156E+03  0.51180395298E+03  0.12499972728E+03 0.  0.
          2    1    1    2  501    0 -0.18976406229E+01 -0.25566697889E+03 -0.21278147343E+04  0.21431203300E+04  0.00000000000E+00 0. -1.
          1    1    1    2  502    0 -0.24194954994E+02 -0.16539264008E+01  0.34511196442E+02  0.42180018961E+02  0.00000000000E+00 0. -1.
         22    1    3    3    0    0  0.76370856941E+02  0.17251878193E+03 -0.27627298149E+03  0.33454745285E+03  0.00000000000E+00 0. -1.
         22    1    3    3    0    0 -0.50278261324E+02  0.84802123361E+02 -0.14731111007E+03  0.17725650013E+03  0.00000000000E+00 0. -1.
</event>
<event>
 7    1  0.6444902E-006  0.8006241E+02  0.7818608E-02  0.1476441E+00
          2   -1    0    0  502    0  0.00000000000E+00  0.00000000000E+00  0.10201543211E+04  0.10201543211E+04  0.00000000000E+00 0. -1.
          1   -1    0    0  501    0 -0.00000000000E+00 -0.00000000000E+00 -0.12475657716E+03  0.12475657716E+03  0.00000000000E+00 0. -1.
         25    2    1    2    0    0 -0.81937969576E+02 -0.76424619773E+01  0.64597449885E+02  0.16300966063E+03  0.12500832309E+03 0.  0.
          2    1    1    2  501    0  0.73921800846E+02  0.31236038466E+02 -0.54014815367E+02  0.96735324564E+02  0.00000000000E+00 0. -1.
          1    1    1    2  502    0  0.80161687296E+01 -0.23593576488E+02  0.88481510941E+03  0.88516591307E+03  0.00000000000E+00 0. -1.
         22    1    3    3    0    0 -0.71561192450E+02 -0.47753030711E+02 -0.28003463104E+00  0.86031590862E+02  0.00000000000E+00 0.  1.
         22    1    3    3    0    0 -0.10376777126E+02  0.40110568734E+02  0.64877484516E+02  0.76978069765E+02  0.00000000000E+00 0.  1.
</event>
<event>
 7    1  0.6444902E-006  0.4926987E+02  0.7818608E-02  0.1576544E+00
          2   -1    0    0  502    0  0.00000000000E+00  0.00000000000E+00  0.70609420055E+02  0.70609420055E+02  0.00000000000E+00 0. -1.
          1   -1    0    0  501    0 -0.00000000000E+00 -0.00000000000E+00 -0.89416610352E+03  0.89416610352E+03  0.00000000000E+00 0. -1.
         25    2    1    2    0    0 -0.28244794483E+02  0.51869445228E+02 -0.70879215906E+03  0.72214896505E+03  0.12499838082E+03 0.  0.
          2    1    1    2  501    0 -0.84052914204E+01 -0.19069310554E+02 -0.16849797275E+03  0.16978178451E+03  0.00000000000E+00 0. -1.
          1    1    1    2  502    0  0.36650085903E+02 -0.32800134674E+02  0.53733448346E+02  0.72844774024E+02  0.00000000000E+00 0. -1.
         22    1    3    3    0    0  0.29192588182E+02 -0.20703988818E+02 -0.96922750863E+02  0.10331932052E+03  0.00000000000E+00 0.  1.
         22    1    3    3    0    0 -0.57437382665E+02  0.72573434046E+02 -0.61186940820E+03  0.61882964453E+03  0.00000000000E+00 0.  1.
</event>
<event>
 7    1  0.6444902E-006  0.1303112E+03  0.7818608E-02  0.1387413E+00
          2   -1    0    0  502    0  0.00000000000E+00  0.00000000000E+00  0.24803838590E+04  0.24803838590E+04  0.00000000000E+00 0. -1.
          1   -1    0    0  501    0 -0.00000000000E+00 -0.00000000000E+00 -0.59487603270E+03  0.59487603270E+03  0.00000000000E+00 0. -1.
         25    2    1    2    0    0  0.15775743627E+03 -0.23626381820E+02  0.61684817466E+03  0.64928501417E+03  0.12499497758E+03 0.  0.
          2    1    1    2  501    0 -0.12773155131E+03  0.24048533216E+02 -0.57123489896E+03  0.58583529335E+03  0.00000000000E+00 0. -1.
          1    1    1    2  502    0 -0.30025884960E+02 -0.42215139601E+00  0.18398945506E+04  0.18401395842E+04  0.00000000000E+00 0. -1.
         22    1    3    3    0    0  0.57637190475E+01  0.36685135055E+02  0.15351981913E+03  0.15794731545E+03  0.00000000000E+00 0.  1.
         22    1    3    3    0    0  0.15199371722E+03 -0.60311516875E+02  0.46332835553E+03  0.49133769872E+03  0.00000000000E+00 0.  1.
</event>
<event>
 7    1  0.6444902E-006  0.4330602E+02  0.7818608E-02  0.1502024E+00
          2   -1    0    0  502    0  0.00000000000E+00  0.00000000000E+00  0.45539870996E+03  0.45539870996E+03  0.00000000000E+00 0. -1.
          1   -1    0    0  501    0 -0.00000000000E+00 -0.00000000000E+00 -0.98591336942E+03  0.98591336942E+03  0.00000000000E+00 0. -1.
         25    2    1    2    0    0  0.34152137750E+02  0.69009192166E+02  0.10936598078E+02  0.14721820533E+03  0.12499981475E+03 0.  0.
          2    1    1    2  501    0 -0.27773633493E+02 -0.26719487334E+02 -0.91615100250E+03  0.91696126696E+03  0.00000000000E+00 0. -1.
          1    1    1    2  502    0 -0.63785042570E+01 -0.42289704831E+02  0.37469974497E+03  0.37713260709E+03  0.00000000000E+00 0. -1.
         22    1    3    3    0    0 -0.34680610271E+02 -0.14094877928E+02 -0.62379059906E+01  0.37951571558E+02  0.00000000000E+00 0. -1.
         22    1    3    3    0    0  0.68832748020E+02  0.83104070093E+02  0.17174504069E+02  0.10926663377E+03  0.00000000000E+00 0. -1.
</event>
<event>
 7    1  0.6444902E-006  0.1185709E+03  0.7818608E-02  0.1306561E+00
          2   -1    0    0  502    0  0.00000000000E+00  0.00000000000E+00  0.62773014912E+03  0.62773014912E+03  0.00000000000E+00 0. -1.
          1   -1    0    0  501    0 -0.00000000000E+00 -0.00000000000E+00 -0.68908776519E+03  0.68908776519E+03  0.00000000000E+00 0. -1.
         25    2    1    2    0    0 -0.35870931641E+02  0.96333653960E+02  0.77415268167E+02  0.17940359115E+03  0.12500251257E+03 0.  0.
          2    1    1    2  501    0 -0.26864925896E+02 -0.11694165838E+03 -0.63022511841E+03  0.64154561458E+03  0.00000000000E+00 0. -1.
          1    1    1    2  502    0  0.62735857537E+02  0.20608004419E+02  0.49145223418E+03  0.49586870858E+03  0.00000000000E+00 0. -1.
         22    1    3    3    0    0 -0.66540636051E+02  0.89829770833E+02  0.92043661681E+02  0.14480704275E+03  0.00000000000E+00 0. -1.
         22    1    3    3    0    0  0.30669704410E+02  0.65038831268E+01 -0.14628393515E+02  0.34596548400E+02  0.00000000000E+00 0. -1.
</event>
<event>
 7    1  0.6444902E-006  0.2407239E+03  0.7818608E-02  0.1344073E+00
          2   -1    0    0  502    0  0.00000000000E+00  0.00000000000E+00  0.97121906139E+03  0.97121906139E+03  0.00000000000E+00 0. -1.
          1   -1    0    0  501    0 -0.00000000000E+00 -0.00000000000E+00 -0.60892818808E+03  0.60892818808E+03  0.00000000000E+00 0. -1.
         25    2    1    2    0    0  0.19637224004E+03 -0.10381649744E+03  0.14317735636E+03  0.29234259339E+03  0.12499805893E+03 0.  0.
          2    1    1    2  501    0 -0.21969699765E+03  0.10409622044E+03 -0.50649649208E+03  0.56181980241E+03  0.00000000000E+00 0. -1.
          1    1    1    2  502    0  0.23324757611E+02 -0.27972299937E+00  0.72561000903E+03  0.72598485368E+03  0.00000000000E+00 0. -1.
         22    1    3    3    0    0  0.19775480971E+03 -0.59808474460E+02  0.13696233740E+03  0.24787638098E+03  0.00000000000E+00 0. -1.
         22    1    3    3    0    0 -0.13825696684E+01 -0.44008022979E+02  0.62150189511E+01  0.44466212409E+02  0.00000000000E+00 0. -1.
</event>
<event>
 7    1  0.6444902E-006  0.8025306E+02  0.7818608E-02  0.1473931E+00
          2   -1    0    0  502    0  0.00000000000E+00  0.00000000000E+00  0.14773708558E+04  0.14773708558E+04  0.00000000000E+00 0. -1.
          1   -1    0    0  501    0 -0.00000000000E+00 -0.00000000000E+00 -0.54978825311E+03  0.54978825311E+03  0.00000000000E+00 0. -1.
         25    2    1    2    0    0 -0.88923057127E+02 -0.25914031806E+02  0.27448909432E+02  0.15797895533E+03  0.12500024226E+03 0.  0.
          2    1    1    2  501    0  0.88675786644E+01  0.23702092086E+02 -0.48303371393E+03  0.48369617728E+03  0.00000000000E+00 0. -1.
          1    1    1    2  502    0  0.80055478462E+02  0.22119397205E+01  0.13831674072E+04  0.13854839763E+04  0.00000000000E+00 0. -1.
         22    1    3    3    0    0 -0.92717438197E+02  0.17680683742E+02  0.52039604928E+02  0.10778334938E+03  0.00000000000E+00 0.  1.
         22    1    3    3    0    0  0.37943810699E+01 -0.43594715548E+02 -0.24590695495E+02  0.50195605947E+02  0.00000000000E+00 0.  1.
</event>
<event>
 7    1  0.6444902E-006  0.4292664E+02  0.7818608E-02  0.1492195E+00
          2   -1    0    0  502    0  0.00000000000E+00  0.00000000000E+00  0.60136672427E+03  0.60136672427E+03  0.00000000000E+00 0. -1.
          1   -1    0    0  501    0 -0.00000000000E+00 -0.00000000000E+00 -0.18281787765E+03  0.18281787765E+03  0.00000000000E+00 0. -1.
         25    2    1    2    0    0 -0.24069185277E+02  0.23325540579E+02  0.94325918084E+02  0.16014262882E+03  0.12499950488E+03 0.  0.
          2    1    1    2  501    0 -0.13342932744E+02 -0.41534354201E+02 -0.14579710715E+03  0.15218387853E+03  0.00000000000E+00 0. -1.
          1    1    1    2  502    0  0.37412118021E+02  0.18208813622E+02  0.47002003568E+03  0.47185809456E+03  0.00000000000E+00 0. -1.
         22    1    3    3    0    0 -0.24190694031E+02 -0.21931664761E+02  0.10802926788E+03  0.11285614878E+03  0.00000000000E+00 0. -1.
         22    1    3    3    0    0  0.12150875450E+00  0.45257205340E+02 -0.13703349800E+02  0.47286480048E+02  0.00000000000E+00 0. -1.
</event>
<event>
 7    1  0.6444902E-006  0.6014099E+02  0.7818608E-02  0.1409407E+00
          2   -1    0    0  502    0  0.00000000000E+00  0.00000000000E+00  0.65380973525E+03  0.65380973525E+03  0.00000000000E+00 0. -1.
          1   -1    0    0  501    0 -0.00000000000E+00 -0.00000000000E+00 -0.28452994853E+02  0.28452994853E+02  0.00000000000E+00 0. -1.
         25    2    1    2    0    0 -0.40102931401E+02 -0.28262540724E+02  0.42501607155E+03  0.44572426978E+03  0.12499778912E+03 0.  0.
          2    1    1    2  501    0  0.51930571734E+02 -0.30703940660E+02  0.66388411696E+02  0.89704723734E+02  0.00000000000E+00 0. -1.
          1    1    1    2  502    0 -0.11827640333E+02  0.58966481384E+02  0.13395225715E+03  0.14683373658E+03  0.00000000000E+00 0. -1.
         22    1    3    3    0    0  0.17534076654E+02 -0.55234486867E+02  0.29886594275E+03  0.30443249517E+03  0.00000000000E+00 0. -1.
         22    1    3    3    0    0 -0.57637008055E+02  0.26971946143E+02  0.12615012880E+03  0.14129177461E+03  0.00000000000E+00 0. -1.
</event>
<event>
 7    1  0.6444902E-006  0.1614233E+03  0.7818608E-02  0.1268307E+00
          2   -1    0    0  502    0  0.00000000000E+00  0.00000000000E+00  0.19461723358E+04  0.19461723358E+04  0.00000000000E+00 0. -1.
          1   -1    0    0  501    0 -0.00000000000E+00 -0.00000000000E+00 -0.55010355955E+03  0.55010355955E+03  0.00000000000E+00 0. -1.
         25    2    1    2    0    0  0.13685220156E+03 -0.14290402035E+03  0.29415637214E+03  0.37591142654E+03  0.12502537833E+03 0.  0.
          2    1    1    2  501    0 -0.14253960153E+03  0.73629212365E+02 -0.49581540544E+03  0.52112543134E+03  0.00000000000E+00 0. -1.
          1    1    1    2  502    0  0.56873999673E+01  0.69274807986E+02  0.15977278096E+04  0.15992390375E+04  0.00000000000E+00 0. -1.
         22    1    3    3    0    0  0.48361878982E+01 -0.50137472436E+02  0.13446824995E+02  0.52134172652E+02  0.00000000000E+00 0.  1.
         22    1    3    3    0    0  0.13201601367E+03 -0.92766547915E+02  0.28070954715E+03  0.32377725389E+03  0.00000000000E+00 0.  1.
</event>
<event>
 7    1  0.6444902E-006  0.6258793E+02  0.7818608E-02  0.1481602E+00
          2   -1    0    0  502    0  0.00000000000E+00  0.00000000000E+00  0.70245740572E+03  0.70245740572E+03  0.00000000000E+00 0. -1.
          1   -1    0    0  501    0 -0.00000000000E+00 -0.00000000000E+00 -0.11780150373E+03  0.11780150373E+03  0.00000000000E+00 0. -1.
         25    2    1    2    0    0 -0.76507704490E+02  0.43858719720E+02  0.31042874609E+03  0.34607622952E+03  0.12500293634E+03 0.  0.
          2    1    1    2  501    0  0.59041663760E+02 -0.18571764730E+02 -0.89688410982E+02  0.10897173748E+03  0.00000000000E+00 0. -1.
          1    1    1    2  502    0  0.17466040730E+02 -0.25286954990E+02  0.36391556688E+03  0.36521094246E+03  0.00000000000E+00 0. -1.
         22    1    3    3    0    0 -0.44799359453E+02  0.25759710338E+02  0.23388959344E+02  0.56723793097E+02  0.00000000000E+00 0. -1.
         22    1    3    3    0    0 -0.31708345037E+02  0.18099009382E+02  0.28703978675E+03  0.28935243642E+03  0.00000000000E+00 0. -1.
</event>
<event>
 7    1  0.6444902E-006  0.7142315E+02  0.7818608E-02  0.1355596E+00
          2   -1    0    0  502    0  0.00000000000E+00  0.00000000000E+00  0.34240210215E+04  0.34240210215E+04  0.00000000000E+00 0. -1.
          1   -1    0    0  501    0 -0.00000000000E+00 -0.00000000000E+00 -0.18053670911E+04  0.18053670911E+04  0.00000000000E+00 0. -1.
         25    2    1    2    0    0 -0.10294245068E+02  0.69121594225E+00 -0.64356231471E+02  0.14096870042E+03  0.12499600277E+03 0.  0.
          2    1    1    2  501    0  0.69701489220E+01  0.70914517777E+02 -0.17015794575E+04  0.17030707859E+04  0.00000000000E+00 0. -1.
          1    1    1    2  502    0  0.33240961457E+01 -0.71605733719E+02  0.33845896193E+04  0.33853486263E+04  0.00000000000E+00 0. -1.
         22    1    3    3    0    0 -0.47001199908E+02 -0.16309099089E+02 -0.82731663209E+02  0.96538218355E+02  0.00000000000E+00 0. -1.
         22    1    3    3    0    0  0.36706954841E+02  0.17000315031E+02  0.18375431738E+02  0.44430482063E+02  0.00000000000E+00 0. -1.
</event>
<event>
 7    1  0.6444902E-006  0.1946143E+03  0.7818608E-02  0.1325846E+00
          2   -1    0    0  502    0  0.00000000000E+00  0.00000000000E+00  0.20262683886E+04  0.20262683886E+04  0.00000000000E+00 0. -1.
          1   -1    0    0  501    0 -0.00000000000E+00 -0.00000000000E+00 -0.31646018150E+03  0.31646018150E+03  0.00000000000E+00 0. -1.
         25    2    1    2    0    0  0.20431078066E+03  0.57589122045E+02  0.11304951088E+03  0.27104267641E+03  0.12499815381E+03 0.  0.
          2    1    1    2  501    0 -0.12488959913E+02 -0.31440079501E+02 -0.23112043987E+03  0.23358319812E+03  0.00000000000E+00 0. -1.
          1    1    1    2  502    0 -0.19182182074E+03 -0.26149042544E+02  0.18278791361E+04  0.18381026956E+04  0.00000000000E+00 0. -1.
         22    1    3    3    0    0  0.11417618006E+03  0.76575612368E+02  0.17945547120E+02  0.13864366976E+03  0.00000000000E+00 0. -1.
         22    1    3    3    0    0  0.90134600594E+02 -0.18986490324E+02  0.95103963762E+02  0.13239900665E+03  0.00000000000E+00 0. -1.
</event>
<event>
 7    1  0.6444902E-006  0.8462079E+02  0.7818608E-02  0.1375457E+00
          2   -1    0    0  502    0  0.00000000000E+00  0.00000000000E+00  0.47828205764E+04  0.47828205764E+04  0.00000000000E+00 0. -1.
          1   -1    0    0  501    0 -0.00000000000E+00 -0.00000000000E+00 -0.44569774286E+03  0.44569774286E+03  0.00000000000E+00 0. -1.
         25    2    1    2    0    0 -0.22943757888E+02 -0.65821009736E+02 -0.10003562713E+03  0.17461648794E+03  0.12499987927E+03 0.  0.
          2    1    1    2  501    0  0.48756692241E+02 -0.14850183188E+02 -0.30588497328E+03  0.31010217648E+03  0.00000000000E+00 0. -1.
          1    1    1    2  502    0 -0.25812934353E+02  0.80671192924E+02  0.47430434340E+04  0.47437996549E+04  0.00000000000E+00 0. -1.
         22    1    3    3    0    0  0.69036411049E+01 -0.73136702836E+02 -0.11801578495E+03  0.13901209681E+03  0.00000000000E+00 0. -1.
         22    1    3    3    0    0 -0.29847398993E+02  0.73156931001E+01  0.17980157826E+02  0.35604391128E+02  0.00000000000E+00 0. -1.
</event>
<event>
 7    1  0.6444902E-006  0.2443336E+03  0.7818608E-02  0.1272943E+00
          2   -1    0    0  502    0  0.00000000000E+00  0.00000000000E+00  0.50287506365E+03  0.50287506365E+03  0.00000000000E+00 0. -1.
          1   -1    0    0  501    0 -0.00000000000E+00 -0.00000000000E+00 -0.14702501889E+04  0.14702501889E+04  0.00000000000E+00 0. -1.
         25    2    1    2    0    0 -0.22232446013E+03  0.66817816951E+02 -0.10169424876E+04  0.10505663270E+04  0.12499919215E+03 0.  0.
          2    1    1    2  501    0  0.26466897613E+03 -0.78439836682E+02 -0.39165228201E+03  0.47915966536E+03  0.00000000000E+00 0. -1.
          1    1    1    2  502    0 -0.42344515996E+02  0.11622019731E+02  0.44121964437E+03  0.44339926021E+03  0.00000000000E+00 0. -1.
         22    1    3    3    0    0 -0.12778552203E+03 -0.19313586324E+02 -0.39479032525E+03  0.41540529025E+03  0.00000000000E+00 0.  1.
         22    1    3    3    0    0 -0.94538938101E+02  0.86131403274E+02 -0.62215216233E+03  0.63516103670E+03  0.00000000000E+00 0.  1.
</event>
<event>
 7    1  0.6444902E-006  0.6146222E+02  0.7818608E-02  0.1395717E+00
          2   -1    0    0  502    0  0.00000000000E+00  0.00000000000E+00  0.40444819195E+03  0.40444819195E+03  0.00000000000E+00 0. -1.
          1   -1    0    0  501    0 -0.00000000000E+00 -0.00000000000E+00 -0.81074609050E+02  0.81074609050E+02  0.00000000000E+00 0. -1.
         25    2    1    2    0    0 -0.10533931847E+02  0.68494469923E+02  0.11632564517E+03  0.18428230973E+03  0.12500343126E+03 0.  0.
          2    1    1    2  501    0  0.54966843536E+02 -0.22952208346E+02 -0.22015327662E+02  0.63504585727E+02  0.00000000000E+00 0. -1.
          1    1    1    2  502    0 -0.44432911689E+02 -0.45542261577E+02  0.22906326540E+03  0.23773590554E+03  0.00000000000E+00 0. -1.
         22    1    3    3    0    0 -0.62807285077E+02  0.65128152864E+02  0.76380119509E+02  0.11840757582E+03  0.00000000000E+00 0.  1.
         22    1    3    3    0    0  0.52273353230E+02  0.33663170584E+01  0.39945525658E+02  0.65874733916E+02  0.00000000000E+00 0.  1.
</event>
<event>
 7    1  0.6444902E-006  0.3320426E+02  0.7818608E-02  0.1616226E+00
          2   -1    0    0  502    0  0.00000000000E+00  0.00000000000E+00  0.54727743358E+03  0.54727743358E+03  0.00000000000E+00 0. -1.
          1   -1    0    0  501    0 -0.00000000000E+00 -0.00000000000E+00 -0.10139146094E+03  0.10139146094E+03  0.00000000000E+00 0. -1.
         25    2    1    2    0    0  0.16384594630E+02 -0.38089344580E+02 -0.13804860301E+02  0.13242135780E+03  0.12500235486E+03 0.  0.
          2    1    1    2  501    0 -0.23651431514E+02  0.56935847959E+01 -0.22367570239E+02  0.33047168091E+02  0.00000000000E+00 0. -1.
          1    1    1    2  502    0  0.72668368834E+01  0.32395759784E+02  0.48205840318E+03  0.48320036863E+03  0.00000000000E+00 0. -1.
         22    1    3    3    0    0  0.63920530658E+02 -0.27417985551E+02  0.20877206734E+02  0.72618440718E+02  0.00000000000E+00 0. -1.
         22    1    3    3    0    0 -0.47535936028E+02 -0.10671359029E+02 -0.34682067035E+02  0.59802917081E+02  0.00000000000E+00 0. -1.
</event>
<event>
 7    1  0.6444902E-006  0.8741415E+02  0.7818608E-02  0.1389100E+00
          2   -1    0    0  502    0  0.00000000000E+00  0.00000000000E+00  0.19778211682E+04  0.19778211682E+04  0.00000000000E+00 0. -1.
          1   -1    0    0  501    0 -0.00000000000E+00 -0.00000000000E+00 -0.44674607426E+02  0.44674607426E+02  0.00000000000E+00 0. -1.
         25    2    1    2    0    0  0.86038764286E+01 -0.10627904141E+03  0.16475845377E+04  0.16557562782E+04  0.12499913013E+03 0.  0.
          2    1    1    2  501    0  0.17249584759E+02  0.40652278171E+02 -0.23296687865E+02  0.49928865001E+02  0.00000000000E+00 0. -1.
          1    1    1    2  502    0 -0.25853461187E+02  0.65626763236E+02  0.30885871095E+03  0.31681063245E+03  0.00000000000E+00 0. -1.
         22    1    3    3    0    0  0.59852091666E+02 -0.33983051691E+02  0.49379523775E+03  0.49856880920E+03  0.00000000000E+00 0. -1.
         22    1    3    3    0    0 -0.51248215238E+02 -0.72295989716E+02  0.11537893000E+04  0.11571874690E+04  0.00000000000E+00 0. -1.
</event>
<event>
 7    1  0.1144164E-005  0.1200390E+03  0.7818608E-02  0.1334110E+00
          2   -1    0    0  502    0  0.00000000000E+00  0.00000000000E+00  0.70653905721E+03  0.70653905721E+03  0.00000000000E+00 0. -1.
          1   -1    0    0  501    0 -0.00000000000E+00 -0.00000000000E+00 -0.15183721041E+04  0.15183721041E+04  0.00000000000E+00 0. -1.
         25    2    1    2    0    0  0.59029047718E+02 -0.46771068015E+02 -0.48678440843E+03  0.50818970296E+03  0.12500301046E+03 0.  0.
          2    1    1    2  501    0  0.50935610478E+02 -0.25841189734E+01 -0.10150203142E+04  0.10163008178E+04  0.00000000000E+00 0. -1.
          1    1    1    2  502    0 -0.10996465820E+03  0.49355186988E+02  0.68997167567E+03  0.70042064059E+03  0.00000000000E+00 0. -1.
         22    1    3    3    0    0  0.11601243531E+02  0.17908135957E+02 -0.80852455549E+01  0.22818005623E+02  0.00000000000E+00 0.  1.
         22    1    3    3    0    0  0.47427804187E+02 -0.64679203972E+02 -0.47869916287E+03  0.48537169733E+03  0.00000000000E+00 0.  1.
</event>
<event>
 7    1  0.6444902E-006  0.6921398E+02  0.7818608E-02  0.1390988E+00
          2   -1    0    0  502    0  0.00000000000E+00  0.00000000000E+00  0.36806149208E+03  0.36806149208E+03  0.00000000000E+00 0. -1.
          1   -1    0    0  501    0 -0.00000000000E+00 -0.00000000000E+00 -0.44743487636E+03  0.44743487636E+03  0.00000000000E+00 0. -1.
         25    2    1    2    0    0 -0.81675278987E+01 -0.58722008637E+01  0.18972330350E+03  0.22742325568E+03  0.12500085630E+03 0.  0.
          2    1    1    2  501    0 -0.66771082675E+02 -0.18226295885E+02 -0.41583393633E+03  0.42155478641E+03  0.00000000000E+00 0. -1.
          1    1    1    2  502    0  0.74938610574E+02  0.24098496748E+02  0.14673724855E+03  0.16651832636E+03  0.00000000000E+00 0. -1.
         22    1    3    3    0    0  0.46792063993E+02 -0.35927359797E+02  0.11984762913E+03  0.13358041265E+03  0.00000000000E+00 0. -1.
         22    1    3    3    0    0 -0.54959591891E+02  0.30055158933E+02  0.69875674369E+02  0.93842843029E+02  0.00000000000E+00 0. -1.
</event>
<event>
 7    1  0.6444902E-006  0.9687271E+02  0.7818608E-02  0.1464678E+00
          2   -1    0    0  502    0  0.00000000000E+00  0.00000000000E+00  0.11736080155E+03  0.11736080155E+03  0.00000000000E+00 0. -1.
          1   -1    0    0  501    0 -0.00000000000E+00 -0.00000000000E+00 -0.19866183108E+04  0.19866183108E+04  0.00000000000E+00 0. -1.
         25    2    1    2    0    0 -0.48980829831E+01  0.77613357441E+02 -0.19505111673E+03  0.24437673925E+03  0.12500891200E+03 0.  0.
          2    1    1    2  501    0  0.17004825835E+02 -0.96463220048E+02 -0.17641721267E+04  0.17668892465E+04  0.00000000000E+00 0. -1.
          1    1    1    2  502    0 -0.12106742852E+02  0.18849862607E+02  0.89965734087E+02  0.92713126647E+02  0.00000000000E+00 0. -1.
         22    1    3    3    0    0 -0.47943245585E+01 -0.31245923358E+02 -0.79844924465E+02  0.85874939518E+02  0.00000000000E+00 0.  1.
         22    1    3    3    0    0 -0.10375842459E+00  0.10885928080E+03 -0.11520619226E+03  0.15850179973E+03  0.00000000000E+00 0.  1.
</event>
<event>
 7    1  0.6444902E-006  0.1863562E+03  0.7818608E-02  0.1172849E+00
          2   -1    0    0  502    0  0.00000000000E+00  0.00000000000E+00  0.20463951941E+04  0.20463951941E+04  0.00000000000E+00 0. -1.
          1   -1    0    0  501    0 -0.00000000000E+00 -0.00000000000E+00 -0.15975024339E+03  0.15975024339E+03  0.00000000000E+00 0. -1.
         25    2    1    2    0    0  0.28811954097E+03 -0.73069559147E+02  0.19612072031E+03  0.37741282075E+03  0.12500027988E+03 0.  0.
          2    1    1    2  501    0 -0.15567322463E+03 -0.51961118003E+02  0.40969402561E+02  0.16915260151E+03  0.00000000000E+00 0. -1.
          1    1    1    2  502    0 -0.13244631634E+03  0.12503067715E+03  0.16495548278E+04  0.16595800152E+04  0.00000000000E+00 0. -1.
         22    1    3    3    0    0  0.27983482495E+03 -0.63749630172E+02  0.13890000233E+03  0.31884911047E+03  0.00000000000E+00 0.  1.
         22    1    3    3    0    0  0.82847160180E+01 -0.93199289750E+01  0.57220717976E+02  0.58563710276E+02  0.00000000000E+00 0.  1.
</event>
<event>
 7    1  0.6444902E-006  0.6295116E+02  0.7818608E-02  0.1474232E+00
          2   -1    0    0  502    0  0.00000000000E+00  0.00000000000E+00  0.11162223123E+02  0.11162223123E+02  0.00000000000E+00 0. -1.
          1   -1    0    0  501    0 -0.00000000000E+00 -0.00000000000E+00 -0.15596040118E+04  0.15596040118E+04  0.00000000000E+00 0. -1.
         25    2    1    2    0    0  0.54127702783E+02  0.35869678555E+02 -0.79473282766E+03  0.80711717298E+03  0.12498568524E+03 0.  0.
          2    1    1    2  501    0  0.98563554341E+01 -0.30647060562E+02 -0.52820845712E+03  0.52918859043E+03  0.00000000000E+00 0. -1.
          1    1    1    2  502    0 -0.63984058217E+02 -0.52226179930E+01 -0.22550050388E+03  0.23446047150E+03  0.00000000000E+00 0. -1.
         22    1    3    3    0    0  0.61361075048E+01  0.46296129337E+01  0.23050550944E+01  0.80248620059E+01  0.00000000000E+00 0.  1.
         22    1    3    3    0    0  0.47991595278E+02  0.31240065621E+02 -0.79703788275E+03  0.79909231098E+03  0.00000000000E+00 0.  1.
</event>
<event>
 7    1  0.6444902E-006  0.6592203E+02  0.7818608E-02  0.1466314E+00
          2   -1    0    0  502    0  0.00000000000E+00  0.00000000000E+00  0.10638991057E+04  0.10638991057E+04  0.00000000000E+00 0. -1.
          1   -1    0    0  501    0 -0.00000000000E+00 -0.00000000000E+00 -0.83472047621E+03  0.83472047621E+03  0.00000000000E+00 0. -1.
         25    2    1    2    0    0 -0.87025994919E+02  0.31362657950E+02 -0.48751411473E+03  0.51171704755E+03  0.12500873805E+03 0.  0.
          2    1    1    2  501    0  0.55959785583E+02 -0.21696671353E+02 -0.33216322322E+03  0.33754207146E+03  0.00000000000E+00 0. -1.
          1    1    1    2  502    0  0.31066209336E+02 -0.96659865968E+01  0.10488559674E+04  0.10493604629E+04  0.00000000000E+00 0. -1.
         22    1    3    3    0    0 -0.17352549226E+02 -0.44862632644E+02 -0.10474751903E+03  0.11526408598E+03  0.00000000000E+00 0. -1.
         22    1    3    3    0    0 -0.69673445692E+02  0.76225290594E+02 -0.38276659570E+03  0.39645296158E+03  0.00000000000E+00 0. -1.
</event>
<event>
 7    1  0.6444902E-006  0.1922911E+03  0.7818608E-02  0.1386528E+00
          2   -1    0    0  502    0  0.00000000000E+00  0.00000000000E+00  0.81038717687E+03  0.81038717687E+03  0.00000000000E+00 0. -1.
          1   -1    0    0  501    0 -0.00000000000E+00 -0.00000000000E+00 -0.33645516426E+03  0.33645516426E+03  0.00000000000E+00 0. -1.
         25    2    1    2    0    0  0.16228178670E+03  0.12941549824E+03  0.12741689901E+03  0.27375755894E+03  0.12499754174E+03 0.  0.
          2    1    1    2  501    0 -0.19958594510E+02 -0.46614971299E+01 -0.24816727645E+03  0.24901219277E+03  0.00000000000E+00 0. -1.
          1    1    1    2  502    0 -0.14232319219E+03 -0.12475400111E+03  0.59468239005E+03  0.62407258942E+03  0.00000000000E+00 0. -1.
         22    1    3    3    0    0  0.53594142056E+02 -0.15888622580E+01 -0.10549913465E+02  0.54645742928E+02  0.00000000000E+00 0. -1.
         22    1    3    3    0    0  0.10868764465E+03  0.13100436050E+03  0.13796681248E+03  0.21911181601E+03  0.00000000000E+00 0. -1.
</event>
<event>
 7    1  0.6444902E-006  0.8803363E+02  0.7818608E-02  0.1444166E+00
          2   -1    0    0  502    0  0.00000000000E+00  0.00000000000E+00  0.43071750679E+03  0.43071750679E+03  0.00000000000E+00 0. -1.
          1   -1    0    0  501    0 -0.00000000000E+00 -0.00000000000E+00 -0.53548636034E+03  0.53548636034E+03  0.00000000000E+00 0. -1.
         25    2    1    2    0    0 -0.10185065790E+03  0.31758147635E+02  0.24634115224E+03  0.29612055177E+03  0.12498512488E+03 0.  0.
          2    1    1    2  501    0  0.22458987433E+02 -0.17783362882E+02 -0.49997406817E+03  0.50079409237E+03  0.00000000000E+00 0. -1.
          1    1    1    2  502    0  0.79391670464E+02 -0.13974784753E+02  0.14886406239E+03  0.16928922298E+03  0.00000000000E+00 0. -1.
         22    1    3    3    0    0 -0.56051919625E+02  0.28856436752E+02  0.24194053735E+03  0.25001946974E+03  0.00000000000E+00 0.  1.
         22    1    3    3    0    0 -0.45798738272E+02  0.29017108829E+01  0.44006148906E+01  0.46101082035E+02  0.00000000000E+00 0.  1.
</event>
<event>
 7    1  0.6444902E-006  0.7269754E+02  0.7818608E-02  0.1511561E+00
          2   -1    0    0  502    0  0.00000000000E+00  0.00000000000E+00  0.26745006189E+04  0.26745006189E+04  0.00000000000E+00 0. -1.
          1   -1    0    0  501    0 -0.00000000000E+00 -0.00000000000E+00 -0.21161927503E+03  0.21161927503E+03  0.00000000000E+00 0. -1.
         25    2    1    2    0    0 -0.83423377471E+02 -0.16038783058E+02  0.14687759751E+04  0.14765309279E+04  0.12499605378E+03 0.  0.
          2    1    1    2  501    0  0.13601846167E+02  0.16669703705E+02 -0.20616738681E+03  0.20728695237E+03  0.00000000000E+00 0. -1.
          1    1    1    2  502    0  0.69821531304E+02 -0.63092064659E+00  0.12002727556E+04  0.12023020137E+04  0.00000000000E+00 0. -1.
         22    1    3    3    0    0  0.31616071853E+02  0.10021841361E+02  0.31515689189E+03  0.31689727012E+03  0.00000000000E+00 0.  1.
         22    1    3    3    0    0 -0.11503944932E+03 -0.26060624420E+02  0.11536190832E+04  0.11596336577E+04  0.00000000000E+00 0.  1.
</event>
<event>
 7    1  0.6444902E-006  0.1014518E+03  0.7818608E-02  0.1324090E+00
          2   -1    0    0  502    0  0.00000000000E+00  0.00000000000E+00  0.24923175294E+04  0.24923175294E+04  0.00000000000E+00 0. -1.
          1   -1    0    0  501    0 -0.00000000000E+00 -0.00000000000E+00 -0.34718526851E+03  0.34718526851E+03  0.00000000000E+00 0. -1.
         25    2    1    2    0    0 -0.94686789598E+01 -0.14745543325E+03  0.34081384749E+02  0.19651707024E+03  0.12499862973E+03 0.  0.
          2    1    1    2  501    0  0.41074018729E+02  0.51551041701E+02 -0.26079284489E+03  0.26899348108E+03  0.00000000000E+00 0. -1.
          1    1    1    2  502    0 -0.31605339769E+02  0.95904391546E+02  0.23718437211E+04  0.23739922466E+04  0.00000000000E+00 0. -1.
         22    1    3    3    0    0 -0.28210148349E+02 -0.63713468823E+02  0.74200351820E+02  0.10178855923E+03  0.00000000000E+00 0. -1.
         22    1    3    3    0    0  0.18741469389E+02 -0.83741964424E+02 -0.40118967071E+02  0.94728511016E+02  0.00000000000E+00 0. -1.
</event>
<event>
 7    1  0.6444902E-006  0.8174282E+02  0.7818608E-02  0.1382454E+00
          2   -1    0    0  502    0  0.00000000000E+00  0.00000000000E+00  0.24846086036E+04  0.24846086036E+04  0.00000000000E+00 0. -1.
          1   -1    0    0  501    0 -0.00000000000E+00 -0.00000000000E+00 -0.57954937388E+03  0.57954937388E+03  0.00000000000E+00 0. -1.
         25    2    1    2    0    0  0.71636401132E+02  0.30549934214E+02  0.75745863303E+02  0.16561715468E+03  0.12500613453E+03 0.  0.
          2    1    1    2  501    0  0.82683445380E+01 -0.49141192231E+02 -0.53273882436E+03  0.53506436741E+03  0.00000000000E+00 0. -1.
          1    1    1    2  502    0 -0.79904745670E+02  0.18591258017E+02  0.23620521907E+04  0.23634764554E+04  0.00000000000E+00 0. -1.
         22    1    3    3    0    0  0.63784331528E+00  0.44333444494E+02  0.81796392479E+02  0.93040372782E+02  0.00000000000E+00 0. -1.
         22    1    3    3    0    0  0.70998557816E+02 -0.13783510280E+02 -0.60505291762E+01  0.72576781900E+02  0.00000000000E+00 0. -1.
</event>
<event>
 7    1  0.6444902E-006  0.9256979E+02  0.7818608E-02  0.1409332E+00
          2   -1    0    0  502    0  0.00000000000E+00  0.00000000000E+00  0.16324402136E+03  0.16324402136E+03  0.00000000000E+00 0. -1.
          1   -1    0    0  501    0 -0.00000000000E+00 -0.00000000000E+00 -0.10741861694E+04  0.10741861694E+04  0.00000000000E+00 0. -1.
         25    2    1    2    0    0  0.17374007632E+02  0.83692845988E+02 -0.24615045318E+03  0.28900014023E+03  0.12499874736E+03 0.  0.
          2    1    1    2  501    0  0.16995923609E+02 -0.92665216784E+02 -0.80158376024E+03  0.80710112657E+03  0.00000000000E+00 0. -1.
          1    1    1    2  502    0 -0.34369931242E+02  0.89723707966E+01  0.13679206535E+03  0.14132892399E+03  0.00000000000E+00 0. -1.
         22    1    3    3    0    0 -0.17970042226E+02  0.53240825456E+02 -0.22489129062E+02  0.60524943939E+02  0.00000000000E+00 0. -1.
         22    1    3    3    0    0  0.35344049858E+02  0.30452020531E+02 -0.22366132412E+03  0.22847519629E+03  0.00000000000E+00 0. -1.
</event>
<event>
 7    1  0.6444902E-006  0.8759248E+02  0.7818608E-02  0.1314715E+00
          2   -1    0    0  502    0  0.00000000000E+00  0.00000000000E+00  0.35207456846E+03  0.35207456846E+03  0.00000000000E+00 0. -1.
          1   -1    0    0  501    0 -0.00000000000E+00 -0.00000000000E+00 -0.38351177608E+03  0.38351177608E+03  0.00000000000E+00 0. -1.
         25    2    1    2    0    0  0.56404699875E+02  0.67072607294E+02 -0.15694641371E+03  0.21895037653E+03  0.12500746292E+03 0.  0.
          2    1    1    2  501    0 -0.80970865683E+02  0.18327516251E+02 -0.18012994603E+03  0.19834055661E+03  0.00000000000E+00 0. -1.
          1    1    1    2  502    0  0.24566165808E+02 -0.85400123546E+02  0.30563915213E+03  0.31829541140E+03  0.00000000000E+00 0. -1.
         22    1    3    3    0    0 -0.12160534281E+02  0.49563922094E+02 -0.49319392067E+01  0.51271678260E+02  0.00000000000E+00 0.  1.
         22    1    3    3    0    0  0.68565234157E+02  0.17508685201E+02 -0.15201447451E+03  0.16767869827E+03  0.00000000000E+00 0.  1.
</event>
<event>
 7    1  0.6444902E-006  0.9283999E+02  0.7818608E-02  0.1344456E+00
          2   -1    0    0  502    0  0.00000000000E+00  0.00000000000E+00  0.21261654351E+04  0.21261654351E+04  0.00000000000E+00 0. -1.
          1   -1    0    0  501    0 -0.00000000000E+00 -0.00000000000E+00 -0.26974694695E+03  0.26974694695E+03  0.00000000000E+00 0. -1.
         25    2    1    2    0    0 -0.43092393228E+02 -0.35687344627E+02  0.88968033660E+03  0.90015920100E+03  0.12499977951E+03 0.  0.
          2    1    1    2  501    0 -0.59797558365E+02 -0.76420337355E+01 -0.25850154017E+03  0.26543774211E+03  0.00000000000E+00 0. -1.
          1    1    1    2  502    0  0.10288995159E+03  0.43329378363E+02  0.12252396917E+04  0.12303154389E+04  0.00000000000E+00 0. -1.
         22    1    3    3    0    0  0.30323115264E+02 -0.51963631189E+02  0.32863325859E+03  0.33409508966E+03  0.00000000000E+00 0.  1.
         22    1    3    3    0    0 -0.73415508492E+02  0.16276286562E+02  0.56104707801E+03  0.56606411133E+03  0.00000000000E+00 0.  1.
</event>
<event>
 7    1  0.6444902E-006  0.1218546E+03  0.7818608E-02  0.1348712E+00
          2   -1    0    0  502    0  0.00000000000E+00  0.00000000000E+00  0.13529297842E+04  0.13529297842E+04  0.00000000000E+00 0. -1.
          1   -1    0    0  501    0 -0.00000000000E+00 -0.00000000000E+00 -0.10712932637E+03  0.10712932637E+03  0.00000000000E+00 0. -1.
         25    2    1    2    0    0  0.91524687293E+02  0.90268633914E+02  0.12935801647E+03  0.22109531368E+03  0.12499778658E+03 0.  0.
          2    1    1    2  501    0  0.19432760287E+02 -0.39791930383E+02 -0.49643026388E+02  0.66524130697E+02  0.00000000000E+00 0. -1.
          1    1    1    2  502    0 -0.11095744758E+03 -0.50476703531E+02  0.11660854677E+04  0.11724396662E+04  0.00000000000E+00 0. -1.
         22    1    3    3    0    0  0.13019703878E+02  0.82981360047E+02  0.11262214554E+03  0.14049614397E+03  0.00000000000E+00 0.  1.
         22    1    3    3    0    0  0.78504983415E+02  0.72872738664E+01  0.16735870933E+02  0.80599169706E+02  0.00000000000E+00 0.  1.
</event>
<event>
 7    1  0.6444902E-006  0.6088914E+02  0.7818608E-02  0.1414172E+00
          2   -1    0    0  502    0  0.00000000000E+00  0.00000000000E+00  0.92754021073E+03  0.92754021073E+03  0.00000000000E+00 0. -1.
          1   -1    0    0  501    0 -0.00000000000E+00 -0.00000000000E+00 -0.18720211862E+03  0.18720211862E+03  0.00000000000E+00 0. -1.
         25    2    1    2    0    0 -0.30622804927E+01  0.17797559313E+02  0.50150018848E+02  0.13588837369E+03  0.12499798012E+03 0.  0.
          2    1    1    2  501    0 -0.32416206967E+02 -0.55824251273E+02 -0.13625649118E+03  0.15077462947E+03  0.00000000000E+00 0. -1.
          1    1    1    2  502    0  0.35478487459E+02  0.38026691960E+02  0.82644456444E+03  0.82807932619E+03  0.00000000000E+00 0. -1.
         22    1    3    3    0    0  0.47918277848E+02 -0.73221527749E+01  0.61116849628E+02  0.78006695749E+02  0.00000000000E+00 0. -1.
         22    1    3    3    0    0 -0.50980558341E+02  0.25119712088E+02 -0.10966830781E+02  0.57881677943E+02  0.00000000000E+00 0. -1.
</event>
<event>
 7    1  0.6444902E-006  0.1918525E+03  0.7818608E-02  0.1160635E+00
          2   -1    0    0  502    0  0.00000000000E+00  0.00000000000E+00  0.37542516434E+03  0.37542516434E+03  0.00000000000E+00 0. -1.
          1   -1    0    0  501    0 -0.00000000000E+00 -0.00000000000E+00 -0.84500026471E+03  0.84500026471E+03  0.00000000000E+00 0. -1.
         25    2    1    2    0    0 -0.27896199050E+01 -0.24375115925E+02 -0.31484299834E+03  0.33963623853E+03  0.12499893064E+03 0.  0.
          2    1    1    2  501    0  0.13845706449E+01 -0.18345644075E+03 -0.46923047023E+03  0.50382081822E+03  0.00000000000E+00 0. -1.
          1    1    1    2  502    0  0.14050492601E+01  0.20783155667E+03  0.31449836819E+03  0.37696837229E+03  0.00000000000E+00 0. -1.
         22    1    3    3    0    0 -0.58743336076E+02 -0.75953777336E+01 -0.93241518803E+02  0.11046470081E+03  0.00000000000E+00 0.  1.
         22    1    3    3    0    0  0.55953716171E+02 -0.16779738192E+02 -0.22160147954E+03  0.22917153772E+03  0.00000000000E+00 0.  1.
</event>
<event>
 7    1  0.6444902E-006  0.1000251E+03  0.7818608E-02  0.1394492E+00
          2   -1    0    0  502    0  0.00000000000E+00  0.00000000000E+00  0.54927071152E+02  0.54927071152E+02  0.00000000000E+00 0. -1.
          1   -1    0    0  501    0 -0.00000000000E+00 -0.00000000000E+00 -0.14539194458E+04  0.14539194458E+04  0.00000000000E+00 0. -1.
         25    2    1    2    0    0  0.63667198614E+02 -0.75984888381E+02 -0.38072285915E+03  0.41279795209E+03  0.12500015332E+03 0.  0.
          2    1    1    2  501    0  0.24965981666E+02  0.27254402094E+02 -0.99045978374E+03  0.99114917438E+03  0.00000000000E+00 0. -1.
          1    1    1    2  502    0 -0.88633180280E+02  0.48730486287E+02 -0.27809731749E+02  0.10489939047E+03  0.00000000000E+00 0. -1.
         22    1    3    3    0    0  0.80720773341E+02 -0.98584422242E+02 -0.27065034542E+03  0.29914267672E+03  0.00000000000E+00 0. -1.
         22    1    3    3    0    0 -0.17053574728E+02  0.22599533861E+02 -0.11007251373E+03  0.11365527538E+03  0.00000000000E+00 0. -1.
</event>
<event>
 7    1  0.6444902E-006  0.9099244E+02  0.7818608E-02  0.1324250E+00
          2   -1    0    0  502    0  0.00000000000E+00  0.00000000000E+00  0.88489503537E+03  0.88489503537E+03  0.00000000000E+00 0. -1.
          1   -1    0    0  501    0 -0.00000000000E+00 -0.00000000000E+00 -0.69495951099E+02  0.69495951099E+02  0.00000000000E+00 0. -1.
         25    2    1    2    0    0  0.11523500059E+03  0.17466761538E+02  0.21484788407E+03  0.27453417105E+03  0.12500081867E+03 0.  0.
          2    1    1    2  501    0 -0.54128608255E+02  0.49553946105E+02  0.90601935974E+00  0.73391557261E+02  0.00000000000E+00 0. -1.
          1    1    1    2  502    0 -0.61106392333E+02 -0.67020707643E+02  0.59964518084E+03  0.60646525815E+03  0.00000000000E+00 0. -1.
         22    1    3    3    0    0  0.86487840525E+02  0.69554097162E+02  0.14896413857E+03  0.18576391892E+03  0.00000000000E+00 0.  1.
         22    1    3    3    0    0  0.28747160062E+02 -0.52087335625E+02  0.65883745494E+02  0.88770252137E+02  0.00000000000E+00 0.  1.
</event>
<event>
 7    1  0.6444902E-006  0.8268665E+02  0.7818608E-02  0.1372293E+00
          2   -1    0    0  502    0  0.00000000000E+00  0.00000000000E+00  0.28042948148E+04  0.28042948148E+04  0.00000000000E+00 0. -1.
          1   -1    0    0  501    0 -0.00000000000E+00 -0.00000000000E+00 -0.56369288828E+03  0.56369288828E+03  0.00000000000E+00 0. -1.
         25    2    1    2    0    0 -0.50691200127E+02  0.96461976530E+02  0.29535312842E+02  0.16843929538E+03  0.12499980335E+03 0.  0.
          2    1    1    2  501    0  0.51699851140E+02 -0.13902148978E+02 -0.49215895805E+03  0.49506220250E+03  0.00000000000E+00 0. -1.
          1    1    1    2  502    0 -0.10086510124E+01 -0.82559827551E+02  0.27032255717E+04  0.27044862052E+04  0.00000000000E+00 0. -1.
         22    1    3    3    0    0 -0.64408899488E+02  0.10087237996E+03  0.60633760036E+02  0.13416480994E+03  0.00000000000E+00 0.  1.
         22    1    3    3    0    0  0.13717699361E+02 -0.44104034261E+01 -0.31098447194E+02  0.34274485438E+02  0.00000000000E+00 0.  1.
</event>
<event>
 7    1  0.6444902E-006  0.5877826E+02  0.7818608E-02  0.1409946E+00
          2   -1    0    0  502    0  0.00000000000E+00  0.00000000000E+00  0.52139306490E+02  0.52139306490E+02  0.00000000000E+00 0. -1.
          1   -1    0    0  501    0 -0.00000000000E+00 -0.00000000000E+00 -0.75443810119E+03  0.75443810119E+03  0.00000000000E+00 0. -1.
         25    2    1    2    0    0  0.55538335789E+01 -0.87412612434E+01 -0.28086845570E+03  0.30760228151E+03  0.12499927785E+03 0.  0.
          2    1    1    2  501    0 -0.48170072679E+02 -0.33682758762E+02 -0.43364834994E+03  0.43761372870E+03  0.00000000000E+00 0. -1.
          1    1    1    2  502    0  0.42616239100E+02  0.42424020005E+02  0.12218010944E+02  0.61361397473E+02  0.00000000000E+00 0. -1.
         22    1    3    3    0    0 -0.58004665106E+02 -0.11987691301E+02 -0.16646687523E+03  0.17669031232E+03  0.00000000000E+00 0.  1.
         22    1    3    3    0    0  0.63558498685E+02  0.32464300577E+01 -0.11440158047E+03  0.13091196919E+03  0.00000000000E+00 0.  1.
</event>
<event>
 7    1  0.6444902E-006  0.2315232E+03  0.7818608E-02  0.1206501E+00
          2   -1    0    0  502    0  0.00000000000E+00  0.00000000000E+00  0.32210351249E+04  0.32210351249E+04  0.00000000000E+00 0. -1.
          1   -1    0    0  501    0 -0.00000000000E+00 -0.00000000000E+00 -0.14081377086E+04  0.14081377086E+04  0.00000000000E+00 0. -1.
         25    2    1    2    0    0 -0.10996638025E+03  0.28401236279E+03 -0.15679379193E+03  0.36464397462E+03  0.12500123214E+03 0.  0.
          2    1    1    2  501    0  0.71104507897E+02 -0.56886420465E+02 -0.11413445002E+04  0.11449712591E+04  0.00000000000E+00 0. -1.
          1    1    1    2  502    0  0.38861872350E+02 -0.22712594232E+03  0.31110357085E+04  0.31195575998E+04  0.00000000000E+00 0. -1.
         22    1    3    3    0    0  0.67338196861E+01 -0.43191272678E+01 -0.26014239545E+02  0.27216536279E+02  0.00000000000E+00 0.  1.
         22    1    3    3    0    0 -0.11670019993E+03  0.28833149006E+03 -0.13077955238E+03  0.33742743834E+03  0.00000000000E+00 0.  1.
</event>
<event>
 7    1  0.6444902E-006  0.4319133E+02  0.7818608E-02  0.1591296E+00
          2   -1    0    0  502    0  0.00000000000E+00  0.00000000000E+00  0.12149518312E+04  0.12149518312E+04  0.00000000000E+00 0. -1.
          1   -1    0    0  501    0 -0.00000000000E+00 -0.00000000000E+00 -0.30743524599E+03  0.30743524599E+03  0.00000000000E+00 0. -1.
         25    2    1    2    0    0  0.47478379769E+02  0.11846607315E+01  0.18831055284E+03  0.23095775182E+03  0.12500007539E+03 0.  0.
          2    1    1    2  501    0 -0.37925068055E+02 -0.20682958746E+02 -0.28436298165E+03  0.28762545246E+03  0.00000000000E+00 0. -1.
          1    1    1    2  502    0 -0.95533117134E+01  0.19498298014E+02  0.10035690140E+04  0.10038038729E+04  0.00000000000E+00 0. -1.
         22    1    3    3    0    0  0.66138412968E+02 -0.15997010653E+02  0.36840280626E+02  0.77378293445E+02  0.00000000000E+00 0. -1.
         22    1    3    3    0    0 -0.18660033199E+02  0.17181671385E+02  0.15147027221E+03  0.15357945838E+03  0.00000000000E+00 0. -1.
</event>
<event>
 7    1  0.6444902E-006  0.5086227E+02  0.7818608E-02  0.1460318E+00
          2   -1    0    0  502    0  0.00000000000E+00  0.00000000000E+00  0.30874635467E+04  0.30874635467E+04  0.00000000000E+00 0. -1.
          1   -1    0    0  501    0 -0.00000000000E+00 -0.00000000000E+00 -0.87792704195E+02  0.87792704195E+02  0.00000000000E+00 0. -1.
         25    2    1    2    0    0 -0.38667237476E+02  0.14828015286E+02  0.39458524751E+03  0.41597793755E+03  0.12500040674E+03 0.  0.
          2    1    1    2  501    0 -0.38499972063E+01 -0.43868235803E+02 -0.70540031862E+02  0.83157324909E+02  0.00000000000E+00 0. -1.
          1    1    1    2  502    0  0.42517234682E+02  0.29040220517E+02  0.26756256268E+04  0.26761209884E+04  0.00000000000E+00 0. -1.
         22    1    3    3    0    0 -0.74013877671E+02  0.17724446232E+02  0.14380566096E+03  0.16270303687E+03  0.00000000000E+00 0.  1.
         22    1    3    3    0    0  0.35346640195E+02 -0.28964309462E+01  0.25077958655E+03  0.25327490068E+03  0.00000000000E+00 0.  1.
</event>
<event>
 7    1  0.6444902E-006  0.1274511E+03  0.7818608E-02  0.1410286E+00
          2   -1    0    0  502    0  0.00000000000E+00  0.00000000000E+00  0.10280687810E+04  0.10280687810E+04  0.00000000000E+00 0. -1.
          1   -1    0    0  501    0 -0.00000000000E+00 -0.00000000000E+00 -0.25645037563E+03  0.25645037563E+03  0.00000000000E+00 0. -1.
         25    2    1    2    0    0  0.15038724280E+00 -0.10602976328E+03 -0.82797273067E+02  0.18363503784E+03  0.12499642146E+03 0.  0.
          2    1    1    2  501    0  0.14198998155E+02 -0.21311595610E+02 -0.11765162326E+03  0.12040639564E+03  0.00000000000E+00 0. -1.
          1    1    1    2  502    0 -0.14349385398E+02  0.12734135889E+03  0.97206730170E+03  0.98047772314E+03  0.00000000000E+00 0. -1.
         22    1    3    3    0    0 -0.28860435429E+02 -0.10831057918E+03 -0.99672513007E+02  0.14999572042E+03  0.00000000000E+00 0.  1.
         22    1    3    3    0    0  0.29010822671E+02  0.22808159044E+01  0.16875239940E+02  0.33639317417E+02  0.00000000000E+00 0.  1.
</event>
<event>
 7    1  0.6444902E-006  0.8136710E+02  0.7818608E-02  0.1463241E+00
          2   -1    0    0  502    0  0.00000000000E+00  0.00000000000E+00  0.12698353031E+04  0.12698353031E+04  0.00000000000E+00 0. -1.
          1   -1    0    0  501    0 -0.00000000000E+00 -0.00000000000E+00 -0.32939814564E+03  0.32939814564E+03  0.00000000000E+00 0. -1.
         25    2    1    2    0    0  0.50684782180E+02  0.30082856561E+02  0.31705643797E+03  0.34586736214E+03  0.12500208769E+03 0.  0.
          2    1    1    2  501    0 -0.77377566320E+02 -0.26365564316E+02 -0.30949115878E+03  0.32010499545E+03  0.00000000000E+00 0. -1.
          1    1    1    2  502    0  0.26692784141E+02 -0.37172922446E+01  0.93287187830E+03  0.93326109118E+03  0.00000000000E+00 0. -1.
         22    1    3    3    0    0  0.47093853814E+02 -0.11289045433E+02  0.29480101669E+03  0.29875226034E+03  0.00000000000E+00 0. -1.
         22    1    3    3    0    0  0.35909283655E+01  0.41371901993E+02  0.22255421281E+02  0.47115101799E+02  0.00000000000E+00 0. -1.
</event>
<event>
 7    1  0.6444902E-006  0.6486437E+02  0.7818608E-02  0.1518639E+00
          2   -1    0    0  502    0  0.00000000000E+00  0.00000000000E+00  0.68605156066E+02  0.68605156066E+02  0.00000000000E+00 0. -1.
          1   -1    0    0  501    0 -0.00000000000E+00 -0.00000000000E+00 -0.45259848368E+03  0.45259848368E+03  0.00000000000E+00 0. -1.
         25    2    1    2    0    0 -0.42167541711E+02  0.63779931251E+02 -0.81566584367E+02  0.16770533281E+03  0.12500395899E+03 0.  0.
          2    1    1    2  501    0  0.22410207337E+02 -0.51359981224E+01 -0.28933367106E+03  0.29024570467E+03  0.00000000000E+00 0. -1.
          1    1    1    2  502    0  0.19757334374E+02 -0.58643933128E+02 -0.13093072185E+02  0.63252602267E+02  0.00000000000E+00 0. -1.
         22    1    3    3    0    0 -0.46467926233E+02 -0.27212043819E+02 -0.18614682296E+02  0.56976046671E+02  0.00000000000E+00 0.  1.
         22    1    3    3    0    0  0.43003845222E+01  0.90991975070E+02 -0.62951902071E+02  0.11072928614E+03  0.00000000000E+00 0.  1.
</event>
<event>
 7    1  0.6444902E-006  0.1072664E+03  0.7818608E-02  0.1345424E+00
          2   -1    0    0  502    0  0.00000000000E+00  0.00000000000E+00  0.11019251231E+04  0.11019251231E+04  0.00000000000E+00 0. -1.
          1   -1    0    0  501    0 -0.00000000000E+00 -0.00000000000E+00 -0.14921872998E+03  0.14921872998E+03  0.00000000000E+00 0. -1.
         25    2    1    2    0    0 -0.12500364905E+03  0.10806560378E+02 -0.15633187972E+02  0.17779639962E+03  0.12499787649E+03 0.  0.
          2    1    1    2  501    0  0.94908993619E+02  0.31285299450E+02 -0.36331056546E+01  0.99998432428E+02  0.00000000000E+00 0. -1.
          1    1    1    2  502    0  0.30094655433E+02 -0.42091859827E+02  0.97197268676E+03  0.97334902103E+03  0.00000000000E+00 0. -1.
         22    1    3    3    0    0 -0.10976415862E+03 -0.31061667724E+02  0.25797174721E+02  0.11695508515E+03  0.00000000000E+00 0. -1.
         22    1    3    3    0    0 -0.15239490431E+02  0.41868228102E+02 -0.41430362693E+02  0.60841314465E+02  0.00000000000E+00 0. -1.
</event>
<event>
 7    1  0.6444902E-006  0.1245649E+03  0.7818608E-02  0.1326481E+00
          2   -1    0    0  502    0  0.00000000000E+00  0.00000000000E+00  0.19812386772E+02  0.19812386772E+02  0.00000000000E+00 0. -1.
          1   -1    0    0  501    0 -0.00000000000E+00 -0.00000000000E+00 -0.32235208709E+04  0.32235208709E+04  0.00000000000E+00 0. -1.
         25    2    1    2    0    0  0.15920961247E+02  0.15374265871E+03 -0.77510158924E+03  0.80018616039E+03  0.12500054211E+03 0.  0.
          2    1    1    2  501    0 -0.47589152748E+02 -0.11179667057E+03 -0.23125983913E+04  0.23157881040E+04  0.00000000000E+00 0. -1.
          1    1    1    2  502    0  0.31668191500E+02 -0.41945988141E+02 -0.11600850359E+03  0.12735899332E+03  0.00000000000E+00 0. -1.
         22    1    3    3    0    0 -0.21251418323E+02 -0.91658729026E+01 -0.19899597952E+03  0.20033730525E+03  0.00000000000E+00 0. -1.
         22    1    3    3    0    0  0.37172379570E+02  0.16290853161E+03 -0.57610560972E+03  0.59984885515E+03  0.00000000000E+00 0. -1.
</event>
<event>
 7    1  0.6444902E-006  0.5698751E+02  0.7818608E-02  0.1495965E+00
          2   -1    0    0  502    0  0.00000000000E+00  0.00000000000E+00  0.14305324055E+03  0.14305324055E+03  0.00000000000E+00 0. -1.
          1   -1    0    0  501    0 -0.00000000000E+00 -0.00000000000E+00 -0.10156424339E+04  0.10156424339E+04  0.00000000000E+00 0. -1.
         25    2    1    2    0    0  0.33233421893E+02 -0.72831330159E+02 -0.30837455441E+03  0.34224481823E+03  0.12501114675E+03 0.  0.
          2    1    1    2  501    0 -0.25523794165E+02  0.16758535260E+02 -0.68362437732E+03  0.68430592708E+03  0.00000000000E+00 0. -1.
          1    1    1    2  502    0 -0.77096277280E+01  0.56072794899E+02  0.11940973836E+03  0.13214492916E+03  0.00000000000E+00 0. -1.
         22    1    3    3    0    0  0.21625335956E+02 -0.35676588644E+02 -0.29940673702E+03  0.30229930252E+03  0.00000000000E+00 0. -1.
         22    1    3    3    0    0  0.11608085937E+02 -0.37154741514E+02 -0.89678173886E+01  0.39945515704E+02  0.00000000000E+00 0. -1.
</event>
<event>
 7    1  0.6444902E-006  0.4482664E+02  0.7818608E-02  0.1559139E+00
          2   -1    0    0  502    0  0.00000000000E+00  0.00000000000E+00  0.16853488699E+03  0.16853488699E+03  0.00000000000E+00 0. -1.
          1   -1    0    0  501    0 -0.00000000000E+00 -0.00000000000E+00 -0.42750902163E+03  0.42750902163E+03  0.00000000000E+00 0. -1.
         25    2    1    2    0    0  0.38403175427E+02  0.24796437889E+02 -0.78973704345E+02  0.15480341142E+03  0.12505032184E+03 0.  0.
          2    1    1    2  501    0  0.66278742763E+01 -0.24673124962E+02 -0.30619148007E+03  0.30725545443E+03  0.00000000000E+00 0. -1.
          1    1    1    2  502    0 -0.45031049704E+02 -0.12331292694E+00  0.12619104978E+03  0.13398504277E+03  0.00000000000E+00 0. -1.
         22    1    3    3    0    0 -0.32891133948E+02 -0.33828030856E+01 -0.70256385143E+02  0.77648114610E+02  0.00000000000E+00 0.  1.
         22    1    3    3    0    0  0.71294309375E+02  0.28179240975E+02 -0.87173192016E+01  0.77155296806E+02  0.00000000000E+00 0.  1.
</event>
<event>
 7    1  0.6444902E-006  0.7534879E+02  0.7818608E-02  0.1406027E+00
          2   -1    0    0  502    0  0.00000000000E+00  0.00000000000E+00  0.12182051666E+03  0.12182051666E+03  0.00000000000E+00 0. -1.
          1   -1    0    0  501    0 -0.00000000000E+00 -0.00000000000E+00 -0.76481373193E+03  0.76481373193E+03  0.00000000000E+00 0. -1.
         25    2    1    2    0    0  0.46232235804E+02  0.79589526132E+02 -0.46149180266E+03  0.48689988542E+03  0.12499960882E+03 0.  0.
          2    1    1    2  501    0  0.18243555114E+02 -0.40899806416E+02 -0.27563840667E+03  0.27925284726E+03  0.00000000000E+00 0. -1.
          1    1    1    2  502    0 -0.64475790917E+02 -0.38689719716E+02  0.94136994062E+02  0.12048151592E+03  0.00000000000E+00 0. -1.
         22    1    3    3    0    0 -0.27162291026E+02  0.47508377571E+02 -0.78950484793E+02  0.96062557962E+02  0.00000000000E+00 0. -1.
         22    1    3    3    0    0  0.73394526830E+02  0.32081148562E+02 -0.38254131786E+03  0.39083732746E+03  0.00000000000E+00 0. -1.
</event>
<event>
 7    1  0.6444902E-006  0.1576631E+03  0.7818608E-02  0.1236426E+00
          2   -1    0    0  502    0  0.00000000000E+00  0.00000000000E+00  0.48835619176E+03  0.48835619176E+03  0.00000000000E+00 0. -1.
          1   -1    0    0  501    0 -0.00000000000E+00 -0.00000000000E+00 -0.36989878061E+03  0.36989878061E+03  0.00000000000E+00 0. -1.
         25    2    1    2    0    0  0.22027106909E+03 -0.44303940340E+02  0.24369080143E+03  0.35424914067E+03  0.12500025585E+03 0.  0.
          2    1    1    2  501    0 -0.97732733280E+02  0.10264359532E+01 -0.28311919166E+03  0.29951497026E+03  0.00000000000E+00 0. -1.
          1    1    1    2  502    0 -0.12253833581E+03  0.43277504387E+02  0.15788580139E+03  0.20449086143E+03  0.00000000000E+00 0. -1.
         22    1    3    3    0    0 -0.14076052683E+02  0.54343605644E+01  0.28394175184E+02  0.32154264387E+02  0.00000000000E+00 0.  1.
         22    1    3    3    0    0  0.23434712177E+03 -0.49738300905E+02  0.21529662624E+03  0.32209487629E+03  0.00000000000E+00 0.  1.
</event>
<event>
 7    1  0.6444902E-006  0.2847080E+02  0.7818608E-02  0.1623635E+00
          2   -1    0    0  502    0  0.00000000000E+00  0.00000000000E+00  0.80429842668E+03  0.80429842668E+03  0.00000000000E+00 0. -1.
          1   -1    0    0  501    0 -0.00000000000E+00 -0.00000000000E+00 -0.20067652416E+02  0.20067652416E+02  0.00000000000E+00 0. -1.
         25    2    1    2    0    0  0.21057836444E+02 -0.23079156770E+02  0.44848923029E+03  0.46663119714E+03  0.12500401794E+03 0.  0.
          2    1    1    2  501    0 -0.28729189303E+02 -0.29804207596E+01  0.95604150611E+01  0.30424509233E+02  0.00000000000E+00 0. -1.
          1    1    1    2  502    0  0.76713528590E+01  0.26059577530E+02  0.32618112891E+03  0.32731037272E+03  0.00000000000E+00 0. -1.
         22    1    3    3    0    0  0.19499284106E+02 -0.10547769903E+02  0.45275862815E+03  0.45330106209E+03  0.00000000000E+00 0. -1.
         22    1    3    3    0    0  0.15585523381E+01 -0.12531386867E+02 -0.42693978589E+01  0.13330135044E+02  0.00000000000E+00 0. -1.
</event>
<event>
 7    1  0.6444902E-006  0.1493861E+03  0.7818608E-02  0.1371687E+00
          2   -1    0    0  502    0  0.00000000000E+00  0.00000000000E+00  0.12498208287E+04  0.12498208287E+04  0.00000000000E+00 0. -1.
          1   -1    0    0  501    0 -0.00000000000E+00 -0.00000000000E+00 -0.26239667587E+03  0.26239667587E+03  0.00000000000E+00 0. -1.
         25    2    1    2    0    0  0.14348046269E+03  0.21393093840E+02 -0.60744033203E+02  0.20092751814E+03  0.12505087900E+03 0.  0.
          2    1    1    2  501    0  0.59613892466E+01 -0.29178692002E+02 -0.12505981296E+03  0.12855695643E+03  0.00000000000E+00 0. -1.
          1    1    1    2  502    0 -0.14944185194E+03  0.77855981624E+01  0.11732279990E+04  0.11827330300E+04  0.00000000000E+00 0. -1.
         22    1    3    3    0    0  0.81465764493E+02  0.24834884471E+02  0.30574280662E+02  0.90488833063E+02  0.00000000000E+00 0.  1.
         22    1    3    3    0    0  0.62014698198E+02 -0.34417906316E+01 -0.91318313865E+02  0.11043868508E+03  0.00000000000E+00 0.  1.
</event>
<event>
 7    1  0.6444902E-006  0.9567965E+02  0.7818608E-02  0.1291227E+00
          2   -1    0    0  502    0  0.00000000000E+00  0.00000000000E+00  0.52682612131E+03  0.52682612131E+03  0.00000000000E+00 0. -1.
          1   -1    0    0  501    0 -0.00000000000E+00 -0.00000000000E+00 -0.81723760863E+02  0.81723760863E+02  0.00000000000E+00 0. -1.
         25    2    1    2    0    0 -0.50706782635E+02 -0.36132739123E+02  0.34188201660E+02  0.14376939453E+03  0.12499621206E+03 0.  0.
          2    1    1    2  501    0  0.64056043916E+02 -0.69178037566E+02  0.10572382280E+03  0.14165558355E+03  0.00000000000E+00 0. -1.
          1    1    1    2  502    0 -0.13349261282E+02  0.10531077669E+03  0.30519033599E+03  0.32312490410E+03  0.00000000000E+00 0. -1.
         22    1    3    3    0    0 -0.54015756157E+02 -0.79243669447E+02  0.17859504023E+02  0.97551129899E+02  0.00000000000E+00 0.  1.
         22    1    3    3    0    0  0.33089735220E+01  0.43110930324E+02  0.16328697636E+02  0.46218264633E+02  0.00000000000E+00 0.  1.
</event>
<event>
 7    1  0.6444902E-006  0.8083855E+02  0.7818608E-02  0.1355923E+00
          2   -1    0    0  502    0  0.00000000000E+00  0.00000000000E+00  0.10355617760E+04  0.10355617760E+04  0.00000000000E+00 0. -1.
          1   -1    0    0  501    0 -0.00000000000E+00 -0.00000000000E+00 -0.14097199165E+04  0.14097199165E+04  0.00000000000E+00 0. -1.
         25    2    1    2    0    0 -0.10451461218E+02  0.22119153910E+02  0.23889969725E+03  0.27073370509E+03  0.12500073485E+03 0.  0.
          2    1    1    2  501    0 -0.14167597444E+02 -0.79874051843E+02 -0.13913574310E+04  0.13937202322E+04  0.00000000000E+00 0. -1.
          1    1    1    2  502    0  0.24619058662E+02  0.57754897933E+02  0.77829959327E+03  0.78082775512E+03  0.00000000000E+00 0. -1.
         22    1    3    3    0    0 -0.36497004057E+02  0.51863233460E+02  0.59264458269E+02  0.86799206817E+02  0.00000000000E+00 0.  1.
         22    1    3    3    0    0  0.26045542839E+02 -0.29744079550E+02  0.17963523898E+03  0.18393449827E+03  0.00000000000E+00 0.  1.
</event>
<event>
 7    1  0.6444902E-006  0.1293109E+03  0.7818608E-02  0.1345608E+00
          2   -1    0    0  502    0  0.00000000000E+00  0.00000000000E+00  0.31385789049E+04  0.31385789049E+04  0.00000000000E+00 0. -1.
          1   -1    0    0  501    0 -0.00000000000E+00 -0.00000000000E+00 -0.12077806954E+03  0.12077806954E+03  0.00000000000E+00 0. -1.
         25    2    1    2    0    0 -0.15492414054E+03 -0.23824535684E+02  0.71195090857E+02  0.21275248563E+03  0.12500312539E+03 0.  0.
          2    1    1    2  501    0  0.11631866076E+03  0.52191518105E+01  0.18157827078E+02  0.11784301876E+03  0.00000000000E+00 0. -1.
          1    1    1    2  502    0  0.38605479775E+02  0.18605383873E+02  0.29284479175E+04  0.29287614701E+04  0.00000000000E+00 0. -1.
         22    1    3    3    0    0 -0.10110698908E+03 -0.14782034518E+02 -0.22215893199E+02  0.10456900925E+03  0.00000000000E+00 0.  1.
         22    1    3    3    0    0 -0.53817151459E+02 -0.90425011656E+01  0.93410984056E+02  0.10818347638E+03  0.00000000000E+00 0.  1.
</event>
<event>
 7    1  0.6444902E-006  0.9492003E+02  0.7818608E-02  0.1329875E+00
          2   -1    0    0  502    0  0.00000000000E+00  0.00000000000E+00  0.37139957606E+03  0.37139957606E+03  0.00000000000E+00 0. -1.
          1   -1    0    0  501    0 -0.00000000000E+00 -0.00000000000E+00 -0.10748611294E+04  0.10748611294E+04  0.00000000000E+00 0. -1.
         25    2    1    2    0    0 -0.16920370836E+02 -0.13421311348E+03 -0.49130083887E+02  0.19060818463E+03  0.12497302158E+03 0.  0.
          2    1    1    2  501    0 -0.35272312245E+02  0.56890685257E+02 -0.94654505028E+03  0.94890896206E+03  0.00000000000E+00 0. -1.
          1    1    1    2  502    0  0.52192683081E+02  0.77322428227E+02  0.29221358079E+03  0.30674355881E+03  0.00000000000E+00 0. -1.
         22    1    3    3    0    0 -0.22469599488E+02 -0.14566537922E+03 -0.80564027298E+01  0.14760823564E+03  0.00000000000E+00 0.  1.
         22    1    3    3    0    0  0.55492286528E+01  0.11452265734E+02 -0.41073681157E+02  0.42999948986E+02  0.00000000000E+00 0.  1.
</event>
<event>
 7    1  0.6444902E-006  0.5176015E+02  0.7818608E-02  0.1447214E+00
          2   -1    0    0  502    0  0.00000000000E+00  0.00000000000E+00  0.36845402594E+03  0.36845402594E+03  0.00000000000E+00 0. -1.
          1   -1    0    0  501    0 -0.00000000000E+00 -0.00000000000E+00 -0.16285234088E+04  0.16285234088E+04  0.00000000000E+00 0. -1.
         25    2    1    2    0    0  0.55854298542E+02 -0.77903474327E+01 -0.67159460327E+03  0.68545232038E+03  0.12500072078E+03 0.  0.
          2    1    1    2  501    0 -0.18642497566E+02  0.43835060484E+02 -0.94754259598E+03  0.94873917724E+03  0.00000000000E+00 0. -1.
          1    1    1    2  502    0 -0.37211800976E+02 -0.36044713051E+02  0.35906781634E+03  0.36278593716E+03  0.00000000000E+00 0. -1.
         22    1    3    3    0    0  0.86949774911E+02 -0.36892934768E+02 -0.47424885482E+03  0.48356315853E+03  0.00000000000E+00 0.  1.
         22    1    3    3    0    0 -0.31095476369E+02  0.29102587335E+02 -0.19734574845E+03  0.20188916185E+03  0.00000000000E+00 0.  1.
</event>
<event>
 7    1  0.6444902E-006  0.7244468E+02  0.7818608E-02  0.1477258E+00
          2   -1    0    0  502    0  0.00000000000E+00  0.00000000000E+00  0.39830761732E+02  0.39830761732E+02  0.00000000000E+00 0. -1.
          1   -1    0    0  501    0 -0.00000000000E+00 -0.00000000000E+00 -0.93648625751E+03  0.93648625751E+03  0.00000000000E+00 0. -1.
         25    2    1    2    0    0  0.42083788293E+02  0.24863116570E+02 -0.40217393945E+03  0.42397834227E+03  0.12499814934E+03 0.  0.
          2    1    1    2  501    0  0.26801950366E+02  0.55919144889E+01 -0.47331096967E+03  0.47410219158E+03  0.00000000000E+00 0. -1.
          1    1    1    2  502    0 -0.68885738658E+02 -0.30455031059E+02 -0.21170586660E+02  0.78236485395E+02  0.00000000000E+00 0. -1.
         22    1    3    3    0    0  0.34705971369E+02  0.70379612695E+02 -0.16955490462E+03  0.18683324119E+03  0.00000000000E+00 0.  1.
         22    1    3    3    0    0  0.73778169238E+01 -0.45516496124E+02 -0.23261903482E+03  0.23714510108E+03  0.00000000000E+00 0.  1.
</event>
<event>
 7    1  0.6444902E-006  0.9515387E+02  0.7818608E-02  0.1301970E+00
          2   -1    0    0  502    0  0.00000000000E+00  0.00000000000E+00  0.24013661456E+04  0.24013661456E+04  0.00000000000E+00 0. -1.
          1   -1    0    0  501    0 -0.00000000000E+00 -0.00000000000E+00 -0.21656004132E+04  0.21656004132E+04  0.00000000000E+00 0. -1.
         25    2    1    2    0    0 -0.10677157837E+03  0.13982445059E+03  0.75921390432E+02  0.22877744380E+03  0.12499605728E+03 0.  0.
          2    1    1    2  501    0  0.40226833234E+02 -0.85635737925E+02 -0.20872817283E+04  0.20894249666E+04  0.00000000000E+00 0. -1.
          1    1    1    2  502    0  0.66544745136E+02 -0.54188712667E+02  0.22471260703E+04  0.22487641485E+04  0.00000000000E+00 0. -1.
         22    1    3    3    0    0 -0.92870665772E+02  0.15899865291E+03  0.44508909838E+02  0.18943752333E+03  0.00000000000E+00 0.  1.
         22    1    3    3    0    0 -0.13900912598E+02 -0.19174202322E+02  0.31412480595E+02  0.39339920473E+02  0.00000000000E+00 0.  1.
</event>
<event>
 7    1  0.6444902E-006  0.4394119E+02  0.7818608E-02  0.1524698E+00
          2   -1    0    0  502    0  0.00000000000E+00  0.00000000000E+00  0.95069274560E+03  0.95069274560E+03  0.00000000000E+00 0. -1.
          1   -1    0    0  501    0 -0.00000000000E+00 -0.00000000000E+00 -0.11254147892E+04  0.11254147892E+04  0.00000000000E+00 0. -1.
         25    2    1    2    0    0 -0.56582935174E+02 -0.48995694619E+02 -0.57958907873E+02  0.15680373218E+03  0.12500387506E+03 0.  0.
          2    1    1    2  501    0  0.27836317093E+02  0.33632677673E+02 -0.10172704244E+04  0.10182068227E+04  0.00000000000E+00 0. -1.
          1    1    1    2  502    0  0.28746618081E+02  0.15363016947E+02  0.90050728862E+03  0.90109697991E+03  0.00000000000E+00 0. -1.
         22    1    3    3    0    0 -0.21521223769E+02  0.26943725447E+02  0.22151681352E+02  0.40985660910E+02  0.00000000000E+00 0.  1.
         22    1    3    3    0    0 -0.35061711404E+02 -0.75939420066E+02 -0.80110589225E+02  0.11581807127E+03  0.00000000000E+00 0.  1.
</event>
<event>
 7    1  0.6444902E-006  0.3196470E+02  0.7818608E-02  0.1647746E+00
          2   -1    0    0  502    0  0.00000000000E+00  0.00000000000E+00  0.99373698734E+03  0.99373698734E+03  0.00000000000E+00 0. -1.
          1   -1    0    0  501    0 -0.00000000000E+00 -0.00000000000E+00 -0.11806890281E+03  0.11806890281E+03  0.00000000000E+00 0. -1.
         25    2    1    2    0    0 -0.52351316729E+02  0.18018982072E+01  0.19531149647E+03  0.23773024397E+03  0.12500072419E+03 0.  0.
          2    1    1    2  501    0  0.20948456966E+02  0.22032366742E+01 -0.95387664934E+02  0.97685714015E+02  0.00000000000E+00 0. -1.
          1    1    1    2  502    0  0.31402859763E+02 -0.40051348815E+01  0.77574425300E+03  0.77638993217E+03  0.00000000000E+00 0. -1.
         22    1    3    3    0    0 -0.23349664811E+02  0.30524904124E+02  0.19306238731E+03  0.19685035436E+03  0.00000000000E+00 0.  1.
         22    1    3    3    0    0 -0.29001651918E+02 -0.28723005917E+02  0.22491091586E+01  0.40879889615E+02  0.00000000000E+00 0.  1.
</event>
<event>
 7    1  0.6444902E-006  0.1060134E+03  0.7818608E-02  0.1292202E+00
          2   -1    0    0  502    0  0.00000000000E+00  0.00000000000E+00  0.68159823912E+03  0.68159823912E+03  0.00000000000E+00 0. -1.
          1   -1    0    0  501    0 -0.00000000000E+00 -0.00000000000E+00 -0.27676360465E+04  0.27676360465E+04  0.00000000000E+00 0. -1.
         25    2    1    2    0    0 -0.88960663467E+02  0.15137213364E+03 -0.18056221758E+03  0.28116541738E+03  0.12499502002E+03 0.  0.
          2    1    1    2  501    0  0.86851688129E+01 -0.83870645366E+02 -0.25317091541E+04  0.25331128988E+04  0.00000000000E+00 0. -1.
          1    1    1    2  502    0  0.80275494654E+02 -0.67501488270E+02  0.62623356432E+03  0.63495596937E+03  0.00000000000E+00 0. -1.
         22    1    3    3    0    0 -0.10197928299E+03  0.91910398822E+02 -0.17141111952E+03  0.21961117336E+03  0.00000000000E+00 0.  1.
         22    1    3    3    0    0  0.13018619518E+02  0.59461734815E+02 -0.91510980577E+01  0.61554244021E+02  0.00000000000E+00 0.  1.
</event>
<event>
 7    1  0.6444902E-006  0.2066832E+03  0.7818608E-02  0.1224598E+00
          2   -1    0    0  502    0  0.00000000000E+00  0.00000000000E+00  0.20223431732E+04  0.20223431732E+04  0.00000000000E+00 0. -1.
          1   -1    0    0  501    0 -0.00000000000E+00 -0.00000000000E+00 -0.27337470407E+03  0.27337470407E+03  0.00000000000E+00 0. -1.
         25    2    1    2    0    0 -0.14120608371E+03 -0.78864396118E+02  0.61761225993E+03  0.65056002373E+03  0.12499875921E+03 0.  0.
          2    1    1    2  501    0 -0.36353571540E+02 -0.75984104760E+02 -0.23966766998E+03  0.25403889146E+03  0.00000000000E+00 0. -1.
          1    1    1    2  502    0  0.17755965525E+03  0.15484850088E+03  0.13710238792E+04  0.13911189621E+04  0.00000000000E+00 0. -1.
         22    1    3    3    0    0 -0.90140114591E+02 -0.65784874600E+02  0.56560704816E+03  0.57651038405E+03  0.00000000000E+00 0.  1.
         22    1    3    3    0    0 -0.51065969123E+02 -0.13079521519E+02  0.52005211763E+02  0.74049639676E+02  0.00000000000E+00 0.  1.
</event>
<event>
 7    1  0.6444902E-006  0.8629671E+02  0.7818608E-02  0.1383323E+00
          2   -1    0    0  502    0  0.00000000000E+00  0.00000000000E+00  0.36801831009E+03  0.36801831009E+03  0.00000000000E+00 0. -1.
          1   -1    0    0  501    0 -0.00000000000E+00 -0.00000000000E+00 -0.90415571856E+02  0.90415571856E+02  0.00000000000E+00 0. -1.
         25    2    1    2    0    0 -0.10661356060E+03  0.32466171822E+02  0.12451536495E+03  0.20868322398E+03  0.12499643293E+03 0.  0.
          2    1    1    2  501    0  0.42697548974E+02  0.19332137254E+02 -0.25331623726E+02  0.53277606738E+02  0.00000000000E+00 0. -1.
          1    1    1    2  502    0  0.63916011629E+02 -0.51798309076E+02  0.17841899701E+03  0.19647305123E+03  0.00000000000E+00 0. -1.
         22    1    3    3    0    0 -0.11029448719E+03  0.58418028853E+02  0.13175992408E+03  0.18148889110E+03  0.00000000000E+00 0. -1.
         22    1    3    3    0    0  0.36809265874E+01 -0.25951857031E+02 -0.72445591248E+01  0.27194332881E+02  0.00000000000E+00 0. -1.
</event>
<event>
 7    1  0.6444902E-006  0.4642408E+02  0.7818608E-02  0.1502294E+00
          2   -1    0    0  502    0  0.00000000000E+00  0.00000000000E+00  0.47844926219E+02  0.47844926219E+02  0.00000000000E+00 0. -1.
          1   -1    0    0  501    0 -0.00000000000E+00 -0.00000000000E+00 -0.13683987189E+04  0.13683987189E+04  0.00000000000E+00 0. -1.
         25    2    1    2    0    0 -0.24315675032E+02  0.37344175690E+02 -0.24165428336E+03  0.27569540612E+03  0.12500129910E+03 0.  0.
          2    1    1    2  501    0  0.34747660957E+02  0.89610709885E+01 -0.10909794069E+04  0.10915694055E+04  0.00000000000E+00 0. -1.
          1    1    1    2  502    0 -0.10431985925E+02 -0.46305246678E+02  0.12079897627E+02  0.48978833458E+02  0.00000000000E+00 0. -1.
         22    1    3    3    0    0 -0.74108555853E+02  0.36517354438E+02 -0.14181380375E+03  0.16412419127E+03  0.00000000000E+00 0. -1.
         22    1    3    3    0    0  0.49792880821E+02  0.82682125158E+00 -0.99840479610E+02  0.11157121485E+03  0.00000000000E+00 0. -1.
</event>
<event>
 7    1  0.6444902E-006  0.6194624E+02  0.7818608E-02  0.1436117E+00
          2   -1    0    0  502    0  0.00000000000E+00  0.00000000000E+00  0.60380680327E+03  0.60380680327E+03  0.00000000000E+00 0. -1.
          1   -1    0    0  501    0 -0.00000000000E+00 -0.00000000000E+00 -0.94636723245E+03  0.94636723245E+03  0.00000000000E+00 0. -1.
         25    2    1    2    0    0  0.38325221024E+02 -0.13814915994E+01  0.11071029259E+03  0.17136516927E+03  0.12505407338E+03 0.  0.
          2    1    1    2  501    0  0.11943228122E+02  0.41552358452E+02 -0.91328905877E+03  0.91431184180E+03  0.00000000000E+00 0. -1.
          1    1    1    2  502    0 -0.50268449146E+02 -0.40170866852E+02  0.46001833701E+03  0.46449702465E+03  0.00000000000E+00 0. -1.
         22    1    3    3    0    0  0.58059653442E+02  0.36032448034E+02  0.19874780475E+02  0.71163667472E+02  0.00000000000E+00 0.  1.
         22    1    3    3    0    0 -0.19734432418E+02 -0.37413939634E+02  0.90835512111E+02  0.10020150180E+03  0.00000000000E+00 0.  1.
</event>
<event>
 7    1  0.6444902E-006  0.6838751E+02  0.7818608E-02  0.1454636E+00
          2   -1    0    0  502    0  0.00000000000E+00  0.00000000000E+00  0.20751543270E+04  0.20751543270E+04  0.00000000000E+00 0. -1.
          1   -1    0    0  501    0 -0.00000000000E+00 -0.00000000000E+00 -0.10830554063E+03  0.10830554063E+03  0.00000000000E+00 0. -1.
         25    2    1    2    0    0  0.89234891633E+02 -0.16647920926E+02  0.69885230281E+03  0.71572394241E+03  0.12500480570E+03 0.  0.
          2    1    1    2  501    0 -0.67415429658E+02 -0.96054146883E+01 -0.88022007253E+02  0.11128781563E+03  0.00000000000E+00 0. -1.
          1    1    1    2  502    0 -0.21819461976E+02  0.26253335614E+02  0.13560184908E+04  0.13564481095E+04  0.00000000000E+00 0. -1.
         22    1    3    3    0    0 -0.45477217765E+01 -0.52726123823E+02  0.28283350535E+03  0.28774210268E+03  0.00000000000E+00 0. -1.
         22    1    3    3    0    0  0.93782613410E+02  0.36078202897E+02  0.41601879746E+03  0.42798183973E+03  0.00000000000E+00 0. -1.
</event>
<event>
 7    1  0.6444902E-006  0.1088371E+03  0.7818608E-02  0.1267452E+00
          2   -1    0    0  502    0  0.00000000000E+00  0.00000000000E+00  0.18007460958E+04  0.18007460958E+04  0.00000000000E+00 0. -1.
          1   -1    0    0  501    0 -0.00000000000E+00 -0.00000000000E+00 -0.40672529789E+03  0.40672529789E+03  0.00000000000E+00 0. -1.
         25    2    1    2    0    0  0.50191965838E+02  0.20453604930E+03  0.81400147562E+02  0.25808042250E+03  0.12500116621E+03 0.  0.
          2    1    1    2  501    0 -0.28756690090E+02 -0.99894114367E+02 -0.30809518923E+03  0.32515907943E+03  0.00000000000E+00 0. -1.
          1    1    1    2  502    0 -0.21435275747E+02 -0.10464193494E+03  0.16207158396E+04  0.16242318918E+04  0.00000000000E+00 0. -1.
         22    1    3    3    0    0  0.89827395909E+01  0.15335717531E+02  0.60808369512E+02  0.63352439933E+02  0.00000000000E+00 0. -1.
         22    1    3    3    0    0  0.41209226247E+02  0.18920033177E+03  0.20591778050E+02  0.19472798256E+03  0.00000000000E+00 0. -1.
</event>
<event>
 7    1  0.6444902E-006  0.4673007E+02  0.7818608E-02  0.1525319E+00
          2   -1    0    0  502    0  0.00000000000E+00  0.00000000000E+00  0.68929259229E+03  0.68929259229E+03  0.00000000000E+00 0. -1.
          1   -1    0    0  501    0 -0.00000000000E+00 -0.00000000000E+00 -0.30314080174E+03  0.30314080174E+03  0.00000000000E+00 0. -1.
         25    2    1    2    0    0  0.27533159987E+02  0.44788109955E+02  0.18978322145E+03  0.23325425678E+03  0.12500330985E+03 0.  0.
          2    1    1    2  501    0  0.29314232499E+01 -0.46671830881E+02 -0.27896961859E+03  0.28286198248E+03  0.00000000000E+00 0. -1.
          1    1    1    2  502    0 -0.30464583237E+02  0.18837209259E+01  0.47533818770E+03  0.47631715476E+03  0.00000000000E+00 0. -1.
         22    1    3    3    0    0  0.13910110986E+02  0.87805486603E+02  0.14199808524E+03  0.16753134297E+03  0.00000000000E+00 0. -1.
         22    1    3    3    0    0  0.13623049002E+02 -0.43017376648E+02  0.47785136204E+02  0.65722913811E+02  0.00000000000E+00 0. -1.
</event>
<event>
 7    1  0.6444902E-006  0.4839460E+02  0.7818608E-02  0.1477410E+00
          2   -1    0    0  502    0  0.00000000000E+00  0.00000000000E+00  0.23994160379E+04  0.23994160379E+04  0.00000000000E+00 0. -1.
          1   -1    0    0  501    0 -0.00000000000E+00 -0.00000000000E+00 -0.52285010278E+02  0.52285010278E+02  0.00000000000E+00 0. -1.
         25    2    1    2    0    0 -0.63137760827E+02 -0.57178677035E+02  0.36236347755E+03  0.39266745018E+03  0.12499863448E+03 0.  0.
          2    1    1    2  501    0  0.20662613021E+02  0.35344710059E+02 -0.25477503305E+02  0.48221315626E+02  0.00000000000E+00 0. -1.
          1    1    1    2  502    0  0.42475147806E+02  0.21833966975E+02  0.20102450534E+04  0.20108122824E+04  0.00000000000E+00 0. -1.
         22    1    3    3    0    0  0.16677855058E+02  0.28702224405E+02  0.98065768158E+02  0.10353194396E+03  0.00000000000E+00 0.  1.
         22    1    3    3    0    0 -0.79815615885E+02 -0.85880901439E+02  0.26429770939E+03  0.28913550623E+03  0.00000000000E+00 0.  1.
</event>
<event>
 7    1  0.6444902E-006  0.6999995E+02  0.7818608E-02  0.1475474E+00
          2   -1    0    0  502    0  0.00000000000E+00  0.00000000000E+00  0.19952813781E+03  0.19952813781E+03  0.00000000000E+00 0. -1.
          1   -1    0    0  501    0 -0.00000000000E+00 -0.00000000000E+00 -0.11376221639E+04  0.11376221639E+04  0.00000000000E+00 0. -1.
         25    2    1    2    0    0  0.83142471670E+02  0.19808407175E+02 -0.45295139731E+03  0.47759507740E+03  0.12500818389E+03 0.  0.
          2    1    1    2  501    0 -0.68126149442E+02  0.46455599564E+01 -0.66950230292E+03  0.67297554717E+03  0.00000000000E+00 0. -1.
          1    1    1    2  502    0 -0.15016322228E+02 -0.24453967131E+02  0.18435967419E+03  0.18657967711E+03  0.00000000000E+00 0. -1.
         22    1    3    3    0    0  0.10665939316E+02 -0.18493733466E+02 -0.32458749773E+03  0.32528883184E+03  0.00000000000E+00 0. -1.
         22    1    3    3    0    0  0.72476532354E+02  0.38302140641E+02 -0.12836389958E+03  0.15230624556E+03  0.00000000000E+00 0. -1.
</event>
<event>
 7    1  0.6444902E-006  0.4967677E+03  0.7818608E-02  0.1099930E+00
          2   -1    0    0  502    0  0.00000000000E+00  0.00000000000E+00  0.12185519683E+04  0.12185519683E+04  0.00000000000E+00 0. -1.
          1   -1    0    0  501    0 -0.00000000000E+00 -0.00000000000E+00 -0.23555917348E+04  0.23555917348E+04  0.00000000000E+00 0. -1.
         25    2    1    2    0    0  0.57265778246E+03  0.20958826027E+03 -0.58307595830E+03  0.85291632130E+03  0.12499801332E+03 0.  0.
          2    1    1    2  501    0 -0.42353802036E+03 -0.20152343174E+03 -0.15985908394E+04  0.16659798378E+04  0.00000000000E+00 0. -1.
          1    1    1    2  502    0 -0.14911976210E+03 -0.80648285363E+01  0.10446270312E+04  0.10552475441E+04  0.00000000000E+00 0. -1.
         22    1    3    3    0    0  0.36038517579E+03  0.66742255980E+02 -0.35131253633E+03  0.50769331476E+03  0.00000000000E+00 0. -1.
         22    1    3    3    0    0  0.21227260667E+03  0.14284600429E+03 -0.23176342197E+03  0.34522300654E+03  0.00000000000E+00 0. -1.
</event>
<event>
 7    1  0.6444902E-006  0.1519517E+03  0.7818608E-02  0.1284988E+00
          2   -1    0    0  502    0  0.00000000000E+00  0.00000000000E+00  0.58063296873E+03  0.58063296873E+03  0.00000000000E+00 0. -1.
          1   -1    0    0  501    0 -0.00000000000E+00 -0.00000000000E+00 -0.47759109171E+03  0.47759109171E+03  0.00000000000E+00 0. -1.
         25    2    1    2    0    0  0.16843140565E+02  0.95462381229E+02  0.12231676910E+03  0.19995838213E+03  0.12500081985E+03 0.  0.
          2    1    1    2  501    0 -0.28569737065E+01 -0.15683741181E+03 -0.42222822880E+03  0.45042514721E+03  0.00000000000E+00 0. -1.
          1    1    1    2  502    0 -0.13986166859E+02  0.61375030583E+02  0.40295333672E+03  0.40784053111E+03  0.00000000000E+00 0. -1.
         22    1    3    3    0    0  0.29062780107E+02  0.10268287420E+03  0.14078869371E+03  0.17666316571E+03  0.00000000000E+00 0. -1.
         22    1    3    3    0    0 -0.12219639542E+02 -0.72204929659E+01 -0.18471924609E+02  0.23295216418E+02  0.00000000000E+00 0. -1.
</event>
<event>
 7    1  0.6444902E-006  0.5694570E+02  0.7818608E-02  0.1412036E+00
          2   -1    0    0  502    0  0.00000000000E+00  0.00000000000E+00  0.21101722719E+03  0.21101722719E+03  0.00000000000E+00 0. -1.
          1   -1    0    0  501    0 -0.00000000000E+00 -0.00000000000E+00 -0.12283069883E+03  0.12283069883E+03  0.00000000000E+00 0. -1.
         25    2    1    2    0    0  0.10822661820E+02  0.95473343811E+01  0.18525529690E+02  0.12718663339E+03  0.12499985144E+03 0.  0.
          2    1    1    2  501    0 -0.21433966018E+02 -0.65081608938E+02 -0.42799133739E+02  0.80788591831E+02  0.00000000000E+00 0. -1.
          1    1    1    2  502    0  0.10611304198E+02  0.55534274557E+02  0.11246013241E+03  0.12587270081E+03  0.00000000000E+00 0. -1.
         22    1    3    3    0    0 -0.49475458982E+02  0.17447828592E+02  0.36338531199E+02  0.63817996002E+02  0.00000000000E+00 0.  1.
         22    1    3    3    0    0  0.60298120802E+02 -0.79004942109E+01 -0.17813001510E+02  0.63368637383E+02  0.00000000000E+00 0.  1.
</event>
<event>
 7    1  0.6444902E-006  0.1032225E+03  0.7818608E-02  0.1456932E+00
          2   -1    0    0  502    0  0.00000000000E+00  0.00000000000E+00  0.29961349025E+03  0.29961349025E+03  0.00000000000E+00 0. -1.
          1   -1    0    0  501    0 -0.00000000000E+00 -0.00000000000E+00 -0.35159648640E+03  0.35159648640E+03  0.00000000000E+00 0. -1.
         25    2    1    2    0    0  0.45045868395E+02 -0.10689715891E+03  0.12812537163E+03  0.21329989932E+03  0.12499841341E+03 0.  0.
          2    1    1    2  501    0 -0.54705824102E+02  0.86864216521E+02 -0.29942752813E+03  0.31653588091E+03  0.00000000000E+00 0. -1.
          1    1    1    2  502    0  0.96599557071E+01  0.20032942388E+02  0.11931916036E+03  0.12137419641E+03  0.00000000000E+00 0. -1.
         22    1    3    3    0    0 -0.24375605926E+01 -0.11006020860E+03  0.12356735565E+03  0.16549345183E+03  0.00000000000E+00 0.  1.
         22    1    3    3    0    0  0.47483428987E+02  0.31630496857E+01  0.45580159745E+01  0.47806447487E+02  0.00000000000E+00 0.  1.
</event>
<event>
 7    1  0.6444902E-006  0.6509139E+02  0.7818608E-02  0.1394195E+00
          2   -1    0    0  502    0  0.00000000000E+00  0.00000000000E+00  0.55647221739E+03  0.55647221739E+03  0.00000000000E+00 0. -1.
          1   -1    0    0  501    0 -0.00000000000E+00 -0.00000000000E+00 -0.10051084855E+04  0.10051084855E+04  0.00000000000E+00 0. -1.
         25    2    1    2    0    0 -0.44318989936E+02  0.23899616275E+02  0.39128137097E+03  0.41384260072E+03  0.12501688834E+03 0.  0.
          2    1    1    2  501    0  0.63445543839E+01  0.56577620864E+02 -0.98006991959E+03  0.98172212353E+03  0.00000000000E+00 0. -1.
          1    1    1    2  502    0  0.37974435552E+02 -0.80477237139E+02  0.14015228048E+03  0.16601597868E+03  0.00000000000E+00 0. -1.
         22    1    3    3    0    0 -0.87321196792E+02  0.22245835399E+02  0.29322857582E+03  0.30676190487E+03  0.00000000000E+00 0. -1.
         22    1    3    3    0    0  0.43002206856E+02  0.16537808756E+01  0.98052795152E+02  0.10708069585E+03  0.00000000000E+00 0. -1.
</event>
<event>
 7    1  0.6444902E-006  0.3476078E+02  0.7818608E-02  0.1568151E+00
          2   -1    0    0  502    0  0.00000000000E+00  0.00000000000E+00  0.51828326183E+02  0.51828326183E+02  0.00000000000E+00 0. -1.
          1   -1    0    0  501    0 -0.00000000000E+00 -0.00000000000E+00 -0.10046636312E+04  0.10046636312E+04  0.00000000000E+00 0. -1.
         25    2    1    2    0    0 -0.56888976312E+01 -0.19774864057E+00 -0.35428767087E+03  0.37573495649E+03  0.12499840454E+03 0.  0.
          2    1    1    2  501    0  0.32220322060E+02  0.16472356138E+02 -0.63316855776E+03  0.63420178981E+03  0.00000000000E+00 0. -1.
          1    1    1    2  502    0 -0.26531424429E+02 -0.16274607498E+02  0.34620923584E+02  0.46555211107E+02  0.00000000000E+00 0. -1.
         22    1    3    3    0    0  0.23814017314E+02 -0.15420787035E+01 -0.34344638636E+03  0.34427446280E+03  0.00000000000E+00 0. -1.
         22    1    3    3    0    0 -0.29502914945E+02  0.13443300629E+01 -0.10841284504E+02  0.31460493691E+02  0.00000000000E+00 0. -1.
</event>
<event>
 7    1  0.6444902E-006  0.7371851E+02  0.7818608E-02  0.1477582E+00
          2   -1    0    0  502    0  0.00000000000E+00  0.00000000000E+00  0.12384541713E+04  0.12384541713E+04  0.00000000000E+00 0. -1.
          1   -1    0    0  501    0 -0.00000000000E+00 -0.00000000000E+00 -0.23994217381E+03  0.23994217381E+03  0.00000000000E+00 0. -1.
         25    2    1    2    0    0  0.55445916345E+01 -0.98741760326E+02  0.22815002014E+03  0.27831346417E+03  0.12500109967E+03 0.  0.
          2    1    1    2  501    0 -0.10475875454E+02  0.72354216730E+02 -0.20845209175E+03  0.22090077230E+03  0.00000000000E+00 0. -1.
          1    1    1    2  502    0  0.49312838192E+01  0.26387543596E+02  0.97881406912E+03  0.97918210866E+03  0.00000000000E+00 0. -1.
         22    1    3    3    0    0  0.87574799815E+01 -0.12431779929E+03  0.14468708159E+03  0.19096062488E+03  0.00000000000E+00 0.  1.
         22    1    3    3    0    0 -0.32128883470E+01  0.25576038963E+02  0.83462938543E+02  0.87352839283E+02  0.00000000000E+00 0.  1.
</event>
<event>
 7    1  0.6444902E-006  0.1036844E+03  0.7818608E-02  0.1455237E+00
          2   -1    0    0  502    0  0.00000000000E+00  0.00000000000E+00  0.29645404230E+03  0.29645404230E+03  0.00000000000E+00 0. -1.
          1   -1    0    0  501    0 -0.00000000000E+00 -0.00000000000E+00 -0.97768723665E+03  0.97768723665E+03  0.00000000000E+00 0. -1.
         25    2    1    2    0    0 -0.34743509335E+02  0.11821030152E+03 -0.27858838567E+01  0.17554895889E+03  0.12501555500E+03 0.  0.
          2    1    1    2  501    0  0.90819699014E+01 -0.20494969625E+02 -0.87622140591E+03  0.87650811641E+03  0.00000000000E+00 0. -1.
          1    1    1    2  502    0  0.25661539434E+02 -0.97715331895E+02  0.19777409541E+03  0.22208420365E+03  0.00000000000E+00 0. -1.
         22    1    3    3    0    0 -0.10172275728E+01  0.48982211664E+02  0.59093159541E+02  0.76761274846E+02  0.00000000000E+00 0. -1.
         22    1    3    3    0    0 -0.33726281762E+02  0.69228089856E+02 -0.61879043398E+02  0.98787684042E+02  0.00000000000E+00 0. -1.
</event>
<event>
 7    1  0.6444902E-006  0.6403641E+02  0.7818608E-02  0.1478839E+00
          2   -1    0    0  502    0  0.00000000000E+00  0.00000000000E+00  0.67468782767E+03  0.67468782767E+03  0.00000000000E+00 0. -1.
          1   -1    0    0  501    0 -0.00000000000E+00 -0.00000000000E+00 -0.67656149625E+02  0.67656149625E+02  0.00000000000E+00 0. -1.
         25    2    1    2    0    0  0.18910329888E+02 -0.45375295438E+02  0.87719399725E+02  0.16042500131E+03  0.12499987978E+03 0.  0.
          2    1    1    2  501    0 -0.49284142900E+02  0.49322833855E+02  0.85600276206E+01  0.70249147708E+02  0.00000000000E+00 0. -1.
          1    1    1    2  502    0  0.30373813012E+02 -0.39475384169E+01  0.51075225070E+03  0.51166982828E+03  0.00000000000E+00 0. -1.
         22    1    3    3    0    0  0.14888101352E+02 -0.88762472252E+02  0.66842397506E+02  0.11210859979E+03  0.00000000000E+00 0. -1.
         22    1    3    3    0    0  0.40222285363E+01  0.43387176814E+02  0.20877002219E+02  0.48316401521E+02  0.00000000000E+00 0. -1.
</event>
<event>
 7    1  0.6444902E-006  0.1134094E+03  0.7818608E-02  0.1348535E+00
          2   -1    0    0  502    0  0.00000000000E+00  0.00000000000E+00  0.11042293383E+04  0.11042293383E+04  0.00000000000E+00 0. -1.
          1   -1    0    0  501    0 -0.00000000000E+00 -0.00000000000E+00 -0.20841370635E+04  0.20841370635E+04  0.00000000000E+00 0. -1.
         25    2    1    2    0    0  0.91239743630E+02  0.98670056265E+02 -0.25895184199E+03  0.31739656163E+03  0.12499620011E+03 0.  0.
          2    1    1    2  501    0 -0.43852978453E+02 -0.10370116397E+03 -0.17936687251E+04  0.17971990738E+04  0.00000000000E+00 0. -1.
          1    1    1    2  502    0 -0.47386765178E+02  0.50311077020E+01  0.10727128419E+04  0.10737707664E+04  0.00000000000E+00 0. -1.
         22    1    3    3    0    0  0.90606370285E+02  0.79424750491E+02 -0.26966651689E+03  0.29536051811E+03  0.00000000000E+00 0.  1.
         22    1    3    3    0    0  0.63337334567E+00  0.19245305774E+02  0.10714674891E+02  0.22036043523E+02  0.00000000000E+00 0.  1.
</event>
<event>
 7    1  0.6444902E-006  0.1216849E+03  0.7818608E-02  0.1359783E+00
          2   -1    0    0  502    0  0.00000000000E+00  0.00000000000E+00  0.16442325620E+04  0.16442325620E+04  0.00000000000E+00 0. -1.
          1   -1    0    0  501    0 -0.00000000000E+00 -0.00000000000E+00 -0.36265750936E+03  0.36265750936E+03  0.00000000000E+00 0. -1.
         25    2    1    2    0    0  0.61531668799E+02 -0.14881985569E+03  0.69258750987E+03  0.72196642977E+03  0.12499828469E+03 0.  0.
          2    1    1    2  501    0 -0.41498041298E+02  0.11376780550E+03 -0.33697853066E+03  0.35807782831E+03  0.00000000000E+00 0. -1.
          1    1    1    2  502    0 -0.20033627501E+02  0.35052050193E+02  0.92596607341E+03  0.92684581326E+03  0.00000000000E+00 0. -1.
         22    1    3    3    0    0  0.21923536755E+02 -0.97397048735E+02  0.18475810668E+03  0.21000567742E+03  0.00000000000E+00 0.  1.
         22    1    3    3    0    0  0.39608132044E+02 -0.51422806957E+02  0.50782940319E+03  0.51196075235E+03  0.00000000000E+00 0.  1.
</event>
<event>
 7    1  0.6444902E-006  0.2376881E+03  0.7818608E-02  0.1173257E+00
          2   -1    0    0  502    0  0.00000000000E+00  0.00000000000E+00  0.11159288189E+03  0.11159288189E+03  0.00000000000E+00 0. -1.
          1   -1    0    0  501    0 -0.00000000000E+00 -0.00000000000E+00 -0.18534702440E+04  0.18534702440E+04  0.00000000000E+00 0. -1.
         25    2    1    2    0    0 -0.19062500170E+02 -0.19749568058E+03 -0.38049600473E+03  0.44695826298E+03  0.12500622574E+03 0.  0.
          2    1    1    2  501    0  0.11624750479E+03 -0.53760707445E+02 -0.11942016090E+04  0.12010500318E+04  0.00000000000E+00 0. -1.
          1    1    1    2  502    0 -0.97185004616E+02  0.25125638802E+03 -0.16717974842E+03  0.31705483110E+03  0.00000000000E+00 0. -1.
         22    1    3    3    0    0  0.24423553571E+02 -0.18069558525E+03 -0.33716757125E+03  0.38331367782E+03  0.00000000000E+00 0. -1.
         22    1    3    3    0    0 -0.43486053742E+02 -0.16800095326E+02 -0.43328433478E+02  0.63644585163E+02  0.00000000000E+00 0. -1.
</event>
<event>
 7    1  0.6444902E-006  0.3737219E+02  0.7818608E-02  0.1616346E+00
          2   -1    0    0  502    0  0.00000000000E+00  0.00000000000E+00  0.12123594756E+02  0.12123594756E+02  0.00000000000E+00 0. -1.
          1   -1    0    0  501    0 -0.00000000000E+00 -0.00000000000E+00 -0.18415195795E+04  0.18415195795E+04  0.00000000000E+00 0. -1.
         25    2    1    2    0    0  0.24245564746E+02 -0.14677687832E+02 -0.36915888566E+03  0.39077682963E+03  0.12499986314E+03 0.  0.
          2    1    1    2  501    0  0.16521322090E+02 -0.13912344668E+02 -0.94085831564E+03  0.94110619886E+03  0.00000000000E+00 0. -1.
          1    1    1    2  502    0 -0.40766886836E+02  0.28590032501E+02 -0.51937878342E+03  0.52176014575E+03  0.00000000000E+00 0. -1.
         22    1    3    3    0    0 -0.12481522886E+02  0.37652397390E+02 -0.43371266071E+02  0.58775489478E+02  0.00000000000E+00 0.  1.
         22    1    3    3    0    0  0.36727087632E+02 -0.52330085223E+02 -0.32578761959E+03  0.33200134016E+03  0.00000000000E+00 0.  1.
</event>
<event>
 7    1  0.6444902E-006  0.1608125E+03  0.7818608E-02  0.1265757E+00
          2   -1    0    0  502    0  0.00000000000E+00  0.00000000000E+00  0.13624541405E+04  0.13624541405E+04  0.00000000000E+00 0. -1.
          1   -1    0    0  501    0 -0.00000000000E+00 -0.00000000000E+00 -0.32911139368E+04  0.32911139368E+04  0.00000000000E+00 0. -1.
         25    2    1    2    0    0  0.17978419624E+03 -0.54503512340E+02 -0.27460887016E+03  0.35542741384E+03  0.12500249943E+03 0.  0.
          2    1    1    2  501    0 -0.15943385388E+03 -0.14062277089E+02 -0.29729743002E+04  0.29772794782E+04  0.00000000000E+00 0. -1.
          1    1    1    2  502    0 -0.20350342359E+02  0.68565789429E+02  0.13189233741E+04  0.13208611852E+04  0.00000000000E+00 0. -1.
         22    1    3    3    0    0  0.51944391214E+02 -0.24582104600E+02 -0.19174241543E+03  0.20016906234E+03  0.00000000000E+00 0. -1.
         22    1    3    3    0    0  0.12783980503E+03 -0.29921407740E+02 -0.82866454733E+02  0.15525835150E+03  0.00000000000E+00 0. -1.
</event>
<event>
 7    1  0.6444902E-006  0.9975532E+02  0.7818608E-02  0.1348890E+00
          2   -1    0    0  502    0  0.00000000000E+00  0.00000000000E+00  0.10837616418E+04  0.10837616418E+04  0.00000000000E+00 0. -1.
          1   -1    0    0  501    0 -0.00000000000E+00 -0.00000000000E+00 -0.24425455343E+03  0.24425455343E+03  0.00000000000E+00 0. -1.
         25    2    1    2    0    0 -0.61150454151E+02  0.18794592818E+01 -0.32561289012E+02  0.14292967558E+03  0.12500297681E+03 0.  0.
          2    1    1    2  501    0  0.11431886632E+03  0.76284687269E+01 -0.13471932708E+03  0.17685104982E+03  0.00000000000E+00 0. -1.
          1    1    1    2  502    0 -0.53168412167E+02 -0.95079280087E+01  0.10067877045E+04  0.10082354699E+04  0.00000000000E+00 0. -1.
         22    1    3    3    0    0 -0.72527686194E+02  0.26099036581E+02  0.23689309280E+02  0.80638752155E+02  0.00000000000E+00 0. -1.
         22    1    3    3    0    0  0.11377232043E+02 -0.24219577299E+02 -0.56250598291E+02  0.62290923429E+02  0.00000000000E+00 0. -1.
</event>
<event>
 7    1  0.6444902E-006  0.3803136E+02  0.7818608E-02  0.1544678E+00
          2   -1    0    0  502    0  0.00000000000E+00  0.00000000000E+00  0.21260236429E+02  0.21260236429E+02  0.00000000000E+00 0. -1.
          1   -1    0    0  501    0 -0.00000000000E+00 -0.00000000000E+00 -0.17797912052E+04  0.17797912052E+04  0.00000000000E+00 0. -1.
         25    2    1    2    0    0  0.51063821800E+02  0.40989645953E+01 -0.49177025241E+03  0.50998789787E+03  0.12500143765E+03 0.  0.
          2    1    1    2  501    0 -0.20209873521E+02 -0.26132840339E+02 -0.12485782909E+04  0.12490152573E+04  0.00000000000E+00 0. -1.
          1    1    1    2  502    0 -0.30853948279E+02  0.22033875744E+02 -0.18182425504E+02  0.42048286551E+02  0.00000000000E+00 0. -1.
         22    1    3    3    0    0 -0.27782396585E+02 -0.28672622376E+02 -0.25883634172E+03  0.26189737042E+03  0.00000000000E+00 0.  1.
         22    1    3    3    0    0  0.78846218385E+02  0.32771586971E+02 -0.23293391068E+03  0.24809052745E+03  0.00000000000E+00 0.  1.
</event>
<event>
 7    1  0.6444902E-006  0.5230535E+02  0.7818608E-02  0.1461792E+00
          2   -1    0    0  502    0  0.00000000000E+00  0.00000000000E+00  0.17738780340E+03  0.17738780340E+03  0.00000000000E+00 0. -1.
          1   -1    0    0  501    0 -0.00000000000E+00 -0.00000000000E+00 -0.98293724982E+03  0.98293724982E+03  0.00000000000E+00 0. -1.
         25    2    1    2    0    0 -0.82278733198E+02 -0.22857424696E+02 -0.30872338728E+03  0.34384374825E+03  0.12500456614E+03 0.  0.
          2    1    1    2  501    0  0.41362995533E+02 -0.91669366309E+01 -0.65172486249E+03  0.65310047199E+03  0.00000000000E+00 0. -1.
          1    1    1    2  502    0  0.40915737665E+02  0.32024361327E+02  0.15489880335E+03  0.16338083298E+03  0.00000000000E+00 0. -1.
         22    1    3    3    0    0  0.11526009263E+02 -0.12494215513E+02  0.37687483463E+01  0.17411426561E+02  0.00000000000E+00 0. -1.
         22    1    3    3    0    0 -0.93804742460E+02 -0.10363209183E+02 -0.31249213563E+03  0.32643232169E+03  0.00000000000E+00 0. -1.
</event>
<event>
 7    1  0.6444902E-006  0.5538821E+02  0.7818608E-02  0.1527974E+00
          2   -1    0    0  502    0  0.00000000000E+00  0.00000000000E+00  0.68706227202E+03  0.68706227202E+03  0.00000000000E+00 0. -1.
          1   -1    0    0  501    0 -0.00000000000E+00 -0.00000000000E+00 -0.15250201686E+03  0.15250201686E+03  0.00000000000E+00 0. -1.
         25    2    1    2    0    0 -0.66079251066E+02 -0.33562578097E+02  0.17704356470E+03  0.22904892860E+03  0.12500429521E+03 0.  0.
          2    1    1    2  501    0  0.53689123687E+02  0.11501298561E+02 -0.12019057444E+03  0.13213847303E+03  0.00000000000E+00 0. -1.
          1    1    1    2  502    0  0.12390127379E+02  0.22061279535E+02  0.47770726490E+03  0.47837688724E+03  0.00000000000E+00 0. -1.
         22    1    3    3    0    0 -0.83799244796E+02 -0.17415222728E+01  0.51605441712E+02  0.98430015455E+02  0.00000000000E+00 0.  1.
         22    1    3    3    0    0  0.17719993730E+02 -0.31821055824E+02  0.12543812299E+03  0.13061891315E+03  0.00000000000E+00 0.  1.
</event>
<event>
 7    1  0.6444902E-006  0.1706995E+03  0.7818608E-02  0.1373687E+00
          2   -1    0    0  502    0  0.00000000000E+00  0.00000000000E+00  0.30121472697E+04  0.30121472697E+04  0.00000000000E+00 0. -1.
          1   -1    0    0  501    0 -0.00000000000E+00 -0.00000000000E+00 -0.34802457121E+03  0.34802457121E+03  0.00000000000E+00 0. -1.
         25    2    1    2    0    0  0.12980352206E+02 -0.14617114025E+03  0.18021908073E+04  0.18124709426E+04  0.12499888073E+03 0.  0.
          2    1    1    2  501    0 -0.61263294751E+01  0.17087474428E+03 -0.32142102867E+03  0.36407030615E+03  0.00000000000E+00 0. -1.
          1    1    1    2  502    0 -0.68540227314E+01 -0.24703604027E+02  0.11833529199E+04  0.11836305922E+04  0.00000000000E+00 0. -1.
         22    1    3    3    0    0 -0.41850676538E+02 -0.74077138222E+02  0.12507934571E+04  0.12536838413E+04  0.00000000000E+00 0. -1.
         22    1    3    3    0    0  0.54831028745E+02 -0.72094002031E+02  0.55139735014E+03  0.55878710131E+03  0.00000000000E+00 0. -1.
</event>
<event>
 7    1  0.6444902E-006  0.8154975E+02  0.7818608E-02  0.1407667E+00
          2   -1    0    0  502    0  0.00000000000E+00  0.00000000000E+00  0.42696680575E+03  0.42696680575E+03  0.00000000000E+00 0. -1.
          1   -1    0    0  501    0 -0.00000000000E+00 -0.00000000000E+00 -0.14894240879E+04  0.14894240879E+04  0.00000000000E+00 0. -1.
         25    2    1    2    0    0  0.31900400476E+02 -0.53821873496E+02 -0.93717097638E+02  0.16829246209E+03  0.12500011516E+03 0.  0.
          2    1    1    2  501    0 -0.29200165480E+02 -0.28567278082E+02 -0.13537482334E+04  0.13543644334E+04  0.00000000000E+00 0. -1.
          1    1    1    2  502    0 -0.27002349954E+01  0.82389151578E+02  0.38500804890E+03  0.39373399813E+03  0.00000000000E+00 0. -1.
         22    1    3    3    0    0 -0.44912044915E+02 -0.34850464020E+02 -0.20319513530E+02  0.60369936649E+02  0.00000000000E+00 0. -1.
         22    1    3    3    0    0  0.76812445391E+02 -0.18971409476E+02 -0.73397584108E+02  0.10792252544E+03  0.00000000000E+00 0. -1.
</event>
<event>
 7    1  0.6444902E-006  0.5527559E+02  0.7818608E-02  0.1482949E+00
          2   -1    0    0  502    0  0.00000000000E+00  0.00000000000E+00  0.20523472948E+04  0.20523472948E+04  0.00000000000E+00 0. -1.
          1   -1    0    0  501    0 -0.00000000000E+00 -0.00000000000E+00 -0.10246611893E+03  0.10246611893E+03  0.00000000000E+00 0. -1.
         25    2    1    2    0    0  0.48695606160E+02 -0.51171113067E+02  0.57330529175E+03  0.59101039916E+03  0.12499835798E+03 0.  0.
          2    1    1    2  501    0 -0.34423213877E+02 -0.17883856536E+01 -0.89910377576E+02  0.96291390958E+02  0.00000000000E+00 0. -1.
          1    1    1    2  502    0 -0.14272392283E+02  0.52959498720E+02  0.14664862617E+04  0.14675116237E+04  0.00000000000E+00 0. -1.
         22    1    3    3    0    0 -0.25803382337E+02  0.25765787846E+02  0.14958949377E+03  0.15396982500E+03  0.00000000000E+00 0.  1.
         22    1    3    3    0    0  0.74498988497E+02 -0.76936900913E+02  0.42371579798E+03  0.43704057416E+03  0.00000000000E+00 0.  1.
</event>
<event>
 7    1  0.6444902E-006  0.2260587E+03  0.7818608E-02  0.1251741E+00
          2   -1    0    0  502    0  0.00000000000E+00  0.00000000000E+00  0.37798226195E+03  0.37798226195E+03  0.00000000000E+00 0. -1.
          1   -1    0    0  501    0 -0.00000000000E+00 -0.00000000000E+00 -0.41440361256E+03  0.41440361256E+03  0.00000000000E+00 0. -1.
         25    2    1    2    0    0  0.15918756224E+03  0.22093954506E+03  0.61887440858E+02  0.30596491476E+03  0.12501804345E+03 0.  0.
          2    1    1    2  501    0 -0.11496506505E+03 -0.18278141602E+03 -0.24616270536E+03  0.32744784277E+03  0.00000000000E+00 0. -1.
          1    1    1    2  502    0 -0.44222497183E+02 -0.38158129044E+02  0.14785391389E+03  0.15897311698E+03  0.00000000000E+00 0. -1.
         22    1    3    3    0    0 -0.21235159543E+02  0.21416684210E+02  0.10938714363E+01  0.30179511562E+02  0.00000000000E+00 0.  1.
         22    1    3    3    0    0  0.18042272178E+03  0.19952286085E+03  0.60793569421E+02  0.27578540320E+03  0.00000000000E+00 0.  1.
</event>
<event>
 7    1  0.6444902E-006  0.1191916E+03  0.7818608E-02  0.1393537E+00
          2   -1    0    0  502    0  0.00000000000E+00  0.00000000000E+00  0.39179762758E+04  0.39179762758E+04  0.00000000000E+00 0. -1.
          1   -1    0    0  501    0 -0.00000000000E+00 -0.00000000000E+00 -0.58643485464E+03  0.58643485464E+03  0.00000000000E+00 0. -1.
         25    2    1    2    0    0  0.12602249864E+02  0.13075329068E+03 -0.20112755712E+03  0.27080007668E+03  0.12500059027E+03 0.  0.
          2    1    1    2  501    0  0.25625815663E+02 -0.17894010296E+02 -0.34885809983E+03  0.35025540945E+03  0.00000000000E+00 0. -1.
          1    1    1    2  502    0 -0.38228065527E+02 -0.11285928039E+03  0.38815270781E+04  0.38833556443E+04  0.00000000000E+00 0. -1.
         22    1    3    3    0    0  0.18689265258E+02  0.38227677884E+02  0.68394519893E+01  0.43097820082E+02  0.00000000000E+00 0. -1.
         22    1    3    3    0    0 -0.60870153936E+01  0.92525612799E+02 -0.20796700911E+03  0.22770225660E+03  0.00000000000E+00 0. -1.
</event>
<event>
 7    1  0.6444902E-006  0.5832195E+02  0.7818608E-02  0.1470430E+00
          2   -1    0    0  502    0  0.00000000000E+00  0.00000000000E+00  0.64615300979E+03  0.64615300979E+03  0.00000000000E+00 0. -1.
          1   -1    0    0  501    0 -0.00000000000E+00 -0.00000000000E+00 -0.37373037133E+02  0.37373037133E+02  0.00000000000E+00 0. -1.
         25    2    1    2    0    0  0.43749974101E+02  0.16460407087E+02  0.45662467978E+03  0.47572802091E+03  0.12500418576E+03 0.  0.
          2    1    1    2  501    0  0.25868422818E+02 -0.24609541757E+02 -0.46820889171E+01  0.36010093046E+02  0.00000000000E+00 0. -1.
          1    1    1    2  502    0 -0.69618396919E+02  0.81491346699E+01  0.15683738179E+03  0.17178793297E+03  0.00000000000E+00 0. -1.
         22    1    3    3    0    0 -0.54755191220E+01  0.43700390404E+02  0.36885494751E+03  0.37147500283E+03  0.00000000000E+00 0.  1.
         22    1    3    3    0    0  0.49225493223E+02 -0.27239983317E+02  0.87769732275E+02  0.10425301807E+03  0.00000000000E+00 0.  1.
</event>
<event>
 7    1  0.6444902E-006  0.8892664E+02  0.7818608E-02  0.1472855E+00
          2   -1    0    0  502    0  0.00000000000E+00  0.00000000000E+00  0.16271314656E+03  0.16271314656E+03  0.00000000000E+00 0. -1.
          1   -1    0    0  501    0 -0.00000000000E+00 -0.00000000000E+00 -0.18610685225E+04  0.18610685225E+04  0.00000000000E+00 0. -1.
         25    2    1    2    0    0 -0.41801772766E+02 -0.56161096984E+02 -0.10344613318E+03  0.17671199151E+03  0.12499827380E+03 0.  0.
          2    1    1    2  501    0 -0.20513304999E+02 -0.10433322998E+02 -0.17044081673E+04  0.17045635367E+04  0.00000000000E+00 0. -1.
          1    1    1    2  502    0  0.62315077765E+02  0.66594419982E+02  0.10949892456E+03  0.14250614081E+03  0.00000000000E+00 0. -1.
         22    1    3    3    0    0  0.34520856020E+02  0.86323549106E+00  0.20131605712E+01  0.34590280302E+02  0.00000000000E+00 0. -1.
         22    1    3    3    0    0 -0.76322628787E+02 -0.57024332475E+02 -0.10545929375E+03  0.14212171121E+03  0.00000000000E+00 0. -1.
</event>
<event>
 7    1  0.6444902E-006  0.4794696E+02  0.7818608E-02  0.1485794E+00
          2   -1    0    0  502    0  0.00000000000E+00  0.00000000000E+00  0.13137522768E+04  0.13137522768E+04  0.00000000000E+00 0. -1.
          1   -1    0    0  501    0 -0.00000000000E+00 -0.00000000000E+00 -0.57774542045E+02  0.57774542045E+02  0.00000000000E+00 0. -1.
         25    2    1    2    0    0  0.17134497948E+02 -0.80943219631E+02  0.44092026139E+03  0.46570654954E+03  0.12500607009E+03 0.  0.
          2    1    1    2  501    0 -0.17756231820E+02  0.34670031011E+02 -0.36277023350E+02  0.53228913589E+02  0.00000000000E+00 0. -1.
          1    1    1    2  502    0  0.62173387218E+00  0.46273188621E+02  0.85133449670E+03  0.85259135570E+03  0.00000000000E+00 0. -1.
         22    1    3    3    0    0  0.39712863749E+02 -0.10371037939E+03  0.39024513789E+03  0.40573910581E+03  0.00000000000E+00 0. -1.
         22    1    3    3    0    0 -0.22578365801E+02  0.22767159758E+02  0.50675123500E+02  0.59967443729E+02  0.00000000000E+00 0. -1.
</event>
<event>
 7    1  0.6444902E-006  0.2230457E+03  0.7818608E-02  0.1274033E+00
          2   -1    0    0  502    0  0.00000000000E+00  0.00000000000E+00  0.75047395808E+03  0.75047395808E+03  0.00000000000E+00 0. -1.
          1   -1    0    0  501    0 -0.00000000000E+00 -0.00000000000E+00 -0.58219788581E+03  0.58219788581E+03  0.00000000000E+00 0. -1.
         25    2    1    2    0    0  0.10699404887E+02 -0.17753765317E+03 -0.33037984923E+03  0.39548698936E+03  0.12500007366E+03 0.  0.
          2    1    1    2  501    0 -0.20898276142E+01 -0.47553922484E+02 -0.19871507308E+03  0.20433654395E+03  0.00000000000E+00 0. -1.
          1    1    1    2  502    0 -0.86095772724E+01  0.22509157566E+03  0.69737099458E+03  0.73284831059E+03  0.00000000000E+00 0. -1.
         22    1    3    3    0    0 -0.32489085837E+02 -0.62675137788E+02 -0.21779913103E+03  0.22895452621E+03  0.00000000000E+00 0. -1.
         22    1    3    3    0    0  0.43188490724E+02 -0.11486251539E+03 -0.11258071820E+03  0.16653246315E+03  0.00000000000E+00 0. -1.
</event>
<event>
 7    1  0.6444902E-006  0.6695752E+02  0.7818608E-02  0.1395337E+00
          2   -1    0    0  502    0  0.00000000000E+00  0.00000000000E+00  0.43912115545E+02  0.43912115545E+02  0.00000000000E+00 0. -1.
          1   -1    0    0  501    0 -0.00000000000E+00 -0.00000000000E+00 -0.17396344319E+04  0.17396344319E+04  0.00000000000E+00 0. -1.
         25    2    1    2    0    0  0.84089752054E+02 -0.68575017180E+02 -0.50829147218E+03  0.53456499527E+03  0.12500357636E+03 0.  0.
          2    1    1    2  501    0 -0.30467435426E+02  0.57066702137E+02 -0.11921791750E+04  0.11939330209E+04  0.00000000000E+00 0. -1.
          1    1    1    2  502    0 -0.53622316628E+02  0.11508315043E+02  0.47483307610E+01  0.55048531322E+02  0.00000000000E+00 0. -1.
         22    1    3    3    0    0  0.81647640436E+02  0.15985311285E+01 -0.16424640855E+03  0.18342784743E+03  0.00000000000E+00 0. -1.
         22    1    3    3    0    0  0.24421116182E+01 -0.70173548309E+02 -0.34404506363E+03  0.35113714785E+03  0.00000000000E+00 0. -1.
</event>
<event>
 7    1  0.6444902E-006  0.6499815E+02  0.7818608E-02  0.1390748E+00
          2   -1    0    0  502    0  0.00000000000E+00  0.00000000000E+00  0.27109760185E+04  0.27109760185E+04  0.00000000000E+00 0. -1.
          1   -1    0    0  501    0 -0.00000000000E+00 -0.00000000000E+00 -0.42144131049E+03  0.42144131049E+03  0.00000000000E+00 0. -1.
         25    2    1    2    0    0  0.71804791818E+02 -0.98099189862E+02  0.12382450794E+02  0.17480647982E+03  0.12499840447E+03 0.  0.
          2    1    1    2  501    0 -0.42449120970E+02  0.40412052520E+02 -0.33730168836E+03  0.34235579568E+03  0.00000000000E+00 0. -1.
          1    1    1    2  502    0 -0.29355670848E+02  0.57687137342E+02  0.26144539456E+04  0.26152550535E+04  0.00000000000E+00 0. -1.
         22    1    3    3    0    0  0.18951967880E+02 -0.11394139015E+03 -0.84808730895E+01  0.11581771317E+03  0.00000000000E+00 0.  1.
         22    1    3    3    0    0  0.52852823938E+02  0.15842200284E+02  0.20863323884E+02  0.58988766656E+02  0.00000000000E+00 0.  1.
</event>
<event>
 7    1  0.6444902E-006  0.7587302E+02  0.7818608E-02  0.1456463E+00
          2   -1    0    0  502    0  0.00000000000E+00  0.00000000000E+00  0.14194612724E+04  0.14194612724E+04  0.00000000000E+00 0. -1.
          1   -1    0    0  501    0 -0.00000000000E+00 -0.00000000000E+00 -0.12415968003E+03  0.12415968003E+03  0.00000000000E+00 0. -1.
         25    2    1    2    0    0  0.39880316585E+02  0.92073796670E+02  0.15079387171E+03  0.22007352554E+03  0.12500216484E+03 0.  0.
          2    1    1    2  501    0 -0.40755250307E+02 -0.61725581754E+02 -0.74019584370E+02  0.10464194542E+03  0.00000000000E+00 0. -1.
          1    1    1    2  502    0  0.87493372125E+00 -0.30348214916E+02  0.12185273051E+04  0.12189054815E+04  0.00000000000E+00 0. -1.
         22    1    3    3    0    0 -0.17518210600E+02  0.98476094445E+02  0.11369692284E+03  0.15143123569E+03  0.00000000000E+00 0. -1.
         22    1    3    3    0    0  0.57398527186E+02 -0.64022977758E+01  0.37096948866E+02  0.68642289844E+02  0.00000000000E+00 0. -1.
</event>
<event>
 7    1  0.6444902E-006  0.4854354E+02  0.7818608E-02  0.1539626E+00
          2   -1    0    0  502    0  0.00000000000E+00  0.00000000000E+00  0.36448794785E+03  0.36448794785E+03  0.00000000000E+00 0. -1.
          1   -1    0    0  501    0 -0.00000000000E+00 -0.00000000000E+00 -0.12409736221E+04  0.12409736221E+04  0.00000000000E+00 0. -1.
         25    2    1    2    0    0 -0.57877181385E+02 -0.48077744306E+02  0.27225776702E+03  0.30887714905E+03  0.12497825362E+03 0.  0.
          2    1    1    2  501    0  0.37499856477E+02  0.30756130550E+02 -0.12197470791E+04  0.12207109059E+04  0.00000000000E+00 0. -1.
          1    1    1    2  502    0  0.20377324909E+02  0.17321613757E+02  0.71003637897E+02  0.75873514932E+02  0.00000000000E+00 0. -1.
         22    1    3    3    0    0  0.25449588313E+02 -0.37510715349E+01  0.60409563093E+01  0.26424330381E+02  0.00000000000E+00 0. -1.
         22    1    3    3    0    0 -0.83326769698E+02 -0.44326672771E+02  0.26621681071E+03  0.28245281867E+03  0.00000000000E+00 0. -1.
</event>
<event>
 7    1  0.6444902E-006  0.5412637E+02  0.7818608E-02  0.1427284E+00
          2   -1    0    0  502    0  0.00000000000E+00  0.00000000000E+00  0.60619701517E+02  0.60619701517E+02  0.00000000000E+00 0. -1.
          1   -1    0    0  501    0 -0.00000000000E+00 -0.00000000000E+00 -0.20514358369E+04  0.20514358369E+04  0.00000000000E+00 0. -1.
         25    2    1    2    0    0  0.46878732354E+02 -0.35658623786E+02 -0.15612863941E+04  0.15673880159E+04  0.12498333847E+03 0.  0.
          2    1    1    2  501    0 -0.58472577808E+02 -0.15954093180E+02 -0.47258856752E+03  0.47645936825E+03  0.00000000000E+00 0. -1.
          1    1    1    2  502    0  0.11593845454E+02  0.51612716967E+02  0.43058826194E+02  0.68208154338E+02  0.00000000000E+00 0. -1.
         22    1    3    3    0    0  0.84972551853E+02 -0.34986033027E+02 -0.82200010170E+03  0.82712062256E+03  0.00000000000E+00 0.  1.
         22    1    3    3    0    0 -0.38093819499E+02 -0.67259075927E+00 -0.73928629241E+03  0.74026739331E+03  0.00000000000E+00 0.  1.
</event>
<event>
 7    1  0.6444902E-006  0.8547207E+02  0.7818608E-02  0.1450213E+00
          2   -1    0    0  502    0  0.00000000000E+00  0.00000000000E+00  0.70033377685E+03  0.70033377685E+03  0.00000000000E+00 0. -1.
          1   -1    0    0  501    0 -0.00000000000E+00 -0.00000000000E+00 -0.18786853956E+03  0.18786853956E+03  0.00000000000E+00 0. -1.
         25    2    1    2    0    0 -0.10236841177E+03  0.13555797188E+02  0.41120725235E+03  0.44201707355E+03  0.12499855023E+03 0.  0.
          2    1    1    2  501    0  0.23232345599E+02 -0.16010682387E+02 -0.16551946676E+03  0.16790705081E+03  0.00000000000E+00 0. -1.
          1    1    1    2  502    0  0.79136066172E+02  0.24548851989E+01  0.26677745171E+03  0.27827819205E+03  0.00000000000E+00 0. -1.
         22    1    3    3    0    0 -0.93868575151E+02 -0.39783494863E+02  0.20638607715E+03  0.23019393716E+03  0.00000000000E+00 0. -1.
         22    1    3    3    0    0 -0.84998366193E+01  0.53339292051E+02  0.20482117520E+03  0.21182313639E+03  0.00000000000E+00 0. -1.
</event>
<event>
 7    1  0.6444902E-006  0.6410061E+02  0.7818608E-02  0.1454384E+00
          2   -1    0    0  502    0  0.00000000000E+00  0.00000000000E+00  0.13151923069E+04  0.13151923069E+04  0.00000000000E+00 0. -1.
          1   -1    0    0  501    0 -0.00000000000E+00 -0.00000000000E+00 -0.30292920151E+02  0.30292920151E+02  0.00000000000E+00 0. -1.
         25    2    1    2    0    0  0.34464565168E+02  0.48907369963E+02  0.34313278538E+03  0.37006110699E+03  0.12500150966E+03 0.  0.
          2    1    1    2  501    0  0.26340821929E+02 -0.25248428137E+02  0.55148832618E+01  0.36901706745E+02  0.00000000000E+00 0. -1.
          1    1    1    2  502    0 -0.60805387097E+02 -0.23658941825E+02  0.93625171811E+03  0.93852241331E+03  0.00000000000E+00 0. -1.
         22    1    3    3    0    0 -0.44516270568E+02  0.30611179204E+01  0.14868147240E+03  0.15523288641E+03  0.00000000000E+00 0. -1.
         22    1    3    3    0    0  0.78980835735E+02  0.45846252042E+02  0.19445131298E+03  0.21482822058E+03  0.00000000000E+00 0. -1.
</event>
<event>
 7    1  0.6444902E-006  0.8234472E+02  0.7818608E-02  0.1365346E+00
          2   -1    0    0  502    0  0.00000000000E+00  0.00000000000E+00  0.69595695771E+03  0.69595695771E+03  0.00000000000E+00 0. -1.
          1   -1    0    0  501    0 -0.00000000000E+00 -0.00000000000E+00 -0.18124421323E+03  0.18124421323E+03  0.00000000000E+00 0. -1.
         25    2    1    2    0    0 -0.26604115622E+02 -0.28110795580E+02  0.79547465695E+02  0.15313451543E+03  0.12499753887E+03 0.  0.
          2    1    1    2  501    0  0.83546692970E+02  0.27419375802E+02 -0.12950304512E+03  0.15653405626E+03  0.00000000000E+00 0. -1.
          1    1    1    2  502    0 -0.56942577348E+02  0.69141977837E+00  0.56466832390E+03  0.56753259924E+03  0.00000000000E+00 0. -1.
         22    1    3    3    0    0 -0.11234125987E+02 -0.59709560310E+02  0.96567586818E+02  0.11409091113E+03  0.00000000000E+00 0. -1.
         22    1    3    3    0    0 -0.15369989635E+02  0.31598764730E+02 -0.17020121123E+02  0.39043604302E+02  0.00000000000E+00 0. -1.
</event>
<event>
 7    1  0.6444902E-006  0.1124363E+03  0.7818608E-02  0.1396581E+00
          2   -1    0    0  502    0  0.00000000000E+00  0.00000000000E+00  0.91137332219E+03  0.91137332219E+03  0.00000000000E+00 0. -1.
          1   -1    0    0  501    0 -0.00000000000E+00 -0.00000000000E+00 -0.98495170209E+03  0.98495170209E+03  0.00000000000E+00 0. -1.
         25    2    1    2    0    0  0.11539498885E+03  0.63573105186E+02 -0.28057922808E+02  0.18374612684E+03  0.12497139250E+03 0.  0.
          2    1    1    2  501    0 -0.30859132750E+02  0.96679823749E+01 -0.87499735750E+03  0.87559473022E+03  0.00000000000E+00 0. -1.
          1    1    1    2  502    0 -0.84535856096E+02 -0.73241087560E+02  0.82947690040E+03  0.83698416722E+03  0.00000000000E+00 0. -1.
         22    1    3    3    0    0 -0.23185199963E+02  0.18832414534E+01  0.12932154248E+02  0.26614670939E+02  0.00000000000E+00 0.  1.
         22    1    3    3    0    0  0.13858018881E+03  0.61689863732E+02 -0.40990077056E+02  0.15713145591E+03  0.00000000000E+00 0.  1.
</event>
<event>
 7    1  0.6444902E-006  0.2773621E+03  0.7818608E-02  0.1282547E+00
          2   -1    0    0  502    0  0.00000000000E+00  0.00000000000E+00  0.28165946343E+04  0.28165946343E+04  0.00000000000E+00 0. -1.
          1   -1    0    0  501    0 -0.00000000000E+00 -0.00000000000E+00 -0.45069238016E+03  0.45069238016E+03  0.00000000000E+00 0. -1.
         25    2    1    2    0    0 -0.63729942156E+02 -0.30078136747E+03  0.82827441822E+03  0.89229881860E+03  0.12501093249E+03 0.  0.
          2    1    1    2  501    0  0.71518788438E+02  0.26636006334E+03 -0.37308145605E+03  0.46395300763E+03  0.00000000000E+00 0. -1.
          1    1    1    2  502    0 -0.77888462825E+01  0.34421304124E+02  0.19107092920E+04  0.19110351883E+04  0.00000000000E+00 0. -1.
         22    1    3    3    0    0 -0.15132577063E+02 -0.27582898397E+03  0.71593495093E+03  0.76738092056E+03  0.00000000000E+00 0. -1.
         22    1    3    3    0    0 -0.48597365093E+02 -0.24952383492E+02  0.11233946730E+03  0.12491789803E+03  0.00000000000E+00 0. -1.
</event>
<event>
 7    1  0.6444902E-006  0.1133948E+03  0.7818608E-02  0.1270439E+00
          2   -1    0    0  502    0  0.00000000000E+00  0.00000000000E+00  0.15568732067E+04  0.15568732067E+04  0.00000000000E+00 0. -1.
          1   -1    0    0  501    0 -0.00000000000E+00 -0.00000000000E+00 -0.65118438002E+02  0.65118438002E+02  0.00000000000E+00 0. -1.
         25    2    1    2    0    0  0.35594947238E+01  0.76322994622E+02  0.25741210508E+03  0.29618255224E+03  0.12500097159E+03 0.  0.
          2    1    1    2  501    0  0.10545833362E+03 -0.45122224910E+02  0.33323149521E+02  0.11944834701E+03  0.00000000000E+00 0. -1.
          1    1    1    2  502    0 -0.10901782834E+03 -0.31200769713E+02  0.12010195141E+04  0.12063607454E+04  0.00000000000E+00 0. -1.
         22    1    3    3    0    0  0.38931604849E+02 -0.19191864212E+02  0.95449958111E+02  0.10485557692E+03  0.00000000000E+00 0.  1.
         22    1    3    3    0    0 -0.35372110126E+02  0.95514858835E+02  0.16196214697E+03  0.19132697532E+03  0.00000000000E+00 0.  1.
</event>
<event>
 7    1  0.6444902E-006  0.9225509E+02  0.7818608E-02  0.1399380E+00
          2   -1    0    0  502    0  0.00000000000E+00  0.00000000000E+00  0.70348426981E+02  0.70348426981E+02  0.00000000000E+00 0. -1.
          1   -1    0    0  501    0 -0.00000000000E+00 -0.00000000000E+00 -0.62130792286E+03  0.62130792286E+03  0.00000000000E+00 0. -1.
         25    2    1    2    0    0  0.99186548476E+02 -0.53601090653E+02 -0.48494220421E+03  0.51332502645E+03  0.12499037178E+03 0.  0.
          2    1    1    2  501    0 -0.67826662634E+02  0.31188438941E+02 -0.10146144793E+03  0.12596666346E+03  0.00000000000E+00 0. -1.
          1    1    1    2  502    0 -0.31359885842E+02  0.22412651711E+02  0.35444156260E+02  0.52364659931E+02  0.00000000000E+00 0. -1.
         22    1    3    3    0    0  0.91560265328E+02 -0.85809256392E+02 -0.29591887401E+03  0.32142571562E+03  0.00000000000E+00 0. -1.
         22    1    3    3    0    0  0.76262831474E+01  0.32208165739E+02 -0.18902333020E+03  0.19189931083E+03  0.00000000000E+00 0. -1.
</event>
<event>
 7    1  0.6444902E-006  0.1029298E+03  0.7818608E-02  0.1423686E+00
          2   -1    0    0  502    0  0.00000000000E+00  0.00000000000E+00  0.78748959754E+03  0.78748959754E+03  0.00000000000E+00 0. -1.
          1   -1    0    0  501    0 -0.00000000000E+00 -0.00000000000E+00 -0.32348018429E+03  0.32348018429E+03  0.00000000000E+00 0. -1.
         25    2    1    2    0    0  0.82092876447E+02 -0.37351482409E+02 -0.35553046328E+02  0.15818729946E+03  0.12499931603E+03 0.  0.
          2    1    1    2  501    0 -0.10421068808E+03  0.19233162446E+02 -0.21391913012E+03  0.23872824776E+03  0.00000000000E+00 0. -1.
          1    1    1    2  502    0  0.22117811633E+02  0.18118319963E+02  0.71348158970E+03  0.71405423460E+03  0.00000000000E+00 0. -1.
         22    1    3    3    0    0 -0.20026263319E+02  0.25639642660E+02  0.16275923353E+01  0.32574400303E+02  0.00000000000E+00 0. -1.
         22    1    3    3    0    0  0.10211913977E+03 -0.62991125069E+02 -0.37180638664E+02  0.12561289916E+03  0.00000000000E+00 0. -1.
</event>
<event>
 7    1  0.6444902E-006  0.7504021E+02  0.7818608E-02  0.1385846E+00
          2   -1    0    0  502    0  0.00000000000E+00  0.00000000000E+00  0.15353379088E+04  0.15353379088E+04  0.00000000000E+00 0. -1.
          1   -1    0    0  501    0 -0.00000000000E+00 -0.00000000000E+00 -0.27076592536E+02  0.27076592536E+02  0.00000000000E+00 0. -1.
         25    2    1    2    0    0  0.28938418982E+01  0.37926154419E+02  0.30188204936E+03  0.32894473836E+03  0.12500040664E+03 0.  0.
          2    1    1    2  501    0  0.47211356079E+02  0.23665969893E+02  0.45009543603E+02  0.69389115062E+02  0.00000000000E+00 0. -1.
          1    1    1    2  502    0 -0.50105197977E+02 -0.61592124312E+02  0.11613697233E+04  0.11640806479E+04  0.00000000000E+00 0. -1.
         22    1    3    3    0    0 -0.54628841880E+02  0.29236622460E+02  0.90319743035E+02  0.10952966009E+03  0.00000000000E+00 0. -1.
         22    1    3    3    0    0  0.57522683778E+02  0.86895319587E+01  0.21156230633E+03  0.21941507827E+03  0.00000000000E+00 0. -1.
</event>
<event>
 7    1  0.6444902E-006  0.2522265E+03  0.7818608E-02  0.1314437E+00
          2   -1    0    0  502    0  0.00000000000E+00  0.00000000000E+00  0.52086461525E+03  0.52086461525E+03  0.00000000000E+00 0. -1.
          1   -1    0    0  501    0 -0.00000000000E+00 -0.00000000000E+00 -0.12489650152E+04  0.12489650152E+04  0.00000000000E+00 0. -1.
         25    2    1    2    0    0 -0.10474202905E+03  0.21702634257E+03 -0.62232017485E+03  0.67895389427E+03  0.12499865801E+03 0.  0.
          2    1    1    2  501    0 -0.28809668772E+02 -0.23202408131E+01 -0.56548351610E+03  0.56622167701E+03  0.00000000000E+00 0. -1.
          1    1    1    2  502    0  0.13355169782E+03 -0.21470610176E+03  0.45970329097E+03  0.52465405921E+03  0.00000000000E+00 0. -1.
         22    1    3    3    0    0 -0.75786761881E+01  0.10591210493E+03 -0.38588075487E+03  0.40022339672E+03  0.00000000000E+00 0.  1.
         22    1    3    3    0    0 -0.97163352864E+02  0.11111423764E+03 -0.23643941998E+03  0.27873049755E+03  0.00000000000E+00 0.  1.
</event>
<event>
 7    1  0.6444902E-006  0.5737797E+02  0.7818608E-02  0.1456564E+00
          2   -1    0    0  502    0  0.00000000000E+00  0.00000000000E+00  0.21143099399E+04  0.21143099399E+04  0.00000000000E+00 0. -1.
          1   -1    0    0  501    0 -0.00000000000E+00 -0.00000000000E+00 -0.24519395364E+02  0.24519395364E+02  0.00000000000E+00 0. -1.
         25    2    1    2    0    0  0.39937229894E+02 -0.22587271214E+02  0.41810689644E+03  0.43879674127E+03  0.12499614450E+03 0.  0.
          2    1    1    2  501    0 -0.59466503498E+02 -0.12456022706E+02  0.52342204526E+02  0.80194288541E+02  0.00000000000E+00 0. -1.
          1    1    1    2  502    0  0.19529273604E+02  0.35043293920E+02  0.16193414435E+04  0.16198383054E+04  0.00000000000E+00 0. -1.
         22    1    3    3    0    0 -0.19767733983E+02 -0.47598196989E+02  0.29735452030E+03  0.30178810845E+03  0.00000000000E+00 0.  1.
         22    1    3    3    0    0  0.59704963877E+02  0.25010925775E+02  0.12075237615E+03  0.13700863281E+03  0.00000000000E+00 0.  1.
</event>
<event>
 7    1  0.6444902E-006  0.6682995E+02  0.7818608E-02  0.1422707E+00
          2   -1    0    0  502    0  0.00000000000E+00  0.00000000000E+00  0.18135838062E+04  0.18135838062E+04  0.00000000000E+00 0. -1.
          1   -1    0    0  501    0 -0.00000000000E+00 -0.00000000000E+00 -0.25789737397E+03  0.25789737397E+03  0.00000000000E+00 0. -1.
         25    2    1    2    0    0  0.72240872061E+02 -0.56894102924E+02  0.13824042765E+03  0.20782810929E+03  0.12500569840E+03 0.  0.
          2    1    1    2  501    0 -0.70098719834E+01  0.43809796972E+02 -0.22021566874E+03  0.22464055149E+03  0.00000000000E+00 0. -1.
          1    1    1    2  502    0 -0.65231000078E+02  0.13084305952E+02  0.16376616734E+04  0.16390125194E+04  0.00000000000E+00 0. -1.
         22    1    3    3    0    0 -0.93063281105E+01 -0.28397638997E+02 -0.13835269051E+02  0.32930962835E+02  0.00000000000E+00 0. -1.
         22    1    3    3    0    0  0.81547200172E+02 -0.28496463927E+02  0.15207569670E+03  0.17489714646E+03  0.00000000000E+00 0. -1.
</event>
<event>
 7    1  0.6444902E-006  0.3619088E+02  0.7818608E-02  0.1574585E+00
          2   -1    0    0  502    0  0.00000000000E+00  0.00000000000E+00  0.13628661442E+03  0.13628661442E+03  0.00000000000E+00 0. -1.
          1   -1    0    0  501    0 -0.00000000000E+00 -0.00000000000E+00 -0.17144861976E+04  0.17144861976E+04  0.00000000000E+00 0. -1.
         25    2    1    2    0    0 -0.43232665909E+02  0.37361589215E+02 -0.40143750140E+03  0.42431342744E+03  0.12499946169E+03 0.  0.
          2    1    1    2  501    0  0.34414497032E+02 -0.10031023207E+02 -0.12997088987E+04  0.13002031382E+04  0.00000000000E+00 0. -1.
          1    1    1    2  502    0  0.88181688767E+01 -0.27330566007E+02  0.12294681700E+03  0.12625624638E+03  0.00000000000E+00 0. -1.
         22    1    3    3    0    0 -0.73150553378E+01 -0.34150640870E+02 -0.25548925483E+03  0.25786534401E+03  0.00000000000E+00 0. -1.
         22    1    3    3    0    0 -0.35917610571E+02  0.71512230084E+02 -0.14594824657E+03  0.16644808343E+03  0.00000000000E+00 0. -1.
</event>
<event>
 7    1  0.6444902E-006  0.1934816E+03  0.7818608E-02  0.1340914E+00
          2   -1    0    0  502    0  0.00000000000E+00  0.00000000000E+00  0.91175615373E+03  0.91175615373E+03  0.00000000000E+00 0. -1.
          1   -1    0    0  501    0 -0.00000000000E+00 -0.00000000000E+00 -0.20256202387E+04  0.20256202387E+04  0.00000000000E+00 0. -1.
         25    2    1    2    0    0 -0.18920850893E+03 -0.61148416628E+02  0.17235352224E+03  0.29132586270E+03  0.12500413170E+03 0.  0.
          2    1    1    2  501    0 -0.88705249003E+00  0.29810766029E+02 -0.19523697560E+04  0.19525975348E+04  0.00000000000E+00 0. -1.
          1    1    1    2  502    0  0.19009556142E+03  0.31337650600E+02  0.66615214881E+03  0.69345299493E+03  0.00000000000E+00 0. -1.
         22    1    3    3    0    0 -0.14980261031E+03 -0.76037715075E+02  0.18244439746E+03  0.24800910131E+03  0.00000000000E+00 0.  1.
         22    1    3    3    0    0 -0.39405898627E+02  0.14889298446E+02 -0.10090875219E+02  0.43316761392E+02  0.00000000000E+00 0.  1.
</event>
<event>
 7    1  0.6444902E-006  0.7439854E+02  0.7818608E-02  0.1375702E+00
          2   -1    0    0  502    0  0.00000000000E+00  0.00000000000E+00  0.11851667840E+04  0.11851667840E+04  0.00000000000E+00 0. -1.
          1   -1    0    0  501    0 -0.00000000000E+00 -0.00000000000E+00 -0.45339094411E+03  0.45339094411E+03  0.00000000000E+00 0. -1.
         25    2    1    2    0    0 -0.30152221916E+02  0.12776351507E+03  0.14875987447E+03  0.23449304722E+03  0.12499926670E+03 0.  0.
          2    1    1    2  501    0  0.17320412849E+02 -0.71350018891E+02 -0.40638967545E+03  0.41296899425E+03  0.00000000000E+00 0. -1.
          1    1    1    2  502    0  0.12831809068E+02 -0.56413496176E+02  0.98940564089E+03  0.99109568666E+03  0.00000000000E+00 0. -1.
         22    1    3    3    0    0  0.17937873494E+01  0.14402055324E+03  0.10680473900E+03  0.17931087446E+03  0.00000000000E+00 0. -1.
         22    1    3    3    0    0 -0.31946009266E+02 -0.16257038171E+02  0.41955135472E+02  0.55182172761E+02  0.00000000000E+00 0. -1.
</event>
<event>
 7    1  0.6444902E-006  0.9455772E+02  0.7818608E-02  0.1369844E+00
          2   -1    0    0  502    0  0.00000000000E+00  0.00000000000E+00  0.48108189871E+03  0.48108189871E+03  0.00000000000E+00 0. -1.
          1   -1    0    0  501    0 -0.00000000000E+00 -0.00000000000E+00 -0.18784500086E+03  0.18784500086E+03  0.00000000000E+00 0. -1.
         25    2    1    2    0    0  0.61019452125E+02  0.27309205371E+02  0.12400191067E+03  0.18833601906E+03  0.12499926396E+03 0.  0.
          2    1    1    2  501    0  0.41608362760E+02 -0.23472518506E+02 -0.14359566157E+03  0.15133383296E+03  0.00000000000E+00 0. -1.
          1    1    1    2  502    0 -0.10262781489E+03 -0.38366868647E+01  0.31283064876E+03  0.32925704755E+03  0.00000000000E+00 0. -1.
         22    1    3    3    0    0 -0.68222009086E+01 -0.40354299114E+02  0.61718854680E+02  0.74055579838E+02  0.00000000000E+00 0. -1.
         22    1    3    3    0    0  0.67841653034E+02  0.67663504485E+02  0.62283055989E+02  0.11428043922E+03  0.00000000000E+00 0. -1.
</event>
<event>
 7    1  0.6444902E-006  0.1573088E+03  0.7818608E-02  0.1286347E+00
          2   -1    0    0  502    0  0.00000000000E+00  0.00000000000E+00  0.21388513257E+04  0.21388513257E+04  0.00000000000E+00 0. -1.
          1   -1    0    0  501    0 -0.00000000000E+00 -0.00000000000E+00 -0.86082744954E+03  0.86082744954E+03  0.00000000000E+00 0. -1.
         25    2    1    2    0    0 -0.56512686581E+02  0.84959734411E+02  0.34695716320E+02  0.16504766191E+03  0.12500039103E+03 0.  0.
          2    1    1    2  501    0  0.84509398526E+02 -0.13806212620E+03 -0.78697005583E+03  0.80344561602E+03  0.00000000000E+00 0. -1.
          1    1    1    2  502    0 -0.27996711944E+02  0.53102391790E+02  0.20302982157E+04  0.20311854973E+04  0.00000000000E+00 0. -1.
         22    1    3    3    0    0  0.28220689567E+02  0.53176220683E+02 -0.14667838128E+02  0.61961788556E+02  0.00000000000E+00 0. -1.
         22    1    3    3    0    0 -0.84733376148E+02  0.31783513728E+02  0.49363554448E+02  0.10308587336E+03  0.00000000000E+00 0. -1.
</event>
<event>
 7    1  0.6444902E-006  0.4372171E+02  0.7818608E-02  0.1516555E+00
          2   -1    0    0  502    0  0.00000000000E+00  0.00000000000E+00  0.14901639597E+04  0.14901639597E+04  0.00000000000E+00 0. -1.
          1   -1    0    0  501    0 -0.00000000000E+00 -0.00000000000E+00 -0.11661910604E+02  0.11661910604E+02  0.00000000000E+00 0. -1.
         25    2    1    2    0    0  0.70985143761E+02 -0.11308112021E+02  0.67463183974E+03  0.68986929028E+03  0.12499901780E+03 0.  0.
          2    1    1    2  501    0 -0.39400983786E+02 -0.27938883601E+01  0.10425742869E+03  0.11148925855E+03  0.00000000000E+00 0. -1.
          1    1    1    2  502    0 -0.31584159975E+02  0.14102000381E+02  0.69961278069E+03  0.70046732150E+03  0.00000000000E+00 0. -1.
         22    1    3    3    0    0  0.17046067561E+02  0.39285566598E+02  0.47590716757E+03  0.47783004960E+03  0.00000000000E+00 0.  1.
         22    1    3    3    0    0  0.53939076200E+02 -0.50593678619E+02  0.19872467217E+03  0.21203924068E+03  0.00000000000E+00 0.  1.
</event>
<event>
 7    1  0.6444902E-006  0.5256829E+02  0.7818608E-02  0.1456876E+00
          2   -1    0    0  502    0  0.00000000000E+00  0.00000000000E+00  0.45029017972E+03  0.45029017972E+03  0.00000000000E+00 0. -1.
          1   -1    0    0  501    0 -0.00000000000E+00 -0.00000000000E+00 -0.43975080935E+03  0.43975080935E+03  0.00000000000E+00 0. -1.
         25    2    1    2    0    0 -0.58637950449E+02 -0.72875708113E+02 -0.17524728989E+02  0.15710374019E+03  0.12500076395E+03 0.  0.
          2    1    1    2  501    0  0.34129226835E+02  0.27274614483E+02 -0.34930856548E+03  0.35203008769E+03  0.00000000000E+00 0. -1.
          1    1    1    2  502    0  0.24508723615E+02  0.45601093630E+02  0.37737266485E+03  0.38090716119E+03  0.00000000000E+00 0. -1.
         22    1    3    3    0    0 -0.43330982630E+02  0.28071669301E+02  0.69906610842E+01  0.52100499186E+02  0.00000000000E+00 0. -1.
         22    1    3    3    0    0 -0.15306967819E+02 -0.10094737741E+03 -0.24515390074E+02  0.10500324100E+03  0.00000000000E+00 0. -1.
</event>
<event>
 7    1  0.6444902E-006  0.9561492E+02  0.7818608E-02  0.1375201E+00
          2   -1    0    0  502    0  0.00000000000E+00  0.00000000000E+00  0.10505905458E+04  0.10505905458E+04  0.00000000000E+00 0. -1.
          1   -1    0    0  501    0 -0.00000000000E+00 -0.00000000000E+00 -0.49321091524E+02  0.49321091524E+02  0.00000000000E+00 0. -1.
         25    2    1    2    0    0 -0.11676628970E+03  0.50598816860E+01  0.41617807201E+03  0.44998751514E+03  0.12499842937E+03 0.  0.
          2    1    1    2  501    0  0.29151158874E+02 -0.34546861742E+02 -0.11151103757E+02  0.46557736575E+02  0.00000000000E+00 0. -1.
          1    1    1    2  502    0  0.87615130830E+02  0.29486980056E+02  0.59624248602E+03  0.60336638561E+03  0.00000000000E+00 0. -1.
         22    1    3    3    0    0 -0.29408969478E+02 -0.40877255224E+02  0.50863373745E+02  0.71574578372E+02  0.00000000000E+00 0. -1.
         22    1    3    3    0    0 -0.87357320227E+02  0.45937136910E+02  0.36531469827E+03  0.37841293677E+03  0.00000000000E+00 0. -1.
</event>
<event>
 7    1  0.6444902E-006  0.1503666E+03  0.7818608E-02  0.1357678E+00
          2   -1    0    0  502    0  0.00000000000E+00  0.00000000000E+00  0.12642075091E+04  0.12642075091E+04  0.00000000000E+00 0. -1.
          1   -1    0    0  501    0 -0.00000000000E+00 -0.00000000000E+00 -0.24946701264E+03  0.24946701264E+03  0.00000000000E+00 0. -1.
         25    2    1    2    0    0  0.12680984199E+03 -0.69311903247E+02 -0.14965259713E+02  0.19168774124E+03  0.12504141389E+03 0.  0.
          2    1    1    2  501    0 -0.14784105553E+03  0.43550325061E+02 -0.10519421740E+03  0.18659965671E+03  0.00000000000E+00 0. -1.
          1    1    1    2  502    0  0.21031213539E+02  0.25761578185E+02  0.11348999735E+04  0.11353871237E+04  0.00000000000E+00 0. -1.
         22    1    3    3    0    0  0.83736655461E+02 -0.99545091847E+02  0.15305153530E+02  0.13097824439E+03  0.00000000000E+00 0.  1.
         22    1    3    3    0    0  0.43073186527E+02  0.30233188600E+02 -0.30270413243E+02  0.60709496855E+02  0.00000000000E+00 0.  1.
</event>
<event>
 7    1  0.6444902E-006  0.1753870E+03  0.7818608E-02  0.1226520E+00
          2   -1    0    0  502    0  0.00000000000E+00  0.00000000000E+00  0.17551375121E+04  0.17551375121E+04  0.00000000000E+00 0. -1.
          1   -1    0    0  501    0 -0.00000000000E+00 -0.00000000000E+00 -0.57558961699E+03  0.57558961699E+03  0.00000000000E+00 0. -1.
         25    2    1    2    0    0 -0.10312342324E+03 -0.23818673960E+02 -0.27510614769E+02  0.16608725129E+03  0.12500548575E+03 0.  0.
          2    1    1    2  501    0  0.17493014309E+03  0.89474850084E+02 -0.45715152111E+03  0.49758799926E+03  0.00000000000E+00 0. -1.
          1    1    1    2  502    0 -0.71806719847E+02 -0.65656176124E+02  0.16642100310E+04  0.16670518785E+04  0.00000000000E+00 0. -1.
         22    1    3    3    0    0  0.20150793417E+02 -0.24610016181E+02  0.15681526549E+02  0.35462905220E+02  0.00000000000E+00 0.  1.
         22    1    3    3    0    0 -0.12327421666E+03  0.79134222068E+00 -0.43192141318E+02  0.13062434607E+03  0.00000000000E+00 0.  1.
</event>
<event>
 7    1  0.6444902E-006  0.4515246E+02  0.7818608E-02  0.1568205E+00
          2   -1    0    0  502    0  0.00000000000E+00  0.00000000000E+00  0.23934044269E+04  0.23934044269E+04  0.00000000000E+00 0. -1.
          1   -1    0    0  501    0 -0.00000000000E+00 -0.00000000000E+00 -0.83426387628E+03  0.83426387628E+03  0.00000000000E+00 0. -1.
         25    2    1    2    0    0  0.46796896988E+02  0.11949296265E+02  0.16831543572E+04  0.16884779816E+04  0.12496627183E+03 0.  0.
          2    1    1    2  501    0 -0.13809974776E+02  0.19572102071E+02 -0.83069373483E+03  0.83103902656E+03  0.00000000000E+00 0. -1.
          1    1    1    2  502    0 -0.32986922211E+02 -0.31521398337E+02  0.70667992825E+03  0.70815129498E+03  0.00000000000E+00 0. -1.
         22    1    3    3    0    0  0.38901388920E+02 -0.18811264510E+02  0.18470644993E+03  0.18969358022E+03  0.00000000000E+00 0. -1.
         22    1    3    3    0    0  0.78955080679E+01  0.30760560775E+02  0.14984479072E+04  0.14987844014E+04  0.00000000000E+00 0. -1.
</event>
<event>
 7    1  0.6444902E-006  0.6974096E+02  0.7818608E-02  0.1424150E+00
          2   -1    0    0  502    0  0.00000000000E+00  0.00000000000E+00  0.54291449669E+03  0.54291449669E+03  0.00000000000E+00 0. -1.
          1   -1    0    0  501    0 -0.00000000000E+00 -0.00000000000E+00 -0.76820097759E+03  0.76820097759E+03  0.00000000000E+00 0. -1.
         25    2    1    2    0    0  0.61216333362E+02 -0.81824982658E+02  0.18663213176E+03  0.24676284744E+03  0.12497032854E+03 0.  0.
          2    1    1    2  501    0 -0.86921006628E+01  0.41140227344E+02 -0.73414502634E+03  0.73534821045E+03  0.00000000000E+00 0. -1.
          1    1    1    2  502    0 -0.52524232699E+02  0.40684755314E+02  0.32222641367E+03  0.32900441639E+03  0.00000000000E+00 0. -1.
         22    1    3    3    0    0 -0.30238715121E+02 -0.22556859393E+02  0.10208270270E+03  0.10883046443E+03  0.00000000000E+00 0. -1.
         22    1    3    3    0    0  0.91455048484E+02 -0.59268123265E+02  0.84549429065E+02  0.13793238301E+03  0.00000000000E+00 0. -1.
</event>
<event>
 7    1  0.8329502E-006  0.5586151E+02  0.7818608E-02  0.1475801E+00
          2   -1    0    0  502    0  0.00000000000E+00  0.00000000000E+00  0.25877194735E+04  0.25877194735E+04  0.00000000000E+00 0. -1.
          1   -1    0    0  501    0 -0.00000000000E+00 -0.00000000000E+00 -0.23091888667E+04  0.23091888667E+04  0.00000000000E+00 0. -1.
         25    2    1    2    0    0 -0.44716169494E+02 -0.32432896940E+02 -0.12046747448E+04  0.12124015547E+04  0.12499944198E+03 0.  0.
          2    1    1    2  501    0  0.28967370874E+02 -0.21165818234E+02 -0.11000562962E+04  0.11006411565E+04  0.00000000000E+00 0. -1.
          1    1    1    2  502    0  0.15748798620E+02  0.53598715174E+02  0.25832616479E+04  0.25838656289E+04  0.00000000000E+00 0. -1.
         22    1    3    3    0    0  0.43389308005E+02 -0.88024045661E+01 -0.47148461873E+03  0.47355871872E+03  0.00000000000E+00 0.  1.
         22    1    3    3    0    0 -0.88105477499E+02 -0.23630492374E+02 -0.73319012610E+03  0.73884283603E+03  0.00000000000E+00 0.  1.
</event>
<event>
 7    1  0.6444902E-006  0.1037036E+03  0.7818608E-02  0.1326499E+00
          2   -1    0    0  502    0  0.00000000000E+00  0.00000000000E+00  0.28650625017E+04  0.28650625017E+04  0.00000000000E+00 0. -1.
          1   -1    0    0  501    0 -0.00000000000E+00 -0.00000000000E+00 -0.75347723168E+02  0.75347723168E+02  0.00000000000E+00 0. -1.
         25    2    1    2    0    0 -0.17998599085E+02  0.38989630003E+02  0.13220920397E+03  0.18692355149E+03  0.12496799458E+03 0.  0.
          2    1    1    2  501    0 -0.23463294390E+02  0.58597507438E+02 -0.25725464746E+02  0.68161525790E+02  0.00000000000E+00 0. -1.
          1    1    1    2  502    0  0.41461893476E+02 -0.97587137441E+02  0.26832310393E+04  0.26853251476E+04  0.00000000000E+00 0. -1.
         22    1    3    3    0    0 -0.54465637439E+02 -0.14032299517E+02  0.10053590719E+03  0.11519930436E+03  0.00000000000E+00 0.  1.
         22    1    3    3    0    0  0.36467038354E+02  0.53021929520E+02  0.31673296786E+02  0.71724247125E+02  0.00000000000E+00 0.  1.
</event>
<event>
 7    1  0.6444902E-006  0.1127973E+03  0.7818608E-02  0.1283560E+00
          2   -1    0    0  502    0  0.00000000000E+00  0.00000000000E+00  0.10226872446E+04  0.10226872446E+04  0.00000000000E+00 0. -1.
          1   -1    0    0  501    0 -0.00000000000E+00 -0.00000000000E+00 -0.16176590725E+03  0.16176590725E+03  0.00000000000E+00 0. -1.
         25    2    1    2    0    0 -0.29762920963E+02 -0.17783544765E+03  0.77473816000E+02  0.23267685393E+03  0.12500019315E+03 0.  0.
          2    1    1    2  501    0 -0.66056402770E+01  0.99957367585E+02 -0.51347200361E+02  0.11256840055E+03  0.00000000000E+00 0. -1.
          1    1    1    2  502    0  0.36368561240E+02  0.77878080062E+02  0.83479472175E+03  0.83920789740E+03  0.00000000000E+00 0. -1.
         22    1    3    3    0    0 -0.66439709620E+02 -0.11048815066E+03  0.79569812796E+01  0.12917112681E+03  0.00000000000E+00 0.  1.
         22    1    3    3    0    0  0.36676788657E+02 -0.67347296991E+02  0.69516834721E+02  0.10350572713E+03  0.00000000000E+00 0.  1.
</event>
<event>
 7    1  0.6444902E-006  0.1380556E+03  0.7818608E-02  0.1264639E+00
          2   -1    0    0  502    0  0.00000000000E+00  0.00000000000E+00  0.28079028180E+04  0.28079028180E+04  0.00000000000E+00 0. -1.
          1   -1    0    0  501    0 -0.00000000000E+00 -0.00000000000E+00 -0.20789990890E+03  0.20789990890E+03  0.00000000000E+00 0. -1.
         25    2    1    2    0    0  0.63260424963E+02 -0.16686421935E+03  0.70635048530E+02  0.22904163961E+03  0.12500085411E+03 0.  0.
          2    1    1    2  501    0 -0.97038575376E+02  0.89709803535E+02 -0.93916249740E+02  0.16212524765E+03  0.00000000000E+00 0. -1.
          1    1    1    2  502    0  0.33778150413E+02  0.77154415815E+02  0.26232841103E+04  0.26246358396E+04  0.00000000000E+00 0. -1.
         22    1    3    3    0    0 -0.28151550779E+02 -0.14473505645E+02 -0.10961707369E+02  0.33498525420E+02  0.00000000000E+00 0. -1.
         22    1    3    3    0    0  0.91411975741E+02 -0.15239071371E+03  0.81596755899E+02  0.19554311419E+03  0.00000000000E+00 0. -1.
</event>
<event>
 7    1  0.6444902E-006  0.8581579E+02  0.7818608E-02  0.1383122E+00
          2   -1    0    0  502    0  0.00000000000E+00  0.00000000000E+00  0.45036837705E+03  0.45036837705E+03  0.00000000000E+00 0. -1.
          1   -1    0    0  501    0 -0.00000000000E+00 -0.00000000000E+00 -0.12675284728E+03  0.12675284728E+03  0.00000000000E+00 0. -1.
         25    2    1    2    0    0  0.22213525989E+02 -0.44511130237E+02  0.84202359975E+02  0.15871379522E+03  0.12500139966E+03 0.  0.
          2    1    1    2  501    0 -0.18898684744E+02  0.91604562510E+02 -0.62714909806E+02  0.11261312566E+03  0.00000000000E+00 0. -1.
          1    1    1    2  502    0 -0.33148412446E+01 -0.47093432273E+02  0.30212807961E+03  0.30579430345E+03  0.00000000000E+00 0. -1.
         22    1    3    3    0    0  0.19165000405E+01 -0.45720807427E+02 -0.21864150900E+02  0.50715937325E+02  0.00000000000E+00 0. -1.
         22    1    3    3    0    0  0.20297025948E+02  0.12096771901E+01  0.10606651088E+03  0.10799785790E+03  0.00000000000E+00 0. -1.
</event>
<event>
 7    1  0.6444902E-006  0.1325754E+03  0.7818608E-02  0.1300974E+00
          2   -1    0    0  502    0  0.00000000000E+00  0.00000000000E+00  0.23460576209E+04  0.23460576209E+04  0.00000000000E+00 0. -1.
          1   -1    0    0  501    0 -0.00000000000E+00 -0.00000000000E+00 -0.21611605148E+04  0.21611605148E+04  0.00000000000E+00 0. -1.
         25    2    1    2    0    0  0.52130276554E+02 -0.12444656667E+03  0.22859653305E+03  0.29340002074E+03  0.12499073389E+03 0.  0.
          2    1    1    2  501    0  0.49272776226E+02  0.37897019233E+02 -0.21261730244E+04  0.21270815030E+04  0.00000000000E+00 0. -1.
          1    1    1    2  502    0 -0.10140305278E+03  0.86549547441E+02  0.20824735975E+04  0.20867366119E+04  0.00000000000E+00 0. -1.
         22    1    3    3    0    0 -0.38643538819E+02 -0.63746116228E+02  0.86443891144E+02  0.11414655817E+03  0.00000000000E+00 0. -1.
         22    1    3    3    0    0  0.90773815373E+02 -0.60700450446E+02  0.14215264190E+03  0.17925346256E+03  0.00000000000E+00 0. -1.
</event>
<event>
 7    1  0.6444902E-006  0.2626032E+02  0.7818608E-02  0.1654535E+00
          2   -1    0    0  502    0  0.00000000000E+00  0.00000000000E+00  0.20308125499E+03  0.20308125499E+03  0.00000000000E+00 0. -1.
          1   -1    0    0  501    0 -0.00000000000E+00 -0.00000000000E+00 -0.13648995937E+03  0.13648995937E+03  0.00000000000E+00 0. -1.
         25    2    1    2    0    0 -0.55544900851E+01 -0.16207295793E+02  0.87369055890E+02  0.15346640270E+03  0.12500022413E+03 0.  0.
          2    1    1    2  501    0  0.26367414411E+02  0.29498441759E+01 -0.99827419800E+02  0.10329305818E+03  0.00000000000E+00 0. -1.
          1    1    1    2  502    0 -0.20812924326E+02  0.13257451617E+02  0.79049659531E+02  0.82811753479E+02  0.00000000000E+00 0. -1.
         22    1    3    3    0    0 -0.43484217757E+02 -0.52983783774E+02  0.69706159990E+02  0.97760458660E+02  0.00000000000E+00 0. -1.
         22    1    3    3    0    0  0.37929727672E+02  0.36776487981E+02  0.17662895900E+02  0.55705944037E+02  0.00000000000E+00 0. -1.
</event>
<event>
 7    1  0.6444902E-006  0.6205728E+02  0.7818608E-02  0.1450260E+00
          2   -1    0    0  502    0  0.00000000000E+00  0.00000000000E+00  0.83584660148E+03  0.83584660148E+03  0.00000000000E+00 0. -1.
          1   -1    0    0  501    0 -0.00000000000E+00 -0.00000000000E+00 -0.11106514078E+03  0.11106514078E+03  0.00000000000E+00 0. -1.
         25    2    1    2    0    0  0.48349989353E+02  0.56413793838E+02  0.23785453098E+03  0.27878420145E+03  0.12500246184E+03 0.  0.
          2    1    1    2  501    0 -0.58983885654E+02 -0.19050290192E+02 -0.79254731853E+02  0.10061473473E+03  0.00000000000E+00 0. -1.
          1    1    1    2  502    0  0.10633896301E+02 -0.37363503646E+02  0.56618166158E+03  0.56751280608E+03  0.00000000000E+00 0. -1.
         22    1    3    3    0    0  0.73987537627E+02  0.21851892403E+01  0.18338446032E+03  0.19775942724E+03  0.00000000000E+00 0.  1.
         22    1    3    3    0    0 -0.25637548274E+02  0.54228604597E+02  0.54470070658E+02  0.81024774209E+02  0.00000000000E+00 0.  1.
</event>
<event>
 7    1  0.6444902E-006  0.1864570E+03  0.7818608E-02  0.1183455E+00
          2   -1    0    0  502    0  0.00000000000E+00  0.00000000000E+00  0.21024709421E+04  0.21024709421E+04  0.00000000000E+00 0. -1.
          1   -1    0    0  501    0 -0.00000000000E+00 -0.00000000000E+00 -0.15062190627E+03  0.15062190627E+03  0.00000000000E+00 0. -1.
         25    2    1    2    0    0 -0.21342542879E+03  0.14824602692E+03  0.24428677431E+03  0.37792792226E+03  0.12500475259E+03 0.  0.
          2    1    1    2  501    0  0.68269049428E+02 -0.15879180044E+03  0.11885074227E+02  0.17325343860E+03  0.00000000000E+00 0. -1.
          1    1    1    2  502    0  0.14515637936E+03  0.10545773519E+02  0.16956771873E+04  0.17019114875E+04  0.00000000000E+00 0. -1.
         22    1    3    3    0    0 -0.88252843309E+02  0.13606676632E+03  0.14764297726E+03  0.21931980755E+03  0.00000000000E+00 0.  1.
         22    1    3    3    0    0 -0.12517258548E+03  0.12179260600E+02  0.96643797050E+02  0.15860811471E+03  0.00000000000E+00 0.  1.
</event>
<event>
 7    1  0.6444902E-006  0.6693192E+02  0.7818608E-02  0.1487314E+00
          2   -1    0    0  502    0  0.00000000000E+00  0.00000000000E+00  0.83342339903E+03  0.83342339903E+03  0.00000000000E+00 0. -1.
          1   -1    0    0  501    0 -0.00000000000E+00 -0.00000000000E+00 -0.64746960148E+02  0.64746960148E+02  0.00000000000E+00 0. -1.
         25    2    1    2    0    0  0.21110513098E+02  0.44332390973E+02  0.33063261747E+03  0.35686617484E+03  0.12499809742E+03 0.  0.
          2    1    1    2  501    0  0.26368368021E+02  0.81815609954E+01 -0.45166006629E+02  0.52935781163E+02  0.00000000000E+00 0. -1.
          1    1    1    2  502    0 -0.47478881119E+02 -0.52513951969E+02  0.48320982804E+03  0.48836840318E+03  0.00000000000E+00 0. -1.
         22    1    3    3    0    0 -0.38802552275E+02  0.20859363405E+02  0.24927362233E+03  0.25313650446E+03  0.00000000000E+00 0.  1.
         22    1    3    3    0    0  0.59913065373E+02  0.23473027569E+02  0.81358995146E+02  0.10372967038E+03  0.00000000000E+00 0.  1.
</event>
<event>
 7    1  0.6444902E-006  0.1368426E+03  0.7818608E-02  0.1277449E+00
          2   -1    0    0  502    0  0.00000000000E+00  0.00000000000E+00  0.88120478367E+03  0.88120478367E+03  0.00000000000E+00 0. -1.
          1   -1    0    0  501    0 -0.00000000000E+00 -0.00000000000E+00 -0.16154201424E+04  0.16154201424E+04  0.00000000000E+00 0. -1.
         25    2    1    2    0    0 -0.76018031740E+02  0.14944105242E+03  0.57128371394E+02  0.21679444909E+03  0.12499925217E+03 0.  0.
          2    1    1    2  501    0  0.10912528061E+03 -0.82047056403E+02 -0.15306470163E+04  0.15367238968E+04  0.00000000000E+00 0. -1.
          1    1    1    2  502    0 -0.33107248871E+02 -0.67393996013E+02  0.73930328618E+03  0.74310658023E+03  0.00000000000E+00 0. -1.
         22    1    3    3    0    0 -0.46952273797E+02  0.22508372259E+02  0.68542912880E+02  0.86077138327E+02  0.00000000000E+00 0.  1.
         22    1    3    3    0    0 -0.29065757943E+02  0.12693268016E+03 -0.11414541485E+02  0.13071731077E+03  0.00000000000E+00 0.  1.
</event>
<event>
 7    1  0.6444902E-006  0.8594488E+02  0.7818608E-02  0.1344589E+00
          2   -1    0    0  502    0  0.00000000000E+00  0.00000000000E+00  0.16528469464E+04  0.16528469464E+04  0.00000000000E+00 0. -1.
          1   -1    0    0  501    0 -0.00000000000E+00 -0.00000000000E+00 -0.22936311293E+02  0.22936311293E+02  0.00000000000E+00 0. -1.
         25    2    1    2    0    0 -0.12261577092E+02  0.11430073615E+03  0.74448557346E+03  0.76360859601E+03  0.12499725701E+03 0.  0.
          2    1    1    2  501    0  0.53451628242E+02 -0.63958484961E+02  0.13311923185E+03  0.15706207133E+03  0.00000000000E+00 0. -1.
          1    1    1    2  502    0 -0.41190051150E+02 -0.50342251185E+02  0.75230582980E+03  0.75511259036E+03  0.00000000000E+00 0. -1.
         22    1    3    3    0    0  0.17619362882E+02  0.12884923407E+03  0.66248965547E+03  0.67513340213E+03  0.00000000000E+00 0. -1.
         22    1    3    3    0    0 -0.29880939974E+02 -0.14548497923E+02  0.81995917995E+02  0.88475193887E+02  0.00000000000E+00 0. -1.
</event>
<event>
 7    1  0.6444902E-006  0.2379884E+03  0.7818608E-02  0.1267155E+00
          2   -1    0    0  502    0  0.00000000000E+00  0.00000000000E+00  0.32755266465E+03  0.32755266465E+03  0.00000000000E+00 0. -1.
          1   -1    0    0  501    0 -0.00000000000E+00 -0.00000000000E+00 -0.84397663302E+03  0.84397663302E+03  0.00000000000E+00 0. -1.
         25    2    1    2    0    0 -0.26573641060E+03  0.79071792214E+02 -0.11100840537E+03  0.32375307984E+03  0.12500000961E+03 0.  0.
          2    1    1    2  501    0  0.21856188218E+03 -0.72174710849E+02 -0.60252014431E+03  0.64498760417E+03  0.00000000000E+00 0. -1.
          1    1    1    2  502    0  0.47174528412E+02 -0.68970813651E+01  0.19710458130E+03  0.20278861367E+03  0.00000000000E+00 0. -1.
         22    1    3    3    0    0 -0.14353333499E+03 -0.21041282361E+02 -0.39513026728E+02  0.15035236313E+03  0.00000000000E+00 0.  1.
         22    1    3    3    0    0 -0.12220307560E+03  0.10011307458E+03 -0.71495378639E+02  0.17340071671E+03  0.00000000000E+00 0.  1.
</event>
<event>
 7    1  0.6444902E-006  0.1578814E+03  0.7818608E-02  0.1240408E+00
          2   -1    0    0  502    0  0.00000000000E+00  0.00000000000E+00  0.32223476537E+03  0.32223476537E+03  0.00000000000E+00 0. -1.
          1   -1    0    0  501    0 -0.00000000000E+00 -0.00000000000E+00 -0.23184368241E+04  0.23184368241E+04  0.00000000000E+00 0. -1.
         25    2    1    2    0    0  0.23169694868E+02 -0.23786701609E+03 -0.75418319570E+02  0.28005420949E+03  0.12499954088E+03 0.  0.
          2    1    1    2  501    0 -0.21981723644E+02  0.91110544858E+02 -0.21150614178E+04  0.21171370122E+04  0.00000000000E+00 0. -1.
          1    1    1    2  502    0 -0.11879712242E+01  0.14675647124E+03  0.19427767856E+03  0.24348036781E+03  0.00000000000E+00 0. -1.
         22    1    3    3    0    0 -0.11975715176E+02 -0.18532304183E+02  0.27483280657E+02  0.35244783557E+02  0.00000000000E+00 0. -1.
         22    1    3    3    0    0  0.35145410044E+02 -0.21933471191E+03 -0.10290160023E+03  0.24480942593E+03  0.00000000000E+00 0. -1.
</event>
<event>
 7    1  0.6444902E-006  0.8649933E+02  0.7818608E-02  0.1348390E+00
          2   -1    0    0  502    0  0.00000000000E+00  0.00000000000E+00  0.22093091189E+03  0.22093091189E+03  0.00000000000E+00 0. -1.
          1   -1    0    0  501    0 -0.00000000000E+00 -0.00000000000E+00 -0.42888084407E+03  0.42888084407E+03  0.00000000000E+00 0. -1.
         25    2    1    2    0    0 -0.27247977431E+02 -0.22397937921E+02 -0.70226609803E+02  0.14764393046E+03  0.12499133402E+03 0.  0.
          2    1    1    2  501    0 -0.11804854456E+02 -0.61431925135E+02 -0.30482742096E+03  0.31118000029E+03  0.00000000000E+00 0. -1.
          1    1    1    2  502    0  0.39052831887E+02  0.83829863057E+02  0.16710409858E+03  0.19098782521E+03  0.00000000000E+00 0. -1.
         22    1    3    3    0    0 -0.23529183516E+02 -0.74012873727E+02 -0.36003952140E+02  0.85602643207E+02  0.00000000000E+00 0. -1.
         22    1    3    3    0    0 -0.37187939149E+01  0.51614935806E+02 -0.34222657663E+02  0.62041287253E+02  0.00000000000E+00 0. -1.
</event>
<event>
 7    1  0.6444902E-006  0.1814972E+03  0.7818608E-02  0.1223790E+00
          2   -1    0    0  502    0  0.00000000000E+00  0.00000000000E+00  0.20127979584E+04  0.20127979584E+04  0.00000000000E+00 0. -1.
          1   -1    0    0  501    0 -0.00000000000E+00 -0.00000000000E+00 -0.82960549472E+03  0.82960549472E+03  0.00000000000E+00 0. -1.
         25    2    1    2    0    0  0.38887453443E+02 -0.79549172404E+02  0.37304906854E+03  0.40327470373E+03  0.12499829703E+03 0.  0.
          2    1    1    2  501    0 -0.60006703374E+02  0.17394860628E+03 -0.80263232113E+03  0.82345465267E+03  0.00000000000E+00 0. -1.
          1    1    1    2  502    0  0.21119249931E+02 -0.94399433876E+02  0.16127757162E+04  0.16156740967E+04  0.00000000000E+00 0. -1.
         22    1    3    3    0    0  0.75731758227E+02 -0.13141610733E+02  0.17353891807E+03  0.18979925506E+03  0.00000000000E+00 0.  1.
         22    1    3    3    0    0 -0.36844304785E+02 -0.66407561671E+02  0.19951015048E+03  0.21347544867E+03  0.00000000000E+00 0.  1.
</event>
<event>
 7    1  0.6444902E-006  0.6858018E+02  0.7818608E-02  0.1378720E+00
          2   -1    0    0  502    0  0.00000000000E+00  0.00000000000E+00  0.86891527696E+03  0.86891527696E+03  0.00000000000E+00 0. -1.
          1   -1    0    0  501    0 -0.00000000000E+00 -0.00000000000E+00 -0.23185395313E+02  0.23185395313E+02  0.00000000000E+00 0. -1.
         25    2    1    2    0    0 -0.20096769711E+02  0.38759743551E+02  0.43537743039E+03  0.45506763446E+03  0.12500738844E+03 0.  0.
          2    1    1    2  501    0 -0.18223579158E+02 -0.86517331151E+02  0.26303240968E+03  0.27749485756E+03  0.00000000000E+00 0. -1.
          1    1    1    2  502    0  0.38320348868E+02  0.47757587600E+02  0.14732004157E+03  0.15953818026E+03  0.00000000000E+00 0. -1.
         22    1    3    3    0    0  0.20631134546E+02  0.61901839788E+02  0.12336011938E+03  0.13955357586E+03  0.00000000000E+00 0.  1.
         22    1    3    3    0    0 -0.40727904256E+02 -0.23142096237E+02  0.31201731101E+03  0.31551405860E+03  0.00000000000E+00 0.  1.
</event>
<event>
 7    1  0.6444902E-006  0.4829141E+02  0.7818608E-02  0.1466538E+00
          2   -1    0    0  502    0  0.00000000000E+00  0.00000000000E+00  0.28716744782E+02  0.28716744782E+02  0.00000000000E+00 0. -1.
          1   -1    0    0  501    0 -0.00000000000E+00 -0.00000000000E+00 -0.18516815410E+04  0.18516815410E+04  0.00000000000E+00 0. -1.
         25    2    1    2    0    0 -0.21713508121E+02 -0.21603735161E+02 -0.48358010568E+03  0.50042692686E+03  0.12505675798E+03 0.  0.
          2    1    1    2  501    0 -0.26803544480E+02  0.35324090360E+02 -0.13274082959E+04  0.13281487136E+04  0.00000000000E+00 0. -1.
          1    1    1    2  502    0  0.48517052601E+02 -0.13720355199E+02 -0.11976394622E+02  0.51822645320E+02  0.00000000000E+00 0. -1.
         22    1    3    3    0    0 -0.68261495594E+02  0.92981278178E+01 -0.32697216976E+03  0.33415099395E+03  0.00000000000E+00 0.  1.
         22    1    3    3    0    0  0.46547987473E+02 -0.30901862979E+02 -0.15660793592E+03  0.16627593291E+03  0.00000000000E+00 0.  1.
</event>
<event>
 7    1  0.6444902E-006  0.6055723E+03  0.7818608E-02  0.1240841E+00
          2   -1    0    0  502    0  0.00000000000E+00  0.00000000000E+00  0.34044519326E+04  0.34044519326E+04  0.00000000000E+00 0. -1.
          1   -1    0    0  501    0 -0.00000000000E+00 -0.00000000000E+00 -0.51360998315E+03  0.51360998315E+03  0.00000000000E+00 0. -1.
         25    2    1    2    0    0  0.55042139841E+03  0.30271891860E+03  0.25934084931E+04  0.26713284429E+04  0.12500231283E+03 0.  0.
          2    1    1    2  501    0 -0.52825673649E+03 -0.29268904006E+03 -0.28219099060E+03  0.66659868661E+03  0.00000000000E+00 0. -1.
          1    1    1    2  502    0 -0.22164661923E+02 -0.10029878549E+02  0.57962444693E+03  0.58013478622E+03  0.00000000000E+00 0. -1.
         22    1    3    3    0    0  0.10548978152E+03  0.85821991119E+02  0.39073519364E+03  0.41372394143E+03  0.00000000000E+00 0.  1.
         22    1    3    3    0    0  0.44493161689E+03  0.21689692749E+03  0.22026732995E+04  0.22576045015E+04  0.00000000000E+00 0.  1.
</event>
<event>
 7    1  0.6444902E-006  0.1240516E+03  0.7818608E-02  0.1425008E+00
          2   -1    0    0  502    0  0.00000000000E+00  0.00000000000E+00  0.89480612432E+03  0.89480612432E+03  0.00000000000E+00 0. -1.
          1   -1    0    0  501    0 -0.00000000000E+00 -0.00000000000E+00 -0.93869476393E+02  0.93869476393E+02  0.00000000000E+00 0. -1.
         25    2    1    2    0    0  0.73608477494E+02  0.12384884612E+03  0.47728822834E+03  0.51399066230E+03  0.12500241347E+03 0.  0.
          2    1    1    2  501    0 -0.55746883351E+02 -0.10860095862E+03 -0.25532760531E+02  0.12471489517E+03  0.00000000000E+00 0. -1.
          1    1    1    2  502    0 -0.17861594143E+02 -0.15247887500E+02  0.34918118013E+03  0.34997004325E+03  0.00000000000E+00 0. -1.
         22    1    3    3    0    0  0.92063193315E+02  0.13856190086E+03  0.43193342031E+03  0.46286230298E+03  0.00000000000E+00 0.  1.
         22    1    3    3    0    0 -0.18454715822E+02 -0.14713054738E+02  0.45354808025E+02  0.51128359320E+02  0.00000000000E+00 0.  1.
</event>
<event>
 7    1  0.6444902E-006  0.1793644E+03  0.7818608E-02  0.1314567E+00
          2   -1    0    0  502    0  0.00000000000E+00  0.00000000000E+00  0.11152809844E+04  0.11152809844E+04  0.00000000000E+00 0. -1.
          1   -1    0    0  501    0 -0.00000000000E+00 -0.00000000000E+00 -0.25305454039E+03  0.25305454039E+03  0.00000000000E+00 0. -1.
         25    2    1    2    0    0 -0.65450521929E+01 -0.17806657916E+03 -0.97751786377E+02  0.23861183248E+03  0.12501860077E+03 0.  0.
          2    1    1    2  501    0 -0.40326838552E+02  0.46689947543E+01 -0.71770407386E+02  0.82456320534E+02  0.00000000000E+00 0. -1.
          1    1    1    2  502    0  0.46871890745E+02  0.17339758441E+03  0.10317486378E+04  0.10472673718E+04  0.00000000000E+00 0. -1.
         22    1    3    3    0    0 -0.18271226882E+02 -0.97641564339E+02  0.14118226197E+02  0.10033462577E+03  0.00000000000E+00 0.  1.
         22    1    3    3    0    0  0.11726174689E+02 -0.80425014824E+02 -0.11187001257E+03  0.13827720671E+03  0.00000000000E+00 0.  1.
</event>
<event>
 7    1  0.6444902E-006  0.5542753E+02  0.7818608E-02  0.1487655E+00
          2   -1    0    0  502    0  0.00000000000E+00  0.00000000000E+00  0.10899385220E+03  0.10899385220E+03  0.00000000000E+00 0. -1.
          1   -1    0    0  501    0 -0.00000000000E+00 -0.00000000000E+00 -0.17872052529E+04  0.17872052529E+04  0.00000000000E+00 0. -1.
         25    2    1    2    0    0 -0.52759316373E+02  0.58529105546E+02 -0.12875065100E+03  0.19598851640E+03  0.12500226705E+03 0.  0.
          2    1    1    2  501    0  0.49183724608E+01 -0.32893702045E+02 -0.16148712681E+04  0.16152137315E+04  0.00000000000E+00 0. -1.
          1    1    1    2  502    0  0.47840943913E+02 -0.25635403502E+02  0.65410518345E+02  0.84996857220E+02  0.00000000000E+00 0. -1.
         22    1    3    3    0    0 -0.66067063369E+02  0.23586586311E+02 -0.14029488773E+03  0.15685611062E+03  0.00000000000E+00 0. -1.
         22    1    3    3    0    0  0.13307746996E+02  0.34942519235E+02  0.11544236727E+02  0.39132405781E+02  0.00000000000E+00 0. -1.
</event>
<event>
 7    1  0.6444902E-006  0.1265630E+03  0.7818608E-02  0.1327124E+00
          2   -1    0    0  502    0  0.00000000000E+00  0.00000000000E+00  0.36618119804E+03  0.36618119804E+03  0.00000000000E+00 0. -1.
          1   -1    0    0  501    0 -0.00000000000E+00 -0.00000000000E+00 -0.84119485591E+03  0.84119485591E+03  0.00000000000E+00 0. -1.
         25    2    1    2    0    0  0.12864712286E+03  0.10095377955E+01  0.25887182240E+02  0.18123533719E+03  0.12499999943E+03 0.  0.
          2    1    1    2  501    0 -0.10653578629E+02 -0.50319773094E+02 -0.74701574060E+03  0.74878441157E+03  0.00000000000E+00 0. -1.
          1    1    1    2  502    0 -0.11799354423E+03  0.49310235299E+02  0.24611490049E+03  0.27735630519E+03  0.00000000000E+00 0. -1.
         22    1    3    3    0    0  0.27936799469E+02 -0.43847679161E+02 -0.27416484900E+02  0.58777099083E+02  0.00000000000E+00 0. -1.
         22    1    3    3    0    0  0.10071032339E+03  0.44857216956E+02  0.53303667140E+02  0.12245823811E+03  0.00000000000E+00 0. -1.
</event>
<event>
 7    1  0.6444902E-006  0.1581402E+03  0.7818608E-02  0.1282540E+00
          2   -1    0    0  502    0  0.00000000000E+00  0.00000000000E+00  0.58510429068E+02  0.58510429068E+02  0.00000000000E+00 0. -1.
          1   -1    0    0  501    0 -0.00000000000E+00 -0.00000000000E+00 -0.30944022553E+04  0.30944022553E+04  0.00000000000E+00 0. -1.
         25    2    1    2    0    0 -0.67408831474E+02  0.77067184694E+02 -0.27257969580E+03  0.31687445540E+03  0.12500571348E+03 0.  0.
          2    1    1    2  501    0  0.10968821790E+03 -0.12228103146E+03 -0.27690067455E+04  0.27738749995E+04  0.00000000000E+00 0. -1.
          1    1    1    2  502    0 -0.42279386428E+02  0.45213846770E+02  0.56946151475E+01  0.62163229470E+02  0.00000000000E+00 0. -1.
         22    1    3    3    0    0 -0.20905014045E+02  0.10448636316E+03 -0.16335414944E+03  0.19503588859E+03  0.00000000000E+00 0.  1.
         22    1    3    3    0    0 -0.46503817429E+02 -0.27419178469E+02 -0.10922554637E+03  0.12183856681E+03  0.00000000000E+00 0.  1.
</event>
<event>
 7    1  0.6444902E-006  0.8237378E+02  0.7818608E-02  0.1333458E+00
          2   -1    0    0  502    0  0.00000000000E+00  0.00000000000E+00  0.60018214054E+03  0.60018214054E+03  0.00000000000E+00 0. -1.
          1   -1    0    0  501    0 -0.00000000000E+00 -0.00000000000E+00 -0.72051322840E+03  0.72051322840E+03  0.00000000000E+00 0. -1.
         25    2    1    2    0    0 -0.30688390278E+01 -0.13992640703E+02 -0.21992854594E+03  0.25337383002E+03  0.12499808260E+03 0.  0.
          2    1    1    2  501    0 -0.70245860747E+02 -0.25543760560E+02 -0.47796972065E+03  0.48377889424E+03  0.00000000000E+00 0. -1.
          1    1    1    2  502    0  0.73314699775E+02  0.39536401262E+02  0.57756717872E+03  0.58354264468E+03  0.00000000000E+00 0. -1.
         22    1    3    3    0    0  0.80651750131E+01  0.72047039017E+01  0.14297651935E+02  0.17927009152E+02  0.00000000000E+00 0.  1.
         22    1    3    3    0    0 -0.11134014041E+02 -0.21197344604E+02 -0.23422619787E+03  0.23544682087E+03  0.00000000000E+00 0.  1.
</event>
<event>
 7    1  0.6444902E-006  0.1054120E+03  0.7818608E-02  0.1451897E+00
          2   -1    0    0  502    0  0.00000000000E+00  0.00000000000E+00  0.18703995974E+04  0.18703995974E+04  0.00000000000E+00 0. -1.
          1   -1    0    0  501    0 -0.00000000000E+00 -0.00000000000E+00 -0.62468224092E+03  0.62468224092E+03  0.00000000000E+00 0. -1.
         25    2    1    2    0    0 -0.84459364350E+02  0.84319985624E+02  0.10411104416E+04  0.10553570592E+04  0.12499730631E+03 0.  0.
          2    1    1    2  501    0  0.85371821857E+02 -0.61742205502E+02 -0.61290800561E+03  0.62189763727E+03  0.00000000000E+00 0. -1.
          1    1    1    2  502    0 -0.91245750768E+00 -0.22577780122E+02  0.81751492054E+03  0.81782714191E+03  0.00000000000E+00 0. -1.
         22    1    3    3    0    0 -0.99942974553E+02  0.21728518198E+02  0.76564113882E+03  0.77244228271E+03  0.00000000000E+00 0. -1.
         22    1    3    3    0    0  0.15483610203E+02  0.62591467425E+02  0.27546930274E+03  0.28291477645E+03  0.00000000000E+00 0. -1.
</event>
<event>
 7    1  0.6444902E-006  0.7205043E+02  0.7818608E-02  0.1413707E+00
          2   -1    0    0  502    0  0.00000000000E+00  0.00000000000E+00  0.93943844000E+03  0.93943844000E+03  0.00000000000E+00 0. -1.
          1   -1    0    0  501    0 -0.00000000000E+00 -0.00000000000E+00 -0.36808105182E+03  0.36808105182E+03  0.00000000000E+00 0. -1.
         25    2    1    2    0    0  0.93588107251E+02 -0.51644063277E+02  0.39160211989E+03  0.42473553187E+03  0.12498883405E+03 0.  0.
          2    1    1    2  501    0 -0.49479815573E+02  0.52002403883E+02 -0.34691825431E+03  0.35426653431E+03  0.00000000000E+00 0. -1.
          1    1    1    2  502    0 -0.44108291678E+02 -0.35834060575E+00  0.52667352259E+03  0.52851742564E+03  0.00000000000E+00 0. -1.
         22    1    3    3    0    0 -0.18294905434E+02  0.12544014436E+02  0.15318496509E+02  0.26957600010E+02  0.00000000000E+00 0.  1.
         22    1    3    3    0    0  0.11188301269E+03 -0.64188077713E+02  0.37628362339E+03  0.39777793186E+03  0.00000000000E+00 0.  1.
</event>
<event>
 7    1  0.6444902E-006  0.5120455E+02  0.7818608E-02  0.1465238E+00
          2   -1    0    0  502    0  0.00000000000E+00  0.00000000000E+00  0.14762511541E+04  0.14762511541E+04  0.00000000000E+00 0. -1.
          1   -1    0    0  501    0 -0.00000000000E+00 -0.00000000000E+00 -0.26914262594E+04  0.26914262594E+04  0.00000000000E+00 0. -1.
         25    2    1    2    0    0  0.43085870957E+02  0.66569050826E+02  0.38043806752E+03  0.40822273095E+03  0.12499937615E+03 0.  0.
          2    1    1    2  501    0 -0.38294214637E+01 -0.51049697380E+02 -0.26768773511E+04  0.26773668200E+04  0.00000000000E+00 0. -1.
          1    1    1    2  502    0 -0.39256449493E+02 -0.15519353447E+02  0.10812641782E+04  0.10820878625E+04  0.00000000000E+00 0. -1.
         22    1    3    3    0    0  0.56960442946E+02 -0.15287145520E+02  0.10368191370E+03  0.11928171741E+03  0.00000000000E+00 0. -1.
         22    1    3    3    0    0 -0.13874571989E+02  0.81856196347E+02  0.27675615382E+03  0.28894101354E+03  0.00000000000E+00 0. -1.
</event>
<event>
 7    1  0.6444902E-006  0.8063036E+02  0.7818608E-02  0.1330631E+00
          2   -1    0    0  502    0  0.00000000000E+00  0.00000000000E+00  0.33311292645E+03  0.33311292645E+03  0.00000000000E+00 0. -1.
          1   -1    0    0  501    0 -0.00000000000E+00 -0.00000000000E+00 -0.55687687485E+03  0.55687687485E+03  0.00000000000E+00 0. -1.
         25    2    1    2    0    0 -0.16546532153E+02  0.45282587236E+02 -0.10883952607E+01  0.13398064819E+03  0.12500131621E+03 0.  0.
          2    1    1    2  501    0 -0.69688701683E+02 -0.35652091898E+02 -0.47902166682E+03  0.48537546712E+03  0.00000000000E+00 0. -1.
          1    1    1    2  502    0  0.86235233836E+02 -0.96304953379E+01  0.25634611368E+03  0.27063368599E+03  0.00000000000E+00 0. -1.
         22    1    3    3    0    0 -0.55412509825E+02  0.65092830484E+02  0.16290201839E+02  0.87022948131E+02  0.00000000000E+00 0. -1.
         22    1    3    3    0    0  0.38865977672E+02 -0.19810243248E+02 -0.17378597100E+02  0.46957700062E+02  0.00000000000E+00 0. -1.
</event>
<event>
 7    1  0.6444902E-006  0.7704641E+02  0.7818608E-02  0.1397123E+00
          2   -1    0    0  502    0  0.00000000000E+00  0.00000000000E+00  0.23297920860E+04  0.23297920860E+04  0.00000000000E+00 0. -1.
          1   -1    0    0  501    0 -0.00000000000E+00 -0.00000000000E+00 -0.66213052464E+03  0.66213052464E+03  0.00000000000E+00 0. -1.
         25    2    1    2    0    0  0.62083815162E+02  0.94229519433E+02  0.56931469793E+03  0.59369845203E+03  0.12500009690E+03 0.  0.
          2    1    1    2  501    0 -0.39752720855E+01 -0.46820387420E+02 -0.64828366205E+03  0.64998435208E+03  0.00000000000E+00 0. -1.
          1    1    1    2  502    0 -0.58108543076E+02 -0.47409132013E+02  0.17466305255E+04  0.17482398066E+04  0.00000000000E+00 0. -1.
         22    1    3    3    0    0 -0.20158544824E+02  0.73759041909E+02  0.18556871547E+03  0.20070503570E+03  0.00000000000E+00 0. -1.
         22    1    3    3    0    0  0.82242359985E+02  0.20470477523E+02  0.38374598246E+03  0.39299341633E+03  0.00000000000E+00 0. -1.
</event>
<event>
 7    1  0.6444902E-006  0.6843058E+02  0.7818608E-02  0.1389453E+00
          2   -1    0    0  502    0  0.00000000000E+00  0.00000000000E+00  0.19084193762E+04  0.19084193762E+04  0.00000000000E+00 0. -1.
          1   -1    0    0  501    0 -0.00000000000E+00 -0.00000000000E+00 -0.10133068694E+04  0.10133068694E+04  0.00000000000E+00 0. -1.
         25    2    1    2    0    0  0.11263390769E+03  0.51268950284E+02  0.15547772382E+03  0.23476209136E+03  0.12500005803E+03 0.  0.
          2    1    1    2  501    0 -0.51248905427E+02 -0.23189809940E+02 -0.97218648361E+03  0.97381249555E+03  0.00000000000E+00 0. -1.
          1    1    1    2  502    0 -0.61385002268E+02 -0.28079140344E+02  0.17118212666E+04  0.17131516586E+04  0.00000000000E+00 0. -1.
         22    1    3    3    0    0  0.63474690140E+02 -0.33595771606E+02  0.96599937827E+02  0.12037134271E+03  0.00000000000E+00 0.  1.
         22    1    3    3    0    0  0.49159217555E+02  0.84864721891E+02  0.58877785996E+02  0.11439074865E+03  0.00000000000E+00 0.  1.
</event>
<event>
 7    1  0.6444902E-006  0.8459540E+02  0.7818608E-02  0.1350279E+00
          2   -1    0    0  502    0  0.00000000000E+00  0.00000000000E+00  0.90735023089E+02  0.90735023089E+02  0.00000000000E+00 0. -1.
          1   -1    0    0  501    0 -0.00000000000E+00 -0.00000000000E+00 -0.15364558063E+04  0.15364558063E+04  0.00000000000E+00 0. -1.
         25    2    1    2    0    0 -0.29169454291E+00 -0.32949613962E+02 -0.42273700235E+03  0.44206187544E+03  0.12500546552E+03 0.  0.
          2    1    1    2  501    0  0.48432683032E+01  0.95725038523E+02 -0.10894109348E+04  0.10936191866E+04  0.00000000000E+00 0. -1.
          1    1    1    2  502    0 -0.45515737603E+01 -0.62775424561E+02  0.66427153953E+02  0.91509767428E+02  0.00000000000E+00 0. -1.
         22    1    3    3    0    0 -0.15691274394E+02 -0.74300012338E+02 -0.33909981667E+03  0.34749876776E+03  0.00000000000E+00 0. -1.
         22    1    3    3    0    0  0.15399579851E+02  0.41350398376E+02 -0.83637185678E+02  0.94563107677E+02  0.00000000000E+00 0. -1.
</event>
<event>
 7    1  0.6444902E-006  0.1303763E+03  0.7818608E-02  0.1370986E+00
          2   -1    0    0  502    0  0.00000000000E+00  0.00000000000E+00  0.96058558233E+02  0.96058558233E+02  0.00000000000E+00 0. -1.
          1   -1    0    0  501    0 -0.00000000000E+00 -0.00000000000E+00 -0.86170283290E+03  0.86170283290E+03  0.00000000000E+00 0. -1.
         25    2    1    2    0    0  0.68836493703E+02  0.12211906322E+03 -0.43554335607E+03  0.47431420713E+03  0.12499769441E+03 0.  0.
          2    1    1    2  501    0 -0.34208091694E+02  0.27954268948E+01 -0.35054344650E+03  0.35221969825E+03  0.00000000000E+00 0. -1.
          1    1    1    2  502    0 -0.34628402010E+02 -0.12491449012E+03  0.20442527907E+02  0.13122748574E+03  0.00000000000E+00 0. -1.
         22    1    3    3    0    0  0.70207258207E+02  0.12839793081E+03 -0.25767699056E+03  0.29633177218E+03  0.00000000000E+00 0.  1.
         22    1    3    3    0    0 -0.13707645037E+01 -0.62788675821E+01 -0.17786636551E+03  0.17798243495E+03  0.00000000000E+00 0.  1.
</event>
<event>
 7    1  0.6444902E-006  0.8280538E+02  0.7818608E-02  0.1359738E+00
          2   -1    0    0  502    0  0.00000000000E+00  0.00000000000E+00  0.16358565389E+04  0.16358565389E+04  0.00000000000E+00 0. -1.
          1   -1    0    0  501    0 -0.00000000000E+00 -0.00000000000E+00 -0.77412709983E+02  0.77412709983E+02  0.00000000000E+00 0. -1.
         25    2    1    2    0    0  0.12171084629E+03  0.35065634816E+02  0.16681928601E+03  0.24391965317E+03  0.12499997668E+03 0.  0.
          2    1    1    2  501    0 -0.62791636459E+02 -0.42218701425E+02 -0.79144321684E+00  0.75669245679E+02  0.00000000000E+00 0. -1.
          1    1    1    2  502    0 -0.58919209828E+02  0.71530666096E+01  0.13924159861E+04  0.13936803500E+04  0.00000000000E+00 0. -1.
         22    1    3    3    0    0  0.13432849198E+03 -0.48103014472E+01  0.14081897173E+03  0.19467220026E+03  0.00000000000E+00 0. -1.
         22    1    3    3    0    0 -0.12617645688E+02  0.39875936263E+02  0.26000314283E+02  0.49247452913E+02  0.00000000000E+00 0. -1.
</event>
<event>
 7    1  0.6444902E-006  0.1286026E+03  0.7818608E-02  0.1327715E+00
          2   -1    0    0  502    0  0.00000000000E+00  0.00000000000E+00  0.11840348102E+04  0.11840348102E+04  0.00000000000E+00 0. -1.
          1   -1    0    0  501    0 -0.00000000000E+00 -0.00000000000E+00 -0.14880321931E+04  0.14880321931E+04  0.00000000000E+00 0. -1.
         25    2    1    2    0    0  0.59370793895E+02 -0.63331093273E+02  0.19248155183E+03  0.24537551089E+03  0.12499709998E+03 0.  0.
          2    1    1    2  501    0  0.24793124025E+02 -0.43829331977E+02 -0.14563383319E+04  0.14572086488E+04  0.00000000000E+00 0. -1.
          1    1    1    2  502    0 -0.84163917920E+02  0.10716042525E+03  0.95985939715E+03  0.96948284364E+03  0.00000000000E+00 0. -1.
         22    1    3    3    0    0  0.40471375656E+02 -0.49129617745E+02  0.13792904569E+02  0.65129838045E+02  0.00000000000E+00 0. -1.
         22    1    3    3    0    0  0.18899418239E+02 -0.14201475528E+02  0.17868864726E+03  0.18024567284E+03  0.00000000000E+00 0. -1.
</event>
<event>
 7    1  0.6444902E-006  0.1379500E+03  0.7818608E-02  0.1251335E+00
          2   -1    0    0  502    0  0.00000000000E+00  0.00000000000E+00  0.22153321885E+04  0.22153321885E+04  0.00000000000E+00 0. -1.
          1   -1    0    0  501    0 -0.00000000000E+00 -0.00000000000E+00 -0.66187307264E+03  0.66187307264E+03  0.00000000000E+00 0. -1.
         25    2    1    2    0    0  0.20267683114E+03  0.58076221227E+02 -0.72740198432E+02  0.25566592220E+03  0.12499272759E+03 0.  0.
          2    1    1    2  501    0 -0.13174500093E+03  0.67669808422E+01 -0.48781712205E+03  0.50533957084E+03  0.00000000000E+00 0. -1.
          1    1    1    2  502    0 -0.70931830207E+02 -0.64843202069E+02  0.21140164364E+04  0.21161997681E+04  0.00000000000E+00 0. -1.
         22    1    3    3    0    0  0.10597840242E+03  0.86064852790E+02 -0.96534863336E+01  0.13686405834E+03  0.00000000000E+00 0. -1.
         22    1    3    3    0    0  0.96698428715E+02 -0.27988631563E+02 -0.63086712099E+02  0.11880186386E+03  0.00000000000E+00 0. -1.
</event>
<event>
 7    1  0.6444902E-006  0.1652490E+03  0.7818608E-02  0.1388127E+00
          2   -1    0    0  502    0  0.00000000000E+00  0.00000000000E+00  0.87597130532E+03  0.87597130532E+03  0.00000000000E+00 0. -1.
          1   -1    0    0  501    0 -0.00000000000E+00 -0.00000000000E+00 -0.17917860014E+04  0.17917860014E+04  0.00000000000E+00 0. -1.
         25    2    1    2    0    0 -0.24263939605E+02 -0.16829641348E+03  0.20602616894E+03  0.29493275342E+03  0.12500450072E+03 0.  0.
          2    1    1    2  501    0  0.92489537813E+00  0.16519639110E+03 -0.17432046417E+04  0.17510148845E+04  0.00000000000E+00 0. -1.
          1    1    1    2  502    0  0.23339044227E+02  0.31000223759E+01  0.62136377671E+03  0.62180966873E+03  0.00000000000E+00 0. -1.
         22    1    3    3    0    0 -0.35480590228E+02 -0.84028121483E+02  0.18664473697E+03  0.20773987417E+03  0.00000000000E+00 0.  1.
         22    1    3    3    0    0  0.11216650623E+02 -0.84268291997E+02  0.19381431969E+02  0.87192879253E+02  0.00000000000E+00 0.  1.
</event>
<event>
 7    1  0.6444902E-006  0.1110896E+03  0.7818608E-02  0.1273236E+00
          2   -1    0    0  502    0  0.00000000000E+00  0.00000000000E+00  0.14822841254E+03  0.14822841254E+03  0.00000000000E+00 0. -1.
          1   -1    0    0  501    0 -0.00000000000E+00 -0.00000000000E+00 -0.49097191541E+03  0.49097191541E+03  0.00000000000E+00 0. -1.
         25    2    1    2    0    0 -0.65595792408E+00  0.27157166076E+02 -0.19698353756E+03  0.23486884799E+03  0.12499167867E+03 0.  0.
          2    1    1    2  501    0  0.10178106457E+01  0.96300814159E+02 -0.23369273908E+03  0.25275913247E+03  0.00000000000E+00 0. -1.
          1    1    1    2  502    0 -0.36185272166E+00 -0.12345798023E+03  0.87932773766E+02  0.15157234749E+03  0.00000000000E+00 0. -1.
         22    1    3    3    0    0  0.22739543822E+02  0.62252703010E+02 -0.53080845414E+02  0.84912084152E+02  0.00000000000E+00 0. -1.
         22    1    3    3    0    0 -0.23395501746E+02 -0.35095536933E+02 -0.14390269214E+03  0.14995676384E+03  0.00000000000E+00 0. -1.
</event>
<event>
 7    1  0.6444902E-006  0.1302048E+03  0.7818608E-02  0.1227870E+00
          2   -1    0    0  502    0  0.00000000000E+00  0.00000000000E+00  0.16540963863E+04  0.16540963863E+04  0.00000000000E+00 0. -1.
          1   -1    0    0  501    0 -0.00000000000E+00 -0.00000000000E+00 -0.21559526623E+03  0.21559526623E+03  0.00000000000E+00 0. -1.
         25    2    1    2    0    0  0.13384192479E+02 -0.17840668183E+03  0.21797996245E+03  0.30846320070E+03  0.12500480561E+03 0.  0.
          2    1    1    2  501    0  0.87153030908E+02  0.95430810918E+02 -0.14227586895E+03  0.19221111663E+03  0.00000000000E+00 0. -1.
          1    1    1    2  502    0 -0.10053722339E+03  0.82975870916E+02  0.13627970266E+04  0.13690173352E+04  0.00000000000E+00 0. -1.
         22    1    3    3    0    0  0.67791676177E+02 -0.10265132207E+03  0.14418267840E+03  0.18953007685E+03  0.00000000000E+00 0. -1.
         22    1    3    3    0    0 -0.54407483698E+02 -0.75755359765E+02  0.73797284050E+02  0.11893312385E+03  0.00000000000E+00 0. -1.
</event>
<event>
 7    1  0.6444902E-006  0.5267268E+02  0.7818608E-02  0.1478724E+00
          2   -1    0    0  502    0  0.00000000000E+00  0.00000000000E+00  0.32487311596E+03  0.32487311596E+03  0.00000000000E+00 0. -1.
          1   -1    0    0  501    0 -0.00000000000E+00 -0.00000000000E+00 -0.89949078976E+02  0.89949078976E+02  0.00000000000E+00 0. -1.
         25    2    1    2    0    0  0.78958146764E+02 -0.13381252354E+02  0.13450394064E+03  0.20032401984E+03  0.12499982410E+03 0.  0.
          2    1    1    2  501    0 -0.43913487141E+02  0.26059948889E+02 -0.42725612238E+02  0.66580727167E+02  0.00000000000E+00 0. -1.
          1    1    1    2  502    0 -0.35044659623E+02 -0.12678696535E+02  0.14314570859E+03  0.14791744793E+03  0.00000000000E+00 0. -1.
         22    1    3    3    0    0  0.69433949824E+02 -0.11623305578E+02  0.51285917121E+01  0.70586663568E+02  0.00000000000E+00 0.  1.
         22    1    3    3    0    0  0.95241969405E+01 -0.17579467755E+01  0.12937534892E+03  0.12973735628E+03  0.00000000000E+00 0.  1.
</event>
<event>
 7    1  0.6444902E-006  0.1410061E+03  0.7818608E-02  0.1356672E+00
          2   -1    0    0  502    0  0.00000000000E+00  0.00000000000E+00  0.19969269085E+04  0.19969269085E+04  0.00000000000E+00 0. -1.
          1   -1    0    0  501    0 -0.00000000000E+00 -0.00000000000E+00 -0.42385299681E+03  0.42385299681E+03  0.00000000000E+00 0. -1.
         25    2    1    2    0    0  0.12648229149E+03  0.99486843934E+02  0.30860153431E+03  0.36980578181E+03  0.12500402834E+03 0.  0.
          2    1    1    2  501    0 -0.26016530847E+01 -0.35671409253E+02 -0.38950154946E+03  0.39114022430E+03  0.00000000000E+00 0. -1.
          1    1    1    2  502    0 -0.12388063841E+03 -0.63815434681E+02  0.16539739268E+04  0.16598338992E+04  0.00000000000E+00 0. -1.
         22    1    3    3    0    0  0.37339075686E+02  0.33501947579E+02  0.98385952316E+01  0.51121277574E+02  0.00000000000E+00 0.  1.
         22    1    3    3    0    0  0.89143215805E+02  0.65984896355E+02  0.29876293908E+03  0.31868450424E+03  0.00000000000E+00 0.  1.
</event>
<event>
 7    1  0.6444902E-006  0.7337304E+02  0.7818608E-02  0.1374740E+00
          2   -1    0    0  502    0  0.00000000000E+00  0.00000000000E+00  0.82242942342E+03  0.82242942342E+03  0.00000000000E+00 0. -1.
          1   -1    0    0  501    0 -0.00000000000E+00 -0.00000000000E+00 -0.27830266323E+02  0.27830266323E+02  0.00000000000E+00 0. -1.
         25    2    1    2    0    0 -0.75490438788E+01 -0.63547164796E+02  0.25512852713E+03  0.29121933518E+03  0.12499162217E+03 0.  0.
          2    1    1    2  501    0  0.59040315144E+02  0.32274610272E+01  0.14348074999E+03  0.15518666481E+03  0.00000000000E+00 0. -1.
          1    1    1    2  502    0 -0.51491271265E+02  0.60319703768E+02  0.39598987999E+03  0.40385368976E+03  0.00000000000E+00 0. -1.
         22    1    3    3    0    0  0.15594870885E+02 -0.62846571903E+02  0.25967163059E+03  0.26762333107E+03  0.00000000000E+00 0. -1.
         22    1    3    3    0    0 -0.23143914763E+02 -0.70059289302E+00 -0.45431034653E+01  0.23596004112E+02  0.00000000000E+00 0. -1.
</event>
<event>
 7    1  0.6444902E-006  0.7200643E+02  0.7818608E-02  0.1384720E+00
          2   -1    0    0  502    0  0.00000000000E+00  0.00000000000E+00  0.12291765540E+04  0.12291765540E+04  0.00000000000E+00 0. -1.
          1   -1    0    0  501    0 -0.00000000000E+00 -0.00000000000E+00 -0.13479401651E+03  0.13479401651E+03  0.00000000000E+00 0. -1.
         25    2    1    2    0    0  0.86495559662E+02 -0.71866206982E+02  0.35622858416E+03  0.39391866565E+03  0.12500750950E+03 0.  0.
          2    1    1    2  501    0 -0.31559169242E+02  0.63704025569E+02 -0.10405024983E+03  0.12601840551E+03  0.00000000000E+00 0. -1.
          1    1    1    2  502    0 -0.54936390420E+02  0.81621814126E+01  0.84220420314E+03  0.84403349932E+03  0.00000000000E+00 0. -1.
         22    1    3    3    0    0  0.13797646778E+02 -0.63646178490E+02  0.28303304560E+03  0.29042884842E+03  0.00000000000E+00 0. -1.
         22    1    3    3    0    0  0.72697912884E+02 -0.82200284922E+01  0.73195538557E+02  0.10348981723E+03  0.00000000000E+00 0. -1.
</event>
<event>
 7    1  0.6444902E-006  0.5727158E+02  0.7818608E-02  0.1556694E+00
          2   -1    0    0  502    0  0.00000000000E+00  0.00000000000E+00  0.60450543172E+03  0.60450543172E+03  0.00000000000E+00 0. -1.
          1   -1    0    0  501    0 -0.00000000000E+00 -0.00000000000E+00 -0.23040422877E+03  0.23040422877E+03  0.00000000000E+00 0. -1.
         25    2    1    2    0    0 -0.43473895189E+02 -0.53242674208E+02 -0.45302961720E+01  0.14272688213E+03  0.12500270949E+03 0.  0.
          2    1    1    2  501    0  0.45905668343E+02  0.33079274076E+02 -0.15146950834E+03  0.16169285920E+03  0.00000000000E+00 0. -1.
          1    1    1    2  502    0 -0.24317731538E+01  0.20163400132E+02  0.53010100746E+03  0.53048991917E+03  0.00000000000E+00 0. -1.
         22    1    3    3    0    0 -0.81525186947E+02 -0.78722386782E+01  0.76892934226E+01  0.82264533560E+02  0.00000000000E+00 0. -1.
         22    1    3    3    0    0  0.38051291757E+02 -0.45370435530E+02 -0.12219589595E+02  0.60462348568E+02  0.00000000000E+00 0. -1.
</event>
<event>
 7    1  0.6444902E-006  0.1235983E+03  0.7818608E-02  0.1268282E+00
          2   -1    0    0  502    0  0.00000000000E+00  0.00000000000E+00  0.56318932208E+03  0.56318932208E+03  0.00000000000E+00 0. -1.
          1   -1    0    0  501    0 -0.00000000000E+00 -0.00000000000E+00 -0.89836243738E+03  0.89836243738E+03  0.00000000000E+00 0. -1.
         25    2    1    2    0    0  0.16466153472E+03  0.61472399651E+02 -0.20254976235E+02  0.21662797244E+03  0.12500054978E+03 0.  0.
          2    1    1    2  501    0 -0.12072109428E+03  0.17989320767E+02 -0.77063916297E+03  0.78024478068E+03  0.00000000000E+00 0. -1.
          1    1    1    2  502    0 -0.43940440443E+02 -0.79461720418E+02  0.45572102390E+03  0.46467900635E+03  0.00000000000E+00 0. -1.
         22    1    3    3    0    0  0.12139494382E+03  0.19551714700E+02  0.42059320774E+02  0.12995379331E+03  0.00000000000E+00 0. -1.
         22    1    3    3    0    0  0.43266590901E+02  0.41920684951E+02 -0.62314297008E+02  0.86674179123E+02  0.00000000000E+00 0. -1.
</event>
<event>
 7    1  0.6444902E-006  0.9359279E+02  0.7818608E-02  0.1428341E+00
          2   -1    0    0  502    0  0.00000000000E+00  0.00000000000E+00  0.55972987779E+03  0.55972987779E+03  0.00000000000E+00 0. -1.
          1   -1    0    0  501    0 -0.00000000000E+00 -0.00000000000E+00 -0.96966689592E+03  0.96966689592E+03  0.00000000000E+00 0. -1.
         25    2    1    2    0    0  0.65422053213E+02  0.10652729569E+02 -0.25099251080E+03  0.28812366567E+03  0.12499792217E+03 0.  0.
          2    1    1    2  501    0  0.28595514725E+02 -0.10161648341E+02 -0.69569193836E+03  0.69635352778E+03  0.00000000000E+00 0. -1.
          1    1    1    2  502    0 -0.94017567938E+02 -0.49108122819E+00  0.53674743103E+03  0.54491958027E+03  0.00000000000E+00 0. -1.
         22    1    3    3    0    0 -0.22380365257E+02 -0.25239254870E+02 -0.22026899646E+02  0.40287529627E+02  0.00000000000E+00 0.  1.
         22    1    3    3    0    0  0.87802418470E+02  0.35891984439E+02 -0.22896561116E+03  0.24783613604E+03  0.00000000000E+00 0.  1.
</event>
<event>
 7    1  0.6444902E-006  0.8394053E+02  0.7818608E-02  0.1474807E+00
          2   -1    0    0  502    0  0.00000000000E+00  0.00000000000E+00  0.14350769090E+04  0.14350769090E+04  0.00000000000E+00 0. -1.
          1   -1    0    0  501    0 -0.00000000000E+00 -0.00000000000E+00 -0.36042739598E+03  0.36042739598E+03  0.00000000000E+00 0. -1.
         25    2    1    2    0    0 -0.66052680736E+02 -0.28084185872E+02 -0.69819821134E+01  0.14431593716E+03  0.12500665389E+03 0.  0.
          2    1    1    2  501    0 -0.59736432096E-01 -0.24044458006E+02 -0.28297122079E+03  0.28399093528E+03  0.00000000000E+00 0. -1.
          1    1    1    2  502    0  0.66112417168E+02  0.52128643879E+02  0.13646027159E+04  0.13671974325E+04  0.00000000000E+00 0. -1.
         22    1    3    3    0    0 -0.10308331074E+03 -0.18770489907E+02  0.30973085083E+01  0.10482410775E+03  0.00000000000E+00 0.  1.
         22    1    3    3    0    0  0.37030630006E+02 -0.93136959655E+01 -0.10079290622E+02  0.39491829416E+02  0.00000000000E+00 0.  1.
</event>
<event>
 7    1  0.6444902E-006  0.1520353E+03  0.7818608E-02  0.1236373E+00
          2   -1    0    0  502    0  0.00000000000E+00  0.00000000000E+00  0.82261757242E+03  0.82261757242E+03  0.00000000000E+00 0. -1.
          1   -1    0    0  501    0 -0.00000000000E+00 -0.00000000000E+00 -0.82309776627E+03  0.82309776627E+03  0.00000000000E+00 0. -1.
         25    2    1    2    0    0  0.36149087766E+02 -0.13943161685E+03 -0.16472846165E+03  0.25200888276E+03  0.12500031436E+03 0.  0.
          2    1    1    2  501    0 -0.10140952696E+03  0.49186572968E+00 -0.60289077886E+03  0.61136030729E+03  0.00000000000E+00 0. -1.
          1    1    1    2  502    0  0.65260439195E+02  0.13893975112E+03  0.76713904666E+03  0.78234614863E+03  0.00000000000E+00 0. -1.
         22    1    3    3    0    0 -0.20185275371E+02 -0.46481096503E+02  0.45093963675E+01  0.50875065892E+02  0.00000000000E+00 0. -1.
         22    1    3    3    0    0  0.56334363137E+02 -0.92950520343E+02 -0.16923785802E+03  0.20113381687E+03  0.00000000000E+00 0. -1.
</event>
<event>
 7    1  0.6444902E-006  0.1746626E+03  0.7818608E-02  0.1225424E+00
          2   -1    0    0  502    0  0.00000000000E+00  0.00000000000E+00  0.10055271984E+04  0.10055271984E+04  0.00000000000E+00 0. -1.
          1   -1    0    0  501    0 -0.00000000000E+00 -0.00000000000E+00 -0.22291754522E+03  0.22291754522E+03  0.00000000000E+00 0. -1.
         25    2    1    2    0    0 -0.20879501024E+02  0.10410262555E+03  0.22808211268E+03  0.28092860069E+03  0.12500447333E+03 0.  0.
          2    1    1    2  501    0  0.10457981369E+03 -0.15663716616E+03 -0.14709089520E+03  0.23897253127E+03  0.00000000000E+00 0. -1.
          1    1    1    2  502    0 -0.83700312666E+02  0.52534540608E+02  0.70161843569E+03  0.70854361164E+03  0.00000000000E+00 0. -1.
         22    1    3    3    0    0  0.28136026486E+02  0.37756142239E+02  0.10511642401E+02  0.48245796596E+02  0.00000000000E+00 0.  1.
         22    1    3    3    0    0 -0.49015527509E+02  0.66346483311E+02  0.21757047028E+03  0.23268280409E+03  0.00000000000E+00 0.  1.
</event>
<event>
 7    1  0.6444902E-006  0.1378525E+03  0.7818608E-02  0.1237263E+00
          2   -1    0    0  502    0  0.00000000000E+00  0.00000000000E+00  0.19670689985E+04  0.19670689985E+04  0.00000000000E+00 0. -1.
          1   -1    0    0  501    0 -0.00000000000E+00 -0.00000000000E+00 -0.15800456401E+03  0.15800456401E+03  0.00000000000E+00 0. -1.
         25    2    1    2    0    0  0.75170103212E+02  0.20116211147E+02  0.11367615483E+04  0.11462577922E+04  0.12499960817E+03 0.  0.
          2    1    1    2  501    0 -0.55199734385E+02 -0.12913530073E+03 -0.11637398769E+03  0.18238925841E+03  0.00000000000E+00 0. -1.
          1    1    1    2  502    0 -0.19970368827E+02  0.10901908958E+03  0.78867687387E+03  0.79642651193E+03  0.00000000000E+00 0. -1.
         22    1    3    3    0    0  0.78870983159E+02  0.14798919504E+02  0.33526485642E+03  0.34473491838E+03  0.00000000000E+00 0.  1.
         22    1    3    3    0    0 -0.37008799465E+01  0.53172916425E+01  0.80149669189E+03  0.80152287380E+03  0.00000000000E+00 0.  1.
</event>
<event>
 7    1  0.6444902E-006  0.4992677E+02  0.7818608E-02  0.1485370E+00
          2   -1    0    0  502    0  0.00000000000E+00  0.00000000000E+00  0.86263274340E+03  0.86263274340E+03  0.00000000000E+00 0. -1.
          1   -1    0    0  501    0 -0.00000000000E+00 -0.00000000000E+00 -0.21302880906E+03  0.21302880906E+03  0.00000000000E+00 0. -1.
         25    2    1    2    0    0  0.67752699473E+01  0.21744341083E+02  0.51348128571E+02  0.13704124942E+03  0.12499981233E+03 0.  0.
          2    1    1    2  501    0 -0.29159475704E+02  0.23609448137E+02 -0.16726968620E+03  0.17142587023E+03  0.00000000000E+00 0. -1.
          1    1    1    2  502    0  0.22384205756E+02 -0.45353789219E+02  0.76552549197E+03  0.76719443280E+03  0.00000000000E+00 0. -1.
         22    1    3    3    0    0  0.52014972484E+02 -0.93594616065E+01  0.61628526218E+02  0.81186403590E+02  0.00000000000E+00 0.  1.
         22    1    3    3    0    0 -0.45239702537E+02  0.31103802689E+02 -0.10280397647E+02  0.55854845834E+02  0.00000000000E+00 0.  1.
</event>
<event>
 7    1  0.9409556E-006  0.5507790E+02  0.7818608E-02  0.1424288E+00
          2   -1    0    0  502    0  0.00000000000E+00  0.00000000000E+00  0.20865231947E+04  0.20865231947E+04  0.00000000000E+00 0. -1.
          1   -1    0    0  501    0 -0.00000000000E+00 -0.00000000000E+00 -0.76898232879E+03  0.76898232879E+03  0.00000000000E+00 0. -1.
         25    2    1    2    0    0 -0.20752775258E+02  0.46811201102E+02 -0.63582673575E+02  0.14930788625E+03  0.12501248853E+03 0.  0.
          2    1    1    2  501    0  0.55479399451E+02 -0.65266437697E+01 -0.66101268555E+03  0.66336892548E+03  0.00000000000E+00 0. -1.
          1    1    1    2  502    0 -0.34726624193E+02 -0.40284557332E+02  0.20421362250E+04  0.20428287118E+04  0.00000000000E+00 0. -1.
         22    1    3    3    0    0  0.51644219961E+02  0.60494174832E+01 -0.25452598272E+02  0.57892621862E+02  0.00000000000E+00 0. -1.
         22    1    3    3    0    0 -0.72396995219E+02  0.40761783619E+02 -0.38130075302E+02  0.91415264388E+02  0.00000000000E+00 0. -1.
</event>
<event>
 7    1  0.6444902E-006  0.3850976E+02  0.7818608E-02  0.1565670E+00
          2   -1    0    0  502    0  0.00000000000E+00  0.00000000000E+00  0.11702439494E+04  0.11702439494E+04  0.00000000000E+00 0. -1.
          1   -1    0    0  501    0 -0.00000000000E+00 -0.00000000000E+00 -0.52630203838E+02  0.52630203838E+02  0.00000000000E+00 0. -1.
         25    2    1    2    0    0  0.40200995608E+02  0.76372930273E+01  0.40283515792E+03  0.42376334469E+03  0.12499903822E+03 0.  0.
          2    1    1    2  501    0 -0.16572932595E+02  0.23230589684E+02 -0.36777513014E+02  0.46550057523E+02  0.00000000000E+00 0. -1.
          1    1    1    2  502    0 -0.23628063014E+02 -0.30867882712E+02  0.75155610065E+03  0.75256075102E+03  0.00000000000E+00 0. -1.
         22    1    3    3    0    0 -0.28319100215E+02 -0.38483412785E+02  0.12160523472E+03  0.13065518592E+03  0.00000000000E+00 0. -1.
         22    1    3    3    0    0  0.68520095824E+02  0.46120705812E+02  0.28122992320E+03  0.29310815877E+03  0.00000000000E+00 0. -1.
</event>
<event>
 7    1  0.6444902E-006  0.1430589E+03  0.7818608E-02  0.1226987E+00
          2   -1    0    0  502    0  0.00000000000E+00  0.00000000000E+00  0.22849880265E+04  0.22849880265E+04  0.00000000000E+00 0. -1.
          1   -1    0    0  501    0 -0.00000000000E+00 -0.00000000000E+00 -0.94827819865E+03  0.94827819865E+03  0.00000000000E+00 0. -1.
         25    2    1    2    0    0 -0.16733137275E+03 -0.19559524190E+03  0.23647800533E+03  0.37121968168E+03  0.12499967240E+03 0.  0.
          2    1    1    2  501    0  0.10393382593E+03  0.95232733198E+02 -0.87347307728E+03  0.88477496030E+03  0.00000000000E+00 0. -1.
          1    1    1    2  502    0  0.63397546815E+02  0.10036250871E+03  0.19737048998E+04  0.19772715832E+04  0.00000000000E+00 0. -1.
         22    1    3    3    0    0 -0.15909565588E+03 -0.15886908059E+03  0.24510355433E+03  0.33260571979E+03  0.00000000000E+00 0. -1.
         22    1    3    3    0    0 -0.82357168638E+01 -0.36726161312E+02 -0.86255490082E+01  0.38613961888E+02  0.00000000000E+00 0. -1.
</event>
<event>
 7    1  0.6444902E-006  0.4400496E+02  0.7818608E-02  0.1539188E+00
          2   -1    0    0  502    0  0.00000000000E+00  0.00000000000E+00  0.27895191781E+03  0.27895191781E+03  0.00000000000E+00 0. -1.
          1   -1    0    0  501    0 -0.00000000000E+00 -0.00000000000E+00 -0.10878009269E+04  0.10878009269E+04  0.00000000000E+00 0. -1.
         25    2    1    2    0    0  0.34952412557E+02 -0.63729592844E+02 -0.32528028238E+02  0.14820911123E+03  0.12499894352E+03 0.  0.
          2    1    1    2  501    0 -0.16684409375E+02  0.24434256474E+02 -0.99508717391E+03  0.99552693890E+03  0.00000000000E+00 0. -1.
          1    1    1    2  502    0 -0.18268003182E+02  0.39295336370E+02  0.21876619310E+03  0.22301679453E+03  0.00000000000E+00 0. -1.
         22    1    3    3    0    0  0.99808135427E+01 -0.71811275648E+02 -0.71104986630E+02  0.10154996343E+03  0.00000000000E+00 0.  1.
         22    1    3    3    0    0  0.24971599014E+02  0.80816828037E+01  0.38576958392E+02  0.46659147796E+02  0.00000000000E+00 0.  1.
</event>
<event>
 7    1  0.6444902E-006  0.1174967E+03  0.7818608E-02  0.1450619E+00
          2   -1    0    0  502    0  0.00000000000E+00  0.00000000000E+00  0.12494438457E+04  0.12494438457E+04  0.00000000000E+00 0. -1.
          1   -1    0    0  501    0 -0.00000000000E+00 -0.00000000000E+00 -0.38648418312E+03  0.38648418312E+03  0.00000000000E+00 0. -1.
         25    2    1    2    0    0 -0.10632461827E+03  0.22711563198E+02  0.32221022495E+03  0.36230419372E+03  0.12499664062E+03 0.  0.
          2    1    1    2  501    0 -0.12909217238E+02 -0.15877889178E+02 -0.36221648413E+03  0.36279406918E+03  0.00000000000E+00 0. -1.
          1    1    1    2  502    0  0.11923383551E+03 -0.68336740205E+01  0.90296592178E+03  0.91082976594E+03  0.00000000000E+00 0. -1.
         22    1    3    3    0    0 -0.95341285548E+02  0.20050257842E+02  0.99319145370E+02  0.13912679902E+03  0.00000000000E+00 0.  1.
         22    1    3    3    0    0 -0.10983332720E+02  0.26613053564E+01  0.22289107958E+03  0.22317739469E+03  0.00000000000E+00 0.  1.
</event>
<event>
 7    1  0.6444902E-006  0.5523161E+02  0.7818608E-02  0.1461528E+00
          2   -1    0    0  502    0  0.00000000000E+00  0.00000000000E+00  0.17481511604E+04  0.17481511604E+04  0.00000000000E+00 0. -1.
          1   -1    0    0  501    0 -0.00000000000E+00 -0.00000000000E+00 -0.12451198257E+03  0.12451198257E+03  0.00000000000E+00 0. -1.
         25    2    1    2    0    0 -0.14947452548E+02 -0.77963333215E+01  0.31472172195E+03  0.33905747715E+03  0.12500400553E+03 0.  0.
          2    1    1    2  501    0 -0.34642807228E+02 -0.20391558198E+02 -0.10815588993E+03  0.11538473150E+03  0.00000000000E+00 0. -1.
          1    1    1    2  502    0  0.49590259776E+02  0.28187891519E+02  0.14170733458E+04  0.14182209343E+04  0.00000000000E+00 0. -1.
         22    1    3    3    0    0 -0.40743329731E+02 -0.33713541469E+02  0.53273765926E+02  0.75064744933E+02  0.00000000000E+00 0. -1.
         22    1    3    3    0    0  0.25795877183E+02  0.25917208147E+02  0.26144795602E+03  0.26399273222E+03  0.00000000000E+00 0. -1.
</event>
<event>
 7    1  0.6444902E-006  0.8001140E+02  0.7818608E-02  0.1388834E+00
          2   -1    0    0  502    0  0.00000000000E+00  0.00000000000E+00  0.53285214622E+03  0.53285214622E+03  0.00000000000E+00 0. -1.
          1   -1    0    0  501    0 -0.00000000000E+00 -0.00000000000E+00 -0.11501718543E+04  0.11501718543E+04  0.00000000000E+00 0. -1.
         25    2    1    2    0    0  0.37113897977E+02  0.22051782755E+02  0.85748146861E+02  0.15760741973E+03  0.12499452595E+03 0.  0.
          2    1    1    2  501    0  0.47081020093E+02 -0.11004807743E+02 -0.11093257269E+04  0.11103788978E+04  0.00000000000E+00 0. -1.
          1    1    1    2  502    0 -0.84194918070E+02 -0.11046975012E+02  0.40625787190E+03  0.41503768307E+03  0.00000000000E+00 0. -1.
         22    1    3    3    0    0 -0.21437821936E+02 -0.22522487355E+02 -0.13629697473E+02  0.33950129591E+02  0.00000000000E+00 0.  1.
         22    1    3    3    0    0  0.58551719913E+02  0.44574270110E+02  0.99377844333E+02  0.12365729014E+03  0.00000000000E+00 0.  1.
</event>
<event>
 7    1  0.6444902E-006  0.1050329E+03  0.7818608E-02  0.1289376E+00
          2   -1    0    0  502    0  0.00000000000E+00  0.00000000000E+00  0.19083480399E+04  0.19083480399E+04  0.00000000000E+00 0. -1.
          1   -1    0    0  501    0 -0.00000000000E+00 -0.00000000000E+00 -0.28557809943E+02  0.28557809943E+02  0.00000000000E+00 0. -1.
         25    2    1    2    0    0 -0.11730602178E+03 -0.37076782443E+02  0.12275329016E+04  0.12399984034E+04  0.12499450144E+03 0.  0.
          2    1    1    2  501    0  0.95423579462E+02 -0.47524272726E+02  0.13349480530E+03  0.17083641022E+03  0.00000000000E+00 0. -1.
          1    1    1    2  502    0  0.21882442323E+02  0.84601055169E+02  0.51876252306E+03  0.52607103622E+03  0.00000000000E+00 0. -1.
         22    1    3    3    0    0 -0.11332934874E+03 -0.32241723271E+02  0.12280752076E+04  0.12337146289E+04  0.00000000000E+00 0. -1.
         22    1    3    3    0    0 -0.39766730430E+01 -0.48350591718E+01 -0.54230605163E+00  0.62837744660E+01  0.00000000000E+00 0. -1.
</event>
<event>
 7    1  0.6444902E-006  0.1255859E+03  0.7818608E-02  0.1255365E+00
          2   -1    0    0  502    0  0.00000000000E+00  0.00000000000E+00  0.30971198606E+04  0.30971198606E+04  0.00000000000E+00 0. -1.
          1   -1    0    0  501    0 -0.00000000000E+00 -0.00000000000E+00 -0.11615453807E+04  0.11615453807E+04  0.00000000000E+00 0. -1.
         25    2    1    2    0    0 -0.91483689573E+02 -0.17875796021E+03 -0.56413262235E+03  0.61171415502E+03  0.12499967219E+03 0.  0.
          2    1    1    2  501    0 -0.71119533013E+01  0.10117214945E+03 -0.56784656446E+03  0.57683282194E+03  0.00000000000E+00 0. -1.
          1    1    1    2  502    0  0.98595642874E+02  0.77585810757E+02  0.30675536667E+04  0.30701182643E+04  0.00000000000E+00 0. -1.
         22    1    3    3    0    0 -0.56047242066E+01  0.29905241417E+01  0.50261549629E+01  0.81005186122E+01  0.00000000000E+00 0. -1.
         22    1    3    3    0    0 -0.85878965366E+02 -0.18174848435E+03 -0.56915877732E+03  0.60361363640E+03  0.00000000000E+00 0. -1.
</event>
<event>
 7    1  0.6444902E-006  0.3016180E+03  0.7818608E-02  0.1294541E+00
          2   -1    0    0  502    0  0.00000000000E+00  0.00000000000E+00  0.21565254596E+04  0.21565254596E+04  0.00000000000E+00 0. -1.
          1   -1    0    0  501    0 -0.00000000000E+00 -0.00000000000E+00 -0.22480165228E+03  0.22480165228E+03  0.00000000000E+00 0. -1.
         25    2    1    2    0    0 -0.99706699377E+02 -0.30777626164E+03  0.30476991666E+03  0.46171455782E+03  0.12501191013E+03 0.  0.
          2    1    1    2  501    0  0.20745817051E+02  0.20260371694E+02 -0.13221362571E+03  0.13535624999E+03  0.00000000000E+00 0. -1.
          1    1    1    2  502    0  0.78960882325E+02  0.28751588995E+03  0.17591675163E+04  0.17842563040E+04  0.00000000000E+00 0. -1.
         22    1    3    3    0    0 -0.73076606838E+02 -0.99700711856E+02  0.17766826459E+03  0.21644037205E+03  0.00000000000E+00 0.  1.
         22    1    3    3    0    0 -0.26630092539E+02 -0.20807554978E+03  0.12710165207E+03  0.24527418577E+03  0.00000000000E+00 0.  1.
</event>
<event>
 7    1  0.6444902E-006  0.1390044E+03  0.7818608E-02  0.1303835E+00
          2   -1    0    0  502    0  0.00000000000E+00  0.00000000000E+00  0.13796177119E+04  0.13796177119E+04  0.00000000000E+00 0. -1.
          1   -1    0    0  501    0 -0.00000000000E+00 -0.00000000000E+00 -0.14917060108E+03  0.14917060108E+03  0.00000000000E+00 0. -1.
         25    2    1    2    0    0 -0.62033114229E+02 -0.17468684676E+03  0.56752251974E+03  0.60997467724E+03  0.12499477895E+03 0.  0.
          2    1    1    2  501    0  0.20786110430E+02  0.53878090295E+02 -0.11595642321E+03  0.12954073909E+03  0.00000000000E+00 0. -1.
          1    1    1    2  502    0  0.41247003799E+02  0.12080875647E+03  0.77888101427E+03  0.78927289663E+03  0.00000000000E+00 0. -1.
         22    1    3    3    0    0  0.37403173397E+02 -0.62586099446E+02  0.21098097356E+03  0.22322407672E+03  0.00000000000E+00 0.  1.
         22    1    3    3    0    0 -0.99436287626E+02 -0.11210074731E+03  0.35654154618E+03  0.38675060052E+03  0.00000000000E+00 0.  1.
</event>
<event>
 7    1  0.6444902E-006  0.8340507E+02  0.7818608E-02  0.1336583E+00
          2   -1    0    0  502    0  0.00000000000E+00  0.00000000000E+00  0.15172423842E+03  0.15172423842E+03  0.00000000000E+00 0. -1.
          1   -1    0    0  501    0 -0.00000000000E+00 -0.00000000000E+00 -0.35221362224E+03  0.35221362224E+03  0.00000000000E+00 0. -1.
         25    2    1    2    0    0 -0.64826714451E+02  0.18892077520E+02 -0.33945910060E+02  0.14607206109E+03  0.12500123488E+03 0.  0.
          2    1    1    2  501    0  0.27335526492E+02  0.66431467542E+02 -0.23272559290E+03  0.24356020298E+03  0.00000000000E+00 0. -1.
          1    1    1    2  502    0  0.37491187959E+02 -0.85323545062E+02  0.66182119137E+02  0.11430559658E+03  0.00000000000E+00 0. -1.
         22    1    3    3    0    0  0.25065121316E+02 -0.18358621727E+02 -0.37505165084E+02  0.48702532853E+02  0.00000000000E+00 0. -1.
         22    1    3    3    0    0 -0.89891835767E+02  0.37250699247E+02  0.35592550241E+01  0.97369528233E+02  0.00000000000E+00 0. -1.
</event>
<event>
 7    1  0.6444902E-006  0.1401854E+03  0.7818608E-02  0.1307909E+00
          2   -1    0    0  502    0  0.00000000000E+00  0.00000000000E+00  0.31638634645E+04  0.31638634645E+04  0.00000000000E+00 0. -1.
          1   -1    0    0  501    0 -0.00000000000E+00 -0.00000000000E+00 -0.82379793769E+02  0.82379793769E+02  0.00000000000E+00 0. -1.
         25    2    1    2    0    0  0.18377480654E+03  0.41211384636E+02  0.79275782326E+03  0.82435477079E+03  0.12499705610E+03 0.  0.
          2    1    1    2  501    0 -0.55115241076E+02 -0.24703538258E+01 -0.52886074652E+02  0.76424664468E+02  0.00000000000E+00 0. -1.
          1    1    1    2  502    0 -0.12865956546E+03 -0.38741030810E+02  0.23416119221E+04  0.23454638230E+04  0.00000000000E+00 0. -1.
         22    1    3    3    0    0  0.15063818606E+03 -0.23921191800E+02  0.55951293395E+03  0.57993000420E+03  0.00000000000E+00 0.  1.
         22    1    3    3    0    0  0.33136620477E+02  0.65132576435E+02  0.23324488931E+03  0.24442476658E+03  0.00000000000E+00 0.  1.
</event>
<event>
 7    1  0.6444902E-006  0.7707458E+02  0.7818608E-02  0.1359714E+00
          2   -1    0    0  502    0  0.00000000000E+00  0.00000000000E+00  0.19439028345E+04  0.19439028345E+04  0.00000000000E+00 0. -1.
          1   -1    0    0  501    0 -0.00000000000E+00 -0.00000000000E+00 -0.14135734580E+03  0.14135734580E+03  0.00000000000E+00 0. -1.
         25    2    1    2    0    0  0.49334783614E+02 -0.44941913255E+02  0.26180069186E+03  0.29768858395E+03  0.12500077725E+03 0.  0.
          2    1    1    2  501    0  0.28608735603E+02  0.57001152854E+02 -0.11417126059E+03  0.13077716897E+03  0.00000000000E+00 0. -1.
          1    1    1    2  502    0 -0.77943519217E+02 -0.12059239599E+02  0.16549160574E+04  0.16567944273E+04  0.00000000000E+00 0. -1.
         22    1    3    3    0    0 -0.35871067301E+02 -0.43631172272E+02  0.10467382703E+03  0.11894125747E+03  0.00000000000E+00 0. -1.
         22    1    3    3    0    0  0.85205850916E+02 -0.13107409834E+01  0.15712686483E+03  0.17874732648E+03  0.00000000000E+00 0. -1.
</event>
<event>
 7    1  0.6444902E-006  0.3040831E+02  0.7818608E-02  0.1597198E+00
          2   -1    0    0  502    0  0.00000000000E+00  0.00000000000E+00  0.32783518601E+03  0.32783518601E+03  0.00000000000E+00 0. -1.
          1   -1    0    0  501    0 -0.00000000000E+00 -0.00000000000E+00 -0.49353013995E+03  0.49353013995E+03  0.00000000000E+00 0. -1.
         25    2    1    2    0    0  0.43924410528E+02  0.18175357516E+02 -0.14354022355E+03  0.19618536997E+03  0.12500082460E+03 0.  0.
          2    1    1    2  501    0 -0.15235260006E+02 -0.26074384567E+02 -0.32222541488E+03  0.32363745870E+03  0.00000000000E+00 0. -1.
          1    1    1    2  502    0 -0.28689150522E+02  0.78990270509E+01  0.30007068449E+03  0.30154249730E+03  0.00000000000E+00 0. -1.
         22    1    3    3    0    0  0.47744412318E+02 -0.46788789490E+02 -0.88789153643E+02  0.11114060255E+03  0.00000000000E+00 0.  1.
         22    1    3    3    0    0 -0.38200017903E+01  0.64964147005E+02 -0.54751069905E+02  0.85044767420E+02  0.00000000000E+00 0.  1.
</event>
<event>
 7    1  0.6444902E-006  0.1394856E+03  0.7818608E-02  0.1349351E+00
          2   -1    0    0  502    0  0.00000000000E+00  0.00000000000E+00  0.17974208501E+03  0.17974208501E+03  0.00000000000E+00 0. -1.
          1   -1    0    0  501    0 -0.00000000000E+00 -0.00000000000E+00 -0.12293144215E+04  0.12293144215E+04  0.00000000000E+00 0. -1.
         25    2    1    2    0    0 -0.95930592119E+02  0.38886900211E+02 -0.55953335294E+03  0.58259547842E+03  0.12500019564E+03 0.  0.
          2    1    1    2  501    0 -0.37885466536E+02  0.67114237036E+01 -0.62785307321E+03  0.62903086834E+03  0.00000000000E+00 0. -1.
          1    1    1    2  502    0  0.13381605865E+03 -0.45598323914E+02  0.13781408962E+03  0.19743015979E+03  0.00000000000E+00 0. -1.
         22    1    3    3    0    0 -0.33045387414E+02 -0.43388449714E+02 -0.13468850324E+03  0.14531189939E+03  0.00000000000E+00 0.  1.
         22    1    3    3    0    0 -0.62885204705E+02  0.82275349925E+02 -0.42484484970E+03  0.43728357904E+03  0.00000000000E+00 0.  1.
</event>
<event>
 7    1  0.6444902E-006  0.8656158E+02  0.7818608E-02  0.1322925E+00
          2   -1    0    0  502    0  0.00000000000E+00  0.00000000000E+00  0.22062456803E+04  0.22062456803E+04  0.00000000000E+00 0. -1.
          1   -1    0    0  501    0 -0.00000000000E+00 -0.00000000000E+00 -0.15728162604E+03  0.15728162604E+03  0.00000000000E+00 0. -1.
         25    2    1    2    0    0 -0.22530014386E+02 -0.10163737490E+03  0.80969708465E+02  0.18170541576E+03  0.12499202735E+03 0.  0.
          2    1    1    2  501    0 -0.49942538203E+02  0.72647782100E+02 -0.87872956799E+02  0.12447334615E+03  0.00000000000E+00 0. -1.
          1    1    1    2  502    0  0.72472552588E+02  0.28989592797E+02  0.20558673026E+04  0.20573485444E+04  0.00000000000E+00 0. -1.
         22    1    3    3    0    0  0.45318565824E+02 -0.75761745957E+02  0.57648831770E+02  0.10543719630E+03  0.00000000000E+00 0.  1.
         22    1    3    3    0    0 -0.67848580209E+02 -0.25875628939E+02  0.23320876696E+02  0.76268219458E+02  0.00000000000E+00 0.  1.
</event>
<event>
 7    1  0.6444902E-006  0.8934610E+02  0.7818608E-02  0.1423055E+00
          2   -1    0    0  502    0  0.00000000000E+00  0.00000000000E+00  0.21700342394E+04  0.21700342394E+04  0.00000000000E+00 0. -1.
          1   -1    0    0  501    0 -0.00000000000E+00 -0.00000000000E+00 -0.62493987112E+02  0.62493987112E+02  0.00000000000E+00 0. -1.
         25    2    1    2    0    0  0.10604658947E+03 -0.47242296756E+02  0.32596200904E+03  0.36790054142E+03  0.12498745259E+03 0.  0.
          2    1    1    2  501    0 -0.72994010340E+02  0.45513054074E+02  0.33442509471E+01  0.86085699457E+02  0.00000000000E+00 0. -1.
          1    1    1    2  502    0 -0.33052579125E+02  0.17292426819E+01  0.17782339923E+04  0.17785419857E+04  0.00000000000E+00 0. -1.
         22    1    3    3    0    0 -0.12252556932E+02  0.23849505242E+02  0.96249409627E+02  0.99914327827E+02  0.00000000000E+00 0. -1.
         22    1    3    3    0    0  0.11829914640E+03 -0.71091801998E+02  0.22971259941E+03  0.26798621360E+03  0.00000000000E+00 0. -1.
</event>
<event>
 7    1  0.6444902E-006  0.9648139E+02  0.7818608E-02  0.1343985E+00
          2   -1    0    0  502    0  0.00000000000E+00  0.00000000000E+00  0.12771588042E+04  0.12771588042E+04  0.00000000000E+00 0. -1.
          1   -1    0    0  501    0 -0.00000000000E+00 -0.00000000000E+00 -0.35028938834E+03  0.35028938834E+03  0.00000000000E+00 0. -1.
         25    2    1    2    0    0  0.17166916281E+02  0.58199869872E+02  0.38387453588E+02  0.14415357877E+03  0.12499891924E+03 0.  0.
          2    1    1    2  501    0 -0.46010422757E+02  0.35713427486E+02 -0.29249534556E+03  0.29823805103E+03  0.00000000000E+00 0. -1.
          1    1    1    2  502    0  0.28843506476E+02 -0.93913297357E+02  0.11809773078E+04  0.11850565627E+04  0.00000000000E+00 0. -1.
         22    1    3    3    0    0 -0.41436867648E+02  0.51761415735E+02  0.51259824390E+02  0.83808279757E+02  0.00000000000E+00 0.  1.
         22    1    3    3    0    0  0.58603783928E+02  0.64384541366E+01 -0.12872370803E+02  0.60345299009E+02  0.00000000000E+00 0.  1.
</event>
<event>
 7    1  0.6444902E-006  0.1490779E+03  0.7818608E-02  0.1217825E+00
          2   -1    0    0  502    0  0.00000000000E+00  0.00000000000E+00  0.30472885936E+03  0.30472885936E+03  0.00000000000E+00 0. -1.
          1   -1    0    0  501    0 -0.00000000000E+00 -0.00000000000E+00 -0.11009549923E+04  0.11009549923E+04  0.00000000000E+00 0. -1.
         25    2    1    2    0    0  0.21502388086E+03  0.15488815742E+03 -0.24453175962E+03  0.38163769215E+03  0.12500374375E+03 0.  0.
          2    1    1    2  501    0 -0.10941926047E+03 -0.61195186449E+02 -0.76117706947E+03  0.77143240565E+03  0.00000000000E+00 0. -1.
          1    1    1    2  502    0 -0.10560462039E+03 -0.93692970974E+02  0.20948269615E+03  0.25261375387E+03  0.00000000000E+00 0. -1.
         22    1    3    3    0    0  0.29804057048E+02  0.66898534214E+02 -0.12333872538E+03  0.14344384572E+03  0.00000000000E+00 0.  1.
         22    1    3    3    0    0  0.18521982381E+03  0.87989623208E+02 -0.12119303424E+03  0.23819384643E+03  0.00000000000E+00 0.  1.
</event>
<event>
 7    1  0.6444902E-006  0.1284869E+03  0.7818608E-02  0.1262747E+00
          2   -1    0    0  502    0  0.00000000000E+00  0.00000000000E+00  0.20828480920E+03  0.20828480920E+03  0.00000000000E+00 0. -1.
          1   -1    0    0  501    0 -0.00000000000E+00 -0.00000000000E+00 -0.89987616195E+03  0.89987616195E+03  0.00000000000E+00 0. -1.
         25    2    1    2    0    0 -0.12056261932E+03 -0.60026380625E+02  0.12039093525E+03  0.21967593000E+03  0.12500010153E+03 0.  0.
          2    1    1    2  501    0  0.12525634168E+03 -0.32039262677E+02 -0.78040410781E+03  0.79104123595E+03  0.00000000000E+00 0. -1.
          1    1    1    2  502    0 -0.46937223519E+01  0.92065643302E+02 -0.31578180186E+02  0.97443805190E+02  0.00000000000E+00 0. -1.
         22    1    3    3    0    0  0.60674655087E+01  0.27085955617E+02  0.68605754658E+01  0.28592492460E+02  0.00000000000E+00 0. -1.
         22    1    3    3    0    0 -0.12663008483E+03 -0.87112336242E+02  0.11353035978E+03  0.19108343754E+03  0.00000000000E+00 0. -1.
</event>
<event>
 7    1  0.6444902E-006  0.8760639E+02  0.7818608E-02  0.1332480E+00
          2   -1    0    0  502    0  0.00000000000E+00  0.00000000000E+00  0.29453593145E+03  0.29453593145E+03  0.00000000000E+00 0. -1.
          1   -1    0    0  501    0 -0.00000000000E+00 -0.00000000000E+00 -0.24258810362E+04  0.24258810362E+04  0.00000000000E+00 0. -1.
         25    2    1    2    0    0 -0.75380721172E+02  0.43266631703E+02 -0.11653374583E+04  0.11752419456E+04  0.12501193706E+03 0.  0.
          2    1    1    2  501    0  0.24024449342E+02 -0.92127040743E+02 -0.12494149391E+04  0.12530372125E+04  0.00000000000E+00 0. -1.
          1    1    1    2  502    0  0.51356271830E+02  0.48860409040E+02  0.28340729268E+03  0.29213780956E+03  0.00000000000E+00 0. -1.
         22    1    3    3    0    0 -0.27112931534E+02  0.21691428091E+02 -0.65497750681E+02  0.74132209284E+02  0.00000000000E+00 0. -1.
         22    1    3    3    0    0 -0.48267789639E+02  0.21575203612E+02 -0.10998397077E+04  0.11011097363E+04  0.00000000000E+00 0. -1.
</event>
<event>
 7    1  0.6444902E-006  0.1618682E+03  0.7818608E-02  0.1339605E+00
          2   -1    0    0  502    0  0.00000000000E+00  0.00000000000E+00  0.20797510408E+04  0.20797510408E+04  0.00000000000E+00 0. -1.
          1   -1    0    0  501    0 -0.00000000000E+00 -0.00000000000E+00 -0.63216621466E+03  0.63216621466E+03  0.00000000000E+00 0. -1.
         25    2    1    2    0    0  0.10319408463E+03 -0.11793581253E+03 -0.22838616982E+02  0.20175358789E+03  0.12500013129E+03 0.  0.
          2    1    1    2  501    0 -0.77675686710E+02  0.14340690371E+03 -0.50691052168E+03  0.53250101346E+03  0.00000000000E+00 0. -1.
          1    1    1    2  502    0 -0.25518397922E+02 -0.25471091174E+02  0.19773339648E+04  0.19776626541E+04  0.00000000000E+00 0. -1.
         22    1    3    3    0    0  0.11223360480E+03 -0.13743638688E+03 -0.28032245935E+02  0.17964116816E+03  0.00000000000E+00 0.  1.
         22    1    3    3    0    0 -0.90395201675E+01  0.19500574349E+02  0.51936289527E+01  0.22112419734E+02  0.00000000000E+00 0.  1.
</event>
<event>
 7    1  0.6444902E-006  0.1060266E+03  0.7818608E-02  0.1335169E+00
          2   -1    0    0  502    0  0.00000000000E+00  0.00000000000E+00  0.16992373175E+04  0.16992373175E+04  0.00000000000E+00 0. -1.
          1   -1    0    0  501    0 -0.00000000000E+00 -0.00000000000E+00 -0.28425713051E+03  0.28425713051E+03  0.00000000000E+00 0. -1.
         25    2    1    2    0    0  0.95707086397E+02  0.55058016912E+02  0.65181808349E+03  0.67281568044E+03  0.12499157682E+03 0.  0.
          2    1    1    2  501    0 -0.10618703313E+03  0.11837001211E+01 -0.26263281950E+03  0.28328975455E+03  0.00000000000E+00 0. -1.
          1    1    1    2  502    0  0.10479946734E+02 -0.56241717033E+02  0.10257949230E+04  0.10273890130E+04  0.00000000000E+00 0. -1.
         22    1    3    3    0    0  0.41903564954E+02  0.90046681293E+02  0.45809744586E+03  0.46874042227E+03  0.00000000000E+00 0. -1.
         22    1    3    3    0    0  0.53803521443E+02 -0.34988664381E+02  0.19372063763E+03  0.20407525817E+03  0.00000000000E+00 0. -1.
</event>
<event>
 7    1  0.6444902E-006  0.5273775E+02  0.7818608E-02  0.1496054E+00
          2   -1    0    0  502    0  0.00000000000E+00  0.00000000000E+00  0.18860107401E+04  0.18860107401E+04  0.00000000000E+00 0. -1.
          1   -1    0    0  501    0 -0.00000000000E+00 -0.00000000000E+00 -0.33047545334E+03  0.33047545334E+03  0.00000000000E+00 0. -1.
         25    2    1    2    0    0  0.14220847689E+02 -0.60760428894E+02  0.13829492134E+03  0.19658148241E+03  0.12499892692E+03 0.  0.
          2    1    1    2  501    0  0.16927919492E+02  0.49941571705E+02 -0.29886556073E+03  0.30348202325E+03  0.00000000000E+00 0. -1.
          1    1    1    2  502    0 -0.31148767182E+02  0.10818857189E+02  0.17161059261E+04  0.17164226877E+04  0.00000000000E+00 0. -1.
         22    1    3    3    0    0 -0.88824810508E+01  0.16658936972E+02  0.10902860094E+03  0.11065104823E+03  0.00000000000E+00 0. -1.
         22    1    3    3    0    0  0.23103328740E+02 -0.77419365866E+02  0.29266320398E+02  0.85930434187E+02  0.00000000000E+00 0. -1.
</event>
<event>
 7    1  0.6444902E-006  0.1552676E+03  0.7818608E-02  0.1232384E+00
          2   -1    0    0  502    0  0.00000000000E+00  0.00000000000E+00  0.43469073809E+03  0.43469073809E+03  0.00000000000E+00 0. -1.
          1   -1    0    0  501    0 -0.00000000000E+00 -0.00000000000E+00 -0.12434496812E+04  0.12434496812E+04  0.00000000000E+00 0. -1.
         25    2    1    2    0    0 -0.82110754507E+02 -0.38547982761E+02 -0.17332564713E+03  0.23215225434E+03  0.12499906504E+03 0.  0.
          2    1    1    2  501    0  0.17341199348E+03 -0.10081213337E+02 -0.10266934969E+04  0.10412842489E+04  0.00000000000E+00 0. -1.
          1    1    1    2  502    0 -0.91301238972E+02  0.48629196099E+02  0.39126020088E+03  0.40470391614E+03  0.00000000000E+00 0. -1.
         22    1    3    3    0    0  0.24736204117E+02 -0.19134737365E+02 -0.47590453381E+01  0.31633312831E+02  0.00000000000E+00 0.  1.
         22    1    3    3    0    0 -0.10684695862E+03 -0.19413245396E+02 -0.16856660179E+03  0.20051894151E+03  0.00000000000E+00 0.  1.
</event>
<event>
 7    1  0.6444902E-006  0.1607214E+03  0.7818608E-02  0.1239149E+00
          2   -1    0    0  502    0  0.00000000000E+00  0.00000000000E+00  0.11267366536E+04  0.11267366536E+04  0.00000000000E+00 0. -1.
          1   -1    0    0  501    0 -0.00000000000E+00 -0.00000000000E+00 -0.12822198338E+04  0.12822198338E+04  0.00000000000E+00 0. -1.
         25    2    1    2    0    0 -0.23140941738E+02 -0.74487737649E+02 -0.60389421837E+02  0.15923507283E+03  0.12499999962E+03 0.  0.
          2    1    1    2  501    0  0.46464360437E+02  0.16477830786E+03 -0.11641167459E+04  0.11766386980E+04  0.00000000000E+00 0. -1.
          1    1    1    2  502    0 -0.23323418699E+02 -0.90290570207E+02  0.10690229875E+04  0.10730827166E+04  0.00000000000E+00 0. -1.
         22    1    3    3    0    0 -0.42988007211E+02 -0.92262962291E+02 -0.10051878944E+02  0.10228129470E+03  0.00000000000E+00 0. -1.
         22    1    3    3    0    0  0.19847065473E+02  0.17775224642E+02 -0.50337542893E+02  0.56953778131E+02  0.00000000000E+00 0. -1.
</event>
<event>
 7    1  0.6444902E-006  0.5110559E+02  0.7818608E-02  0.1503135E+00
          2   -1    0    0  502    0  0.00000000000E+00  0.00000000000E+00  0.45191377762E+03  0.45191377762E+03  0.00000000000E+00 0. -1.
          1   -1    0    0  501    0 -0.00000000000E+00 -0.00000000000E+00 -0.18855358545E+03  0.18855358545E+03  0.00000000000E+00 0. -1.
         25    2    1    2    0    0  0.38644919543E+02 -0.16254649248E+02  0.25243867829E+03  0.28479457644E+03  0.12500008418E+03 0.  0.
          2    1    1    2  501    0  0.15171042481E+02  0.28640242861E+02 -0.16661913471E+03  0.16974203985E+03  0.00000000000E+00 0. -1.
          1    1    1    2  502    0 -0.53815962024E+02 -0.12385593614E+02  0.17754064859E+03  0.18593074678E+03  0.00000000000E+00 0. -1.
         22    1    3    3    0    0 -0.39696932399E+02 -0.63513068958E+01  0.34446645637E+02  0.52941070416E+02  0.00000000000E+00 0.  1.
         22    1    3    3    0    0  0.78341851942E+02 -0.99033423518E+01  0.21799203265E+03  0.23185350602E+03  0.00000000000E+00 0.  1.
</event>
<event>
 7    1  0.6444902E-006  0.1722875E+03  0.7818608E-02  0.1206440E+00
          2   -1    0    0  502    0  0.00000000000E+00  0.00000000000E+00  0.62581524955E+03  0.62581524955E+03  0.00000000000E+00 0. -1.
          1   -1    0    0  501    0 -0.00000000000E+00 -0.00000000000E+00 -0.44324597163E+03  0.44324597163E+03  0.00000000000E+00 0. -1.
         25    2    1    2    0    0 -0.82788936944E+02 -0.14321945202E+02  0.43818289500E+02  0.15687465781E+03  0.12502195637E+03 0.  0.
          2    1    1    2  501    0 -0.12152511785E+03  0.15007939877E+02 -0.35623422408E+03  0.37669140544E+03  0.00000000000E+00 0. -1.
          1    1    1    2  502    0  0.20431405479E+03 -0.68599467534E+00  0.49498521250E+03  0.53549515793E+03  0.00000000000E+00 0. -1.
         22    1    3    3    0    0  0.87540051354E+01  0.37986404223E+02  0.32653806059E+02  0.50851455848E+02  0.00000000000E+00 0.  1.
         22    1    3    3    0    0 -0.91542942080E+02 -0.52308349425E+02  0.11164483442E+02  0.10602320196E+03  0.00000000000E+00 0.  1.
</event>
<event>
 7    1  0.6444902E-006  0.3082243E+02  0.7818608E-02  0.1660299E+00
          2   -1    0    0  502    0  0.00000000000E+00  0.00000000000E+00  0.81234341644E+02  0.81234341644E+02  0.00000000000E+00 0. -1.
          1   -1    0    0  501    0 -0.00000000000E+00 -0.00000000000E+00 -0.34335107181E+03  0.34335107181E+03  0.00000000000E+00 0. -1.
         25    2    1    2    0    0 -0.12977920370E+02 -0.59362605970E+01 -0.13237929155E+03  0.18262914479E+03  0.12500184833E+03 0.  0.
          2    1    1    2  501    0  0.31760824749E+02 -0.19131226757E+01 -0.18257809805E+03  0.18532990022E+03  0.00000000000E+00 0. -1.
          1    1    1    2  502    0 -0.18782904379E+02  0.78493832726E+01  0.52840659433E+02  0.56626368451E+02  0.00000000000E+00 0. -1.
         22    1    3    3    0    0  0.45765028034E+02  0.51345538698E+01 -0.11028647595E+02  0.47354329286E+02  0.00000000000E+00 0. -1.
         22    1    3    3    0    0 -0.58742948404E+02 -0.11070814467E+02 -0.12135064395E+03  0.13527481550E+03  0.00000000000E+00 0. -1.
</event>
<event>
 7    1  0.6444902E-006  0.3261967E+02  0.7818608E-02  0.1579265E+00
          2   -1    0    0  502    0  0.00000000000E+00  0.00000000000E+00  0.91208318825E+03  0.91208318825E+03  0.00000000000E+00 0. -1.
          1   -1    0    0  501    0 -0.00000000000E+00 -0.00000000000E+00 -0.51731610076E+02  0.51731610076E+02  0.00000000000E+00 0. -1.
         25    2    1    2    0    0 -0.32971195241E+02 -0.18630168433E+01  0.40647736629E+03  0.42654442383E+03  0.12500290255E+03 0.  0.
          2    1    1    2  501    0  0.15680975157E+02 -0.26684585203E+02 -0.35306632206E+02  0.46952298635E+02  0.00000000000E+00 0. -1.
          1    1    1    2  502    0  0.17290220084E+02  0.28547602047E+02  0.48918084408E+03  0.49031807586E+03  0.00000000000E+00 0. -1.
         22    1    3    3    0    0 -0.16851633429E+02  0.50819821112E+02  0.31682181624E+03  0.32131401309E+03  0.00000000000E+00 0. -1.
         22    1    3    3    0    0 -0.16119561812E+02 -0.52682837955E+02  0.89655550058E+02  0.10523041074E+03  0.00000000000E+00 0. -1.
</event>
<event>
 7    1  0.6444902E-006  0.5941722E+02  0.7818608E-02  0.1478137E+00
          2   -1    0    0  502    0  0.00000000000E+00  0.00000000000E+00  0.25937810142E+04  0.25937810142E+04  0.00000000000E+00 0. -1.
          1   -1    0    0  501    0 -0.00000000000E+00 -0.00000000000E+00 -0.29685476168E+03  0.29685476168E+03  0.00000000000E+00 0. -1.
         25    2    1    2    0    0 -0.50054717815E+00 -0.50559107026E+02  0.12077469711E+03  0.18101768361E+03  0.12499760184E+03 0.  0.
          2    1    1    2  501    0 -0.33148004348E+02  0.13342016189E+01 -0.26533633387E+03  0.26740220709E+03  0.00000000000E+00 0. -1.
          1    1    1    2  502    0  0.33648551527E+02  0.49224905408E+02  0.24414878893E+04  0.24422158852E+04  0.00000000000E+00 0. -1.
         22    1    3    3    0    0 -0.88325503267E+01  0.23931205417E+02 -0.12273822409E+02  0.28308360152E+02  0.00000000000E+00 0.  1.
         22    1    3    3    0    0  0.83320031485E+01 -0.74490312444E+02  0.13304851952E+03  0.15270932345E+03  0.00000000000E+00 0.  1.
</event>
<event>
 7    1  0.6444902E-006  0.7255663E+02  0.7818608E-02  0.1383977E+00
          2   -1    0    0  502    0  0.00000000000E+00  0.00000000000E+00  0.20298662422E+03  0.20298662422E+03  0.00000000000E+00 0. -1.
          1   -1    0    0  501    0 -0.00000000000E+00 -0.00000000000E+00 -0.80442193221E+03  0.80442193221E+03  0.00000000000E+00 0. -1.
         25    2    1    2    0    0  0.25430799519E+02 -0.12085310907E+03 -0.24419066474E+03  0.30084338544E+03  0.12500184910E+03 0.  0.
          2    1    1    2  501    0 -0.19635878712E+02  0.65705817337E+02 -0.52521784037E+03  0.52967594056E+03  0.00000000000E+00 0. -1.
          1    1    1    2  502    0 -0.57949208073E+01  0.55147291731E+02  0.16797319712E+03  0.17688923043E+03  0.00000000000E+00 0. -1.
         22    1    3    3    0    0  0.20025791637E+01 -0.12990453944E+03 -0.24317721940E+03  0.27570701791E+03  0.00000000000E+00 0. -1.
         22    1    3    3    0    0  0.23428220356E+02  0.90514303746E+01 -0.10134453398E+01  0.25136367524E+02  0.00000000000E+00 0. -1.
</event>
<event>
 7    1  0.6444902E-006  0.1121454E+03  0.7818608E-02  0.1375686E+00
          2   -1    0    0  502    0  0.00000000000E+00  0.00000000000E+00  0.55595506347E+03  0.55595506347E+03  0.00000000000E+00 0. -1.
          1   -1    0    0  501    0 -0.00000000000E+00 -0.00000000000E+00 -0.86927887089E+03  0.86927887089E+03  0.00000000000E+00 0. -1.
         25    2    1    2    0    0  0.70222109588E+02  0.28516511345E+02 -0.30251875171E+03  0.33598560957E+03  0.12499759440E+03 0.  0.
          2    1    1    2  501    0  0.29063368415E+02  0.25076600371E+02 -0.54344030385E+03  0.54479434571E+03  0.00000000000E+00 0. -1.
          1    1    1    2  502    0 -0.99285478004E+02 -0.53593111715E+02  0.53263524814E+03  0.54445397908E+03  0.00000000000E+00 0. -1.
         22    1    3    3    0    0  0.24585821929E+02  0.74011408716E+02 -0.12726065290E+03  0.14925623952E+03  0.00000000000E+00 0.  1.
         22    1    3    3    0    0  0.45636287660E+02 -0.45494897371E+02 -0.17525809881E+03  0.18672937005E+03  0.00000000000E+00 0.  1.
</event>
<event>
 7    1  0.6444902E-006  0.8097348E+02  0.7818608E-02  0.1342022E+00
          2   -1    0    0  502    0  0.00000000000E+00  0.00000000000E+00  0.32690449379E+03  0.32690449379E+03  0.00000000000E+00 0. -1.
          1   -1    0    0  501    0 -0.00000000000E+00 -0.00000000000E+00 -0.21192190695E+03  0.21192190695E+03  0.00000000000E+00 0. -1.
         25    2    1    2    0    0 -0.55136402893E+02 -0.50802403494E+01  0.20463091544E+02  0.13823767252E+03  0.12500033688E+03 0.  0.
          2    1    1    2  501    0  0.46943215112E+02  0.75186655275E+02 -0.13442096644E+03  0.16101457945E+03  0.00000000000E+00 0. -1.
          1    1    1    2  502    0  0.81931877804E+01 -0.70106414926E+02  0.22894046174E+03  0.23957414877E+03  0.00000000000E+00 0. -1.
         22    1    3    3    0    0 -0.32477671981E+02 -0.63476087939E+02 -0.29599397238E+01  0.71363675357E+02  0.00000000000E+00 0. -1.
         22    1    3    3    0    0 -0.22658730912E+02  0.58395847589E+02  0.23423031268E+02  0.66873997159E+02  0.00000000000E+00 0. -1.
</event>
<event>
 7    1  0.6444902E-006  0.4615628E+02  0.7818608E-02  0.1489007E+00
          2   -1    0    0  502    0  0.00000000000E+00  0.00000000000E+00  0.51275154402E+03  0.51275154402E+03  0.00000000000E+00 0. -1.
          1   -1    0    0  501    0 -0.00000000000E+00 -0.00000000000E+00 -0.92010253848E+03  0.92010253848E+03  0.00000000000E+00 0. -1.
         25    2    1    2    0    0 -0.35059164961E+02 -0.76396788826E+02  0.16091239574E+02  0.15149056694E+03  0.12499939796E+03 0.  0.
          2    1    1    2  501    0  0.11906213210E+02  0.44313635903E+02 -0.85087107501E+03  0.85210741255E+03  0.00000000000E+00 0. -1.
          1    1    1    2  502    0  0.23152951751E+02  0.32083152923E+02  0.42742884097E+03  0.42925610301E+03  0.00000000000E+00 0. -1.
         22    1    3    3    0    0 -0.49167371248E+02 -0.70207296076E+02  0.60218675447E+02  0.10475105580E+03  0.00000000000E+00 0.  1.
         22    1    3    3    0    0  0.14108206287E+02 -0.61894927498E+01 -0.44127435873E+02  0.46739511143E+02  0.00000000000E+00 0.  1.
</event>
<event>
 7    1  0.6444902E-006  0.1011850E+03  0.7818608E-02  0.1349416E+00
          2   -1    0    0  502    0  0.00000000000E+00  0.00000000000E+00  0.79064988691E+03  0.79064988691E+03  0.00000000000E+00 0. -1.
          1   -1    0    0  501    0 -0.00000000000E+00 -0.00000000000E+00 -0.43520456334E+03  0.43520456334E+03  0.00000000000E+00 0. -1.
         25    2    1    2    0    0  0.69255086967E+02 -0.15126323752E+02  0.70497404022E+02  0.16006635516E+03  0.12500512525E+03 0.  0.
          2    1    1    2  501    0 -0.78595376739E+02  0.67306908630E+02 -0.38249432471E+03  0.39624406826E+03  0.00000000000E+00 0. -1.
          1    1    1    2  502    0  0.93402897721E+01 -0.52180584878E+02  0.66744224426E+03  0.66954402684E+03  0.00000000000E+00 0. -1.
         22    1    3    3    0    0  0.81216523619E+02 -0.53743474573E+02  0.27826581553E+02  0.10128575126E+03  0.00000000000E+00 0.  1.
         22    1    3    3    0    0 -0.11961436653E+02  0.38617150821E+02  0.42670822469E+02  0.58780603897E+02  0.00000000000E+00 0.  1.
</event>
<event>
 7    1  0.6444902E-006  0.6686658E+02  0.7818608E-02  0.1457441E+00
          2   -1    0    0  502    0  0.00000000000E+00  0.00000000000E+00  0.25542009876E+03  0.25542009876E+03  0.00000000000E+00 0. -1.
          1   -1    0    0  501    0 -0.00000000000E+00 -0.00000000000E+00 -0.67783501061E+03  0.67783501061E+03  0.00000000000E+00 0. -1.
         25    2    1    2    0    0 -0.42983553772E+02 -0.30320801830E+02  0.14144889402E+03  0.19596120635E+03  0.12500427135E+03 0.  0.
          2    1    1    2  501    0  0.27888754881E+02  0.61015211426E+02 -0.64539804823E+03  0.64887539585E+03  0.00000000000E+00 0. -1.
          1    1    1    2  502    0  0.15094798891E+02 -0.30694409596E+02  0.81534242352E+02  0.88418507169E+02  0.00000000000E+00 0. -1.
         22    1    3    3    0    0  0.37087762955E+02 -0.24253927334E+02  0.16202874197E+02  0.47183559472E+02  0.00000000000E+00 0.  1.
         22    1    3    3    0    0 -0.80071316728E+02 -0.60668744961E+01  0.12524601983E+03  0.14877764688E+03  0.00000000000E+00 0.  1.
</event>
<event>
 7    1  0.6444902E-006  0.1224546E+03  0.7818608E-02  0.1304097E+00
          2   -1    0    0  502    0  0.00000000000E+00  0.00000000000E+00  0.79184738421E+03  0.79184738421E+03  0.00000000000E+00 0. -1.
          1   -1    0    0  501    0 -0.00000000000E+00 -0.00000000000E+00 -0.29803178054E+03  0.29803178054E+03  0.00000000000E+00 0. -1.
         25    2    1    2    0    0 -0.16309693842E+03  0.80948613970E+02  0.14108634687E+03  0.26207835767E+03  0.12500567531E+03 0.  0.
          2    1    1    2  501    0  0.59365088790E+02 -0.27430229088E+02 -0.22710579420E+03  0.23633381687E+03  0.00000000000E+00 0. -1.
          1    1    1    2  502    0  0.10373184963E+03 -0.53518384882E+02  0.57983505100E+03  0.59146699021E+03  0.00000000000E+00 0. -1.
         22    1    3    3    0    0 -0.46872135231E+02  0.82796844178E+02  0.10189655489E+03  0.13941026635E+03  0.00000000000E+00 0. -1.
         22    1    3    3    0    0 -0.11622480319E+03 -0.18482302080E+01  0.39189791984E+02  0.12266809131E+03  0.00000000000E+00 0. -1.
</event>
<event>
 7    1  0.6444902E-006  0.6432704E+02  0.7818608E-02  0.1487258E+00
          2   -1    0    0  502    0  0.00000000000E+00  0.00000000000E+00  0.14977002267E+03  0.14977002267E+03  0.00000000000E+00 0. -1.
          1   -1    0    0  501    0 -0.00000000000E+00 -0.00000000000E+00 -0.21320103905E+03  0.21320103905E+03  0.00000000000E+00 0. -1.
         25    2    1    2    0    0  0.76690792736E+02  0.87240401646E+01 -0.10952764507E+03  0.18324610987E+03  0.12500098072E+03 0.  0.
          2    1    1    2  501    0 -0.20025007534E+02  0.20612028044E+02 -0.53912456689E+02  0.61093449838E+02  0.00000000000E+00 0. -1.
          1    1    1    2  502    0 -0.56665785202E+02 -0.29336068209E+02  0.10000908538E+03  0.11863150201E+03  0.00000000000E+00 0. -1.
         22    1    3    3    0    0 -0.20771380713E+02  0.30390478620E+02 -0.25244181459E+01  0.36897210388E+02  0.00000000000E+00 0.  1.
         22    1    3    3    0    0  0.97462173448E+02 -0.21666438455E+02 -0.10700322692E+03  0.14634889949E+03  0.00000000000E+00 0.  1.
</event>
<event>
 7    1  0.6444902E-006  0.7933451E+02  0.7818608E-02  0.1498468E+00
          2   -1    0    0  502    0  0.00000000000E+00  0.00000000000E+00  0.78895096299E+03  0.78895096299E+03  0.00000000000E+00 0. -1.
          1   -1    0    0  501    0 -0.00000000000E+00 -0.00000000000E+00 -0.23447734807E+03  0.23447734807E+03  0.00000000000E+00 0. -1.
         25    2    1    2    0    0  0.73381133538E+02 -0.62391478368E+02  0.33434837697E+03  0.36971747319E+03  0.12499874188E+03 0.  0.
          2    1    1    2  501    0 -0.11111047443E+02  0.18473650008E+02 -0.21292206120E+03  0.21401059615E+03  0.00000000000E+00 0. -1.
          1    1    1    2  502    0 -0.62270086095E+02  0.43917828360E+02  0.43304729915E+03  0.43970024172E+03  0.00000000000E+00 0. -1.
         22    1    3    3    0    0 -0.47375223424E+01 -0.60255560482E+02  0.62854276332E+02  0.87199981309E+02  0.00000000000E+00 0. -1.
         22    1    3    3    0    0  0.78118655880E+02 -0.21359178853E+01  0.27149410063E+03  0.28251749189E+03  0.00000000000E+00 0. -1.
</event>
<event>
 7    1  0.6444902E-006  0.1778807E+03  0.7818608E-02  0.1279166E+00
          2   -1    0    0  502    0  0.00000000000E+00  0.00000000000E+00  0.14557770515E+04  0.14557770515E+04  0.00000000000E+00 0. -1.
          1   -1    0    0  501    0 -0.00000000000E+00 -0.00000000000E+00 -0.16841001995E+04  0.16841001995E+04  0.00000000000E+00 0. -1.
         25    2    1    2    0    0  0.20302924713E+03  0.43788400926E+02  0.12795864663E+03  0.27411070403E+03  0.12499985428E+03 0.  0.
          2    1    1    2  501    0 -0.27284284479E+02 -0.49846735002E+02 -0.16043574525E+04  0.16053634992E+04  0.00000000000E+00 0. -1.
          1    1    1    2  502    0 -0.17574496265E+03  0.60583340765E+01  0.12480756578E+04  0.12604030478E+04  0.00000000000E+00 0. -1.
         22    1    3    3    0    0  0.17919652045E+03  0.81363620395E+02  0.93790480611E+02  0.21800937117E+03  0.00000000000E+00 0. -1.
         22    1    3    3    0    0  0.23832726673E+02 -0.37575219469E+02  0.34168166017E+02  0.56101332853E+02  0.00000000000E+00 0. -1.
</event>
<event>
 7    1  0.6444902E-006  0.9710186E+02  0.7818608E-02  0.1308732E+00
          2   -1    0    0  502    0  0.00000000000E+00  0.00000000000E+00  0.20989829986E+04  0.20989829986E+04  0.00000000000E+00 0. -1.
          1   -1    0    0  501    0 -0.00000000000E+00 -0.00000000000E+00 -0.11385216713E+04  0.11385216713E+04  0.00000000000E+00 0. -1.
         25    2    1    2    0    0  0.89414918465E+02 -0.89373465325E+02  0.13222789077E+03  0.22155111079E+03  0.12497213949E+03 0.  0.
          2    1    1    2  501    0 -0.10680402337E+02  0.96488743119E+02 -0.10908907874E+04  0.10952017433E+04  0.00000000000E+00 0. -1.
          1    1    1    2  502    0 -0.78734516128E+02 -0.71152777938E+01  0.19191242239E+04  0.19207518159E+04  0.00000000000E+00 0. -1.
         22    1    3    3    0    0  0.18041084396E+01  0.91232544906E+01 -0.18866950939E+02  0.21034505401E+02  0.00000000000E+00 0.  1.
         22    1    3    3    0    0  0.87610810025E+02 -0.98496719816E+02  0.15109484170E+03  0.20051660539E+03  0.00000000000E+00 0.  1.
</event>
<event>
 7    1  0.6444902E-006  0.7916412E+02  0.7818608E-02  0.1442815E+00
          2   -1    0    0  502    0  0.00000000000E+00  0.00000000000E+00  0.10641755541E+04  0.10641755541E+04  0.00000000000E+00 0. -1.
          1   -1    0    0  501    0 -0.00000000000E+00 -0.00000000000E+00 -0.32000634315E+03  0.32000634315E+03  0.00000000000E+00 0. -1.
         25    2    1    2    0    0 -0.82464268125E+02  0.32254126779E+02 -0.62328705654E+02  0.16538066444E+03  0.12500084965E+03 0.  0.
          2    1    1    2  501    0  0.57916403420E+02 -0.53059225668E+02 -0.19840290593E+03  0.21338534227E+03  0.00000000000E+00 0. -1.
          1    1    1    2  502    0  0.24547864704E+02  0.20805098889E+02  0.10049008226E+04  0.10054158906E+04  0.00000000000E+00 0. -1.
         22    1    3    3    0    0  0.26636145812E+02 -0.17313343195E+02 -0.37264359774E+01  0.31986285208E+02  0.00000000000E+00 0. -1.
         22    1    3    3    0    0 -0.10910041394E+03  0.49567469974E+02 -0.58602269677E+02  0.13339437924E+03  0.00000000000E+00 0. -1.
</event>
<event>
 7    1  0.6444902E-006  0.4906548E+02  0.7818608E-02  0.1487551E+00
          2   -1    0    0  502    0  0.00000000000E+00  0.00000000000E+00  0.12913378150E+04  0.12913378150E+04  0.00000000000E+00 0. -1.
          1   -1    0    0  501    0 -0.00000000000E+00 -0.00000000000E+00 -0.19323246805E+02  0.19323246805E+02  0.00000000000E+00 0. -1.
         25    2    1    2    0    0 -0.11244301230E+02 -0.60777516588E+02  0.59070676839E+03  0.60694333218E+03  0.12500152569E+03 0.  0.
          2    1    1    2  501    0 -0.22212018737E+02  0.43620164522E+02  0.45599472007E+02  0.66898463186E+02  0.00000000000E+00 0. -1.
          1    1    1    2  502    0  0.33456319967E+02  0.17157352066E+02  0.63570832776E+03  0.63681926640E+03  0.00000000000E+00 0. -1.
         22    1    3    3    0    0  0.39746001322E+02  0.96010130050E+01  0.91399609380E+02  0.10012898015E+03  0.00000000000E+00 0.  1.
         22    1    3    3    0    0 -0.50990302552E+02 -0.70378529593E+02  0.49930715901E+03  0.50681435202E+03  0.00000000000E+00 0.  1.
</event>
<event>
 7    1  0.6444902E-006  0.1046583E+03  0.7818608E-02  0.1385926E+00
          2   -1    0    0  502    0  0.00000000000E+00  0.00000000000E+00  0.32209653698E+03  0.32209653698E+03  0.00000000000E+00 0. -1.
          1   -1    0    0  501    0 -0.00000000000E+00 -0.00000000000E+00 -0.26403807580E+03  0.26403807580E+03  0.00000000000E+00 0. -1.
         25    2    1    2    0    0  0.31141046061E+02  0.99702868395E+02 -0.17324039440E+02  0.16382469672E+03  0.12501192822E+03 0.  0.
          2    1    1    2  501    0 -0.65301441005E+02 -0.83423987592E+02 -0.15560324351E+03  0.18824507774E+03  0.00000000000E+00 0. -1.
          1    1    1    2  502    0  0.34160394943E+02 -0.16278880803E+02  0.23098574413E+03  0.23406483832E+03  0.00000000000E+00 0. -1.
         22    1    3    3    0    0  0.15894062878E+02 -0.29100869747E+02 -0.50751140000E+01  0.33544576863E+02  0.00000000000E+00 0. -1.
         22    1    3    3    0    0  0.15246983183E+02  0.12880373814E+03 -0.12248925440E+02  0.13028011986E+03  0.00000000000E+00 0. -1.
</event>
<event>
 7    1  0.6444902E-006  0.1201252E+03  0.7818608E-02  0.1415949E+00
          2   -1    0    0  502    0  0.00000000000E+00  0.00000000000E+00  0.83964204325E+02  0.83964204325E+02  0.00000000000E+00 0. -1.
          1   -1    0    0  501    0 -0.00000000000E+00 -0.00000000000E+00 -0.94019292744E+03  0.94019292744E+03  0.00000000000E+00 0. -1.
         25    2    1    2    0    0 -0.11333635470E+02 -0.10840979797E+03 -0.28894424804E+03  0.33315931420E+03  0.12500085828E+03 0.  0.
          2    1    1    2  501    0 -0.10049707515E+02  0.12320197729E+03 -0.62000875481E+03  0.63221086662E+03  0.00000000000E+00 0. -1.
          1    1    1    2  502    0  0.21383342985E+02 -0.14792179321E+02  0.52724279745E+02  0.58786950941E+02  0.00000000000E+00 0. -1.
         22    1    3    3    0    0 -0.15014829351E+02  0.18895429656E+01 -0.17087180599E+03  0.17154063529E+03  0.00000000000E+00 0.  1.
         22    1    3    3    0    0  0.36811938805E+01 -0.11029934094E+03 -0.11807244205E+03  0.16161867890E+03  0.00000000000E+00 0.  1.
</event>
<event>
 7    1  0.6444902E-006  0.4824377E+02  0.7818608E-02  0.1501479E+00
          2   -1    0    0  502    0  0.00000000000E+00  0.00000000000E+00  0.12234566584E+04  0.12234566584E+04  0.00000000000E+00 0. -1.
          1   -1    0    0  501    0 -0.00000000000E+00 -0.00000000000E+00 -0.29217697186E+03  0.29217697186E+03  0.00000000000E+00 0. -1.
         25    2    1    2    0    0  0.50216832085E+02 -0.37481903674E+02  0.11863150162E+03  0.18337040401E+03  0.12499859425E+03 0.  0.
          2    1    1    2  501    0 -0.48097934116E+02  0.28220824821E+01 -0.25728968139E+03  0.26176202087E+03  0.00000000000E+00 0. -1.
          1    1    1    2  502    0 -0.21188979694E+01  0.34659821192E+02  0.10699378663E+04  0.10705012053E+04  0.00000000000E+00 0. -1.
         22    1    3    3    0    0  0.16186723511E+02 -0.81916103455E+02  0.64540882869E+02  0.10553569815E+03  0.00000000000E+00 0.  1.
         22    1    3    3    0    0  0.34030108574E+02  0.44434199781E+02  0.54090618749E+02  0.77834705860E+02  0.00000000000E+00 0.  1.
</event>
<event>
 7    1  0.6444902E-006  0.5882760E+02  0.7818608E-02  0.1502926E+00
          2   -1    0    0  502    0  0.00000000000E+00  0.00000000000E+00  0.13000446514E+03  0.13000446514E+03  0.00000000000E+00 0. -1.
          1   -1    0    0  501    0 -0.00000000000E+00 -0.00000000000E+00 -0.19548784858E+04  0.19548784858E+04  0.00000000000E+00 0. -1.
         25    2    1    2    0    0  0.28043416163E+02 -0.18636007226E+02 -0.17263993838E+03  0.21577787247E+03  0.12498723121E+03 0.  0.
          2    1    1    2  501    0  0.28097406269E+02 -0.23590664292E+01 -0.17522647164E+04  0.17524915594E+04  0.00000000000E+00 0. -1.
          1    1    1    2  502    0 -0.56140822432E+02  0.20995073655E+02  0.10003063413E+03  0.11661351905E+03  0.00000000000E+00 0. -1.
         22    1    3    3    0    0  0.61589300477E+02 -0.34642617662E+02 -0.16257818253E+03  0.17727103070E+03  0.00000000000E+00 0.  1.
         22    1    3    3    0    0 -0.33545884315E+02  0.16006610436E+02 -0.10061755859E+02  0.38506841769E+02  0.00000000000E+00 0.  1.
</event>
<event>
 7    1  0.6444902E-006  0.7868438E+02  0.7818608E-02  0.1440142E+00
          2   -1    0    0  502    0  0.00000000000E+00  0.00000000000E+00  0.12508643257E+04  0.12508643257E+04  0.00000000000E+00 0. -1.
          1   -1    0    0  501    0 -0.00000000000E+00 -0.00000000000E+00 -0.64300975212E+02  0.64300975212E+02  0.00000000000E+00 0. -1.
         25    2    1    2    0    0 -0.92953626045E+02 -0.36437813917E+02  0.26447222879E+03  0.30909191268E+03  0.12499663917E+03 0.  0.
          2    1    1    2  501    0  0.15870822091E+02  0.28962914756E+02 -0.33679475022E+02  0.47170334562E+02  0.00000000000E+00 0. -1.
          1    1    1    2  502    0  0.77082803955E+02  0.74748991615E+01  0.95577059672E+03  0.95890305367E+03  0.00000000000E+00 0. -1.
         22    1    3    3    0    0 -0.21884202962E+00 -0.62674669257E+02  0.12077170055E+03  0.13606603438E+03  0.00000000000E+00 0.  1.
         22    1    3    3    0    0 -0.92734784016E+02  0.26236855340E+02  0.14370052824E+03  0.17302587830E+03  0.00000000000E+00 0.  1.
</event>
<event>
 7    1  0.6444902E-006  0.3461763E+02  0.7818608E-02  0.1611926E+00
          2   -1    0    0  502    0  0.00000000000E+00  0.00000000000E+00  0.52036446608E+03  0.52036446608E+03  0.00000000000E+00 0. -1.
          1   -1    0    0  501    0 -0.00000000000E+00 -0.00000000000E+00 -0.39220636544E+03  0.39220636544E+03  0.00000000000E+00 0. -1.
         25    2    1    2    0    0  0.46138550790E+02  0.27753941163E+02  0.85545341254E+02  0.16076162496E+03  0.12500898980E+03 0.  0.
          2    1    1    2  501    0 -0.12664387000E+02 -0.20309172846E+02 -0.35345262539E+03  0.35426206063E+03  0.00000000000E+00 0. -1.
          1    1    1    2  502    0 -0.33474163790E+02 -0.74447683169E+01  0.39606538479E+03  0.39754714594E+03  0.00000000000E+00 0. -1.
         22    1    3    3    0    0  0.59205835002E+02  0.68993402007E+02  0.70191204433E+02  0.11485741421E+03  0.00000000000E+00 0.  1.
         22    1    3    3    0    0 -0.13067284212E+02 -0.41239460844E+02  0.15354136821E+02  0.45904210753E+02  0.00000000000E+00 0.  1.
</event>
<event>
 7    1  0.6444902E-006  0.1028126E+03  0.7818608E-02  0.1311105E+00
          2   -1    0    0  502    0  0.00000000000E+00  0.00000000000E+00  0.18205509842E+04  0.18205509842E+04  0.00000000000E+00 0. -1.
          1   -1    0    0  501    0 -0.00000000000E+00 -0.00000000000E+00 -0.69303443301E+03  0.69303443301E+03  0.00000000000E+00 0. -1.
         25    2    1    2    0    0 -0.32637980206E+00 -0.59750099790E+02  0.59121032276E+03  0.60722725161E+03  0.12500043367E+03 0.  0.
          2    1    1    2  501    0 -0.71200521520E+02  0.74705205400E+02 -0.68003637028E+03  0.68782254025E+03  0.00000000000E+00 0. -1.
          1    1    1    2  502    0  0.71526901322E+02 -0.14955105610E+02  0.12163425987E+04  0.12185356253E+04  0.00000000000E+00 0. -1.
         22    1    3    3    0    0 -0.61710707689E+02 -0.32178184438E+02  0.34729318984E+03  0.35419797671E+03  0.00000000000E+00 0. -1.
         22    1    3    3    0    0  0.61384327887E+02 -0.27571915351E+02  0.24391713292E+03  0.25302927490E+03  0.00000000000E+00 0. -1.
</event>
<event>
 7    1  0.6444902E-006  0.7452572E+02  0.7818608E-02  0.1381762E+00
          2   -1    0    0  502    0  0.00000000000E+00  0.00000000000E+00  0.14945371245E+03  0.14945371245E+03  0.00000000000E+00 0. -1.
          1   -1    0    0  501    0 -0.00000000000E+00 -0.00000000000E+00 -0.11243442181E+04  0.11243442181E+04  0.00000000000E+00 0. -1.
         25    2    1    2    0    0 -0.34153173754E+02 -0.74812862778E+02 -0.11033520404E+03  0.18590705431E+03  0.12499668746E+03 0.  0.
          2    1    1    2  501    0 -0.34241977913E+02  0.42996782909E+02 -0.96260997282E+03  0.96417798987E+03  0.00000000000E+00 0. -1.
          1    1    1    2  502    0  0.68395151667E+02  0.31816079869E+02  0.98054671204E+02  0.12371288637E+03  0.00000000000E+00 0. -1.
         22    1    3    3    0    0 -0.68070502646E+01 -0.23986105149E+01  0.27169805465E+02  0.28112054260E+02  0.00000000000E+00 0.  1.
         22    1    3    3    0    0 -0.27346123489E+02 -0.72414252263E+02 -0.13750500950E+03  0.15779500005E+03  0.00000000000E+00 0.  1.
</event>
<event>
 7    1  0.6444902E-006  0.7758810E+02  0.7818608E-02  0.1414921E+00
          2   -1    0    0  502    0  0.00000000000E+00  0.00000000000E+00  0.18503144612E+04  0.18503144612E+04  0.00000000000E+00 0. -1.
          1   -1    0    0  501    0 -0.00000000000E+00 -0.00000000000E+00 -0.39529766713E+03  0.39529766713E+03  0.00000000000E+00 0. -1.
         25    2    1    2    0    0  0.39546761611E+02  0.30504098026E+02  0.62725549589E+02  0.14850921757E+03  0.12500418706E+03 0.  0.
          2    1    1    2  501    0 -0.77360722922E+02 -0.15784894503E+02 -0.34774397884E+03  0.35659461460E+03  0.00000000000E+00 0. -1.
          1    1    1    2  502    0  0.37813961312E+02 -0.14719203523E+02  0.17400352233E+04  0.17405082961E+04  0.00000000000E+00 0. -1.
         22    1    3    3    0    0 -0.94946085372E+01 -0.15581444260E+02  0.77491750255E+02  0.79610931122E+02  0.00000000000E+00 0. -1.
         22    1    3    3    0    0  0.49041370148E+02  0.46085542286E+02 -0.14766200666E+02  0.68898286451E+02  0.00000000000E+00 0. -1.
</event>
<event>
 7    1  0.6444902E-006  0.1251460E+03  0.7818608E-02  0.1390318E+00
          2   -1    0    0  502    0  0.00000000000E+00  0.00000000000E+00  0.98202819698E+03  0.98202819698E+03  0.00000000000E+00 0. -1.
          1   -1    0    0  501    0 -0.00000000000E+00 -0.00000000000E+00 -0.73088017243E+03  0.73088017243E+03  0.00000000000E+00 0. -1.
         25    2    1    2    0    0  0.13186248364E+03  0.37874641878E+02  0.88728327134E+03  0.90648699437E+03  0.12499945707E+03 0.  0.
          2    1    1    2  501    0 -0.11012471765E+03 -0.59333943574E+02 -0.71290571879E+03  0.72379730186E+03  0.00000000000E+00 0. -1.
          1    1    1    2  502    0 -0.21737765988E+02  0.21459301696E+02  0.76770471994E+02  0.82624073185E+02  0.00000000000E+00 0. -1.
         22    1    3    3    0    0 -0.21939617564E+02  0.21848352807E+02  0.14664663529E+03  0.14987972839E+03  0.00000000000E+00 0. -1.
         22    1    3    3    0    0  0.15380210121E+03  0.16026289071E+02  0.74063663605E+03  0.75660726598E+03  0.00000000000E+00 0. -1.
</event>
<event>
 7    1  0.6444902E-006  0.6395449E+02  0.7818608E-02  0.1419203E+00
          2   -1    0    0  502    0  0.00000000000E+00  0.00000000000E+00  0.49539929601E+02  0.49539929601E+02  0.00000000000E+00 0. -1.
          1   -1    0    0  501    0 -0.00000000000E+00 -0.00000000000E+00 -0.89902993712E+03  0.89902993712E+03  0.00000000000E+00 0. -1.
         25    2    1    2    0    0 -0.32386506771E+02 -0.45936226847E+01 -0.46613640067E+03  0.48371247088E+03  0.12499849302E+03 0.  0.
          2    1    1    2  501    0  0.76458895669E+02 -0.13459208843E+02 -0.40512081685E+03  0.41249241117E+03  0.00000000000E+00 0. -1.
          1    1    1    2  502    0 -0.44072388898E+02  0.18052831527E+02  0.21767209999E+02  0.52364984679E+02  0.00000000000E+00 0. -1.
         22    1    3    3    0    0  0.75505050290E+01  0.48889251412E+01 -0.42668591419E+03  0.42678071779E+03  0.00000000000E+00 0. -1.
         22    1    3    3    0    0 -0.39937011800E+02 -0.94825478259E+01 -0.39450486487E+02  0.56931753081E+02  0.00000000000E+00 0. -1.
</event>
<event>
 7    1  0.6444902E-006  0.7610755E+02  0.7818608E-02  0.1427364E+00
          2   -1    0    0  502    0  0.00000000000E+00  0.00000000000E+00  0.14112239665E+04  0.14112239665E+04  0.00000000000E+00 0. -1.
          1   -1    0    0  501    0 -0.00000000000E+00 -0.00000000000E+00 -0.23408133511E+03  0.23408133511E+03  0.00000000000E+00 0. -1.
         25    2    1    2    0    0  0.79495967830E+01  0.58467343952E+02 -0.24375369043E+01  0.13824981740E+03  0.12500177609E+03 0.  0.
          2    1    1    2  501    0  0.25802887909E+02 -0.75031464485E+02 -0.15384490838E+03  0.17310044922E+03  0.00000000000E+00 0. -1.
          1    1    1    2  502    0 -0.33752484692E+02  0.16564120533E+02  0.13334250766E+04  0.13339550350E+04  0.00000000000E+00 0. -1.
         22    1    3    3    0    0  0.32331950900E+02 -0.25819564525E+02 -0.24085508869E+02  0.47876055589E+02  0.00000000000E+00 0. -1.
         22    1    3    3    0    0 -0.24382354117E+02  0.84286908478E+02  0.21647971965E+02  0.90373761807E+02  0.00000000000E+00 0. -1.
</event>
<event>
 7    1  0.6444902E-006  0.5497673E+02  0.7818608E-02  0.1473794E+00
          2   -1    0    0  502    0  0.00000000000E+00  0.00000000000E+00  0.10379669614E+04  0.10379669614E+04  0.00000000000E+00 0. -1.
          1   -1    0    0  501    0 -0.00000000000E+00 -0.00000000000E+00 -0.24136316284E+03  0.24136316284E+03  0.00000000000E+00 0. -1.
         25    2    1    2    0    0  0.59109706423E+02  0.49620755739E+02  0.38099991105E+03  0.40833994686E+03  0.12499761276E+03 0.  0.
          2    1    1    2  501    0 -0.53267191011E+02 -0.13107550982E+02 -0.22384723315E+03  0.23047079060E+03  0.00000000000E+00 0. -1.
          1    1    1    2  502    0 -0.58425154118E+01 -0.36513204757E+02  0.63945112063E+03  0.64051938674E+03  0.00000000000E+00 0. -1.
         22    1    3    3    0    0  0.98203147166E+02  0.28446071827E+02  0.27520147047E+03  0.29357943808E+03  0.00000000000E+00 0. -1.
         22    1    3    3    0    0 -0.39093440742E+02  0.21174683911E+02  0.10579844058E+03  0.11476050878E+03  0.00000000000E+00 0. -1.
</event>
<event>
 7    1  0.6444902E-006  0.1077393E+03  0.7818608E-02  0.1276759E+00
          2   -1    0    0  502    0  0.00000000000E+00  0.00000000000E+00  0.17522768405E+03  0.17522768405E+03  0.00000000000E+00 0. -1.
          1   -1    0    0  501    0 -0.00000000000E+00 -0.00000000000E+00 -0.16980827285E+04  0.16980827285E+04  0.00000000000E+00 0. -1.
         25    2    1    2    0    0  0.19489686221E+03 -0.35461575414E+02 -0.37214428430E+03  0.43972637461E+03  0.12500242380E+03 0.  0.
          2    1    1    2  501    0 -0.10127141243E+03  0.14236156564E+02 -0.12735677294E+04  0.12776671430E+04  0.00000000000E+00 0. -1.
          1    1    1    2  502    0 -0.93625449777E+02  0.21225418850E+02  0.12285696918E+03  0.15591689494E+03  0.00000000000E+00 0. -1.
         22    1    3    3    0    0  0.17439157342E+03 -0.66142048080E+02 -0.35025801673E+03  0.39682221420E+03  0.00000000000E+00 0. -1.
         22    1    3    3    0    0  0.20505288790E+02  0.30680472667E+02 -0.21886267574E+02  0.42904160401E+02  0.00000000000E+00 0. -1.
</event>
<event>
 7    1  0.6444902E-006  0.9516156E+02  0.7818608E-02  0.1303398E+00
          2   -1    0    0  502    0  0.00000000000E+00  0.00000000000E+00  0.47400869930E+03  0.47400869930E+03  0.00000000000E+00 0. -1.
          1   -1    0    0  501    0 -0.00000000000E+00 -0.00000000000E+00 -0.21881784450E+04  0.21881784450E+04  0.00000000000E+00 0. -1.
         25    2    1    2    0    0 -0.41498107603E+02 -0.16329326790E+02 -0.99778943589E+01  0.13305752392E+03  0.12496402061E+03 0.  0.
          2    1    1    2  501    0 -0.41991304831E+02  0.73549820281E+02 -0.21095888742E+04  0.21112882474E+04  0.00000000000E+00 0. -1.
          1    1    1    2  502    0  0.83489412435E+02 -0.57220493491E+02  0.40539702280E+03  0.41784137296E+03  0.00000000000E+00 0. -1.
         22    1    3    3    0    0  0.13553044193E+02 -0.23503429897E+02  0.46516628654E+02  0.53850654269E+02  0.00000000000E+00 0. -1.
         22    1    3    3    0    0 -0.55051151796E+02  0.71741031072E+01 -0.56494523013E+02  0.79206869651E+02  0.00000000000E+00 0. -1.
</event>
<event>
 7    1  0.6444902E-006  0.1035742E+03  0.7818608E-02  0.1358310E+00
          2   -1    0    0  502    0  0.00000000000E+00  0.00000000000E+00  0.36717888289E+03  0.36717888289E+03  0.00000000000E+00 0. -1.
          1   -1    0    0  501    0 -0.00000000000E+00 -0.00000000000E+00 -0.64536690967E+03  0.64536690967E+03  0.00000000000E+00 0. -1.
         25    2    1    2    0    0 -0.13681135662E+03 -0.43719461561E+02  0.10542614823E+03  0.21763792896E+03  0.12499142679E+03 0.  0.
          2    1    1    2  501    0  0.45700946817E+02  0.14755515529E+02 -0.57709819508E+03  0.57909293602E+03  0.00000000000E+00 0. -1.
          1    1    1    2  502    0  0.91110409804E+02  0.28963946032E+02  0.19348402007E+03  0.21581492758E+03  0.00000000000E+00 0. -1.
         22    1    3    3    0    0 -0.94948265723E+02 -0.83500796973E+02  0.96812670681E+02  0.15924901715E+03  0.00000000000E+00 0.  1.
         22    1    3    3    0    0 -0.41863090898E+02  0.39781335412E+02  0.86134775437E+01  0.58388911808E+02  0.00000000000E+00 0.  1.
</event>
<event>
 7    1  0.8479773E-006  0.1153849E+03  0.7818608E-02  0.1314784E+00
          2   -1    0    0  502    0  0.00000000000E+00  0.00000000000E+00  0.13691718053E+04  0.13691718053E+04  0.00000000000E+00 0. -1.
          1   -1    0    0  501    0 -0.00000000000E+00 -0.00000000000E+00 -0.10875753276E+04  0.10875753276E+04  0.00000000000E+00 0. -1.
         25    2    1    2    0    0 -0.52362390792E+02  0.88976857748E+02 -0.24533256827E+03  0.29405753283E+03  0.12499224926E+03 0.  0.
          2    1    1    2  501    0 -0.50956155576E+02 -0.37018098372E+02 -0.81417547296E+03  0.81660796603E+03  0.00000000000E+00 0. -1.
          1    1    1    2  502    0  0.10331854637E+03 -0.51958759376E+02  0.13411045189E+04  0.13460816340E+04  0.00000000000E+00 0. -1.
         22    1    3    3    0    0 -0.53715471661E+02  0.17722364397E+02 -0.23840765403E+02  0.61382539786E+02  0.00000000000E+00 0. -1.
         22    1    3    3    0    0  0.13530808694E+01  0.71254493351E+02 -0.22149180287E+03  0.23267499304E+03  0.00000000000E+00 0. -1.
</event>
<event>
 7    1  0.6444902E-006  0.6514373E+02  0.7818608E-02  0.1413583E+00
          2   -1    0    0  502    0  0.00000000000E+00  0.00000000000E+00  0.14890539083E+04  0.14890539083E+04  0.00000000000E+00 0. -1.
          1   -1    0    0  501    0 -0.00000000000E+00 -0.00000000000E+00 -0.34569409843E+02  0.34569409843E+02  0.00000000000E+00 0. -1.
         25    2    1    2    0    0  0.34359674992E+02 -0.10022139190E+02  0.85271765915E+03  0.86257372479E+03  0.12499997574E+03 0.  0.
          2    1    1    2  501    0  0.35457800796E+02 -0.33577129227E+02 -0.46663737233E+01  0.49055624430E+02  0.00000000000E+00 0. -1.
          1    1    1    2  502    0 -0.69817475789E+02  0.43599268417E+02  0.60643321303E+03  0.61199396892E+03  0.00000000000E+00 0. -1.
         22    1    3    3    0    0 -0.94362672458E+01  0.16344042152E+02  0.72154669837E+03  0.72179346684E+03  0.00000000000E+00 0. -1.
         22    1    3    3    0    0  0.43795942238E+02 -0.26366181342E+02  0.13117096078E+03  0.14078025795E+03  0.00000000000E+00 0. -1.
</event>
<event>
 7    1  0.6444902E-006  0.8963251E+02  0.7818608E-02  0.1369960E+00
          2   -1    0    0  502    0  0.00000000000E+00  0.00000000000E+00  0.34939946559E+03  0.34939946559E+03  0.00000000000E+00 0. -1.
          1   -1    0    0  501    0 -0.00000000000E+00 -0.00000000000E+00 -0.91359092438E+03  0.91359092438E+03  0.00000000000E+00 0. -1.
         25    2    1    2    0    0 -0.98738700155E+01 -0.13009191497E+03 -0.95599434826E+02  0.20441527297E+03  0.12499980894E+03 0.  0.
          2    1    1    2  501    0 -0.15404077111E+02  0.86547838508E+02 -0.75887919749E+03  0.76395382735E+03  0.00000000000E+00 0. -1.
          1    1    1    2  502    0  0.25277947127E+02  0.43544076465E+02  0.29028717352E+03  0.29462128966E+03  0.00000000000E+00 0. -1.
         22    1    3    3    0    0 -0.42379441842E+02 -0.58804124903E+02 -0.10274655598E+03  0.12574099157E+03  0.00000000000E+00 0.  1.
         22    1    3    3    0    0  0.32505571827E+02 -0.71287790070E+02  0.71471211522E+01  0.78674281399E+02  0.00000000000E+00 0.  1.
</event>
<event>
 7    1  0.6444902E-006  0.5748750E+02  0.7818608E-02  0.1502105E+00
          2   -1    0    0  502    0  0.00000000000E+00  0.00000000000E+00  0.15308833516E+04  0.15308833516E+04  0.00000000000E+00 0. -1.
          1   -1    0    0  501    0 -0.00000000000E+00 -0.00000000000E+00 -0.58801412582E+02  0.58801412582E+02  0.00000000000E+00 0. -1.
         25    2    1    2    0    0  0.27673679537E+02  0.34161458487E+02  0.49973027406E+03  0.51699919718E+03  0.12499994119E+03 0.  0.
          2    1    1    2  501    0 -0.53896950103E+02 -0.21740258814E+02 -0.33055720440E+02  0.66859559806E+02  0.00000000000E+00 0. -1.
          1    1    1    2  502    0  0.26223270566E+02 -0.12421199673E+02  0.10054073854E+04  0.10058260072E+04  0.00000000000E+00 0. -1.
         22    1    3    3    0    0 -0.35874193265E+02 -0.79749867243E+01  0.57479239864E+02  0.68223318381E+02  0.00000000000E+00 0. -1.
         22    1    3    3    0    0  0.63547872802E+02  0.42136445212E+02  0.44225103419E+03  0.44877587880E+03  0.00000000000E+00 0. -1.
</event>
<event>
 7    1  0.6444902E-006  0.6688046E+02  0.7818608E-02  0.1387528E+00
          2   -1    0    0  502    0  0.00000000000E+00  0.00000000000E+00  0.54344312694E+03  0.54344312694E+03  0.00000000000E+00 0. -1.
          1   -1    0    0  501    0 -0.00000000000E+00 -0.00000000000E+00 -0.13681906281E+04  0.13681906281E+04  0.00000000000E+00 0. -1.
         25    2    1    2    0    0  0.54559313518E+02 -0.12266946998E+02 -0.11722983349E+03  0.18026397400E+03  0.12500027912E+03 0.  0.
          2    1    1    2  501    0 -0.25463995420E+02  0.62965847126E+02 -0.12168249351E+04  0.12187190142E+04  0.00000000000E+00 0. -1.
          1    1    1    2  502    0 -0.29095318098E+02 -0.50698900128E+02  0.50930726745E+03  0.51265076678E+03  0.00000000000E+00 0. -1.
         22    1    3    3    0    0  0.68439938273E+02  0.42284793682E+02 -0.73733794049E+02  0.10912699626E+03  0.00000000000E+00 0. -1.
         22    1    3    3    0    0 -0.13880624756E+02 -0.54551740680E+02 -0.43496039444E+02  0.71136977741E+02  0.00000000000E+00 0. -1.
</event>
<event>
 7    1  0.6444902E-006  0.7190220E+02  0.7818608E-02  0.1383055E+00
          2   -1    0    0  502    0  0.00000000000E+00  0.00000000000E+00  0.47953115432E+03  0.47953115432E+03  0.00000000000E+00 0. -1.
          1   -1    0    0  501    0 -0.00000000000E+00 -0.00000000000E+00 -0.10776073646E+04  0.10776073646E+04  0.00000000000E+00 0. -1.
         25    2    1    2    0    0  0.27300808799E+02 -0.12075837989E+03  0.28190765212E+03  0.33230262402E+03  0.12500075652E+03 0.  0.
          2    1    1    2  501    0 -0.31284308314E+02  0.64523509503E+02 -0.10465418589E+04  0.10489956404E+04  0.00000000000E+00 0. -1.
          1    1    1    2  502    0  0.39834995148E+01  0.56234870386E+02  0.16655799647E+03  0.17584025450E+03  0.00000000000E+00 0. -1.
         22    1    3    3    0    0  0.72247298016E+02 -0.79546316170E+02  0.13032569065E+03  0.16891439882E+03  0.00000000000E+00 0.  1.
         22    1    3    3    0    0 -0.44946489217E+02 -0.41212063719E+02  0.15158196147E+03  0.16338822519E+03  0.00000000000E+00 0.  1.
</event>
<event>
 7    1  0.6444902E-006  0.9094043E+02  0.7818608E-02  0.1337571E+00
          2   -1    0    0  502    0  0.00000000000E+00  0.00000000000E+00  0.63233567978E+03  0.63233567978E+03  0.00000000000E+00 0. -1.
          1   -1    0    0  501    0 -0.00000000000E+00 -0.00000000000E+00 -0.57935271504E+03  0.57935271504E+03  0.00000000000E+00 0. -1.
         25    2    1    2    0    0  0.17408131934E+02 -0.57421380688E+02  0.10561125337E+03  0.17429718363E+03  0.12500205344E+03 0.  0.
          2    1    1    2  501    0  0.43313456033E+02  0.81494306660E+02 -0.53890333462E+03  0.54674873713E+03  0.00000000000E+00 0. -1.
          1    1    1    2  502    0 -0.60721587967E+02 -0.24072925972E+02  0.48627504598E+03  0.49064247406E+03  0.00000000000E+00 0. -1.
         22    1    3    3    0    0 -0.17988424594E+02  0.28291969860E+02  0.64841807866E+02  0.72996431593E+02  0.00000000000E+00 0.  1.
         22    1    3    3    0    0  0.35396556528E+02 -0.85713350548E+02  0.40769445507E+02  0.10130075204E+03  0.00000000000E+00 0.  1.
</event>
<event>
 7    1  0.6444902E-006  0.6655574E+02  0.7818608E-02  0.1411262E+00
          2   -1    0    0  502    0  0.00000000000E+00  0.00000000000E+00  0.13183071656E+03  0.13183071656E+03  0.00000000000E+00 0. -1.
          1   -1    0    0  501    0 -0.00000000000E+00 -0.00000000000E+00 -0.29814568849E+03  0.29814568849E+03  0.00000000000E+00 0. -1.
         25    2    1    2    0    0  0.64937435205E+01  0.21392776721E+02 -0.98223543820E+02  0.16054649034E+03  0.12500996519E+03 0.  0.
          2    1    1    2  501    0  0.11604396145E+02  0.47263715367E+02 -0.15194816220E+03  0.15955176212E+03  0.00000000000E+00 0. -1.
          1    1    1    2  502    0 -0.18098139665E+02 -0.68656492088E+02  0.83856734086E+02  0.10987815259E+03  0.00000000000E+00 0. -1.
         22    1    3    3    0    0  0.82513332211E+01 -0.51071295182E+02 -0.57725143049E+02  0.77514862004E+02  0.00000000000E+00 0.  1.
         22    1    3    3    0    0 -0.17575897005E+01  0.72464071904E+02 -0.40498400771E+02  0.83031628332E+02  0.00000000000E+00 0.  1.
</event>
<event>
 7    1  0.6444902E-006  0.7219240E+02  0.7818608E-02  0.1365771E+00
          2   -1    0    0  502    0  0.00000000000E+00  0.00000000000E+00  0.25352311927E+03  0.25352311927E+03  0.00000000000E+00 0. -1.
          1   -1    0    0  501    0 -0.00000000000E+00 -0.00000000000E+00 -0.12960142417E+04  0.12960142417E+04  0.00000000000E+00 0. -1.
         25    2    1    2    0    0  0.11388469087E+03  0.67096188675E+02 -0.17747741778E+01  0.18192125373E+03  0.12498228428E+03 0.  0.
          2    1    1    2  501    0 -0.57328264168E+02 -0.30046906321E+02 -0.11962618682E+04  0.11980116042E+04  0.00000000000E+00 0. -1.
          1    1    1    2  502    0 -0.56556426706E+02 -0.37049282353E+02  0.15554551988E+03  0.16960450312E+03  0.00000000000E+00 0. -1.
         22    1    3    3    0    0 -0.23239202298E+02  0.97477883994E+01 -0.20003063523E+02  0.32174562195E+02  0.00000000000E+00 0.  1.
         22    1    3    3    0    0  0.13712389317E+03  0.57348400275E+02  0.18228289345E+02  0.14974669153E+03  0.00000000000E+00 0.  1.
</event>
<event>
 7    1  0.6444902E-006  0.4420976E+02  0.7818608E-02  0.1525802E+00
          2   -1    0    0  502    0  0.00000000000E+00  0.00000000000E+00  0.68249428069E+03  0.68249428069E+03  0.00000000000E+00 0. -1.
          1   -1    0    0  501    0 -0.00000000000E+00 -0.00000000000E+00 -0.30247241668E+02  0.30247241668E+02  0.00000000000E+00 0. -1.
         25    2    1    2    0    0  0.21139569965E+02  0.10509604403E+02  0.28325899910E+03  0.31051473031E+03  0.12500561574E+03 0.  0.
          2    1    1    2  501    0 -0.20232723205E+02 -0.42656390321E+02  0.19204658576E+02  0.50968123710E+02  0.00000000000E+00 0. -1.
          1    1    1    2  502    0 -0.90684675997E+00  0.32146785918E+02  0.34978338135E+03  0.35125866834E+03  0.00000000000E+00 0. -1.
         22    1    3    3    0    0  0.10097510579E+02  0.10461158285E+02 -0.96159863354E+01  0.17431659294E+02  0.00000000000E+00 0. -1.
         22    1    3    3    0    0  0.11042059386E+02  0.48446117820E-01  0.29287498544E+03  0.29308307102E+03  0.00000000000E+00 0. -1.
</event>
<event>
 7    1  0.6444902E-006  0.1257187E+03  0.7818608E-02  0.1367060E+00
          2   -1    0    0  502    0  0.00000000000E+00  0.00000000000E+00  0.14422548401E+04  0.14422548401E+04  0.00000000000E+00 0. -1.
          1   -1    0    0  501    0 -0.00000000000E+00 -0.00000000000E+00 -0.15823801896E+04  0.15823801896E+04  0.00000000000E+00 0. -1.
         25    2    1    2    0    0  0.11193073761E+03 -0.68811380063E+01  0.19675546038E+03  0.25867609029E+03  0.12499907367E+03 0.  0.
          2    1    1    2  501    0 -0.11831918257E+03  0.43092939885E+02 -0.15485853633E+04  0.15536965785E+04  0.00000000000E+00 0. -1.
          1    1    1    2  502    0  0.63884449595E+01 -0.36211801879E+02  0.12117045535E+04  0.12122623610E+04  0.00000000000E+00 0. -1.
         22    1    3    3    0    0  0.98160708139E+02 -0.57829571422E+02  0.11941765410E+03  0.16504653908E+03  0.00000000000E+00 0.  1.
         22    1    3    3    0    0  0.13770029468E+02  0.50948433416E+02  0.77337806278E+02  0.93629551205E+02  0.00000000000E+00 0.  1.
</event>
<event>
 7    1  0.6444902E-006  0.1099042E+03  0.7818608E-02  0.1288959E+00
          2   -1    0    0  502    0  0.00000000000E+00  0.00000000000E+00  0.10959384195E+04  0.10959384195E+04  0.00000000000E+00 0. -1.
          1   -1    0    0  501    0 -0.00000000000E+00 -0.00000000000E+00 -0.69876575758E+03  0.69876575758E+03  0.00000000000E+00 0. -1.
         25    2    1    2    0    0  0.12231664030E+03  0.13247320600E+03 -0.79850360952E+02  0.23347748272E+03  0.12500057595E+03 0.  0.
          2    1    1    2  501    0 -0.76759005242E+02 -0.33720779714E+02 -0.53593206639E+03  0.54245019647E+03  0.00000000000E+00 0. -1.
          1    1    1    2  502    0 -0.45557635063E+02 -0.98752426286E+02  0.10129550893E+04  0.10187764979E+04  0.00000000000E+00 0. -1.
         22    1    3    3    0    0  0.38158609089E+02  0.10463576811E+03 -0.91409109982E+02  0.14408451965E+03  0.00000000000E+00 0. -1.
         22    1    3    3    0    0  0.84158031215E+02  0.27837437888E+02  0.11558749030E+02  0.89392963064E+02  0.00000000000E+00 0. -1.
</event>
<event>
 7    1  0.6444902E-006  0.3512889E+02  0.7818608E-02  0.1598204E+00
          2   -1    0    0  502    0  0.00000000000E+00  0.00000000000E+00  0.21921055732E+02  0.21921055732E+02  0.00000000000E+00 0. -1.
          1   -1    0    0  501    0 -0.00000000000E+00 -0.00000000000E+00 -0.11993839250E+04  0.11993839250E+04  0.00000000000E+00 0. -1.
         25    2    1    2    0    0 -0.42418164458E+02 -0.30728228043E+02 -0.63539722079E+03  0.64969005939E+03  0.12499608155E+03 0.  0.
          2    1    1    2  501    0  0.33486582130E+02  0.67345804414E+01 -0.54479772566E+03  0.54586744512E+03  0.00000000000E+00 0. -1.
          1    1    1    2  502    0  0.89315823281E+01  0.23993647601E+02  0.27320771510E+01  0.25747476258E+02  0.00000000000E+00 0. -1.
         22    1    3    3    0    0  0.32129174954E+02 -0.17033613076E+02 -0.66744209942E+02  0.76008008910E+02  0.00000000000E+00 0. -1.
         22    1    3    3    0    0 -0.74547339412E+02 -0.13694614967E+02 -0.56865301085E+03  0.57368205048E+03  0.00000000000E+00 0. -1.
</event>
<event>
 7    1  0.6444902E-006  0.1065588E+03  0.7818608E-02  0.1404761E+00
          2   -1    0    0  502    0  0.00000000000E+00  0.00000000000E+00  0.54583078853E+03  0.54583078853E+03  0.00000000000E+00 0. -1.
          1   -1    0    0  501    0 -0.00000000000E+00 -0.00000000000E+00 -0.14203081936E+04  0.14203081936E+04  0.00000000000E+00 0. -1.
         25    2    1    2    0    0  0.70256784562E+02  0.72436619511E+02 -0.37111552420E+03  0.40440073270E+03  0.12502056104E+03 0.  0.
          2    1    1    2  501    0 -0.94862641314E+02 -0.52003335848E+02 -0.10292292727E+04  0.10348991078E+04  0.00000000000E+00 0. -1.
          1    1    1    2  502    0  0.24605856752E+02 -0.20433283663E+02  0.52586739184E+03  0.52683914155E+03  0.00000000000E+00 0. -1.
         22    1    3    3    0    0 -0.31566913152E+02  0.61322318626E+01 -0.37797715385E+02  0.49626016986E+02  0.00000000000E+00 0.  1.
         22    1    3    3    0    0  0.10182369771E+03  0.66304387648E+02 -0.33331780881E+03  0.35477471571E+03  0.00000000000E+00 0.  1.
</event>
<event>
 7    1  0.6928593E-006  0.1027955E+03  0.7818608E-02  0.1287920E+00
          2   -1    0    0  502    0  0.00000000000E+00  0.00000000000E+00  0.12750801541E+04  0.12750801541E+04  0.00000000000E+00 0. -1.
          1   -1    0    0  501    0 -0.00000000000E+00 -0.00000000000E+00 -0.73626273424E+03  0.73626273424E+03  0.00000000000E+00 0. -1.
         25    2    1    2    0    0 -0.12847120078E+02  0.31037708429E+02 -0.11027965931E+02  0.12991162561E+03  0.12500810613E+03 0.  0.
          2    1    1    2  501    0  0.10330514315E+03 -0.34276991907E+02 -0.65964205447E+03  0.66856151909E+03  0.00000000000E+00 0. -1.
          1    1    1    2  502    0 -0.90458023070E+02  0.32392834782E+01  0.12094874403E+04  0.12128697437E+04  0.00000000000E+00 0. -1.
         22    1    3    3    0    0 -0.68381471844E+02  0.22093838017E+02  0.30497815522E+01  0.71926799855E+02  0.00000000000E+00 0.  1.
         22    1    3    3    0    0  0.55534351766E+02  0.89438704116E+01 -0.14077747483E+02  0.57984825758E+02  0.00000000000E+00 0.  1.
</event>
<event>
 7    1  0.6444902E-006  0.6145006E+02  0.7818608E-02  0.1428372E+00
          2   -1    0    0  502    0  0.00000000000E+00  0.00000000000E+00  0.88789899034E+01  0.88789899034E+01  0.00000000000E+00 0. -1.
          1   -1    0    0  501    0 -0.00000000000E+00 -0.00000000000E+00 -0.25753126535E+04  0.25753126535E+04  0.00000000000E+00 0. -1.
         25    2    1    2    0    0  0.23548588444E+02 -0.76263135743E+02 -0.78649021811E+03  0.80035068723E+03  0.12499502977E+03 0.  0.
          2    1    1    2  501    0  0.18870095299E+02  0.57931030428E+02 -0.13597216540E+04  0.13610859859E+04  0.00000000000E+00 0. -1.
          1    1    1    2  502    0 -0.42418683744E+02  0.18332105315E+02 -0.42022179150E+03  0.42275497025E+03  0.00000000000E+00 0. -1.
         22    1    3    3    0    0 -0.78616214151E+01 -0.16250514511E+02 -0.94732704167E+01  0.20386936149E+02  0.00000000000E+00 0. -1.
         22    1    3    3    0    0  0.31410209859E+02 -0.60012621232E+02 -0.77701694770E+03  0.77996375108E+03  0.00000000000E+00 0. -1.
</event>
<event>
 7    1  0.6444902E-006  0.5434333E+02  0.7818608E-02  0.1483640E+00
          2   -1    0    0  502    0  0.00000000000E+00  0.00000000000E+00  0.12551709857E+04  0.12551709857E+04  0.00000000000E+00 0. -1.
          1   -1    0    0  501    0 -0.00000000000E+00 -0.00000000000E+00 -0.10201695696E+03  0.10201695696E+03  0.00000000000E+00 0. -1.
         25    2    1    2    0    0 -0.45689840793E+02 -0.58114004797E+02  0.61725032557E+02  0.15779580847E+03  0.12499895369E+03 0.  0.
          2    1    1    2  501    0  0.11427015310E+02  0.51522627415E+02 -0.40749627664E+02  0.66676007449E+02  0.00000000000E+00 0. -1.
          1    1    1    2  502    0  0.34262825483E+02  0.65913773816E+01  0.11321786239E+04  0.11327161268E+04  0.00000000000E+00 0. -1.
         22    1    3    3    0    0 -0.40931202521E+02 -0.73968010213E+02  0.90973293031E+02  0.12418844519E+03  0.00000000000E+00 0. -1.
         22    1    3    3    0    0 -0.47586382712E+01  0.15854005416E+02 -0.29248260474E+02  0.33607363281E+02  0.00000000000E+00 0. -1.
</event>
<event>
 7    1  0.6444902E-006  0.4450135E+02  0.7818608E-02  0.1531458E+00
          2   -1    0    0  502    0  0.00000000000E+00  0.00000000000E+00  0.16163238990E+04  0.16163238990E+04  0.00000000000E+00 0. -1.
          1   -1    0    0  501    0 -0.00000000000E+00 -0.00000000000E+00 -0.48651167766E+03  0.48651167766E+03  0.00000000000E+00 0. -1.
         25    2    1    2    0    0  0.13642156831E+02 -0.16943558777E+02 -0.82066393477E+02  0.15111084496E+03  0.12500560747E+03 0.  0.
          2    1    1    2  501    0  0.29887486588E+02  0.73442325873E+01 -0.36896821726E+03  0.37024957117E+03  0.00000000000E+00 0. -1.
          1    1    1    2  502    0 -0.43529643418E+02  0.95993261894E+01  0.15808468320E+04  0.15814751605E+04  0.00000000000E+00 0. -1.
         22    1    3    3    0    0 -0.24865104324E+02 -0.36208026318E+02  0.13782201313E+02  0.46035243628E+02  0.00000000000E+00 0.  1.
         22    1    3    3    0    0  0.38507261155E+02  0.19264467541E+02 -0.95848594790E+02  0.10507560133E+03  0.00000000000E+00 0.  1.
</event>
<event>
 7    1  0.6444902E-006  0.1354536E+03  0.7818608E-02  0.1432255E+00
          2   -1    0    0  502    0  0.00000000000E+00  0.00000000000E+00  0.79317507923E+03  0.79317507923E+03  0.00000000000E+00 0. -1.
          1   -1    0    0  501    0 -0.00000000000E+00 -0.00000000000E+00 -0.52195080022E+03  0.52195080022E+03  0.00000000000E+00 0. -1.
         25    2    1    2    0    0  0.12744710879E+02 -0.12940472413E+03 -0.57306100681E+02  0.18925347618E+03  0.12499951516E+03 0.  0.
          2    1    1    2  501    0 -0.32846066078E+02  0.13261515612E+03 -0.38681705741E+03  0.41023539534E+03  0.00000000000E+00 0. -1.
          1    1    1    2  502    0  0.20101355198E+02 -0.32104319979E+01  0.71534743710E+03  0.71563700793E+03  0.00000000000E+00 0. -1.
         22    1    3    3    0    0  0.49850037865E+02 -0.10100625648E+03 -0.79157781736E+02  0.13767078315E+03  0.00000000000E+00 0.  1.
         22    1    3    3    0    0 -0.37105326986E+02 -0.28398467645E+02  0.21851681055E+02  0.51582693030E+02  0.00000000000E+00 0.  1.
</event>
<event>
 7    1  0.6444902E-006  0.1387015E+03  0.7818608E-02  0.1234018E+00
          2   -1    0    0  502    0  0.00000000000E+00  0.00000000000E+00  0.47342261871E+02  0.47342261871E+02  0.00000000000E+00 0. -1.
          1   -1    0    0  501    0 -0.00000000000E+00 -0.00000000000E+00 -0.12311294960E+04  0.12311294960E+04  0.00000000000E+00 0. -1.
         25    2    1    2    0    0  0.62310838974E+02  0.49179523437E+02 -0.28292863668E+03  0.31933475336E+03  0.12499922028E+03 0.  0.
          2    1    1    2  501    0 -0.32976662393E+02  0.13472434105E+03 -0.46277110050E+03  0.48310992516E+03  0.00000000000E+00 0. -1.
          1    1    1    2  502    0 -0.29334176581E+02 -0.18390386448E+03 -0.43808749694E+03  0.47602707934E+03  0.00000000000E+00 0. -1.
         22    1    3    3    0    0  0.22214509266E+02 -0.17385010461E+01 -0.24125644333E+03  0.24228326037E+03  0.00000000000E+00 0.  1.
         22    1    3    3    0    0  0.40096329708E+02  0.50918024483E+02 -0.41672193350E+02  0.77051492989E+02  0.00000000000E+00 0.  1.
</event>
<event>
 7    1  0.6444902E-006  0.5779295E+02  0.7818608E-02  0.1524454E+00
          2   -1    0    0  502    0  0.00000000000E+00  0.00000000000E+00  0.19011516755E+04  0.19011516755E+04  0.00000000000E+00 0. -1.
          1   -1    0    0  501    0 -0.00000000000E+00 -0.00000000000E+00 -0.10347922109E+04  0.10347922109E+04  0.00000000000E+00 0. -1.
         25    2    1    2    0    0 -0.20547024497E+02 -0.79079922970E+02  0.44098475212E+03  0.46558196109E+03  0.12499278560E+03 0.  0.
          2    1    1    2  501    0  0.19743960941E+02  0.54270672465E+02 -0.10215716332E+04  0.10232026835E+04  0.00000000000E+00 0. -1.
          1    1    1    2  502    0  0.80306355629E+00  0.24809250505E+02  0.14469463456E+04  0.14471592417E+04  0.00000000000E+00 0. -1.
         22    1    3    3    0    0 -0.12668692896E+02 -0.78350107686E+02  0.44801919461E+03  0.45499498228E+03  0.00000000000E+00 0.  1.
         22    1    3    3    0    0 -0.78783316013E+01 -0.72981528450E+00 -0.70344424909E+01  0.10586978810E+02  0.00000000000E+00 0.  1.
</event>
<event>
 7    1  0.7166023E-006  0.9802606E+02  0.7818608E-02  0.1339043E+00
          2   -1    0    0  502    0  0.00000000000E+00  0.00000000000E+00  0.12634334065E+04  0.12634334065E+04  0.00000000000E+00 0. -1.
          1   -1    0    0  501    0 -0.00000000000E+00 -0.00000000000E+00 -0.13854522389E+04  0.13854522389E+04  0.00000000000E+00 0. -1.
         25    2    1    2    0    0  0.62152743400E+02  0.10063030565E+03 -0.20027936442E+03  0.26407847952E+03  0.12504478240E+03 0.  0.
          2    1    1    2  501    0 -0.23988852871E+01 -0.97658715513E+02 -0.11504755099E+04  0.11546154677E+04  0.00000000000E+00 0. -1.
          1    1    1    2  502    0 -0.59753858113E+02 -0.29715901361E+01  0.12287360418E+04  0.12301916982E+04  0.00000000000E+00 0. -1.
         22    1    3    3    0    0  0.62261476916E+02  0.10464143585E+03 -0.21594431108E+03  0.24790777941E+03  0.00000000000E+00 0. -1.
         22    1    3    3    0    0 -0.10873351678E+00 -0.40111302008E+01  0.15664946654E+02  0.16170700113E+02  0.00000000000E+00 0. -1.
</event>
<event>
 7    1  0.6444902E-006  0.1015935E+03  0.7818608E-02  0.1432853E+00
          2   -1    0    0  502    0  0.00000000000E+00  0.00000000000E+00  0.58869868940E+02  0.58869868940E+02  0.00000000000E+00 0. -1.
          1   -1    0    0  501    0 -0.00000000000E+00 -0.00000000000E+00 -0.21346383601E+04  0.21346383601E+04  0.00000000000E+00 0. -1.
         25    2    1    2    0    0 -0.81466214666E+02 -0.14691747595E+02 -0.73770004594E+03  0.75278236857E+03  0.12500937990E+03 0.  0.
          2    1    1    2  501    0  0.10185995195E+03  0.32414173201E+02 -0.13836314770E+04  0.13877543704E+04  0.00000000000E+00 0. -1.
          1    1    1    2  502    0 -0.20393737280E+02 -0.17722425606E+02  0.45563031809E+02  0.52971490042E+02  0.00000000000E+00 0. -1.
         22    1    3    3    0    0 -0.50667625326E+02  0.28391401604E+02 -0.12540925842E+03  0.13820550654E+03  0.00000000000E+00 0.  1.
         22    1    3    3    0    0 -0.30798589339E+02 -0.43083149199E+02 -0.61229078752E+03  0.61457686203E+03  0.00000000000E+00 0.  1.
</event>
<event>
 7    1  0.6444902E-006  0.8391887E+02  0.7818608E-02  0.1431796E+00
          2   -1    0    0  502    0  0.00000000000E+00  0.00000000000E+00  0.31778430243E+03  0.31778430243E+03  0.00000000000E+00 0. -1.
          1   -1    0    0  501    0 -0.00000000000E+00 -0.00000000000E+00 -0.66554904535E+03  0.66554904535E+03  0.00000000000E+00 0. -1.
         25    2    1    2    0    0  0.10723476718E+03  0.23491356719E+02  0.18160832665E+03  0.24628903692E+03  0.12500226505E+03 0.  0.
          2    1    1    2  501    0 -0.76159936121E+02 -0.34511562930E+02 -0.62774749265E+03  0.63329163770E+03  0.00000000000E+00 0. -1.
          1    1    1    2  502    0 -0.31074831055E+02  0.11020206210E+02  0.98374423086E+02  0.10375267316E+03  0.00000000000E+00 0. -1.
         22    1    3    3    0    0  0.12342244701E+03  0.15949983596E+02  0.18954365660E+03  0.22674721643E+03  0.00000000000E+00 0.  1.
         22    1    3    3    0    0 -0.16187679830E+02  0.75413731235E+01 -0.79353299468E+01  0.19541820494E+02  0.00000000000E+00 0.  1.
</event>
<event>
 7    1  0.6444902E-006  0.1183621E+03  0.7818608E-02  0.1356880E+00
          2   -1    0    0  502    0  0.00000000000E+00  0.00000000000E+00  0.68750782500E+03  0.68750782500E+03  0.00000000000E+00 0. -1.
          1   -1    0    0  501    0 -0.00000000000E+00 -0.00000000000E+00 -0.12325442893E+03  0.12325442893E+03  0.00000000000E+00 0. -1.
         25    2    1    2    0    0  0.12097472491E+03  0.79028177112E+02  0.34470686892E+03  0.39411747542E+03  0.12500168842E+03 0.  0.
          2    1    1    2  501    0 -0.78917207318E+02 -0.85377805953E+02 -0.62096754965E+02  0.13180782351E+03  0.00000000000E+00 0. -1.
          1    1    1    2  502    0 -0.42057517590E+02  0.63496288409E+01  0.28164328212E+03  0.28483695500E+03  0.00000000000E+00 0. -1.
         22    1    3    3    0    0  0.32352444323E+02 -0.29394816202E+02  0.13544559255E+03  0.14232443365E+03  0.00000000000E+00 0. -1.
         22    1    3    3    0    0  0.88622280585E+02  0.10842299331E+03  0.20926127637E+03  0.25179304177E+03  0.00000000000E+00 0. -1.
</event>
<event>
 7    1  0.6444902E-006  0.9274577E+02  0.7818608E-02  0.1342586E+00
          2   -1    0    0  502    0  0.00000000000E+00  0.00000000000E+00  0.82596678785E+03  0.82596678785E+03  0.00000000000E+00 0. -1.
          1   -1    0    0  501    0 -0.00000000000E+00 -0.00000000000E+00 -0.28819601131E+03  0.28819601131E+03  0.00000000000E+00 0. -1.
         25    2    1    2    0    0  0.85764478081E+02 -0.11613077109E+03  0.29004939259E+03  0.34726941143E+03  0.12500196908E+03 0.  0.
          2    1    1    2  501    0 -0.72180478325E+02  0.56329110795E+02 -0.24957008254E+03  0.26583494178E+03  0.00000000000E+00 0. -1.
          1    1    1    2  502    0 -0.13583999756E+02  0.59801660300E+02  0.49729146649E+03  0.50105844596E+03  0.00000000000E+00 0. -1.
         22    1    3    3    0    0 -0.94695642209E+01 -0.41625479464E+02  0.12431768975E+02  0.44462366863E+02  0.00000000000E+00 0.  1.
         22    1    3    3    0    0  0.95234042301E+02 -0.74505291630E+02  0.27761762362E+03  0.30280704456E+03  0.00000000000E+00 0.  1.
</event>
<event>
 7    1  0.6444902E-006  0.7950087E+02  0.7818608E-02  0.1433740E+00
          2   -1    0    0  502    0  0.00000000000E+00  0.00000000000E+00  0.16486736830E+04  0.16486736830E+04  0.00000000000E+00 0. -1.
          1   -1    0    0  501    0 -0.00000000000E+00 -0.00000000000E+00 -0.31025902124E+03  0.31025902124E+03  0.00000000000E+00 0. -1.
         25    2    1    2    0    0 -0.10229705156E+03 -0.30406945293E+02  0.27055882414E+02  0.16657142175E+03  0.12499899476E+03 0.  0.
          2    1    1    2  501    0  0.33272652946E+02 -0.83154433831E+01 -0.23826354747E+03  0.24071920173E+03  0.00000000000E+00 0. -1.
          1    1    1    2  502    0  0.69024398615E+02  0.38722388676E+02  0.15496223268E+04  0.15516420807E+04  0.00000000000E+00 0. -1.
         22    1    3    3    0    0 -0.84233387136E+02  0.15907984803E+02  0.62010341746E+02  0.10579985809E+03  0.00000000000E+00 0.  1.
         22    1    3    3    0    0 -0.18063664425E+02 -0.46314930096E+02 -0.34954459332E+02  0.60771563658E+02  0.00000000000E+00 0.  1.
</event>
<event>
 7    1  0.6444902E-006  0.2937648E+02  0.7818608E-02  0.1666346E+00
          2   -1    0    0  502    0  0.00000000000E+00  0.00000000000E+00  0.49087033307E+03  0.49087033307E+03  0.00000000000E+00 0. -1.
          1   -1    0    0  501    0 -0.00000000000E+00 -0.00000000000E+00 -0.73869746570E+02  0.73869746570E+02  0.00000000000E+00 0. -1.
         25    2    1    2    0    0  0.41131841988E+02  0.25800925696E+02  0.97483162627E+02  0.16576813592E+03  0.12497436416E+03 0.  0.
          2    1    1    2  501    0 -0.26225496448E+02 -0.11504996314E+02 -0.34225539219E+02  0.44626551950E+02  0.00000000000E+00 0. -1.
          1    1    1    2  502    0 -0.14906345539E+02 -0.14295929382E+02  0.35374296309E+03  0.35434539177E+03  0.00000000000E+00 0. -1.
         22    1    3    3    0    0  0.22820098049E+02 -0.49715054309E+02  0.53324403151E+02  0.76392640164E+02  0.00000000000E+00 0.  1.
         22    1    3    3    0    0  0.18311743939E+02  0.75515980005E+02  0.44158759476E+02  0.89375495751E+02  0.00000000000E+00 0.  1.
</event>
<event>
 7    1  0.6576521E-006  0.1262620E+03  0.7818608E-02  0.1248542E+00
          2   -1    0    0  502    0  0.00000000000E+00  0.00000000000E+00  0.26529172548E+04  0.26529172548E+04  0.00000000000E+00 0. -1.
          1   -1    0    0  501    0 -0.00000000000E+00 -0.00000000000E+00 -0.10047766015E+04  0.10047766015E+04  0.00000000000E+00 0. -1.
         25    2    1    2    0    0 -0.93136450158E+02 -0.67231325553E+01 -0.11338484586E+03  0.19287483562E+03  0.12499992034E+03 0.  0.
          2    1    1    2  501    0  0.74365817093E+02  0.11304957417E+03 -0.84514709659E+03  0.85591126634E+03  0.00000000000E+00 0. -1.
          1    1    1    2  502    0  0.18770633064E+02 -0.10632644162E+03  0.26066725958E+04  0.26089077543E+04  0.00000000000E+00 0. -1.
         22    1    3    3    0    0 -0.10547695567E+03 -0.18129619323E+02 -0.13057792400E+03  0.16883324764E+03  0.00000000000E+00 0.  1.
         22    1    3    3    0    0  0.12340505511E+02  0.11406486767E+02  0.17193078137E+02  0.24041587977E+02  0.00000000000E+00 0.  1.
</event>
<event>
 7    1  0.6444902E-006  0.4486836E+02  0.7818608E-02  0.1479425E+00
          2   -1    0    0  502    0  0.00000000000E+00  0.00000000000E+00  0.75077938681E+02  0.75077938681E+02  0.00000000000E+00 0. -1.
          1   -1    0    0  501    0 -0.00000000000E+00 -0.00000000000E+00 -0.17034434418E+04  0.17034434418E+04  0.00000000000E+00 0. -1.
         25    2    1    2    0    0  0.73553898441E+01 -0.40485842885E+02 -0.28706332034E+02  0.13469353337E+03  0.12500035679E+03 0.  0.
          2    1    1    2  501    0  0.39022530538E+02  0.22145239419E+02 -0.15928622824E+04  0.15934940917E+04  0.00000000000E+00 0. -1.
          1    1    1    2  502    0 -0.46377920382E+02  0.18340603466E+02 -0.67968886146E+01  0.50333755366E+02  0.00000000000E+00 0. -1.
         22    1    3    3    0    0 -0.58641923791E+02 -0.13073530413E+02 -0.11197410157E+02  0.61116073316E+02  0.00000000000E+00 0. -1.
         22    1    3    3    0    0  0.65997313635E+02 -0.27412312472E+02 -0.17508921876E+02  0.73577460050E+02  0.00000000000E+00 0. -1.
</event>
<event>
 7    1  0.6444902E-006  0.6676603E+02  0.7818608E-02  0.1424468E+00
          2   -1    0    0  502    0  0.00000000000E+00  0.00000000000E+00  0.27380891722E+04  0.27380891722E+04  0.00000000000E+00 0. -1.
          1   -1    0    0  501    0 -0.00000000000E+00 -0.00000000000E+00 -0.13501577725E+03  0.13501577725E+03  0.00000000000E+00 0. -1.
         25    2    1    2    0    0 -0.45692643974E+01 -0.58029814662E+02  0.32340055086E+03  0.35156944177E+03  0.12499927409E+03 0.  0.
          2    1    1    2  501    0 -0.39130463580E+02  0.54848139284E+02 -0.11133053464E+03  0.13013070163E+03  0.00000000000E+00 0. -1.
          1    1    1    2  502    0  0.43699727978E+02  0.31816753779E+01  0.23910033787E+04  0.23914048060E+04  0.00000000000E+00 0. -1.
         22    1    3    3    0    0 -0.46717709591E+02 -0.76878326308E+02  0.18587163102E+03  0.20649717835E+03  0.00000000000E+00 0.  1.
         22    1    3    3    0    0  0.42148445194E+02  0.18848511646E+02  0.13752891984E+03  0.14507226343E+03  0.00000000000E+00 0.  1.
</event>
<event>
 7    1  0.6444902E-006  0.6537227E+02  0.7818608E-02  0.1389126E+00
          2   -1    0    0  502    0  0.00000000000E+00  0.00000000000E+00  0.90835475317E+03  0.90835475317E+03  0.00000000000E+00 0. -1.
          1   -1    0    0  501    0 -0.00000000000E+00 -0.00000000000E+00 -0.50657809197E+03  0.50657809197E+03  0.00000000000E+00 0. -1.
         25    2    1    2    0    0  0.50904842694E+02  0.21897531301E+02  0.29613461933E+03  0.32617685941E+03  0.12499930384E+03 0.  0.
          2    1    1    2  501    0 -0.36642885104E+02  0.46290635473E+02 -0.48773924383E+03  0.49129939338E+03  0.00000000000E+00 0. -1.
          1    1    1    2  502    0 -0.14261957590E+02 -0.68188166775E+02  0.59338128571E+03  0.59745659236E+03  0.00000000000E+00 0. -1.
         22    1    3    3    0    0  0.35253924331E+02  0.84516043066E+01  0.30243714930E+03  0.30460219643E+03  0.00000000000E+00 0. -1.
         22    1    3    3    0    0  0.15650918363E+02  0.13445926995E+02 -0.63025299692E+01  0.21574662972E+02  0.00000000000E+00 0. -1.
</event>
<event>
 7    1  0.6444902E-006  0.1394751E+03  0.7818608E-02  0.1301408E+00
          2   -1    0    0  502    0  0.00000000000E+00  0.00000000000E+00  0.13562607074E+04  0.13562607074E+04  0.00000000000E+00 0. -1.
          1   -1    0    0  501    0 -0.00000000000E+00 -0.00000000000E+00 -0.23568536337E+04  0.23568536337E+04  0.00000000000E+00 0. -1.
         25    2    1    2    0    0  0.14578864213E+03  0.25756307262E+02 -0.95758349233E+03  0.97698967316E+03  0.12499984452E+03 0.  0.
          2    1    1    2  501    0 -0.10073811906E+02 -0.57981641961E+02 -0.13853282932E+04  0.13865777412E+04  0.00000000000E+00 0. -1.
          1    1    1    2  502    0 -0.13571483023E+03  0.32225334699E+02  0.13423188593E+04  0.13495469267E+04  0.00000000000E+00 0. -1.
         22    1    3    3    0    0  0.60014268172E+02  0.72391820109E+02 -0.54159408470E+03  0.54969668052E+03  0.00000000000E+00 0. -1.
         22    1    3    3    0    0  0.85774373962E+02 -0.46635512847E+02 -0.41598940764E+03  0.42729299263E+03  0.00000000000E+00 0. -1.
</event>
<event>
 7    1  0.6444902E-006  0.6750864E+02  0.7818608E-02  0.1387884E+00
          2   -1    0    0  502    0  0.00000000000E+00  0.00000000000E+00  0.94405908738E+03  0.94405908738E+03  0.00000000000E+00 0. -1.
          1   -1    0    0  501    0 -0.00000000000E+00 -0.00000000000E+00 -0.40491786831E+02  0.40491786831E+02  0.00000000000E+00 0. -1.
         25    2    1    2    0    0 -0.31928993231E+02 -0.47523612036E+02  0.18410303387E+03  0.22977646433E+03  0.12500136867E+03 0.  0.
          2    1    1    2  501    0  0.77694811027E+02  0.12310820453E+02  0.78216027200E+02  0.11093145123E+03  0.00000000000E+00 0. -1.
          1    1    1    2  502    0 -0.45765817796E+02  0.35212791583E+02  0.64124823948E+03  0.64384295865E+03  0.00000000000E+00 0. -1.
         22    1    3    3    0    0 -0.53084893065E+02  0.35541590541E+00  0.16617213888E+03  0.17444572776E+03  0.00000000000E+00 0. -1.
         22    1    3    3    0    0  0.21155899834E+02 -0.47879027941E+02  0.17930894984E+02  0.55330736570E+02  0.00000000000E+00 0. -1.
</event>
<event>
 7    1  0.6444902E-006  0.9585317E+02  0.7818608E-02  0.1390132E+00
          2   -1    0    0  502    0  0.00000000000E+00  0.00000000000E+00  0.29076209943E+04  0.29076209943E+04  0.00000000000E+00 0. -1.
          1   -1    0    0  501    0 -0.00000000000E+00 -0.00000000000E+00 -0.10596950151E+03  0.10596950151E+03  0.00000000000E+00 0. -1.
         25    2    1    2    0    0  0.93895934011E+01  0.57174695630E+02  0.46157304648E+03  0.48169862488E+03  0.12500711055E+03 0.  0.
          2    1    1    2  501    0 -0.17342672578E+02 -0.96314904316E+02 -0.70732948308E+02  0.12074965450E+03  0.00000000000E+00 0. -1.
          1    1    1    2  502    0  0.79530791765E+01  0.39140208686E+02  0.24108113946E+04  0.24111422164E+04  0.00000000000E+00 0. -1.
         22    1    3    3    0    0  0.60315714399E+02  0.50410970678E+02  0.35213583334E+03  0.36080312705E+03  0.00000000000E+00 0. -1.
         22    1    3    3    0    0 -0.50926120998E+02  0.67637249524E+01  0.10943721314E+03  0.12089549783E+03  0.00000000000E+00 0. -1.
</event>
<event>
 7    1  0.6444902E-006  0.4114813E+02  0.7818608E-02  0.1552264E+00
          2   -1    0    0  502    0  0.00000000000E+00  0.00000000000E+00  0.52600428082E+03  0.52600428082E+03  0.00000000000E+00 0. -1.
          1   -1    0    0  501    0 -0.00000000000E+00 -0.00000000000E+00 -0.32852472006E+02  0.32852472006E+02  0.00000000000E+00 0. -1.
         25    2    1    2    0    0  0.14656329877E+02  0.36288469816E+01  0.29427293389E+03  0.32007801541E+03  0.12500159916E+03 0.  0.
          2    1    1    2  501    0 -0.43274597652E+02  0.15248044274E+01  0.59940684573E+01  0.43714353332E+02  0.00000000000E+00 0. -1.
          1    1    1    2  502    0  0.28618267776E+02 -0.51536514090E+01  0.19288480647E+03  0.19506438409E+03  0.00000000000E+00 0. -1.
         22    1    3    3    0    0  0.56504993476E+02 -0.19675071031E+02  0.24152984771E+03  0.24883044437E+03  0.00000000000E+00 0.  1.
         22    1    3    3    0    0 -0.41848663600E+02  0.23303918013E+02  0.52743086177E+02  0.71247571041E+02  0.00000000000E+00 0.  1.
</event>
<event>
 7    1  0.6444902E-006  0.6804651E+02  0.7818608E-02  0.1520973E+00
          2   -1    0    0  502    0  0.00000000000E+00  0.00000000000E+00  0.16993627082E+04  0.16993627082E+04  0.00000000000E+00 0. -1.
          1   -1    0    0  501    0 -0.00000000000E+00 -0.00000000000E+00 -0.16750775619E+04  0.16750775619E+04  0.00000000000E+00 0. -1.
         25    2    1    2    0    0 -0.26406799779E+02  0.81322332308E+02  0.32882397912E+03  0.36202217683E+03  0.12499682582E+03 0.  0.
          2    1    1    2  501    0  0.31400090840E+02 -0.60331485825E+02 -0.16576951169E+04  0.16590897970E+04  0.00000000000E+00 0. -1.
          1    1    1    2  502    0 -0.49932910609E+01 -0.20990846483E+02  0.13531562840E+04  0.13533282963E+04  0.00000000000E+00 0. -1.
         22    1    3    3    0    0 -0.23614242942E+02  0.11195642662E+03  0.20854104199E+03  0.23786811499E+03  0.00000000000E+00 0. -1.
         22    1    3    3    0    0 -0.27925568370E+01 -0.30634094315E+02  0.12028293713E+03  0.12415406185E+03  0.00000000000E+00 0. -1.
</event>
<event>
 7    1  0.6444902E-006  0.1114203E+03  0.7818608E-02  0.1326012E+00
          2   -1    0    0  502    0  0.00000000000E+00  0.00000000000E+00  0.58192336661E+03  0.58192336661E+03  0.00000000000E+00 0. -1.
          1   -1    0    0  501    0 -0.00000000000E+00 -0.00000000000E+00 -0.58889370492E+03  0.58889370492E+03  0.00000000000E+00 0. -1.
         25    2    1    2    0    0 -0.64387737280E+02 -0.28193515024E+02  0.91857252868E+02  0.17029491688E+03  0.12498779464E+03 0.  0.
          2    1    1    2  501    0 -0.24018199776E+02 -0.53892868186E+02 -0.53996873284E+03  0.54318279392E+03  0.00000000000E+00 0. -1.
          1    1    1    2  502    0  0.88405937056E+02  0.82086383211E+02  0.44114114166E+03  0.45733936074E+03  0.00000000000E+00 0. -1.
         22    1    3    3    0    0  0.27468442616E+02 -0.17472900088E+02 -0.86803365726E+01  0.33692221955E+02  0.00000000000E+00 0.  1.
         22    1    3    3    0    0 -0.91856179897E+02 -0.10720614936E+02  0.10053758944E+03  0.13660269492E+03  0.00000000000E+00 0.  1.
</event>
<event>
 7    1  0.6444902E-006  0.5649573E+02  0.7818608E-02  0.1443766E+00
          2   -1    0    0  502    0  0.00000000000E+00  0.00000000000E+00  0.51894016577E+03  0.51894016577E+03  0.00000000000E+00 0. -1.
          1   -1    0    0  501    0 -0.00000000000E+00 -0.00000000000E+00 -0.77020523891E+03  0.77020523891E+03  0.00000000000E+00 0. -1.
         25    2    1    2    0    0  0.98421265560E+02  0.14108384080E+02 -0.82087459713E+01  0.15992945031E+03  0.12499701417E+03 0.  0.
          2    1    1    2  501    0 -0.55864757777E+02 -0.19902910637E+00 -0.68386319206E+03  0.68614122178E+03  0.00000000000E+00 0. -1.
          1    1    1    2  502    0 -0.42556507783E+02 -0.13909354974E+02  0.44080686490E+03  0.44307473258E+03  0.00000000000E+00 0. -1.
         22    1    3    3    0    0  0.77642349860E+02  0.57635282897E+02  0.26787891072E+02  0.10033818533E+03  0.00000000000E+00 0. -1.
         22    1    3    3    0    0  0.20778915700E+02 -0.43526898817E+02 -0.34996637044E+02  0.59591264986E+02  0.00000000000E+00 0. -1.
</event>
<event>
 7    1  0.6444902E-006  0.2383173E+02  0.7818608E-02  0.1685454E+00
          2   -1    0    0  502    0  0.00000000000E+00  0.00000000000E+00  0.23643004625E+03  0.23643004625E+03  0.00000000000E+00 0. -1.
          1   -1    0    0  501    0 -0.00000000000E+00 -0.00000000000E+00 -0.77158861367E+03  0.77158861367E+03  0.00000000000E+00 0. -1.
         25    2    1    2    0    0 -0.14018009240E+02  0.44208564051E+02 -0.18391065312E+03  0.22715566542E+03  0.12500266512E+03 0.  0.
          2    1    1    2  501    0  0.94666954780E+01 -0.20888002896E+02 -0.56516513812E+03  0.56563023287E+03  0.00000000000E+00 0. -1.
          1    1    1    2  502    0  0.45513137623E+01 -0.23320561154E+02  0.21391722382E+03  0.21523276162E+03  0.00000000000E+00 0. -1.
         22    1    3    3    0    0  0.11915318988E+02  0.59219478019E+02 -0.24884551748E+02  0.65331174176E+02  0.00000000000E+00 0.  1.
         22    1    3    3    0    0 -0.25933328228E+02 -0.15010913969E+02 -0.15902610137E+03  0.16182449125E+03  0.00000000000E+00 0.  1.
</event>
<event>
 7    1  0.6444902E-006  0.3367747E+02  0.7818608E-02  0.1629924E+00
          2   -1    0    0  502    0  0.00000000000E+00  0.00000000000E+00  0.11601635761E+04  0.11601635761E+04  0.00000000000E+00 0. -1.
          1   -1    0    0  501    0 -0.00000000000E+00 -0.00000000000E+00 -0.10583700075E+03  0.10583700075E+03  0.00000000000E+00 0. -1.
         25    2    1    2    0    0  0.21244045084E+02 -0.44645397997E+02  0.46276847930E+02  0.14216992290E+03  0.12500487714E+03 0.  0.
          2    1    1    2  501    0 -0.19157176098E+02  0.11100481527E+02 -0.55498239705E+02  0.59751758941E+02  0.00000000000E+00 0. -1.
          1    1    1    2  502    0 -0.20868689861E+01  0.33544916470E+02  0.10635479671E+04  0.10640788950E+04  0.00000000000E+00 0. -1.
         22    1    3    3    0    0  0.71906106276E+02 -0.22224898172E+02  0.42980670974E+02  0.86670481110E+02  0.00000000000E+00 0.  1.
         22    1    3    3    0    0 -0.50662061192E+02 -0.22420499825E+02  0.32961769567E+01  0.55499441791E+02  0.00000000000E+00 0.  1.
</event>
<event>
 7    1  0.6444902E-006  0.7578323E+02  0.7818608E-02  0.1404870E+00
          2   -1    0    0  502    0  0.00000000000E+00  0.00000000000E+00  0.16327371569E+04  0.16327371569E+04  0.00000000000E+00 0. -1.
          1   -1    0    0  501    0 -0.00000000000E+00 -0.00000000000E+00 -0.49469266127E+03  0.49469266127E+03  0.00000000000E+00 0. -1.
         25    2    1    2    0    0 -0.30696995269E+02 -0.10228876538E+02  0.17568838494E+03  0.21803348350E+03  0.12500102357E+03 0.  0.
          2    1    1    2  501    0  0.67350085687E+02  0.36221151495E+02 -0.47007800220E+03  0.47625763407E+03  0.00000000000E+00 0. -1.
          1    1    1    2  502    0 -0.36653090418E+02 -0.25992274958E+02  0.14324341129E+04  0.14331387006E+04  0.00000000000E+00 0. -1.
         22    1    3    3    0    0 -0.14225204127E+00  0.53570912942E+01 -0.19310780501E+02  0.20040581487E+02  0.00000000000E+00 0.  1.
         22    1    3    3    0    0 -0.30554743228E+02 -0.15585967832E+02  0.19499916544E+03  0.19799290201E+03  0.00000000000E+00 0.  1.
</event>
<event>
 7    1  0.6444902E-006  0.1427822E+03  0.7818608E-02  0.1322859E+00
          2   -1    0    0  502    0  0.00000000000E+00  0.00000000000E+00  0.40422982675E+03  0.40422982675E+03  0.00000000000E+00 0. -1.
          1   -1    0    0  501    0 -0.00000000000E+00 -0.00000000000E+00 -0.39494598947E+03  0.39494598947E+03  0.00000000000E+00 0. -1.
         25    2    1    2    0    0 -0.14358763713E+03  0.60809418448E+02 -0.19405450323E+02  0.20079414011E+03  0.12500608102E+03 0.  0.
          2    1    1    2  501    0  0.35676772155E+02  0.31130274494E+02 -0.26662805072E+03  0.27079963717E+03  0.00000000000E+00 0. -1.
          1    1    1    2  502    0  0.10791086498E+03 -0.91939692941E+02  0.29531733832E+03  0.32758203893E+03  0.00000000000E+00 0. -1.
         22    1    3    3    0    0 -0.99243548937E+02 -0.24475852524E+01  0.36138633198E+02  0.10564692844E+03  0.00000000000E+00 0.  1.
         22    1    3    3    0    0 -0.44344088196E+02  0.63257003700E+02 -0.55544083521E+02  0.95147211673E+02  0.00000000000E+00 0.  1.
</event>
<event>
 7    1  0.6444902E-006  0.7177000E+02  0.7818608E-02  0.1505779E+00
          2   -1    0    0  502    0  0.00000000000E+00  0.00000000000E+00  0.22360896280E+03  0.22360896280E+03  0.00000000000E+00 0. -1.
          1   -1    0    0  501    0 -0.00000000000E+00 -0.00000000000E+00 -0.75710872005E+03  0.75710872005E+03  0.00000000000E+00 0. -1.
         25    2    1    2    0    0 -0.91405503456E+02 -0.47556308501E+01 -0.22472742253E+03  0.27295719682E+03  0.12500253905E+03 0.  0.
          2    1    1    2  501    0  0.20319947200E+02  0.10041398283E+02 -0.50163485797E+03  0.50214665255E+03  0.00000000000E+00 0. -1.
          1    1    1    2  502    0  0.71085556256E+02 -0.52857674326E+01  0.19286252325E+03  0.20561383349E+03  0.00000000000E+00 0. -1.
         22    1    3    3    0    0 -0.92790194756E+02 -0.32066102309E+02 -0.22513404862E+03  0.24560862161E+03  0.00000000000E+00 0.  1.
         22    1    3    3    0    0  0.13846913005E+01  0.27310471459E+02  0.40662608496E+00  0.27348575211E+02  0.00000000000E+00 0.  1.
</event>
<event>
 7    1  0.6444902E-006  0.4640630E+02  0.7818608E-02  0.1476740E+00
          2   -1    0    0  502    0  0.00000000000E+00  0.00000000000E+00  0.16186753170E+04  0.16186753170E+04  0.00000000000E+00 0. -1.
          1   -1    0    0  501    0 -0.00000000000E+00 -0.00000000000E+00 -0.68150172302E+02  0.68150172302E+02  0.00000000000E+00 0. -1.
         25    2    1    2    0    0  0.49358899320E+01  0.16544901633E+02  0.27802971322E+03  0.30532670234E+03  0.12500310775E+03 0.  0.
          2    1    1    2  501    0  0.34758305232E+02 -0.32813664460E+02 -0.43603794204E+02  0.64700596805E+02  0.00000000000E+00 0. -1.
          1    1    1    2  502    0 -0.39694195164E+02  0.16268762827E+02  0.13160992257E+04  0.13167981902E+04  0.00000000000E+00 0. -1.
         22    1    3    3    0    0  0.18987999906E+02  0.61202781912E+02  0.22788981564E+03  0.23672788752E+03  0.00000000000E+00 0. -1.
         22    1    3    3    0    0 -0.14052109974E+02 -0.44657880279E+02  0.50139897581E+02  0.68598814823E+02  0.00000000000E+00 0. -1.
</event>
<event>
 7    1  0.6444902E-006  0.9019354E+02  0.7818608E-02  0.1346732E+00
          2   -1    0    0  502    0  0.00000000000E+00  0.00000000000E+00  0.53840935262E+03  0.53840935262E+03  0.00000000000E+00 0. -1.
          1   -1    0    0  501    0 -0.00000000000E+00 -0.00000000000E+00 -0.30333056859E+03  0.30333056859E+03  0.00000000000E+00 0. -1.
         25    2    1    2    0    0  0.73588678611E+02 -0.83836900465E+02  0.20028625534E+03  0.26111813403E+03  0.12499670532E+03 0.  0.
          2    1    1    2  501    0 -0.86691049941E+02  0.24412827424E+02 -0.26231566534E+03  0.27734605201E+03  0.00000000000E+00 0. -1.
          1    1    1    2  502    0  0.13102371330E+02  0.59424073041E+02  0.29710819403E+03  0.30327573518E+03  0.00000000000E+00 0. -1.
         22    1    3    3    0    0  0.21394665360E+02 -0.30795710850E+02  0.18017189759E+03  0.18403266067E+03  0.00000000000E+00 0.  1.
         22    1    3    3    0    0  0.52194013251E+02 -0.53041189615E+02  0.20114357753E+02  0.77085473358E+02  0.00000000000E+00 0.  1.
</event>
<event>
 7    1  0.6444902E-006  0.2522671E+03  0.7818608E-02  0.1200294E+00
          2   -1    0    0  502    0  0.00000000000E+00  0.00000000000E+00  0.27448499841E+03  0.27448499841E+03  0.00000000000E+00 0. -1.
          1   -1    0    0  501    0 -0.00000000000E+00 -0.00000000000E+00 -0.19102284089E+04  0.19102284089E+04  0.00000000000E+00 0. -1.
         25    2    1    2    0    0 -0.11691131435E+03 -0.19961607362E+03 -0.95770036286E+03  0.99314181139E+03  0.12500336086E+03 0.  0.
          2    1    1    2  501    0  0.73276647526E+02 -0.51151747665E+02 -0.86886576404E+03  0.87344930264E+03  0.00000000000E+00 0. -1.
          1    1    1    2  502    0  0.43634666824E+02  0.25076782128E+03  0.19082271646E+03  0.31812229324E+03  0.00000000000E+00 0. -1.
         22    1    3    3    0    0 -0.25956329106E+02 -0.88056267953E+02 -0.17812977258E+03  0.20039424449E+03  0.00000000000E+00 0. -1.
         22    1    3    3    0    0 -0.90954985244E+02 -0.11155980566E+03 -0.77957059028E+03  0.79274756689E+03  0.00000000000E+00 0. -1.
</event>
<event>
 7    1  0.6444902E-006  0.5463345E+02  0.7818608E-02  0.1564612E+00
          2   -1    0    0  502    0  0.00000000000E+00  0.00000000000E+00  0.30199967619E+03  0.30199967619E+03  0.00000000000E+00 0. -1.
          1   -1    0    0  501    0 -0.00000000000E+00 -0.00000000000E+00 -0.52309972405E+03  0.52309972405E+03  0.00000000000E+00 0. -1.
         25    2    1    2    0    0 -0.25846794779E+02  0.45549074704E+02 -0.97858352791E+02  0.16716573844E+03  0.12500140755E+03 0.  0.
          2    1    1    2  501    0  0.76446143866E+01 -0.54420318030E+02 -0.38826656276E+03  0.39213637283E+03  0.00000000000E+00 0. -1.
          1    1    1    2  502    0  0.18202180392E+02  0.88712433260E+01  0.26502486769E+03  0.26579728897E+03  0.00000000000E+00 0. -1.
         22    1    3    3    0    0 -0.35139411353E+02  0.68530200416E+02 -0.12177295120E+02  0.77970847858E+02  0.00000000000E+00 0.  1.
         22    1    3    3    0    0  0.92926165736E+01 -0.22981125712E+02 -0.85681057671E+02  0.89194890579E+02  0.00000000000E+00 0.  1.
</event>
<event>
 7    1  0.6444902E-006  0.6259885E+02  0.7818608E-02  0.1471242E+00
          2   -1    0    0  502    0  0.00000000000E+00  0.00000000000E+00  0.13060370002E+03  0.13060370002E+03  0.00000000000E+00 0. -1.
          1   -1    0    0  501    0 -0.00000000000E+00 -0.00000000000E+00 -0.17150891236E+04  0.17150891236E+04  0.00000000000E+00 0. -1.
         25    2    1    2    0    0 -0.65095964415E+01  0.51393410469E+02 -0.11657079483E+04  0.11735352729E+04  0.12500543416E+03 0.  0.
          2    1    1    2  501    0  0.32585768381E+02  0.56514803645E+01 -0.53716444490E+03  0.53818157939E+03  0.00000000000E+00 0. -1.
          1    1    1    2  502    0 -0.26076171940E+02 -0.57044890834E+02  0.11838696962E+03  0.13397597131E+03  0.00000000000E+00 0. -1.
         22    1    3    3    0    0  0.49423192952E+02  0.14315375518E+02 -0.80468880226E+03  0.80633222090E+03  0.00000000000E+00 0. -1.
         22    1    3    3    0    0 -0.55932789393E+02  0.37078034951E+02 -0.36101914606E+03  0.36720305203E+03  0.00000000000E+00 0. -1.
</event>
<event>
 7    1  0.6444902E-006  0.8367051E+02  0.7818608E-02  0.1363176E+00
          2   -1    0    0  502    0  0.00000000000E+00  0.00000000000E+00  0.50018944579E+03  0.50018944579E+03  0.00000000000E+00 0. -1.
          1   -1    0    0  501    0 -0.00000000000E+00 -0.00000000000E+00 -0.18274929564E+04  0.18274929564E+04  0.00000000000E+00 0. -1.
         25    2    1    2    0    0  0.89286190870E+01  0.12929673004E+03 -0.39078307402E+03  0.43027213625E+03  0.12500134261E+03 0.  0.
          2    1    1    2  501    0 -0.29050603665E+02 -0.75892798174E+02 -0.14141000051E+04  0.14164330125E+04  0.00000000000E+00 0. -1.
          1    1    1    2  502    0  0.20121984578E+02 -0.53403931865E+02  0.47757956846E+03  0.48097725353E+03  0.00000000000E+00 0. -1.
         22    1    3    3    0    0  0.38645887580E+02  0.82622652602E+02 -0.10458013828E+03  0.13876963888E+03  0.00000000000E+00 0. -1.
         22    1    3    3    0    0 -0.29717268493E+02  0.46674077438E+02 -0.28620293574E+03  0.29150249737E+03  0.00000000000E+00 0. -1.
</event>
<event>
 7    1  0.6444902E-006  0.8652892E+02  0.7818608E-02  0.1335097E+00
          2   -1    0    0  502    0  0.00000000000E+00  0.00000000000E+00  0.63182194410E+03  0.63182194410E+03  0.00000000000E+00 0. -1.
          1   -1    0    0  501    0 -0.00000000000E+00 -0.00000000000E+00 -0.14146377598E+04  0.14146377598E+04  0.00000000000E+00 0. -1.
         25    2    1    2    0    0  0.10378800789E+02  0.20664736222E+02  0.14821768595E+02  0.12798361882E+03  0.12500148412E+03 0.  0.
          2    1    1    2  501    0  0.59169640099E+02  0.37673178990E+02 -0.13534666892E+04  0.13552831415E+04  0.00000000000E+00 0. -1.
          1    1    1    2  502    0 -0.69548440888E+02 -0.58337915212E+02  0.55582910486E+03  0.56319294366E+03  0.00000000000E+00 0. -1.
         22    1    3    3    0    0  0.66804463876E+02  0.84451803290E+01  0.19382159344E+02  0.70070147463E+02  0.00000000000E+00 0.  1.
         22    1    3    3    0    0 -0.56425663087E+02  0.12219555893E+02 -0.45603907499E+01  0.57913471359E+02  0.00000000000E+00 0.  1.
</event>
<event>
 7    1  0.6444902E-006  0.6068103E+02  0.7818608E-02  0.1425748E+00
          2   -1    0    0  502    0  0.00000000000E+00  0.00000000000E+00  0.10752401924E+04  0.10752401924E+04  0.00000000000E+00 0. -1.
          1   -1    0    0  501    0 -0.00000000000E+00 -0.00000000000E+00 -0.29541474972E+03  0.29541474972E+03  0.00000000000E+00 0. -1.
         25    2    1    2    0    0 -0.46382898292E+02  0.14628768972E+02 -0.17197549531E+03  0.21809677400E+03  0.12500103083E+03 0.  0.
          2    1    1    2  501    0 -0.47826980238E+01 -0.47499921983E+02 -0.93768342465E+02  0.10522176028E+03  0.00000000000E+00 0. -1.
          1    1    1    2  502    0  0.51165596316E+02  0.32871153011E+02  0.10455692804E+04  0.10473364078E+04  0.00000000000E+00 0. -1.
         22    1    3    3    0    0 -0.78126807556E+02  0.33566616147E+02 -0.15632748065E+03  0.17795728978E+03  0.00000000000E+00 0. -1.
         22    1    3    3    0    0  0.31743909264E+02 -0.18937847175E+02 -0.15648014655E+02  0.40139484223E+02  0.00000000000E+00 0. -1.
</event>
<event>
 7    1  0.6444902E-006  0.1005332E+03  0.7818608E-02  0.1356571E+00
          2   -1    0    0  502    0  0.00000000000E+00  0.00000000000E+00  0.13747133616E+04  0.13747133616E+04  0.00000000000E+00 0. -1.
          1   -1    0    0  501    0 -0.00000000000E+00 -0.00000000000E+00 -0.82770664043E+02  0.82770664043E+02  0.00000000000E+00 0. -1.
         25    2    1    2    0    0  0.13779259438E+03  0.13077781895E+02  0.71440723599E+03  0.73834933202E+03  0.12499683919E+03 0.  0.
          2    1    1    2  501    0 -0.49604414627E+02  0.77606225422E+01 -0.58262713051E+02  0.76911435722E+02  0.00000000000E+00 0. -1.
          1    1    1    2  502    0 -0.88188179755E+02 -0.20838404437E+02  0.63579817462E+03  0.64222325791E+03  0.00000000000E+00 0. -1.
         22    1    3    3    0    0  0.15081219184E+03 -0.14508200343E+02  0.64463855319E+03  0.66220364643E+03  0.00000000000E+00 0.  1.
         22    1    3    3    0    0 -0.13019597454E+02  0.27585982238E+02  0.69768682805E+02  0.76145685592E+02  0.00000000000E+00 0.  1.
</event>
<event>
 7    1  0.6444902E-006  0.5207957E+02  0.7818608E-02  0.1442356E+00
          2   -1    0    0  502    0  0.00000000000E+00  0.00000000000E+00  0.30455796386E+04  0.30455796386E+04  0.00000000000E+00 0. -1.
          1   -1    0    0  501    0 -0.00000000000E+00 -0.00000000000E+00 -0.60250468097E+03  0.60250468097E+03  0.00000000000E+00 0. -1.
         25    2    1    2    0    0  0.15629003462E+02 -0.99673685223E+02  0.80785380456E+01  0.16084429313E+03  0.12500605818E+03 0.  0.
          2    1    1    2  501    0 -0.10057511714E+02  0.48039062990E+02 -0.52474885170E+03  0.52703914700E+03  0.00000000000E+00 0. -1.
          1    1    1    2  502    0 -0.55714917486E+01  0.51634622233E+02  0.29597452713E+04  0.29602008794E+04  0.00000000000E+00 0. -1.
         22    1    3    3    0    0  0.88394428351E+01  0.25468408142E+02 -0.18545056625E+02  0.32721471362E+02  0.00000000000E+00 0.  1.
         22    1    3    3    0    0  0.67895606272E+01 -0.12514209336E+03  0.26623594671E+02  0.12812282177E+03  0.00000000000E+00 0.  1.
</event>
<event>
 7    1  0.6444902E-006  0.2810818E+02  0.7818608E-02  0.1659891E+00
          2   -1    0    0  502    0  0.00000000000E+00  0.00000000000E+00  0.17868482887E+02  0.17868482887E+02  0.00000000000E+00 0. -1.
          1   -1    0    0  501    0 -0.00000000000E+00 -0.00000000000E+00 -0.83746640622E+03  0.83746640622E+03  0.00000000000E+00 0. -1.
         25    2    1    2    0    0  0.34442508761E+02 -0.19312798458E+01 -0.60687491756E+03  0.62057371867E+03  0.12499823393E+03 0.  0.
          2    1    1    2  501    0 -0.22510997959E+02 -0.16995372459E+02 -0.21038313881E+03  0.21226552431E+03  0.00000000000E+00 0. -1.
          1    1    1    2  502    0 -0.11931510802E+02  0.18926652305E+02 -0.23398669637E+01  0.22495646132E+02  0.00000000000E+00 0. -1.
         22    1    3    3    0    0 -0.41053942429E+02  0.91875246266E+01 -0.10814759703E+03  0.11604197319E+03  0.00000000000E+00 0.  1.
         22    1    3    3    0    0  0.75496451189E+02 -0.11118804472E+02 -0.49872732053E+03  0.50453174548E+03  0.00000000000E+00 0.  1.
</event>
<event>
 7    1  0.6444902E-006  0.3872000E+02  0.7818608E-02  0.1529397E+00
          2   -1    0    0  502    0  0.00000000000E+00  0.00000000000E+00  0.37681813062E+04  0.37681813062E+04  0.00000000000E+00 0. -1.
          1   -1    0    0  501    0 -0.00000000000E+00 -0.00000000000E+00 -0.57459581932E+01  0.57459581932E+01  0.00000000000E+00 0. -1.
         25    2    1    2    0    0 -0.17518947433E+02  0.39216823814E+02  0.88531432129E+03  0.89512706167E+03  0.12500454497E+03 0.  0.
          2    1    1    2  501    0  0.40616445106E+02 -0.11791401734E+02  0.64199647490E+03  0.64338806840E+03  0.00000000000E+00 0. -1.
          1    1    1    2  502    0 -0.23097497673E+02 -0.27425422080E+02  0.22351245518E+04  0.22354121343E+04  0.00000000000E+00 0. -1.
         22    1    3    3    0    0 -0.11373244854E+02 -0.19357471844E+02  0.70663201482E+03  0.70698859028E+03  0.00000000000E+00 0. -1.
         22    1    3    3    0    0 -0.61457025790E+01  0.58574295657E+02  0.17868230647E+03  0.18813847139E+03  0.00000000000E+00 0. -1.
</event>
<event>
 7    1  0.6444902E-006  0.5131864E+02  0.7818608E-02  0.1568018E+00
          2   -1    0    0  502    0  0.00000000000E+00  0.00000000000E+00  0.10915395823E+03  0.10915395823E+03  0.00000000000E+00 0. -1.
          1   -1    0    0  501    0 -0.00000000000E+00 -0.00000000000E+00 -0.50224182075E+03  0.50224182075E+03  0.00000000000E+00 0. -1.
         25    2    1    2    0    0 -0.63177555904E+02 -0.14125585921E+02 -0.10260461121E+03  0.17419586001E+03  0.12500222261E+03 0.  0.
          2    1    1    2  501    0  0.18633146045E+02 -0.99009158540E+01 -0.35476131980E+03  0.35538826133E+03  0.00000000000E+00 0. -1.
          1    1    1    2  502    0  0.44544409859E+02  0.24026501775E+02  0.64278068488E+02  0.81811657640E+02  0.00000000000E+00 0. -1.
         22    1    3    3    0    0  0.89530884371E+01 -0.56134595674E+02 -0.48499470483E+02  0.74722481631E+02  0.00000000000E+00 0. -1.
         22    1    3    3    0    0 -0.72130644341E+02  0.42009009754E+02 -0.54105140725E+02  0.99473378381E+02  0.00000000000E+00 0. -1.
</event>
<event>
 7    1  0.6444902E-006  0.1052879E+03  0.7818608E-02  0.1362272E+00
          2   -1    0    0  502    0  0.00000000000E+00  0.00000000000E+00  0.70858026133E+03  0.70858026133E+03  0.00000000000E+00 0. -1.
          1   -1    0    0  501    0 -0.00000000000E+00 -0.00000000000E+00 -0.11053611917E+04  0.11053611917E+04  0.00000000000E+00 0. -1.
         25    2    1    2    0    0 -0.74384557785E+02 -0.61543886407E+02  0.28126249979E+03  0.32257607453E+03  0.12500407064E+03 0.  0.
          2    1    1    2  501    0  0.25461146389E+02 -0.37945587034E+02 -0.10766542876E+04  0.10776235857E+04  0.00000000000E+00 0. -1.
          1    1    1    2  502    0  0.48923411396E+02  0.99489473440E+02  0.39861085737E+03  0.41374179281E+03  0.00000000000E+00 0. -1.
         22    1    3    3    0    0 -0.35429849734E+02 -0.97208805652E+02  0.20738211561E+03  0.23175885749E+03  0.00000000000E+00 0.  1.
         22    1    3    3    0    0 -0.38954708051E+02  0.35664919245E+02  0.73880384180E+02  0.90817217039E+02  0.00000000000E+00 0.  1.
</event>
<event>
 7    1  0.6444902E-006  0.6445657E+02  0.7818608E-02  0.1439071E+00
          2   -1    0    0  502    0  0.00000000000E+00  0.00000000000E+00  0.40107352827E+04  0.40107352827E+04  0.00000000000E+00 0. -1.
          1   -1    0    0  501    0 -0.00000000000E+00 -0.00000000000E+00 -0.67335768832E+02  0.67335768832E+02  0.00000000000E+00 0. -1.
         25    2    1    2    0    0 -0.65321134037E+02  0.72845136971E+02  0.37181834421E+03  0.40428457481E+03  0.12499548713E+03 0.  0.
          2    1    1    2  501    0  0.10993380273E+02 -0.39125247301E+02 -0.42694902641E+02  0.58944839449E+02  0.00000000000E+00 0. -1.
          1    1    1    2  502    0  0.54327753764E+02 -0.33719889671E+02  0.36142760723E+04  0.36148416373E+04  0.00000000000E+00 0. -1.
         22    1    3    3    0    0 -0.69185051254E+02  0.22074940641E+02  0.33143319752E+03  0.33929609302E+03  0.00000000000E+00 0.  1.
         22    1    3    3    0    0  0.38639172173E+01  0.50770196330E+02  0.40385146690E+02  0.64988481786E+02  0.00000000000E+00 0.  1.
</event>
<event>
 7    1  0.6444902E-006  0.6985899E+02  0.7818608E-02  0.1385825E+00
          2   -1    0    0  502    0  0.00000000000E+00  0.00000000000E+00  0.15744596055E+04  0.15744596055E+04  0.00000000000E+00 0. -1.
          1   -1    0    0  501    0 -0.00000000000E+00 -0.00000000000E+00 -0.74832286466E+02  0.74832286466E+02  0.00000000000E+00 0. -1.
         25    2    1    2    0    0 -0.38322683210E+02 -0.25935274282E+02  0.13940829909E+03  0.19287412842E+03  0.12499795622E+03 0.  0.
          2    1    1    2  501    0  0.34262484663E+02 -0.45223823464E+02 -0.30131259082E+02  0.64241768639E+02  0.00000000000E+00 0. -1.
          1    1    1    2  502    0  0.40601985471E+01  0.71159097746E+02  0.13903502790E+04  0.13921759949E+04  0.00000000000E+00 0. -1.
         22    1    3    3    0    0 -0.55133060808E+02 -0.66160233827E+02  0.70332719955E+02  0.11119137750E+03  0.00000000000E+00 0.  1.
         22    1    3    3    0    0  0.16810377598E+02  0.40224959545E+02  0.69075579137E+02  0.81682750924E+02  0.00000000000E+00 0.  1.
</event>
<event>
 7    1  0.6444902E-006  0.6675506E+02  0.7818608E-02  0.1439239E+00
          2   -1    0    0  502    0  0.00000000000E+00  0.00000000000E+00  0.55883617719E+03  0.55883617719E+03  0.00000000000E+00 0. -1.
          1   -1    0    0  501    0 -0.00000000000E+00 -0.00000000000E+00 -0.50725098425E+03  0.50725098425E+03  0.00000000000E+00 0. -1.
         25    2    1    2    0    0 -0.64006774096E+02 -0.63074636339E+02 -0.17319670500E+03  0.23172665255E+03  0.12499946399E+03 0.  0.
          2    1    1    2  501    0  0.39170790491E+02  0.12874277108E+01 -0.30142221848E+03  0.30395947442E+03  0.00000000000E+00 0. -1.
          1    1    1    2  502    0  0.24835983605E+02  0.61787208628E+02  0.52620411642E+03  0.53040103447E+03  0.00000000000E+00 0. -1.
         22    1    3    3    0    0 -0.50089236552E+02 -0.65158741194E+02 -0.19164457892E+03  0.20852395019E+03  0.00000000000E+00 0.  1.
         22    1    3    3    0    0 -0.13917537544E+02  0.20841048554E+01  0.18447873923E+02  0.23202702356E+02  0.00000000000E+00 0.  1.
</event>
<event>
 7    1  0.6444902E-006  0.5182097E+02  0.7818608E-02  0.1452244E+00
          2   -1    0    0  502    0  0.00000000000E+00  0.00000000000E+00  0.16661557520E+04  0.16661557520E+04  0.00000000000E+00 0. -1.
          1   -1    0    0  501    0 -0.00000000000E+00 -0.00000000000E+00 -0.85136069079E+03  0.85136069079E+03  0.00000000000E+00 0. -1.
         25    2    1    2    0    0 -0.25185282447E+02  0.71453956648E+02  0.41692314697E+03  0.44180155254E+03  0.12499493981E+03 0.  0.
          2    1    1    2  501    0  0.42831752085E+02 -0.29138825896E+02 -0.83769619856E+03  0.83929646207E+03  0.00000000000E+00 0. -1.
          1    1    1    2  502    0 -0.17646469638E+02 -0.42315130752E+02  0.12355681128E+04  0.12364184282E+04  0.00000000000E+00 0. -1.
         22    1    3    3    0    0 -0.44133434682E+01 -0.29212652133E+02  0.19505965978E+03  0.19728438235E+03  0.00000000000E+00 0. -1.
         22    1    3    3    0    0 -0.20771938979E+02  0.10066660878E+03  0.22186348718E+03  0.24451717019E+03  0.00000000000E+00 0. -1.
</event>
<event>
 7    1  0.6444902E-006  0.9164466E+02  0.7818608E-02  0.1410255E+00
          2   -1    0    0  502    0  0.00000000000E+00  0.00000000000E+00  0.16059368866E+03  0.16059368866E+03  0.00000000000E+00 0. -1.
          1   -1    0    0  501    0 -0.00000000000E+00 -0.00000000000E+00 -0.63321835954E+03  0.63321835954E+03  0.00000000000E+00 0. -1.
         25    2    1    2    0    0  0.69837032103E+02 -0.37877402667E+02 -0.36914512621E+03  0.39774976421E+03  0.12499936817E+03 0.  0.
          2    1    1    2  501    0  0.21971782841E+02  0.28039541192E+02 -0.23371602978E+03  0.23641522304E+03  0.00000000000E+00 0. -1.
          1    1    1    2  502    0 -0.91808814944E+02  0.98378614753E+01  0.13023648510E+03  0.15964706095E+03  0.00000000000E+00 0. -1.
         22    1    3    3    0    0 -0.32536298328E+02  0.94004848770E+01 -0.11097508835E+03  0.11602779865E+03  0.00000000000E+00 0.  1.
         22    1    3    3    0    0  0.10237333043E+03 -0.47277887544E+02 -0.25817003786E+03  0.28172196557E+03  0.00000000000E+00 0.  1.
</event>
<event>
 7    1  0.6444902E-006  0.1416698E+03  0.7818608E-02  0.1407191E+00
          2   -1    0    0  502    0  0.00000000000E+00  0.00000000000E+00  0.58948513765E+03  0.58948513765E+03  0.00000000000E+00 0. -1.
          1   -1    0    0  501    0 -0.00000000000E+00 -0.00000000000E+00 -0.11216152591E+04  0.11216152591E+04  0.00000000000E+00 0. -1.
         25    2    1    2    0    0  0.13528459477E+02 -0.12328225758E+03 -0.70970790000E+02  0.18985815539E+03  0.12501092706E+03 0.  0.
          2    1    1    2  501    0 -0.95456125581E+00  0.14325664079E+03 -0.98575766351E+03  0.99611322022E+03  0.00000000000E+00 0. -1.
          1    1    1    2  502    0 -0.12573898221E+02 -0.19974383208E+02  0.52459833203E+03  0.52512902117E+03  0.00000000000E+00 0. -1.
         22    1    3    3    0    0  0.16749681184E+02  0.22058039389E+02 -0.25204765897E+02  0.37448486556E+02  0.00000000000E+00 0.  1.
         22    1    3    3    0    0 -0.32212217068E+01 -0.14534029697E+03 -0.45766024103E+02  0.15240966883E+03  0.00000000000E+00 0.  1.
</event>
<event>
 7    1  0.6444902E-006  0.1329367E+03  0.7818608E-02  0.1347163E+00
          2   -1    0    0  502    0  0.00000000000E+00  0.00000000000E+00  0.59902595886E+03  0.59902595886E+03  0.00000000000E+00 0. -1.
          1   -1    0    0  501    0 -0.00000000000E+00 -0.00000000000E+00 -0.25903034627E+03  0.25903034627E+03  0.00000000000E+00 0. -1.
         25    2    1    2    0    0 -0.95285115990E+02  0.10926823538E+03  0.37351756994E+03  0.41971326137E+03  0.12500018449E+03 0.  0.
          2    1    1    2  501    0 -0.88694165295E+01 -0.40166130771E+02 -0.21449360497E+03  0.21840213182E+03  0.00000000000E+00 0. -1.
          1    1    1    2  502    0  0.10415453252E+03 -0.69102104610E+02  0.18097164762E+03  0.21994091194E+03  0.00000000000E+00 0. -1.
         22    1    3    3    0    0  0.14705093367E+02  0.44952324766E+02  0.19330959410E+03  0.19901143295E+03  0.00000000000E+00 0. -1.
         22    1    3    3    0    0 -0.10999020936E+03  0.64315910615E+02  0.18020797584E+03  0.22070182842E+03  0.00000000000E+00 0. -1.
</event>
<event>
 7    1  0.6444902E-006  0.1249017E+03  0.7818608E-02  0.1269458E+00
          2   -1    0    0  502    0  0.00000000000E+00  0.00000000000E+00  0.96183738327E+03  0.96183738327E+03  0.00000000000E+00 0. -1.
          1   -1    0    0  501    0 -0.00000000000E+00 -0.00000000000E+00 -0.64337710439E+03  0.64337710439E+03  0.00000000000E+00 0. -1.
         25    2    1    2    0    0  0.17474096156E+03  0.99781824980E+01  0.26277552677E+03  0.33957625164E+03  0.12500834146E+03 0.  0.
          2    1    1    2  501    0 -0.10551805406E+03 -0.65656459980E+02 -0.59554672659E+03  0.60837548769E+03  0.00000000000E+00 0. -1.
          1    1    1    2  502    0 -0.69222907505E+02  0.55678277482E+02  0.65123147869E+03  0.65726274833E+03  0.00000000000E+00 0. -1.
         22    1    3    3    0    0  0.14805070413E+03  0.24933544112E+02  0.26927269424E+03  0.30829932935E+03  0.00000000000E+00 0.  1.
         22    1    3    3    0    0  0.26690257433E+02 -0.14955361614E+02 -0.64971674671E+01  0.31276922290E+02  0.00000000000E+00 0.  1.
</event>
<event>
 7    1  0.6444902E-006  0.3921707E+02  0.7818608E-02  0.1536291E+00
          2   -1    0    0  502    0  0.00000000000E+00  0.00000000000E+00  0.62849516298E+03  0.62849516298E+03  0.00000000000E+00 0. -1.
          1   -1    0    0  501    0 -0.00000000000E+00 -0.00000000000E+00 -0.70167224993E+03  0.70167224993E+03  0.00000000000E+00 0. -1.
         25    2    1    2    0    0 -0.42464517379E+01 -0.41700461473E+01 -0.11570490221E+03  0.17043361229E+03  0.12499828065E+03 0.  0.
          2    1    1    2  501    0 -0.31555627817E+02 -0.12203820337E+02 -0.55744497550E+03  0.55847076162E+03  0.00000000000E+00 0. -1.
          1    1    1    2  502    0  0.35802079555E+02  0.16373866485E+02  0.59997279076E+03  0.60126303900E+03  0.00000000000E+00 0. -1.
         22    1    3    3    0    0  0.25309184431E+02 -0.56108064998E+02 -0.79573160925E+02  0.10060098267E+03  0.00000000000E+00 0.  1.
         22    1    3    3    0    0 -0.29555636169E+02  0.51938018851E+02 -0.36131741290E+02  0.69832629624E+02  0.00000000000E+00 0.  1.
</event>
<event>
 7    1  0.6444902E-006  0.5796137E+02  0.7818608E-02  0.1414435E+00
          2   -1    0    0  502    0  0.00000000000E+00  0.00000000000E+00  0.48898372136E+03  0.48898372136E+03  0.00000000000E+00 0. -1.
          1   -1    0    0  501    0 -0.00000000000E+00 -0.00000000000E+00 -0.32348380891E+03  0.32348380891E+03  0.00000000000E+00 0. -1.
         25    2    1    2    0    0  0.44168262218E+02 -0.80487481021E+02  0.15493950178E+03  0.21922680724E+03  0.12500029524E+03 0.  0.
          2    1    1    2  501    0 -0.51264896364E+02  0.26428567529E+02 -0.28597568310E+03  0.29173386863E+03  0.00000000000E+00 0. -1.
          1    1    1    2  502    0  0.70966341458E+01  0.54058913493E+02  0.29653609377E+03  0.30150685440E+03  0.00000000000E+00 0. -1.
         22    1    3    3    0    0  0.74652494564E+02 -0.87356692224E+02  0.85973873875E+02  0.14351199814E+03  0.00000000000E+00 0. -1.
         22    1    3    3    0    0 -0.30484232345E+02  0.68692112025E+01  0.68965627905E+02  0.75714809097E+02  0.00000000000E+00 0. -1.
</event>
<event>
 7    1  0.6444902E-006  0.7234363E+02  0.7818608E-02  0.1462521E+00
          2   -1    0    0  502    0  0.00000000000E+00  0.00000000000E+00  0.22789344488E+04  0.22789344488E+04  0.00000000000E+00 0. -1.
          1   -1    0    0  501    0 -0.00000000000E+00 -0.00000000000E+00 -0.92739870642E+02  0.92739870642E+02  0.00000000000E+00 0. -1.
         25    2    1    2    0    0  0.26417831847E+02 -0.35964054378E+02  0.31242221728E+03  0.33944709600E+03  0.12500149634E+03 0.  0.
          2    1    1    2  501    0  0.25835248496E+02 -0.16154956462E+02 -0.75573415941E+02  0.81484869026E+02  0.00000000000E+00 0. -1.
          1    1    1    2  502    0 -0.52253080342E+02  0.52119010840E+02  0.19493457768E+04  0.19507423544E+04  0.00000000000E+00 0. -1.
         22    1    3    3    0    0  0.63776757443E+01 -0.82124784863E+02  0.19026756885E+03  0.20733283096E+03  0.00000000000E+00 0.  1.
         22    1    3    3    0    0  0.20040156102E+02  0.46160730485E+02  0.12215464842E+03  0.13211426504E+03  0.00000000000E+00 0.  1.
</event>
<event>
 7    1  0.6444902E-006  0.6952217E+02  0.7818608E-02  0.1414444E+00
          2   -1    0    0  502    0  0.00000000000E+00  0.00000000000E+00  0.19606276727E+04  0.19606276727E+04  0.00000000000E+00 0. -1.
          1   -1    0    0  501    0 -0.00000000000E+00 -0.00000000000E+00 -0.44205727371E+03  0.44205727371E+03  0.00000000000E+00 0. -1.
         25    2    1    2    0    0  0.81707165532E+02  0.24709712196E+02  0.71778049232E+03  0.73356679072E+03  0.12499908202E+03 0.  0.
          2    1    1    2  501    0 -0.67054512141E+02  0.18316881527E+02 -0.43096000681E+03  0.43652988811E+03  0.00000000000E+00 0. -1.
          1    1    1    2  502    0 -0.14652653390E+02 -0.43026593722E+02  0.12317499135E+04  0.12325882676E+04  0.00000000000E+00 0. -1.
         22    1    3    3    0    0  0.27530023276E+02 -0.16204165975E+02  0.57048187005E+03  0.57137556933E+03  0.00000000000E+00 0.  1.
         22    1    3    3    0    0  0.54177142255E+02  0.40913878171E+02  0.14729862228E+03  0.16219122138E+03  0.00000000000E+00 0.  1.
</event>
<event>
 7    1  0.6444902E-006  0.1048150E+03  0.7818608E-02  0.1396046E+00
          2   -1    0    0  502    0  0.00000000000E+00  0.00000000000E+00  0.11519555904E+03  0.11519555904E+03  0.00000000000E+00 0. -1.
          1   -1    0    0  501    0 -0.00000000000E+00 -0.00000000000E+00 -0.85125148985E+03  0.85125148985E+03  0.00000000000E+00 0. -1.
         25    2    1    2    0    0  0.10015150609E+02  0.11840737878E+03 -0.34221086662E+02  0.17583133055E+03  0.12499985375E+03 0.  0.
          2    1    1    2  501    0  0.20833702028E+02 -0.10222090452E+03 -0.73508894018E+03  0.74245464941E+03  0.00000000000E+00 0. -1.
          1    1    1    2  502    0 -0.30848852637E+02 -0.16186474262E+02  0.33254096032E+02  0.48161068935E+02  0.00000000000E+00 0. -1.
         22    1    3    3    0    0 -0.22697523806E+01  0.32167304021E+01  0.38731014900E+02  0.38930587532E+02  0.00000000000E+00 0. -1.
         22    1    3    3    0    0  0.12284902989E+02  0.11519064838E+03 -0.72952101563E+02  0.13690074302E+03  0.00000000000E+00 0. -1.
</event>
<event>
 7    1  0.6444902E-006  0.1042584E+03  0.7818608E-02  0.1361621E+00
          2   -1    0    0  502    0  0.00000000000E+00  0.00000000000E+00  0.20384126534E+03  0.20384126534E+03  0.00000000000E+00 0. -1.
          1   -1    0    0  501    0 -0.00000000000E+00 -0.00000000000E+00 -0.67824637283E+03  0.67824637283E+03  0.00000000000E+00 0. -1.
         25    2    1    2    0    0 -0.60794305290E+02 -0.13166906453E+03 -0.37407561330E+02  0.19508223098E+03  0.12500024436E+03 0.  0.
          2    1    1    2  501    0  0.29249872439E+02  0.97641356417E+02 -0.55287038445E+03  0.56218773691E+03  0.00000000000E+00 0. -1.
          1    1    1    2  502    0  0.31544432851E+02  0.34027708109E+02  0.11587283829E+03  0.12481767029E+03  0.00000000000E+00 0. -1.
         22    1    3    3    0    0  0.19063418815E+02  0.10140616640E+02  0.12377633687E+02  0.24888789815E+02  0.00000000000E+00 0.  1.
         22    1    3    3    0    0 -0.79857724105E+02 -0.14180968117E+03 -0.49785195016E+02  0.17019344116E+03  0.00000000000E+00 0.  1.
</event>
<event>
 7    1  0.6444902E-006  0.4877616E+02  0.7818608E-02  0.1509129E+00
          2   -1    0    0  502    0  0.00000000000E+00  0.00000000000E+00  0.19232358800E+04  0.19232358800E+04  0.00000000000E+00 0. -1.
          1   -1    0    0  501    0 -0.00000000000E+00 -0.00000000000E+00 -0.10102597472E+03  0.10102597472E+03  0.00000000000E+00 0. -1.
         25    2    1    2    0    0 -0.48326585160E+01  0.80914209334E+02 -0.66900387511E+00  0.14898413400E+03  0.12500144302E+03 0.  0.
          2    1    1    2  501    0 -0.69756814308E+00 -0.32591721395E+02 -0.15611181732E+02  0.36144375771E+02  0.00000000000E+00 0. -1.
          1    1    1    2  502    0  0.55302266591E+01 -0.48322487939E+02  0.18384900909E+04  0.18391333449E+04  0.00000000000E+00 0. -1.
         22    1    3    3    0    0  0.41678500070E+02  0.24812498337E+02 -0.42902323263E+02  0.64756210383E+02  0.00000000000E+00 0.  1.
         22    1    3    3    0    0 -0.46511158586E+02  0.56101710997E+02  0.42233319388E+02  0.84227923614E+02  0.00000000000E+00 0.  1.
</event>
<event>
 7    1  0.6444902E-006  0.1006083E+03  0.7818608E-02  0.1327699E+00
          2   -1    0    0  502    0  0.00000000000E+00  0.00000000000E+00  0.62885138629E+03  0.62885138629E+03  0.00000000000E+00 0. -1.
          1   -1    0    0  501    0 -0.00000000000E+00 -0.00000000000E+00 -0.46572628336E+03  0.46572628336E+03  0.00000000000E+00 0. -1.
         25    2    1    2    0    0 -0.32505808629E+02  0.10715696923E+03  0.22083226241E+03  0.27736489433E+03  0.12500061135E+03 0.  0.
          2    1    1    2  501    0 -0.30887324742E+02 -0.95949358415E+02 -0.42884560842E+03  0.44053247562E+03  0.00000000000E+00 0. -1.
          1    1    1    2  502    0  0.63393133372E+02 -0.11207610813E+02  0.37113844894E+03  0.37668029970E+03  0.00000000000E+00 0. -1.
         22    1    3    3    0    0  0.18464342581E+02  0.30267947903E+01  0.12656741502E+03  0.12794297159E+03  0.00000000000E+00 0. -1.
         22    1    3    3    0    0 -0.50970151211E+02  0.10413017444E+03  0.94264847387E+02  0.14942192274E+03  0.00000000000E+00 0. -1.
</event>
<event>
 7    1  0.6444902E-006  0.7766459E+02  0.7818608E-02  0.1374775E+00
          2   -1    0    0  502    0  0.00000000000E+00  0.00000000000E+00  0.20912774581E+04  0.20912774581E+04  0.00000000000E+00 0. -1.
          1   -1    0    0  501    0 -0.00000000000E+00 -0.00000000000E+00 -0.17361485436E+04  0.17361485436E+04  0.00000000000E+00 0. -1.
         25    2    1    2    0    0  0.55036454038E+02  0.73287642142E+01  0.24969403201E+03  0.28470329597E+03  0.12500454015E+03 0.  0.
          2    1    1    2  501    0  0.84738497884E+01 -0.55198462761E+02 -0.17173229282E+04  0.17182306935E+04  0.00000000000E+00 0. -1.
          1    1    1    2  502    0 -0.63510303826E+02  0.47869698547E+02  0.18227578107E+04  0.18244920123E+04  0.00000000000E+00 0. -1.
         22    1    3    3    0    0  0.76341980036E+02  0.27601229665E+02  0.85510498582E+02  0.11790662052E+03  0.00000000000E+00 0.  1.
         22    1    3    3    0    0 -0.21305525998E+02 -0.20272465451E+02  0.16418353343E+03  0.16679667545E+03  0.00000000000E+00 0.  1.
</event>
<event>
 7    1  0.6444902E-006  0.6411002E+02  0.7818608E-02  0.1449811E+00
          2   -1    0    0  502    0  0.00000000000E+00  0.00000000000E+00  0.36063079828E+02  0.36063079828E+02  0.00000000000E+00 0. -1.
          1   -1    0    0  501    0 -0.00000000000E+00 -0.00000000000E+00 -0.86231829417E+03  0.86231829417E+03  0.00000000000E+00 0. -1.
         25    2    1    2    0    0  0.83954943562E+02  0.39359731686E+02 -0.38361527669E+03  0.41398483139E+03  0.12500055634E+03 0.  0.
          2    1    1    2  501    0 -0.46227434796E+02 -0.39159892109E+02 -0.44254057806E+03  0.44666837375E+03  0.00000000000E+00 0. -1.
          1    1    1    2  502    0 -0.37727508766E+02 -0.19983957769E+00 -0.99359598037E-01  0.37728168864E+02  0.00000000000E+00 0. -1.
         22    1    3    3    0    0  0.27285758487E+02  0.80882355364E+02 -0.20691849309E+03  0.22383415916E+03  0.00000000000E+00 0. -1.
         22    1    3    3    0    0  0.56669185075E+02 -0.41522623677E+02 -0.17669678359E+03  0.19015067222E+03  0.00000000000E+00 0. -1.
</event>
<event>
 7    1  0.6444902E-006  0.1071594E+03  0.7818608E-02  0.1315156E+00
          2   -1    0    0  502    0  0.00000000000E+00  0.00000000000E+00  0.28786999833E+03  0.28786999833E+03  0.00000000000E+00 0. -1.
          1   -1    0    0  501    0 -0.00000000000E+00 -0.00000000000E+00 -0.58980983183E+03  0.58980983183E+03  0.00000000000E+00 0. -1.
         25    2    1    2    0    0 -0.11275107735E+03  0.84021702748E+02  0.18304189095E+03  0.26248921059E+03  0.12499519934E+03 0.  0.
          2    1    1    2  501    0  0.30447009861E+02 -0.60345047524E+02 -0.51874767436E+03  0.52313257863E+03  0.00000000000E+00 0. -1.
          1    1    1    2  502    0  0.82304067490E+02 -0.23676655224E+02  0.33765949921E+02  0.92058040942E+02  0.00000000000E+00 0. -1.
         22    1    3    3    0    0 -0.28678138555E+02  0.83645033375E+02  0.14583921915E+03  0.17055205974E+03  0.00000000000E+00 0. -1.
         22    1    3    3    0    0 -0.84072938795E+02  0.37666937297E+00  0.37202671798E+02  0.91937150850E+02  0.00000000000E+00 0. -1.
</event>
<event>
 7    1  0.7911807E-006  0.4696911E+02  0.7818608E-02  0.1501572E+00
          2   -1    0    0  502    0  0.00000000000E+00  0.00000000000E+00  0.21985698363E+04  0.21985698363E+04  0.00000000000E+00 0. -1.
          1   -1    0    0  501    0 -0.00000000000E+00 -0.00000000000E+00 -0.67380203703E+03  0.67380203703E+03  0.00000000000E+00 0. -1.
         25    2    1    2    0    0 -0.21025139970E+02  0.21013625671E+01 -0.37290658089E+03  0.39386976599E+03  0.12501040859E+03 0.  0.
          2    1    1    2  501    0  0.50283712957E+02  0.18256636611E+02 -0.28780378835E+03  0.29273328672E+03  0.00000000000E+00 0. -1.
          1    1    1    2  502    0 -0.29258572987E+02 -0.20357999178E+02  0.21854781685E+04  0.21857688207E+04  0.00000000000E+00 0. -1.
         22    1    3    3    0    0 -0.35348001736E+02  0.46647337488E+02 -0.91623648710E+02  0.10872142532E+03  0.00000000000E+00 0.  1.
         22    1    3    3    0    0  0.14322861766E+02 -0.44545974920E+02 -0.28128293218E+03  0.28514834067E+03  0.00000000000E+00 0.  1.
</event>
<event>
 7    1  0.6444902E-006  0.8901936E+02  0.7818608E-02  0.1328946E+00
          2   -1    0    0  502    0  0.00000000000E+00  0.00000000000E+00  0.21891155906E+04  0.21891155906E+04  0.00000000000E+00 0. -1.
          1   -1    0    0  501    0 -0.00000000000E+00 -0.00000000000E+00 -0.10696037221E+03  0.10696037221E+03  0.00000000000E+00 0. -1.
         25    2    1    2    0    0  0.65308665549E+02  0.37656512250E+02  0.17043740271E+03  0.22440393429E+03  0.12499993108E+03 0.  0.
          2    1    1    2  501    0 -0.89299758784E+02  0.30187871022E+02 -0.51311033263E+02  0.10732463189E+03  0.00000000000E+00 0. -1.
          1    1    1    2  502    0  0.23991093235E+02 -0.67844383272E+02  0.19630288490E+04  0.19643473967E+04  0.00000000000E+00 0. -1.
         22    1    3    3    0    0 -0.34282804085E+02  0.28830751017E+02  0.39987592951E+02  0.60046069398E+02  0.00000000000E+00 0. -1.
         22    1    3    3    0    0  0.99591469634E+02  0.88257612331E+01  0.13044980976E+03  0.16435786489E+03  0.00000000000E+00 0. -1.
</event>
<event>
 7    1  0.6444902E-006  0.8837486E+02  0.7818608E-02  0.1388575E+00
          2   -1    0    0  502    0  0.00000000000E+00  0.00000000000E+00  0.40987611133E+02  0.40987611133E+02  0.00000000000E+00 0. -1.
          1   -1    0    0  501    0 -0.00000000000E+00 -0.00000000000E+00 -0.67063958850E+03  0.67063958850E+03  0.00000000000E+00 0. -1.
         25    2    1    2    0    0  0.65963963759E+02  0.58674815806E+02 -0.20668197202E+03  0.25716406515E+03  0.12498776070E+03 0.  0.
          2    1    1    2  501    0 -0.33638105798E+02  0.28154530275E+02 -0.28445696456E+03  0.28781932601E+03  0.00000000000E+00 0. -1.
          1    1    1    2  502    0 -0.32325857961E+02 -0.86829346080E+02 -0.13851304079E+03  0.16664380847E+03  0.00000000000E+00 0. -1.
         22    1    3    3    0    0  0.92305104075E+02  0.53076484552E+01 -0.14012813836E+03  0.16788179928E+03  0.00000000000E+00 0.  1.
         22    1    3    3    0    0 -0.26341140316E+02  0.53367167350E+02 -0.66553833658E+02  0.89282265869E+02  0.00000000000E+00 0.  1.
</event>
<event>
 7    1  0.6444902E-006  0.2009222E+03  0.7818608E-02  0.1176184E+00
          2   -1    0    0  502    0  0.00000000000E+00  0.00000000000E+00  0.74358104272E+03  0.74358104272E+03  0.00000000000E+00 0. -1.
          1   -1    0    0  501    0 -0.00000000000E+00 -0.00000000000E+00 -0.47103116894E+03  0.47103116894E+03  0.00000000000E+00 0. -1.
         25    2    1    2    0    0  0.43315871074E+01 -0.20123093444E+03  0.35576732637E+03  0.42744293108E+03  0.12499766875E+03 0.  0.
          2    1    1    2  501    0  0.14350950209E+03  0.29775453576E+02 -0.38381911961E+03  0.41085115481E+03  0.00000000000E+00 0. -1.
          1    1    1    2  502    0 -0.14784108920E+03  0.17145548086E+03  0.30060166702E+03  0.37631812578E+03  0.00000000000E+00 0. -1.
         22    1    3    3    0    0  0.63727945675E+02 -0.10402996231E+03  0.20375247997E+03  0.23748380411E+03  0.00000000000E+00 0. -1.
         22    1    3    3    0    0 -0.59396358568E+02 -0.97200972128E+02  0.15201484640E+03  0.18995912697E+03  0.00000000000E+00 0. -1.
</event>
<event>
 7    1  0.6444902E-006  0.3813257E+02  0.7818608E-02  0.1530445E+00
          2   -1    0    0  502    0  0.00000000000E+00  0.00000000000E+00  0.64548718156E+03  0.64548718156E+03  0.00000000000E+00 0. -1.
          1   -1    0    0  501    0 -0.00000000000E+00 -0.00000000000E+00 -0.28831647419E+02  0.28831647419E+02  0.00000000000E+00 0. -1.
         25    2    1    2    0    0 -0.97614922192E+00 -0.22060914421E+02  0.47641373285E+03  0.49303375424E+03  0.12499840462E+03 0.  0.
          2    1    1    2  501    0 -0.34113521220E+02 -0.11984067987E+02  0.38098941775E+01  0.36357468410E+02  0.00000000000E+00 0. -1.
          1    1    1    2  502    0  0.35089670442E+02  0.34044982408E+02  0.13643190711E+03  0.14492760633E+03  0.00000000000E+00 0. -1.
         22    1    3    3    0    0  0.37341434850E+02 -0.17345253845E+02  0.49533246370E+02  0.64411047838E+02  0.00000000000E+00 0.  1.
         22    1    3    3    0    0 -0.38317584072E+02 -0.47156605762E+01  0.42688048648E+03  0.42862270640E+03  0.00000000000E+00 0.  1.
</event>
<event>
 7    1  0.6444902E-006  0.4797328E+02  0.7818608E-02  0.1512319E+00
          2   -1    0    0  502    0  0.00000000000E+00  0.00000000000E+00  0.38881887126E+03  0.38881887126E+03  0.00000000000E+00 0. -1.
          1   -1    0    0  501    0 -0.00000000000E+00 -0.00000000000E+00 -0.28131833317E+03  0.28131833317E+03  0.00000000000E+00 0. -1.
         25    2    1    2    0    0  0.54120652525E+02  0.54903511337E+02  0.14655875236E+03  0.20747821507E+03  0.12499720497E+03 0.  0.
          2    1    1    2  501    0 -0.40134174260E+02 -0.25637422044E+02 -0.24733161995E+03  0.25187488874E+03  0.00000000000E+00 0. -1.
          1    1    1    2  502    0 -0.13986478265E+02 -0.29266089293E+02  0.20827340568E+03  0.21078410061E+03  0.00000000000E+00 0. -1.
         22    1    3    3    0    0  0.63410551070E+02 -0.22586025459E+02  0.82740068726E+02  0.10666276532E+03  0.00000000000E+00 0.  1.
         22    1    3    3    0    0 -0.92898985448E+01  0.77489536796E+02  0.63818683635E+02  0.10081544975E+03  0.00000000000E+00 0.  1.
</event>
<event>
 7    1  0.6444902E-006  0.8652460E+02  0.7818608E-02  0.1490601E+00
          2   -1    0    0  502    0  0.00000000000E+00  0.00000000000E+00  0.51301419400E+03  0.51301419400E+03  0.00000000000E+00 0. -1.
          1   -1    0    0  501    0 -0.00000000000E+00 -0.00000000000E+00 -0.59115626888E+03  0.59115626888E+03  0.00000000000E+00 0. -1.
         25    2    1    2    0    0 -0.45123535208E+02  0.75926489508E+02  0.40133739871E+03  0.42953169361E+03  0.12499921187E+03 0.  0.
          2    1    1    2  501    0  0.25387973640E+02 -0.82721699005E+02 -0.57265418648E+03  0.57915476860E+03  0.00000000000E+00 0. -1.
          1    1    1    2  502    0  0.19735561569E+02  0.67952094975E+01  0.93174712897E+02  0.95484000681E+02  0.00000000000E+00 0. -1.
         22    1    3    3    0    0  0.11693547509E+02  0.68397324006E+02  0.93672215408E+02  0.11657365450E+03  0.00000000000E+00 0. -1.
         22    1    3    3    0    0 -0.56817082717E+02  0.75291655019E+01  0.30766518330E+03  0.31295803910E+03  0.00000000000E+00 0. -1.
</event>
<event>
 7    1  0.6444902E-006  0.6177305E+02  0.7818608E-02  0.1468633E+00
          2   -1    0    0  502    0  0.00000000000E+00  0.00000000000E+00  0.28093787557E+04  0.28093787557E+04  0.00000000000E+00 0. -1.
          1   -1    0    0  501    0 -0.00000000000E+00 -0.00000000000E+00 -0.85403183030E+01  0.85403183030E+01  0.00000000000E+00 0. -1.
         25    2    1    2    0    0 -0.10805230798E+01 -0.37768942573E+02  0.10776475832E+04  0.10855313356E+04  0.12500522596E+03 0.  0.
          2    1    1    2  501    0 -0.19216489510E+02  0.65228279224E+02  0.25835938643E+03  0.26715833215E+03  0.00000000000E+00 0. -1.
          1    1    1    2  502    0  0.20297012590E+02 -0.27459336652E+02  0.14648314678E+04  0.14652294063E+04  0.00000000000E+00 0. -1.
         22    1    3    3    0    0 -0.31161445895E+02 -0.22197634745E+02  0.10010236596E+04  0.10017545297E+04  0.00000000000E+00 0. -1.
         22    1    3    3    0    0  0.30080922815E+02 -0.15571307827E+02  0.76623923611E+02  0.83776805946E+02  0.00000000000E+00 0. -1.
</event>
<event>
 7    1  0.6444902E-006  0.1302827E+03  0.7818608E-02  0.1370471E+00
          2   -1    0    0  502    0  0.00000000000E+00  0.00000000000E+00  0.32443139360E+03  0.32443139360E+03  0.00000000000E+00 0. -1.
          1   -1    0    0  501    0 -0.00000000000E+00 -0.00000000000E+00 -0.10466459255E+04  0.10466459255E+04  0.00000000000E+00 0. -1.
         25    2    1    2    0    0 -0.28063864635E+02  0.14432001647E+03 -0.19204656965E+03  0.27225102542E+03  0.12499155281E+03 0.  0.
          2    1    1    2  501    0  0.31092647723E+02 -0.14934591672E+02 -0.79937847219E+03  0.80012232601E+03  0.00000000000E+00 0. -1.
          1    1    1    2  502    0 -0.30287830878E+01 -0.12938542480E+03  0.26921050991E+03  0.29870396771E+03  0.00000000000E+00 0. -1.
         22    1    3    3    0    0 -0.74700863178E+02  0.91274612880E+02 -0.91023298370E+02  0.14898494811E+03  0.00000000000E+00 0. -1.
         22    1    3    3    0    0  0.46636998542E+02  0.53045403592E+02 -0.10102327128E+03  0.12326607731E+03  0.00000000000E+00 0. -1.
</event>
<event>
 7    1  0.6444902E-006  0.9905743E+02  0.7818608E-02  0.1361480E+00
          2   -1    0    0  502    0  0.00000000000E+00  0.00000000000E+00  0.49234281389E+03  0.49234281389E+03  0.00000000000E+00 0. -1.
          1   -1    0    0  501    0 -0.00000000000E+00 -0.00000000000E+00 -0.68383103354E+03  0.68383103354E+03  0.00000000000E+00 0. -1.
         25    2    1    2    0    0 -0.93422219617E+02 -0.13855412302E+00 -0.21255405453E+02  0.15749307621E+03  0.12499818590E+03 0.  0.
          2    1    1    2  501    0  0.57369383791E+01  0.48556162954E+02 -0.58751455857E+03  0.58954556224E+03  0.00000000000E+00 0. -1.
          1    1    1    2  502    0  0.87685281238E+02 -0.48417608831E+02  0.41728174438E+03  0.42913520898E+03  0.00000000000E+00 0. -1.
         22    1    3    3    0    0 -0.10649607383E+03 -0.39375488317E+02 -0.23975541380E+02  0.11604597971E+03  0.00000000000E+00 0.  1.
         22    1    3    3    0    0  0.13073854215E+02  0.39236934194E+02  0.27201359264E+01  0.41447096502E+02  0.00000000000E+00 0.  1.
</event>
<event>
 7    1  0.6444902E-006  0.4548502E+02  0.7818608E-02  0.1494238E+00
          2   -1    0    0  502    0  0.00000000000E+00  0.00000000000E+00  0.10638908537E+04  0.10638908537E+04  0.00000000000E+00 0. -1.
          1   -1    0    0  501    0 -0.00000000000E+00 -0.00000000000E+00 -0.24980481294E+03  0.24980481294E+03  0.00000000000E+00 0. -1.
         25    2    1    2    0    0  0.39914659405E+02  0.48199805546E+02 -0.14405531089E+03  0.20073299352E+03  0.12500160319E+03 0.  0.
          2    1    1    2  501    0 -0.38617752092E+02 -0.27445708068E+01 -0.72036891448E+02  0.81781276433E+02  0.00000000000E+00 0. -1.
          1    1    1    2  502    0 -0.12969073132E+01 -0.45455234740E+02  0.10301782431E+04  0.10311813967E+04  0.00000000000E+00 0. -1.
         22    1    3    3    0    0  0.51116500530E+02  0.84670263588E+02 -0.12051438837E+03  0.15590275163E+03  0.00000000000E+00 0.  1.
         22    1    3    3    0    0 -0.11201841125E+02 -0.36470458042E+02 -0.23540922515E+02  0.44830241883E+02  0.00000000000E+00 0.  1.
</event>
<event>
 7    1  0.6444902E-006  0.3918379E+02  0.7818608E-02  0.1600094E+00
          2   -1    0    0  502    0  0.00000000000E+00  0.00000000000E+00  0.10998015111E+03  0.10998015111E+03  0.00000000000E+00 0. -1.
          1   -1    0    0  501    0 -0.00000000000E+00 -0.00000000000E+00 -0.10414825908E+04  0.10414825908E+04  0.00000000000E+00 0. -1.
         25    2    1    2    0    0  0.44033014079E+02  0.20690798445E+02 -0.66858206589E+02  0.14987727384E+03  0.12500464774E+03 0.  0.
          2    1    1    2  501    0 -0.23840209000E+02 -0.31045537498E+02 -0.93081189204E+03  0.93163456319E+03  0.00000000000E+00 0. -1.
          1    1    1    2  502    0 -0.20192805079E+02  0.10354739053E+02  0.66167658962E+02  0.69950904857E+02  0.00000000000E+00 0. -1.
         22    1    3    3    0    0  0.44004396668E+02 -0.78872239129E+01 -0.97936057784E+02  0.10765717181E+03  0.00000000000E+00 0.  1.
         22    1    3    3    0    0  0.28617410194E-01  0.28578022358E+02  0.31077851195E+02  0.42220102034E+02  0.00000000000E+00 0.  1.
</event>
<event>
 7    1  0.6444902E-006  0.1222769E+03  0.7818608E-02  0.1298943E+00
          2   -1    0    0  502    0  0.00000000000E+00  0.00000000000E+00  0.12413682578E+03  0.12413682578E+03  0.00000000000E+00 0. -1.
          1   -1    0    0  501    0 -0.00000000000E+00 -0.00000000000E+00 -0.25556371326E+04  0.25556371326E+04  0.00000000000E+00 0. -1.
         25    2    1    2    0    0 -0.13403722812E+03  0.11343438486E+03 -0.84067712628E+03  0.86786882911E+03  0.12499974279E+03 0.  0.
          2    1    1    2  501    0  0.10250208195E+03 -0.52433421851E+02 -0.16885464742E+04  0.16924671743E+04  0.00000000000E+00 0. -1.
          1    1    1    2  502    0  0.31535146167E+02 -0.61000963006E+02  0.97723293739E+02  0.11943795490E+03  0.00000000000E+00 0. -1.
         22    1    3    3    0    0 -0.25905966331E+02  0.88554487405E+02 -0.24191709322E+03  0.25891484377E+03  0.00000000000E+00 0.  1.
         22    1    3    3    0    0 -0.10813126179E+03  0.24879897453E+02 -0.59876003306E+03  0.60895398534E+03  0.00000000000E+00 0.  1.
</event>
<event>
 7    1  0.9964348E-006  0.9775949E+02  0.7818608E-02  0.1355999E+00
          2   -1    0    0  502    0  0.00000000000E+00  0.00000000000E+00  0.83307851173E+03  0.83307851173E+03  0.00000000000E+00 0. -1.
          1   -1    0    0  501    0 -0.00000000000E+00 -0.00000000000E+00 -0.24591381171E+04  0.24591381171E+04  0.00000000000E+00 0. -1.
         25    2    1    2    0    0 -0.86713440966E+02 -0.11853765551E+03 -0.49869856284E+03  0.53469216282E+03  0.12500022312E+03 0.  0.
          2    1    1    2  501    0  0.19216845654E+02  0.48192582483E+02 -0.19391794325E+04  0.19398733680E+04  0.00000000000E+00 0. -1.
          1    1    1    2  502    0  0.67496595312E+02  0.70345073032E+02  0.81181839004E+03  0.81765109802E+03  0.00000000000E+00 0. -1.
         22    1    3    3    0    0  0.94925933570E+01 -0.51986831281E+02 -0.29582208406E+03  0.30050531671E+03  0.00000000000E+00 0.  1.
         22    1    3    3    0    0 -0.96206034323E+02 -0.66550824234E+02 -0.20287647878E+03  0.23418684611E+03  0.00000000000E+00 0.  1.
</event>
<event>
 7    1  0.6444902E-006  0.8743470E+02  0.7818608E-02  0.1321105E+00
          2   -1    0    0  502    0  0.00000000000E+00  0.00000000000E+00  0.86753117592E+03  0.86753117592E+03  0.00000000000E+00 0. -1.
          1   -1    0    0  501    0 -0.00000000000E+00 -0.00000000000E+00 -0.11607472217E+03  0.11607472217E+03  0.00000000000E+00 0. -1.
         25    2    1    2    0    0 -0.26632049520E+02  0.15232376068E+03  0.88471374527E+02  0.21764553198E+03  0.12502239539E+03 0.  0.
          2    1    1    2  501    0 -0.13433851063E+02 -0.77382018526E+02 -0.17271729595E+02  0.80416153779E+02  0.00000000000E+00 0. -1.
          1    1    1    2  502    0  0.40065900583E+02 -0.74941742159E+02  0.68025680882E+03  0.68554421233E+03  0.00000000000E+00 0. -1.
         22    1    3    3    0    0  0.25944473636E+02 -0.91991302745E+01  0.36093975575E+01  0.27762699090E+02  0.00000000000E+00 0.  1.
         22    1    3    3    0    0 -0.52576523156E+02  0.16152289096E+03  0.84861976970E+02  0.18988283289E+03  0.00000000000E+00 0.  1.
</event>
<event>
 7    1  0.6444902E-006  0.5265237E+02  0.7818608E-02  0.1521476E+00
          2   -1    0    0  502    0  0.00000000000E+00  0.00000000000E+00  0.37028477834E+03  0.37028477834E+03  0.00000000000E+00 0. -1.
          1   -1    0    0  501    0 -0.00000000000E+00 -0.00000000000E+00 -0.79870854841E+03  0.79870854841E+03  0.00000000000E+00 0. -1.
         25    2    1    2    0    0  0.25793331210E+02 -0.65203660488E+02 -0.78057953318E+02  0.16319958404E+03  0.12499698748E+03 0.  0.
          2    1    1    2  501    0 -0.24672193112E+02  0.12792623377E+02 -0.67569583089E+03  0.67626712489E+03  0.00000000000E+00 0. -1.
          1    1    1    2  502    0 -0.11211380985E+01  0.52411037111E+02  0.32533001413E+03  0.32952661782E+03  0.00000000000E+00 0. -1.
         22    1    3    3    0    0  0.76397325458E+02 -0.44864081307E+02 -0.44250208809E+02  0.99032409383E+02  0.00000000000E+00 0. -1.
         22    1    3    3    0    0 -0.50603994248E+02 -0.20339579181E+02 -0.33807744509E+02  0.64167174660E+02  0.00000000000E+00 0. -1.
</event>
<event>
 7    1  0.6444902E-006  0.1015738E+03  0.7818608E-02  0.1310800E+00
          2   -1    0    0  502    0  0.00000000000E+00  0.00000000000E+00  0.35428039443E+03  0.35428039443E+03  0.00000000000E+00 0. -1.
          1   -1    0    0  501    0 -0.00000000000E+00 -0.00000000000E+00 -0.37136770817E+04  0.37136770817E+04  0.00000000000E+00 0. -1.
         25    2    1    2    0    0  0.21430873434E+01 -0.15888986040E+03  0.94979370409E+02  0.22337451620E+03  0.12499805248E+03 0.  0.
          2    1    1    2  501    0 -0.25980047960E+02  0.69470507463E+02 -0.36381065338E+04  0.36388624961E+04  0.00000000000E+00 0. -1.
          1    1    1    2  502    0  0.23836960616E+02  0.89419352935E+02  0.18373047614E+03  0.20572046381E+03  0.00000000000E+00 0. -1.
         22    1    3    3    0    0 -0.30765570560E+02 -0.16175350603E+02 -0.17302866464E+02  0.38827200348E+02  0.00000000000E+00 0.  1.
         22    1    3    3    0    0  0.32908657903E+02 -0.14271450980E+03  0.11228223687E+03  0.18454731585E+03  0.00000000000E+00 0.  1.
</event>
<event>
 7    1  0.6444902E-006  0.7867468E+02  0.7818608E-02  0.1505145E+00
          2   -1    0    0  502    0  0.00000000000E+00  0.00000000000E+00  0.26595062196E+03  0.26595062196E+03  0.00000000000E+00 0. -1.
          1   -1    0    0  501    0 -0.00000000000E+00 -0.00000000000E+00 -0.18286405224E+03  0.18286405224E+03  0.00000000000E+00 0. -1.
         25    2    1    2    0    0 -0.20229469393E+02  0.60086576046E+02 -0.10720355496E+02  0.14056664297E+03  0.12499770815E+03 0.  0.
          2    1    1    2  501    0  0.76294411354E+01  0.19313727665E+02 -0.98051737203E+02  0.10022660134E+03  0.00000000000E+00 0. -1.
          1    1    1    2  502    0  0.12600028258E+02 -0.79400303711E+02  0.19185866242E+03  0.20802142988E+03  0.00000000000E+00 0. -1.
         22    1    3    3    0    0 -0.56626906883E+02 -0.10337715396E+02 -0.19574100871E+02  0.60799838550E+02  0.00000000000E+00 0.  1.
         22    1    3    3    0    0  0.36397437490E+02  0.70424291442E+02  0.88537453745E+01  0.79766804424E+02  0.00000000000E+00 0.  1.
</event>
<event>
 7    1  0.6444902E-006  0.1147432E+03  0.7818608E-02  0.1323072E+00
          2   -1    0    0  502    0  0.00000000000E+00  0.00000000000E+00  0.37675258763E+03  0.37675258763E+03  0.00000000000E+00 0. -1.
          1   -1    0    0  501    0 -0.00000000000E+00 -0.00000000000E+00 -0.69741375178E+03  0.69741375178E+03  0.00000000000E+00 0. -1.
         25    2    1    2    0    0  0.26480471985E+01 -0.90069909159E+02  0.16535322817E+03  0.22602131375E+03  0.12499737403E+03 0.  0.
          2    1    1    2  501    0  0.41864547773E+02 -0.41300434004E+02 -0.63896550253E+03  0.64166601876E+03  0.00000000000E+00 0. -1.
          1    1    1    2  502    0 -0.44512594971E+02  0.13137034316E+03  0.15295111021E+03  0.20647900690E+03  0.00000000000E+00 0. -1.
         22    1    3    3    0    0 -0.25572296999E+01 -0.77473096774E+02  0.18587221416E+03  0.20138793445E+03  0.00000000000E+00 0.  1.
         22    1    3    3    0    0  0.52052768984E+01 -0.12596812386E+02 -0.20518985986E+02  0.24633379300E+02  0.00000000000E+00 0.  1.
</event>
<event>
 7    1  0.7060418E-006  0.8496477E+02  0.7818608E-02  0.1323655E+00
          2   -1    0    0  502    0  0.00000000000E+00  0.00000000000E+00  0.36205953957E+04  0.36205953957E+04  0.00000000000E+00 0. -1.
          1   -1    0    0  501    0 -0.00000000000E+00 -0.00000000000E+00 -0.72273811801E+03  0.72273811801E+03  0.00000000000E+00 0. -1.
         25    2    1    2    0    0 -0.19902529260E+02 -0.25818500399E+02 -0.11152742077E+03  0.17065944214E+03  0.12499429577E+03 0.  0.
          2    1    1    2  501    0 -0.27277744118E+02  0.89192959307E+02 -0.57746769462E+03  0.58495161992E+03  0.00000000000E+00 0. -1.
          1    1    1    2  502    0  0.47180273378E+02 -0.63374458908E+02  0.35868523931E+04  0.35877224517E+04  0.00000000000E+00 0. -1.
         22    1    3    3    0    0 -0.26727133139E+02  0.14377027864E+02  0.17713747516E+02  0.35139940625E+02  0.00000000000E+00 0. -1.
         22    1    3    3    0    0  0.68246038798E+01 -0.40195528263E+02 -0.12924116829E+03  0.13551950152E+03  0.00000000000E+00 0. -1.
</event>
<event>
 7    1  0.6444902E-006  0.1213674E+03  0.7818608E-02  0.1311868E+00
          2   -1    0    0  502    0  0.00000000000E+00  0.00000000000E+00  0.11129344129E+04  0.11129344129E+04  0.00000000000E+00 0. -1.
          1   -1    0    0  501    0 -0.00000000000E+00 -0.00000000000E+00 -0.48299271559E+03  0.48299271559E+03  0.00000000000E+00 0. -1.
         25    2    1    2    0    0  0.16357776960E+02  0.78641154380E+02  0.11016217853E+03  0.18497124726E+03  0.12500659464E+03 0.  0.
          2    1    1    2  501    0  0.56074115870E+02  0.25198412831E+02 -0.43928757500E+03  0.44356830368E+03  0.00000000000E+00 0. -1.
          1    1    1    2  502    0 -0.72431892830E+02 -0.10383956721E+03  0.95906709378E+03  0.96738757755E+03  0.00000000000E+00 0. -1.
         22    1    3    3    0    0 -0.10462439784E+02 -0.31262830352E+02  0.40067766530E+02  0.51886926317E+02  0.00000000000E+00 0. -1.
         22    1    3    3    0    0  0.26820216744E+02  0.10990398473E+03  0.70094412000E+02  0.13308432094E+03  0.00000000000E+00 0. -1.
</event>
<event>
 7    1  0.6444902E-006  0.1226453E+03  0.7818608E-02  0.1342802E+00
          2   -1    0    0  502    0  0.00000000000E+00  0.00000000000E+00  0.86135542132E+03  0.86135542132E+03  0.00000000000E+00 0. -1.
          1   -1    0    0  501    0 -0.00000000000E+00 -0.00000000000E+00 -0.57694057955E+02  0.57694057955E+02  0.00000000000E+00 0. -1.
         25    2    1    2    0    0 -0.36305477841E+02  0.15596377186E+03  0.27776284271E+03  0.34412051352E+03  0.12499578065E+03 0.  0.
          2    1    1    2  501    0  0.20386879570E+02 -0.41557034888E+02  0.11465195163E+02  0.47687133562E+02  0.00000000000E+00 0. -1.
          1    1    1    2  502    0  0.15918598271E+02 -0.11440673697E+03  0.51443332549E+03  0.52724183219E+03  0.00000000000E+00 0. -1.
         22    1    3    3    0    0 -0.43528007759E+02  0.15883462969E+02  0.14019139162E+03  0.14765025614E+03  0.00000000000E+00 0. -1.
         22    1    3    3    0    0  0.72225299174E+01  0.14008030889E+03  0.13757145109E+03  0.19647025738E+03  0.00000000000E+00 0. -1.
</event>
<event>
 7    1  0.6444902E-006  0.6510418E+02  0.7818608E-02  0.1520074E+00
          2   -1    0    0  502    0  0.00000000000E+00  0.00000000000E+00  0.74770687142E+01  0.74770687142E+01  0.00000000000E+00 0. -1.
          1   -1    0    0  501    0 -0.00000000000E+00 -0.00000000000E+00 -0.29755774812E+04  0.29755774812E+04  0.00000000000E+00 0. -1.
         25    2    1    2    0    0 -0.48580853705E+02 -0.17531095630E+02 -0.22143557333E+04  0.22184821688E+04  0.12499752321E+03 0.  0.
          2    1    1    2  501    0 -0.49085433547E+01 -0.22150283920E+02 -0.54474905881E+03  0.54522129997E+03  0.00000000000E+00 0. -1.
          1    1    1    2  502    0  0.53489397060E+02  0.39681379550E+02 -0.20899562039E+03  0.21935108120E+03  0.00000000000E+00 0. -1.
         22    1    3    3    0    0 -0.36777253472E+02  0.31403693660E+02 -0.33706108156E+03  0.34051274726E+03  0.00000000000E+00 0.  1.
         22    1    3    3    0    0 -0.11803600233E+02 -0.48934789291E+02 -0.18772946518E+04  0.18779694215E+04  0.00000000000E+00 0.  1.
</event>
<event>
 7    1  0.6444902E-006  0.8816348E+02  0.7818608E-02  0.1334113E+00
          2   -1    0    0  502    0  0.00000000000E+00  0.00000000000E+00  0.10477335354E+04  0.10477335354E+04  0.00000000000E+00 0. -1.
          1   -1    0    0  501    0 -0.00000000000E+00 -0.00000000000E+00 -0.25514445151E+03  0.25514445151E+03  0.00000000000E+00 0. -1.
         25    2    1    2    0    0 -0.10659771340E+03  0.84035914671E+01  0.33039384052E+03  0.36907744954E+03  0.12499752419E+03 0.  0.
          2    1    1    2  501    0  0.71657565788E+02  0.51603936217E+02 -0.22572580610E+03  0.24238381238E+03  0.00000000000E+00 0. -1.
          1    1    1    2  502    0  0.34940147611E+02 -0.60007527684E+02  0.68792104946E+03  0.69141672498E+03  0.00000000000E+00 0. -1.
         22    1    3    3    0    0 -0.77801133212E+00 -0.38996206862E+02  0.14713685939E+03  0.15221880581E+03  0.00000000000E+00 0.  1.
         22    1    3    3    0    0 -0.10581970207E+03  0.47399798329E+02  0.18325698112E+03  0.21685864372E+03  0.00000000000E+00 0.  1.
</event>
<event>
 7    1  0.6444902E-006  0.1296521E+03  0.7818608E-02  0.1234651E+00
          2   -1    0    0  502    0  0.00000000000E+00  0.00000000000E+00  0.40689326721E+03  0.40689326721E+03  0.00000000000E+00 0. -1.
          1   -1    0    0  501    0 -0.00000000000E+00 -0.00000000000E+00 -0.44031194049E+03  0.44031194049E+03  0.00000000000E+00 0. -1.
         25    2    1    2    0    0  0.40547292658E+02  0.77788561351E+01 -0.18065300321E+02  0.13287313896E+03  0.12499728972E+03 0.  0.
          2    1    1    2  501    0 -0.10140233806E+03  0.10670402048E+03 -0.33688707390E+03  0.36764260188E+03  0.00000000000E+00 0. -1.
          1    1    1    2  502    0  0.60855045404E+02 -0.11448287662E+03  0.32153370094E+03  0.34668946686E+03  0.00000000000E+00 0. -1.
         22    1    3    3    0    0  0.74000420299E+02  0.38168239894E+02 -0.25476114798E+02  0.87074159004E+02  0.00000000000E+00 0. -1.
         22    1    3    3    0    0 -0.33453127642E+02 -0.30389383759E+02  0.74108144770E+01  0.45798979961E+02  0.00000000000E+00 0. -1.
</event>
<event>
 7    1  0.6444902E-006  0.2652831E+03  0.7818608E-02  0.1248426E+00
          2   -1    0    0  502    0  0.00000000000E+00  0.00000000000E+00  0.13463163429E+03  0.13463163429E+03  0.00000000000E+00 0. -1.
          1   -1    0    0  501    0 -0.00000000000E+00 -0.00000000000E+00 -0.52353517814E+04  0.52353517814E+04  0.00000000000E+00 0. -1.
         25    2    1    2    0    0 -0.26341077965E+03 -0.79308185431E+02 -0.87662662015E+03  0.92723981145E+03  0.12499763864E+03 0.  0.
          2    1    1    2  501    0  0.26290181081E+03  0.27862077897E+02 -0.43230953490E+04  0.43311715567E+04  0.00000000000E+00 0. -1.
          1    1    1    2  502    0  0.50896884331E+00  0.51446107534E+02  0.99001821999E+02  0.11157204752E+03  0.00000000000E+00 0. -1.
         22    1    3    3    0    0 -0.79994879359E+02  0.33611554853E+02 -0.25165027418E+03  0.26618936462E+03  0.00000000000E+00 0. -1.
         22    1    3    3    0    0 -0.18341590029E+03 -0.11291974028E+03 -0.62497634597E+03  0.66105044683E+03  0.00000000000E+00 0. -1.
</event>
<event>
 7    1  0.6444902E-006  0.9403193E+02  0.7818608E-02  0.1313451E+00
          2   -1    0    0  502    0  0.00000000000E+00  0.00000000000E+00  0.27059778410E+04  0.27059778410E+04  0.00000000000E+00 0. -1.
          1   -1    0    0  501    0 -0.00000000000E+00 -0.00000000000E+00 -0.36194481717E+03  0.36194481717E+03  0.00000000000E+00 0. -1.
         25    2    1    2    0    0 -0.12264890898E+03 -0.93197410792E+02  0.73717521356E+03  0.76340121596E+03  0.12500243513E+03 0.  0.
          2    1    1    2  501    0  0.45236858917E+02  0.81985372614E+02 -0.34174919045E+03  0.35434514799E+03  0.00000000000E+00 0. -1.
          1    1    1    2  502    0  0.77412050068E+02  0.11212038179E+02  0.19486070007E+04  0.19501762942E+04  0.00000000000E+00 0. -1.
         22    1    3    3    0    0 -0.83812450207E+02 -0.69461409950E+02  0.68734998547E+03  0.69591624266E+03  0.00000000000E+00 0.  1.
         22    1    3    3    0    0 -0.38836458778E+02 -0.23736000842E+02  0.49825228095E+02  0.67484973298E+02  0.00000000000E+00 0.  1.
</event>
<event>
 7    1  0.6444902E-006  0.7235199E+02  0.7818608E-02  0.1381817E+00
          2   -1    0    0  502    0  0.00000000000E+00  0.00000000000E+00  0.50097168160E+02  0.50097168160E+02  0.00000000000E+00 0. -1.
          1   -1    0    0  501    0 -0.00000000000E+00 -0.00000000000E+00 -0.25851624116E+04  0.25851624116E+04  0.00000000000E+00 0. -1.
         25    2    1    2    0    0 -0.24563917706E+02  0.27050134283E+02 -0.20531613155E+03  0.24315434781E+03  0.12503690321E+03 0.  0.
          2    1    1    2  501    0 -0.78964399008E+01 -0.73407195502E+02 -0.23341732352E+04  0.23353405880E+04  0.00000000000E+00 0. -1.
          1    1    1    2  502    0  0.32460357607E+02  0.46357061219E+02  0.44241232567E+01  0.56764643991E+02  0.00000000000E+00 0. -1.
         22    1    3    3    0    0  0.30100125192E+02  0.45782243251E+02 -0.16177584914E+03  0.17080239078E+03  0.00000000000E+00 0. -1.
         22    1    3    3    0    0 -0.54664042898E+02 -0.18732108968E+02 -0.43540282416E+02  0.72351957025E+02  0.00000000000E+00 0. -1.
</event>
<event>
 7    1  0.6444902E-006  0.6821496E+02  0.7818608E-02  0.1379372E+00
          2   -1    0    0  502    0  0.00000000000E+00  0.00000000000E+00  0.31910967984E+04  0.31910967984E+04  0.00000000000E+00 0. -1.
          1   -1    0    0  501    0 -0.00000000000E+00 -0.00000000000E+00 -0.29176971195E+02  0.29176971195E+02  0.00000000000E+00 0. -1.
         25    2    1    2    0    0 -0.12715369215E+02  0.25563568284E+02  0.21751150332E+04  0.21788909703E+04  0.12500110497E+03 0.  0.
          2    1    1    2  501    0 -0.40051033106E+02 -0.56628935560E+02  0.19373494471E+02  0.72015650268E+02  0.00000000000E+00 0. -1.
          1    1    1    2  502    0  0.52766402321E+02  0.31065367276E+02  0.96743129951E+03  0.96936714898E+03  0.00000000000E+00 0. -1.
         22    1    3    3    0    0  0.54571492522E+02  0.22137096983E+02  0.12058370066E+04  0.12072741964E+04  0.00000000000E+00 0. -1.
         22    1    3    3    0    0 -0.67286861737E+02  0.34264713008E+01  0.96927802663E+03  0.97161677393E+03  0.00000000000E+00 0. -1.
</event>
<event>
 7    1  0.6444902E-006  0.3915072E+02  0.7818608E-02  0.1535459E+00
          2   -1    0    0  502    0  0.00000000000E+00  0.00000000000E+00  0.19176402971E+03  0.19176402971E+03  0.00000000000E+00 0. -1.
          1   -1    0    0  501    0 -0.00000000000E+00 -0.00000000000E+00 -0.12504024775E+03  0.12504024775E+03  0.00000000000E+00 0. -1.
         25    2    1    2    0    0  0.34150354366E+02  0.31901101884E+02 -0.11876062344E+02  0.13397678893E+03  0.12499924844E+03 0.  0.
          2    1    1    2  501    0  0.52115379241E+01 -0.33674834526E+02 -0.43079758620E+02  0.54927408555E+02  0.00000000000E+00 0. -1.
          1    1    1    2  502    0 -0.39361892290E+02  0.17737326419E+01  0.12167960292E+03  0.12790007998E+03  0.00000000000E+00 0. -1.
         22    1    3    3    0    0 -0.23409210789E+02  0.63573780729E+02 -0.54845344846E+01  0.67968351932E+02  0.00000000000E+00 0. -1.
         22    1    3    3    0    0  0.57559565156E+02 -0.31672678845E+02 -0.63915278591E+01  0.66008436995E+02  0.00000000000E+00 0. -1.
</event>
<event>
 7    1  0.6444902E-006  0.1580264E+03  0.7818608E-02  0.1223209E+00
          2   -1    0    0  502    0  0.00000000000E+00  0.00000000000E+00  0.24409524368E+04  0.24409524368E+04  0.00000000000E+00 0. -1.
          1   -1    0    0  501    0 -0.00000000000E+00 -0.00000000000E+00 -0.21611573396E+04  0.21611573396E+04  0.00000000000E+00 0. -1.
         25    2    1    2    0    0  0.90808014925E+02 -0.24794497403E+03  0.22565377933E+03  0.36914204581E+03  0.12499366439E+03 0.  0.
          2    1    1    2  501    0 -0.30097215324E+02  0.15409463654E+03 -0.20850025011E+04  0.20909056480E+04  0.00000000000E+00 0. -1.
          1    1    1    2  502    0 -0.60710799601E+02  0.93850337484E+02  0.21391438190E+04  0.21420620825E+04  0.00000000000E+00 0. -1.
         22    1    3    3    0    0  0.44883887900E+02 -0.12587645314E+03  0.19290167184E+03  0.23467104603E+03  0.00000000000E+00 0.  1.
         22    1    3    3    0    0  0.45924127025E+02 -0.12206852089E+03  0.32752107490E+02  0.13447099977E+03  0.00000000000E+00 0.  1.
</event>
<event>
 7    1  0.6444902E-006  0.1102030E+03  0.7818608E-02  0.1294892E+00
          2   -1    0    0  502    0  0.00000000000E+00  0.00000000000E+00  0.86814533225E+03  0.86814533225E+03  0.00000000000E+00 0. -1.
          1   -1    0    0  501    0 -0.00000000000E+00 -0.00000000000E+00 -0.63171945539E+03  0.63171945539E+03  0.00000000000E+00 0. -1.
         25    2    1    2    0    0  0.83747771062E+02  0.11166890539E+02 -0.15855854024E+03  0.21886931537E+03  0.12499831170E+03 0.  0.
          2    1    1    2  501    0 -0.10306608567E+03  0.65544935710E+02 -0.43266450789E+03  0.44957461338E+03  0.00000000000E+00 0. -1.
          1    1    1    2  502    0  0.19318314608E+02 -0.76711826250E+02  0.82764892498E+03  0.83142085888E+03  0.00000000000E+00 0. -1.
         22    1    3    3    0    0  0.17592484792E+02  0.55164147285E+02 -0.24152104576E+02  0.62736774083E+02  0.00000000000E+00 0. -1.
         22    1    3    3    0    0  0.66155286270E+02 -0.43997256746E+02 -0.13440643566E+03  0.15613254129E+03  0.00000000000E+00 0. -1.
</event>
<event>
 7    1  0.6444902E-006  0.8363773E+02  0.7818608E-02  0.1361631E+00
          2   -1    0    0  502    0  0.00000000000E+00  0.00000000000E+00  0.56036457684E+03  0.56036457684E+03  0.00000000000E+00 0. -1.
          1   -1    0    0  501    0 -0.00000000000E+00 -0.00000000000E+00 -0.10849325319E+04  0.10849325319E+04  0.00000000000E+00 0. -1.
         25    2    1    2    0    0  0.90495417919E+01  0.11846222688E+03 -0.66675752388E+02  0.18489348328E+03  0.12499900319E+03 0.  0.
          2    1    1    2  501    0  0.31132327175E+02 -0.76865868987E+02 -0.95567792289E+03  0.95926944907E+03  0.00000000000E+00 0. -1.
          1    1    1    2  502    0 -0.40181868967E+02 -0.41596357895E+02  0.49778572017E+03  0.50113417644E+03  0.00000000000E+00 0. -1.
         22    1    3    3    0    0 -0.17993191058E+02  0.25995662816E+02 -0.81502263978E+02  0.87419382538E+02  0.00000000000E+00 0.  1.
         22    1    3    3    0    0  0.27042732850E+02  0.92466564066E+02  0.14826511591E+02  0.97474100745E+02  0.00000000000E+00 0.  1.
</event>
<event>
 7    1  0.6444902E-006  0.1423010E+03  0.7818608E-02  0.1257607E+00
          2   -1    0    0  502    0  0.00000000000E+00  0.00000000000E+00  0.93439517386E+03  0.93439517386E+03  0.00000000000E+00 0. -1.
          1   -1    0    0  501    0 -0.00000000000E+00 -0.00000000000E+00 -0.76183818772E+03  0.76183818772E+03  0.00000000000E+00 0. -1.
         25    2    1    2    0    0 -0.11723543070E+03  0.11554215669E+02  0.31229983345E+03  0.35642754471E+03  0.12502704726E+03 0.  0.
          2    1    1    2  501    0 -0.10038491809E+02  0.86969257084E+02 -0.72630479408E+03  0.73156208001E+03  0.00000000000E+00 0. -1.
          1    1    1    2  502    0  0.12727392251E+03 -0.98523472752E+02  0.58656194677E+03  0.60824373686E+03  0.00000000000E+00 0. -1.
         22    1    3    3    0    0 -0.70512585697E+02  0.17984999867E+02  0.46236961804E+02  0.86216828977E+02  0.00000000000E+00 0. -1.
         22    1    3    3    0    0 -0.46722845001E+02 -0.64307841983E+01  0.26606287165E+03  0.27021071574E+03  0.00000000000E+00 0. -1.
</event>
<event>
 7    1  0.6444902E-006  0.1254785E+03  0.7818608E-02  0.1249168E+00
          2   -1    0    0  502    0  0.00000000000E+00  0.00000000000E+00  0.15845660032E+04  0.15845660032E+04  0.00000000000E+00 0. -1.
          1   -1    0    0  501    0 -0.00000000000E+00 -0.00000000000E+00 -0.26300074536E+03  0.26300074536E+03  0.00000000000E+00 0. -1.
         25    2    1    2    0    0  0.14339271895E+03 -0.13470257725E+03  0.10094504449E+04  0.10360125233E+04  0.12500196676E+03 0.  0.
          2    1    1    2  501    0 -0.36530921599E+02  0.11929602884E+03 -0.22845753966E+03  0.26030539402E+03  0.00000000000E+00 0. -1.
          1    1    1    2  502    0 -0.10686179735E+03  0.15406548413E+02  0.54057235264E+03  0.55124883121E+03  0.00000000000E+00 0. -1.
         22    1    3    3    0    0  0.95120251452E+02 -0.11890258047E+03  0.46717615124E+03  0.49136467330E+03  0.00000000000E+00 0.  1.
         22    1    3    3    0    0  0.48272467501E+02 -0.15799996776E+02  0.54227429363E+03  0.54464785003E+03  0.00000000000E+00 0.  1.
</event>
<event>
 7    1  0.6444902E-006  0.1971866E+03  0.7818608E-02  0.1282895E+00
          2   -1    0    0  502    0  0.00000000000E+00  0.00000000000E+00  0.50110262099E+03  0.50110262099E+03  0.00000000000E+00 0. -1.
          1   -1    0    0  501    0 -0.00000000000E+00 -0.00000000000E+00 -0.32929164125E+03  0.32929164125E+03  0.00000000000E+00 0. -1.
         25    2    1    2    0    0  0.14901068982E+03 -0.10349896407E+03  0.24834622914E+03  0.33198978985E+03  0.12500059916E+03 0.  0.
          2    1    1    2  501    0 -0.18652830009E+03  0.71242746033E+02 -0.24889264984E+03  0.31908601778E+03  0.00000000000E+00 0. -1.
          1    1    1    2  502    0  0.37517610273E+02  0.32256218034E+02  0.17235740044E+03  0.17931845462E+03  0.00000000000E+00 0. -1.
         22    1    3    3    0    0  0.97735568308E+02 -0.11303318143E+03  0.11422553984E+03  0.18808565966E+03  0.00000000000E+00 0.  1.
         22    1    3    3    0    0  0.51275121511E+02  0.95342173678E+01  0.13412068930E+03  0.14390413019E+03  0.00000000000E+00 0.  1.
</event>
<event>
 7    1  0.7288705E-006  0.4618859E+02  0.7818608E-02  0.1488428E+00
          2   -1    0    0  502    0  0.00000000000E+00  0.00000000000E+00  0.95172742847E+03  0.95172742847E+03  0.00000000000E+00 0. -1.
          1   -1    0    0  501    0 -0.00000000000E+00 -0.00000000000E+00 -0.94597754873E+03  0.94597754873E+03  0.00000000000E+00 0. -1.
         25    2    1    2    0    0  0.11610894368E+02  0.14016552551E+01 -0.11490969626E+03  0.17019534586E+03  0.12500175979E+03 0.  0.
          2    1    1    2  501    0  0.14272624968E+02  0.37042769713E+02 -0.80235290559E+03  0.80333433869E+03  0.00000000000E+00 0. -1.
          1    1    1    2  502    0 -0.25883519335E+02 -0.38444424968E+02  0.92301248159E+03  0.92417529266E+03  0.00000000000E+00 0. -1.
         22    1    3    3    0    0 -0.27761560389E+02  0.48689372016E+02 -0.25301362556E+02  0.61494049547E+02  0.00000000000E+00 0. -1.
         22    1    3    3    0    0  0.39372454757E+02 -0.47287716761E+02 -0.89608333705E+02  0.10870129631E+03  0.00000000000E+00 0. -1.
</event>
<event>
 7    1  0.6444902E-006  0.4283211E+02  0.7818608E-02  0.1571035E+00
          2   -1    0    0  502    0  0.00000000000E+00  0.00000000000E+00  0.32034517243E+02  0.32034517243E+02  0.00000000000E+00 0. -1.
          1   -1    0    0  501    0 -0.00000000000E+00 -0.00000000000E+00 -0.11222114601E+04  0.11222114601E+04  0.00000000000E+00 0. -1.
         25    2    1    2    0    0  0.16319689826E+01  0.40547202872E+02 -0.23503064354E+03  0.26927873548E+03  0.12499957997E+03 0.  0.
          2    1    1    2  501    0  0.22854459601E+02 -0.36565593553E+02 -0.85880850959E+03  0.85989035644E+03  0.00000000000E+00 0. -1.
          1    1    1    2  502    0 -0.24486428584E+02 -0.39816093194E+01  0.36622102918E+01  0.25076885408E+02  0.00000000000E+00 0. -1.
         22    1    3    3    0    0  0.10132271149E+02  0.23834537903E+02  0.67565332402E+01  0.26765628278E+02  0.00000000000E+00 0. -1.
         22    1    3    3    0    0 -0.85003021660E+01  0.16712664969E+02 -0.24178717678E+03  0.24251310720E+03  0.00000000000E+00 0. -1.
</event>
<event>
 7    1  0.6444902E-006  0.9152963E+02  0.7818608E-02  0.1405195E+00
          2   -1    0    0  502    0  0.00000000000E+00  0.00000000000E+00  0.14995948116E+04  0.14995948116E+04  0.00000000000E+00 0. -1.
          1   -1    0    0  501    0 -0.00000000000E+00 -0.00000000000E+00 -0.79601683885E+02  0.79601683885E+02  0.00000000000E+00 0. -1.
         25    2    1    2    0    0 -0.93461967826E+02  0.34766774640E+00  0.92924064184E+02  0.18164387125E+03  0.12499741580E+03 0.  0.
          2    1    1    2  501    0  0.92311623268E+01  0.35942187620E+02 -0.23466800634E+02  0.43906103686E+02  0.00000000000E+00 0. -1.
          1    1    1    2  502    0  0.84230805499E+02 -0.36289855367E+02  0.13505358642E+04  0.13536465206E+04  0.00000000000E+00 0. -1.
         22    1    3    3    0    0 -0.87570879486E+02 -0.43012970544E+02  0.24784020288E+02  0.10066291388E+03  0.00000000000E+00 0.  1.
         22    1    3    3    0    0 -0.58910883401E+01  0.43360638290E+02  0.68140043896E+02  0.80980957372E+02  0.00000000000E+00 0.  1.
</event>
<event>
 7    1  0.6444902E-006  0.3594649E+02  0.7818608E-02  0.1558032E+00
          2   -1    0    0  502    0  0.00000000000E+00  0.00000000000E+00  0.42646659435E+03  0.42646659435E+03  0.00000000000E+00 0. -1.
          1   -1    0    0  501    0 -0.00000000000E+00 -0.00000000000E+00 -0.39328885889E+03  0.39328885889E+03  0.00000000000E+00 0. -1.
         25    2    1    2    0    0  0.25255964011E+02 -0.27581789309E+02  0.50907219011E+00  0.13047343533E+03  0.12499775739E+03 0.  0.
          2    1    1    2  501    0  0.57913643857E+01  0.35671000384E+02 -0.32659515659E+03  0.32858843023E+03  0.00000000000E+00 0. -1.
          1    1    1    2  502    0 -0.31047328397E+02 -0.80892110747E+01  0.35926381986E+03  0.36069358769E+03  0.00000000000E+00 0. -1.
         22    1    3    3    0    0  0.10080315545E+02  0.38399580755E+02 -0.35965656358E+02  0.53569291585E+02  0.00000000000E+00 0. -1.
         22    1    3    3    0    0  0.15175648466E+02 -0.65981370064E+02  0.36474728548E+02  0.76904143741E+02  0.00000000000E+00 0. -1.
</event>
<event>
 7    1  0.6444902E-006  0.1663689E+03  0.7818608E-02  0.1306087E+00
          2   -1    0    0  502    0  0.00000000000E+00  0.00000000000E+00  0.44837904443E+03  0.44837904443E+03  0.00000000000E+00 0. -1.
          1   -1    0    0  501    0 -0.00000000000E+00 -0.00000000000E+00 -0.18391881337E+03  0.18391881337E+03  0.00000000000E+00 0. -1.
         25    2    1    2    0    0 -0.16656133269E+03 -0.11216290590E+03  0.82370549718E+01  0.23667695022E+03  0.12499973874E+03 0.  0.
          2    1    1    2  501    0  0.22428980494E+02  0.41605795135E+02 -0.37888431882E+02  0.60577509236E+02  0.00000000000E+00 0. -1.
          1    1    1    2  502    0  0.14413235220E+03  0.70557110768E+02  0.29411160797E+03  0.33504339834E+03  0.00000000000E+00 0. -1.
         22    1    3    3    0    0 -0.15301294703E+03 -0.49544382039E+02  0.39166500961E+02  0.16553435459E+03  0.00000000000E+00 0. -1.
         22    1    3    3    0    0 -0.13548385659E+02 -0.62618523864E+02 -0.30929445990E+02  0.71142595638E+02  0.00000000000E+00 0. -1.
</event>
<event>
 7    1  0.6444902E-006  0.8126332E+02  0.7818608E-02  0.1409695E+00
          2   -1    0    0  502    0  0.00000000000E+00  0.00000000000E+00  0.18247067318E+03  0.18247067318E+03  0.00000000000E+00 0. -1.
          1   -1    0    0  501    0 -0.00000000000E+00 -0.00000000000E+00 -0.63162226618E+03  0.63162226618E+03  0.00000000000E+00 0. -1.
         25    2    1    2    0    0  0.11676137464E+03 -0.62324385520E+01 -0.16220582222E+02  0.17192597537E+03  0.12499348711E+03 0.  0.
          2    1    1    2  501    0 -0.78014112825E+02  0.17490293735E+02 -0.53054864156E+03  0.53653888325E+03  0.00000000000E+00 0. -1.
          1    1    1    2  502    0 -0.38747261818E+02 -0.11257855183E+02  0.97617630778E+02  0.10562808074E+03  0.00000000000E+00 0. -1.
         22    1    3    3    0    0  0.82049802214E+02 -0.54276000141E+02 -0.42406733473E+02  0.10712789216E+03  0.00000000000E+00 0. -1.
         22    1    3    3    0    0  0.34711572430E+02  0.48043561589E+02  0.26186151251E+02  0.64798083213E+02  0.00000000000E+00 0. -1.
</event>
<event>
 7    1  0.6444902E-006  0.9219392E+02  0.7818608E-02  0.1466559E+00
          2   -1    0    0  502    0  0.00000000000E+00  0.00000000000E+00  0.11919211052E+03  0.11919211052E+03  0.00000000000E+00 0. -1.
          1   -1    0    0  501    0 -0.00000000000E+00 -0.00000000000E+00 -0.80834098248E+03  0.80834098248E+03  0.00000000000E+00 0. -1.
         25    2    1    2    0    0 -0.48251234873E+02 -0.59604181516E+02 -0.83448662117E+02  0.16872807296E+03  0.12499857309E+03 0.  0.
          2    1    1    2  501    0 -0.22614919302E+02 -0.52795729910E+01 -0.65181517433E+03  0.65222874052E+03  0.00000000000E+00 0. -1.
          1    1    1    2  502    0  0.70866154175E+02  0.64883754507E+02  0.46114964492E+02  0.10657627952E+03  0.00000000000E+00 0. -1.
         22    1    3    3    0    0 -0.76380831294E+02 -0.27395105285E+02 -0.74013582894E+01  0.81481920002E+02  0.00000000000E+00 0. -1.
         22    1    3    3    0    0  0.28129596421E+02 -0.32209076231E+02 -0.76047303828E+02  0.87246152958E+02  0.00000000000E+00 0. -1.
</event>
<event>
 7    1  0.1174083E-005  0.9557008E+02  0.7818608E-02  0.1311861E+00
          2   -1    0    0  502    0  0.00000000000E+00  0.00000000000E+00  0.91432623304E+03  0.91432623304E+03  0.00000000000E+00 0. -1.
          1   -1    0    0  501    0 -0.00000000000E+00 -0.00000000000E+00 -0.10073190016E+04  0.10073190016E+04  0.00000000000E+00 0. -1.
         25    2    1    2    0    0 -0.79976465299E+01 -0.17194331570E+02 -0.33348344088E+03  0.35664396194E+03  0.12499641140E+03 0.  0.
          2    1    1    2  501    0 -0.54815265086E+02 -0.55596061875E+02 -0.65737875035E+03  0.66199883443E+03  0.00000000000E+00 0. -1.
          1    1    1    2  502    0  0.62812911616E+02  0.72790393445E+02  0.89786942270E+03  0.90300243823E+03  0.00000000000E+00 0. -1.
         22    1    3    3    0    0  0.25436349462E+02  0.28474593251E+02 -0.26528382307E+03  0.26801738211E+03  0.00000000000E+00 0.  1.
         22    1    3    3    0    0 -0.33433995992E+02 -0.45668924821E+02 -0.68199617811E+02  0.88626579827E+02  0.00000000000E+00 0.  1.
</event>
<event>
 7    1  0.6444902E-006  0.1022884E+03  0.7818608E-02  0.1290629E+00
          2   -1    0    0  502    0  0.00000000000E+00  0.00000000000E+00  0.17504749719E+04  0.17504749719E+04  0.00000000000E+00 0. -1.
          1   -1    0    0  501    0 -0.00000000000E+00 -0.00000000000E+00 -0.77315158007E+03  0.77315158007E+03  0.00000000000E+00 0. -1.
         25    2    1    2    0    0 -0.15349947017E+03 -0.49552660948E+02  0.10605154797E+03  0.22997377994E+03  0.12499382018E+03 0.  0.
          2    1    1    2  501    0  0.68498248419E+02  0.74842714305E+02 -0.70632038680E+03  0.71356984993E+03  0.00000000000E+00 0. -1.
          1    1    1    2  502    0  0.85001221747E+02 -0.25290053357E+02  0.15775922307E+04  0.15800829221E+04  0.00000000000E+00 0. -1.
         22    1    3    3    0    0 -0.16477612662E+03 -0.29761752910E+02  0.11742602373E+03  0.20451358118E+03  0.00000000000E+00 0.  1.
         22    1    3    3    0    0  0.11276656455E+02 -0.19790908037E+02 -0.11374475758E+02  0.25460198752E+02  0.00000000000E+00 0.  1.
</event>
<event>
 7    1  0.6444902E-006  0.1021385E+03  0.7818608E-02  0.1403220E+00
          2   -1    0    0  502    0  0.00000000000E+00  0.00000000000E+00  0.31977897531E+04  0.31977897531E+04  0.00000000000E+00 0. -1.
          1   -1    0    0  501    0 -0.00000000000E+00 -0.00000000000E+00 -0.17941583907E+02  0.17941583907E+02  0.00000000000E+00 0. -1.
         25    2    1    2    0    0 -0.65166507304E+02  0.38840089866E+02  0.12686530247E+04  0.12770514778E+04  0.12499901503E+03 0.  0.
          2    1    1    2  501    0  0.98931334719E+02 -0.39682552019E+02  0.19565344672E+03  0.22280571164E+03  0.00000000000E+00 0. -1.
          1    1    1    2  502    0 -0.33764827415E+02  0.84246215253E+00  0.17155416978E+04  0.17158741475E+04  0.00000000000E+00 0. -1.
         22    1    3    3    0    0  0.90959837679E+01  0.66254141444E+02  0.61287060672E+03  0.61650849853E+03  0.00000000000E+00 0. -1.
         22    1    3    3    0    0 -0.74262491072E+02 -0.27414051578E+02  0.65578241795E+03  0.66054297930E+03  0.00000000000E+00 0. -1.
</event>
<event>
 7    1  0.6444902E-006  0.9474906E+02  0.7818608E-02  0.1466897E+00
          2   -1    0    0  502    0  0.00000000000E+00  0.00000000000E+00  0.94698267171E+03  0.94698267171E+03  0.00000000000E+00 0. -1.
          1   -1    0    0  501    0 -0.00000000000E+00 -0.00000000000E+00 -0.62916840554E+02  0.62916840554E+02  0.00000000000E+00 0. -1.
         25    2    1    2    0    0 -0.52250689027E+01  0.83305620114E+02  0.22243445598E+03  0.26845667499E+03  0.12499908579E+03 0.  0.
          2    1    1    2  501    0 -0.20258990723E+02  0.98846439804E+01 -0.33088588040E+02  0.40037326962E+02  0.00000000000E+00 0. -1.
          1    1    1    2  502    0  0.25484059626E+02 -0.93190264094E+02  0.69471996321E+03  0.70140551032E+03  0.00000000000E+00 0. -1.
         22    1    3    3    0    0 -0.48654203975E+01  0.75422603223E+02  0.23869913928E+03  0.25037875406E+03  0.00000000000E+00 0.  1.
         22    1    3    3    0    0 -0.35964850526E+00  0.78830168907E+01 -0.16264683295E+02  0.18077920926E+02  0.00000000000E+00 0.  1.
</event>
<event>
 7    1  0.6444902E-006  0.3017033E+02  0.7818608E-02  0.1608005E+00
          2   -1    0    0  502    0  0.00000000000E+00  0.00000000000E+00  0.92826133042E+03  0.92826133042E+03  0.00000000000E+00 0. -1.
          1   -1    0    0  501    0 -0.00000000000E+00 -0.00000000000E+00 -0.19300741253E+03  0.19300741253E+03  0.00000000000E+00 0. -1.
         25    2    1    2    0    0 -0.15583085516E+01  0.33727351481E+01  0.61594821000E+02  0.13942022450E+03  0.12502109166E+03 0.  0.
          2    1    1    2  501    0 -0.10823483312E+02 -0.28608276701E+02 -0.15233540556E+03  0.15537585744E+03  0.00000000000E+00 0. -1.
          1    1    1    2  502    0  0.12381791863E+02  0.25235541553E+02  0.82599450245E+03  0.82647266101E+03  0.00000000000E+00 0. -1.
         22    1    3    3    0    0  0.42786622931E+02  0.24080759653E+01 -0.19426694597E+02  0.47051996713E+02  0.00000000000E+00 0. -1.
         22    1    3    3    0    0 -0.44344931483E+02  0.96465918283E+00  0.81021515597E+02  0.92368227791E+02  0.00000000000E+00 0. -1.
</event>
<event>
 7    1  0.6444902E-006  0.1075100E+03  0.7818608E-02  0.1295126E+00
          2   -1    0    0  502    0  0.00000000000E+00  0.00000000000E+00  0.71901306716E+03  0.71901306716E+03  0.00000000000E+00 0. -1.
          1   -1    0    0  501    0 -0.00000000000E+00 -0.00000000000E+00 -0.56494098727E+03  0.56494098727E+03  0.00000000000E+00 0. -1.
         25    2    1    2    0    0  0.15898852467E+03 -0.68933782643E+02 -0.70529627704E+02  0.22499963100E+03  0.12498475187E+03 0.  0.
          2    1    1    2  501    0 -0.78110386957E+02  0.66598386042E+02 -0.40824717853E+03  0.42095407867E+03  0.00000000000E+00 0. -1.
          1    1    1    2  502    0 -0.80878137711E+02  0.23353966008E+01  0.63284888612E+03  0.63800034475E+03  0.00000000000E+00 0. -1.
         22    1    3    3    0    0  0.34564362620E+02 -0.15018548568E+02  0.36334444660E+02  0.52349248640E+02  0.00000000000E+00 0.  1.
         22    1    3    3    0    0  0.12442416205E+03 -0.53915234075E+02 -0.10686407236E+03  0.17265038236E+03  0.00000000000E+00 0.  1.
</event>
<event>
 7    1  0.6444902E-006  0.5302526E+02  0.7818608E-02  0.1447158E+00
          2   -1    0    0  502    0  0.00000000000E+00  0.00000000000E+00  0.10769283602E+04  0.10769283602E+04  0.00000000000E+00 0. -1.
          1   -1    0    0  501    0 -0.00000000000E+00 -0.00000000000E+00 -0.27187691664E+03  0.27187691664E+03  0.00000000000E+00 0. -1.
         25    2    1    2    0    0 -0.15205856915E+02 -0.62847325502E+02  0.93760623485E+02  0.16910444807E+03  0.12499702170E+03 0.  0.
          2    1    1    2  501    0 -0.27874002261E+02  0.45297855232E+02 -0.23060396272E+03  0.23665807257E+03  0.00000000000E+00 0. -1.
          1    1    1    2  502    0  0.43079859175E+02  0.17549470270E+02  0.94189478281E+03  0.94304275622E+03  0.00000000000E+00 0. -1.
         22    1    3    3    0    0 -0.10652891514E+02 -0.56862472177E+02 -0.15255414568E+02  0.59829361633E+02  0.00000000000E+00 0.  1.
         22    1    3    3    0    0 -0.45529654009E+01 -0.59848533245E+01  0.10901603805E+03  0.10927508644E+03  0.00000000000E+00 0.  1.
</event>
<event>
 7    1  0.6444902E-006  0.1520822E+03  0.7818608E-02  0.1278006E+00
          2   -1    0    0  502    0  0.00000000000E+00  0.00000000000E+00  0.47982662205E+03  0.47982662205E+03  0.00000000000E+00 0. -1.
          1   -1    0    0  501    0 -0.00000000000E+00 -0.00000000000E+00 -0.22525684328E+03  0.22525684328E+03  0.00000000000E+00 0. -1.
         25    2    1    2    0    0  0.22242692805E+02  0.10655086392E+03  0.98278697983E+02  0.19269488371E+03  0.12499916698E+03 0.  0.
          2    1    1    2  501    0  0.12393227638E+02 -0.16414235472E+03 -0.13534651790E+03  0.21310791776E+03  0.00000000000E+00 0. -1.
          1    1    1    2  502    0 -0.34635920443E+02  0.57591490806E+02  0.29163759869E+03  0.29928066387E+03  0.00000000000E+00 0. -1.
         22    1    3    3    0    0 -0.12229847933E+02  0.21812055273E+02 -0.27497481952E+02  0.37167814698E+02  0.00000000000E+00 0. -1.
         22    1    3    3    0    0  0.34472540738E+02  0.84738808644E+02  0.12577617994E+03  0.15552706901E+03  0.00000000000E+00 0. -1.
</event>
<event>
 7    1  0.6444902E-006  0.2640762E+03  0.7818608E-02  0.1270091E+00
          2   -1    0    0  502    0  0.00000000000E+00  0.00000000000E+00  0.52660552360E+03  0.52660552360E+03  0.00000000000E+00 0. -1.
          1   -1    0    0  501    0 -0.00000000000E+00 -0.00000000000E+00 -0.85469168207E+03  0.85469168207E+03  0.00000000000E+00 0. -1.
         25    2    1    2    0    0  0.16232857536E+03 -0.25454560823E+03  0.17030146397E+03  0.36845289539E+03  0.12494364507E+03 0.  0.
          2    1    1    2  501    0 -0.13395673274E+03  0.22390248618E+03 -0.73117880447E+03  0.77633702325E+03  0.00000000000E+00 0. -1.
          1    1    1    2  502    0 -0.28371842621E+02  0.30643122049E+02  0.23279118203E+03  0.23650728702E+03  0.00000000000E+00 0. -1.
         22    1    3    3    0    0  0.36888243506E+02 -0.33155807005E+02  0.88002400778E+02  0.10101718958E+03  0.00000000000E+00 0.  1.
         22    1    3    3    0    0  0.12544033185E+03 -0.22138980122E+03  0.82299063189E+02  0.26743570581E+03  0.00000000000E+00 0.  1.
</event>
<event>
 7    1  0.6444902E-006  0.9810326E+02  0.7818608E-02  0.1348953E+00
          2   -1    0    0  502    0  0.00000000000E+00  0.00000000000E+00  0.27329211239E+04  0.27329211239E+04  0.00000000000E+00 0. -1.
          1   -1    0    0  501    0 -0.00000000000E+00 -0.00000000000E+00 -0.36492195062E+03  0.36492195062E+03  0.00000000000E+00 0. -1.
         25    2    1    2    0    0  0.10301817791E+03  0.30503547614E+02  0.53751737797E+03  0.56222175859E+03  0.12500065129E+03 0.  0.
          2    1    1    2  501    0 -0.74661342325E+01 -0.54381358920E+02 -0.34931452928E+03  0.35360106861E+03  0.00000000000E+00 0. -1.
          1    1    1    2  502    0 -0.95552043675E+02  0.23877811306E+02  0.21797963246E+04  0.21820202473E+04  0.00000000000E+00 0. -1.
         22    1    3    3    0    0  0.10617789237E+03 -0.63417411843E+01  0.49301941791E+03  0.50436307255E+03  0.00000000000E+00 0. -1.
         22    1    3    3    0    0 -0.31597144642E+01  0.36845288798E+02  0.44497960054E+02  0.57858686047E+02  0.00000000000E+00 0. -1.
</event>
<event>
 7    1  0.6444902E-006  0.4846329E+02  0.7818608E-02  0.1481842E+00
          2   -1    0    0  502    0  0.00000000000E+00  0.00000000000E+00  0.38630822415E+04  0.38630822415E+04  0.00000000000E+00 0. -1.
          1   -1    0    0  501    0 -0.00000000000E+00 -0.00000000000E+00 -0.73930270533E+02  0.73930270533E+02  0.00000000000E+00 0. -1.
         25    2    1    2    0    0  0.35366778435E+01  0.26579272563E+02  0.25657782882E+04  0.25689612810E+04  0.12499949398E+03 0.  0.
          2    1    1    2  501    0 -0.29026882957E+02  0.26970316382E+02 -0.66179932227E+02  0.77134566373E+02  0.00000000000E+00 0. -1.
          1    1    1    2  502    0  0.25490205114E+02 -0.53549588945E+02  0.12895536150E+04  0.12909166646E+04  0.00000000000E+00 0. -1.
         22    1    3    3    0    0  0.44790150341E+02 -0.31320271712E+02  0.13503281553E+04  0.13514337735E+04  0.00000000000E+00 0.  1.
         22    1    3    3    0    0 -0.41253472497E+02  0.57899544275E+02  0.12154501328E+04  0.12175275075E+04  0.00000000000E+00 0.  1.
</event>
<event>
 7    1  0.6444902E-006  0.7252474E+02  0.7818608E-02  0.1357548E+00
          2   -1    0    0  502    0  0.00000000000E+00  0.00000000000E+00  0.50794901046E+03  0.50794901046E+03  0.00000000000E+00 0. -1.
          1   -1    0    0  501    0 -0.00000000000E+00 -0.00000000000E+00 -0.97047268479E+02  0.97047268479E+02  0.00000000000E+00 0. -1.
         25    2    1    2    0    0 -0.56187506855E+02  0.10459112808E+02  0.10181087899E+02  0.13782222811E+03  0.12499953217E+03 0.  0.
          2    1    1    2  501    0  0.86745234907E+01 -0.68478955405E+02  0.10508907431E+02  0.69821571356E+02  0.00000000000E+00 0. -1.
          1    1    1    2  502    0  0.47512983364E+02  0.58019842598E+02  0.39021174665E+03  0.39735247948E+03  0.00000000000E+00 0. -1.
         22    1    3    3    0    0  0.27248701255E+01 -0.30272497497E+02 -0.40096430089E+02  0.50314736686E+02  0.00000000000E+00 0. -1.
         22    1    3    3    0    0 -0.58912376981E+02  0.40731610304E+02  0.50277517988E+02  0.87507491419E+02  0.00000000000E+00 0. -1.
</event>
<event>
 7    1  0.6444902E-006  0.8890685E+02  0.7818608E-02  0.1461822E+00
          2   -1    0    0  502    0  0.00000000000E+00  0.00000000000E+00  0.19304053434E+04  0.19304053434E+04  0.00000000000E+00 0. -1.
          1   -1    0    0  501    0 -0.00000000000E+00 -0.00000000000E+00 -0.36716224733E+02  0.36716224733E+02  0.00000000000E+00 0. -1.
         25    2    1    2    0    0 -0.94616638062E+02 -0.53008190932E+02  0.98485172386E+03  0.99865828676E+03  0.12499311666E+03 0.  0.
          2    1    1    2  501    0  0.22514995613E+02  0.10679960417E+02 -0.22383635201E+02  0.33496473050E+02  0.00000000000E+00 0. -1.
          1    1    1    2  502    0  0.72101642449E+02  0.42328230515E+02  0.93122103006E+03  0.93496680838E+03  0.00000000000E+00 0. -1.
         22    1    3    3    0    0 -0.10066733555E+02 -0.13562969739E+02  0.67148890529E+03  0.67170130505E+03  0.00000000000E+00 0.  1.
         22    1    3    3    0    0 -0.84549904507E+02 -0.39445221193E+02  0.31336281857E+03  0.32695698171E+03  0.00000000000E+00 0.  1.
</event>
<event>
 7    1  0.6444902E-006  0.1455421E+03  0.7818608E-02  0.1268676E+00
          2   -1    0    0  502    0  0.00000000000E+00  0.00000000000E+00  0.81902311354E+03  0.81902311354E+03  0.00000000000E+00 0. -1.
          1   -1    0    0  501    0 -0.00000000000E+00 -0.00000000000E+00 -0.62757037401E+03  0.62757037401E+03  0.00000000000E+00 0. -1.
         25    2    1    2    0    0  0.20413051261E+03  0.59697506821E+02 -0.69571752703E+02  0.25631653455E+03  0.12499951445E+03 0.  0.
          2    1    1    2  501    0 -0.13615293242E+03 -0.23922011499E+02 -0.45223569147E+03  0.47289216983E+03  0.00000000000E+00 0. -1.
          1    1    1    2  502    0 -0.67977580184E+02 -0.35775495322E+02  0.71326018370E+03  0.71738478317E+03  0.00000000000E+00 0. -1.
         22    1    3    3    0    0  0.10317714472E+03  0.87645620959E+02 -0.98474156874E+01  0.13573595567E+03  0.00000000000E+00 0. -1.
         22    1    3    3    0    0  0.10095336789E+03 -0.27948114137E+02 -0.59724337015E+02  0.12058057888E+03  0.00000000000E+00 0. -1.
</event>
<event>
 7    1  0.6444902E-006  0.1206013E+03  0.7818608E-02  0.1248926E+00
          2   -1    0    0  502    0  0.00000000000E+00  0.00000000000E+00  0.33273316300E+03  0.33273316300E+03  0.00000000000E+00 0. -1.
          1   -1    0    0  501    0 -0.00000000000E+00 -0.00000000000E+00 -0.78205438504E+03  0.78205438504E+03  0.00000000000E+00 0. -1.
         25    2    1    2    0    0 -0.24804783730E+02 -0.23228293101E+02 -0.76202885689E+02  0.15028467437E+03  0.12499509057E+03 0.  0.
          2    1    1    2  501    0  0.11848136025E+03 -0.52728035504E+02 -0.64983414965E+03  0.66264809704E+03  0.00000000000E+00 0. -1.
          1    1    1    2  502    0 -0.93676576521E+02  0.75956328605E+02  0.27671581330E+03  0.30185477663E+03  0.00000000000E+00 0. -1.
         22    1    3    3    0    0 -0.53765585649E+02 -0.61099311103E+02 -0.41808380667E+02  0.91497566697E+02  0.00000000000E+00 0.  1.
         22    1    3    3    0    0  0.28960801919E+02  0.37871018002E+02 -0.34394505022E+02  0.58787107668E+02  0.00000000000E+00 0.  1.
</event>
<event>
 7    1  0.6444902E-006  0.8906424E+02  0.7818608E-02  0.1385828E+00
          2   -1    0    0  502    0  0.00000000000E+00  0.00000000000E+00  0.54540489347E+02  0.54540489347E+02  0.00000000000E+00 0. -1.
          1   -1    0    0  501    0 -0.00000000000E+00 -0.00000000000E+00 -0.40447139972E+04  0.40447139972E+04  0.00000000000E+00 0. -1.
         25    2    1    2    0    0  0.55273781445E+02 -0.24327160985E+02 -0.20992408085E+03  0.25167485548E+03  0.12500044593E+03 0.  0.
          2    1    1    2  501    0 -0.89875610325E+02 -0.36568071949E+01 -0.37984392036E+04  0.37995040967E+04  0.00000000000E+00 0. -1.
          1    1    1    2  502    0  0.34601828880E+02  0.27983968180E+02  0.18189776542E+02  0.48075534397E+02  0.00000000000E+00 0. -1.
         22    1    3    3    0    0 -0.40531746694E+02 -0.45182245008E+01 -0.68190103758E+02  0.79455189215E+02  0.00000000000E+00 0.  1.
         22    1    3    3    0    0  0.95805528138E+02 -0.19808936484E+02 -0.14173397709E+03  0.17221966626E+03  0.00000000000E+00 0.  1.
</event>
<event>
 7    1  0.6444902E-006  0.4669803E+02  0.7818608E-02  0.1573220E+00
          2   -1    0    0  502    0  0.00000000000E+00  0.00000000000E+00  0.72334819388E+03  0.72334819388E+03  0.00000000000E+00 0. -1.
          1   -1    0    0  501    0 -0.00000000000E+00 -0.00000000000E+00 -0.11262296589E+03  0.11262296589E+03  0.00000000000E+00 0. -1.
         25    2    1    2    0    0 -0.17849124265E+02  0.47830762671E+02  0.11705079076E+03  0.17869793896E+03  0.12500277068E+03 0.  0.
          2    1    1    2  501    0  0.22406518439E+02 -0.13347154946E+01 -0.79290666518E+02  0.82406573348E+02  0.00000000000E+00 0. -1.
          1    1    1    2  502    0 -0.45573941736E+01 -0.46496047177E+02  0.57296510375E+03  0.57486664746E+03  0.00000000000E+00 0. -1.
         22    1    3    3    0    0  0.24603599598E+02  0.63589229135E+01  0.11661185006E+03  0.11934863463E+03  0.00000000000E+00 0.  1.
         22    1    3    3    0    0 -0.42452723863E+02  0.41471839758E+02  0.43894069923E+00  0.59349304337E+02  0.00000000000E+00 0.  1.
</event>
<event>
 7    1  0.6444902E-006  0.7797441E+02  0.7818608E-02  0.1509911E+00
          2   -1    0    0  502    0  0.00000000000E+00  0.00000000000E+00  0.49963313537E+02  0.49963313537E+02  0.00000000000E+00 0. -1.
          1   -1    0    0  501    0 -0.00000000000E+00 -0.00000000000E+00 -0.85115737259E+03  0.85115737259E+03  0.00000000000E+00 0. -1.
         25    2    1    2    0    0 -0.12046294189E+02 -0.82355699947E+02 -0.41384571727E+03  0.44025134179E+03  0.12500156690E+03 0.  0.
          2    1    1    2  501    0 -0.17377268235E+02  0.10463212358E+02 -0.38250013376E+03  0.38303759684E+03  0.00000000000E+00 0. -1.
          1    1    1    2  502    0  0.29423562423E+02  0.71892487588E+02 -0.48482080192E+01  0.77831747496E+02  0.00000000000E+00 0. -1.
         22    1    3    3    0    0  0.52252182975E+02 -0.60514115744E+02 -0.26166488421E+03  0.27360694520E+03  0.00000000000E+00 0.  1.
         22    1    3    3    0    0 -0.64298477164E+02 -0.21841584203E+02 -0.15218083306E+03  0.16664439660E+03  0.00000000000E+00 0.  1.
</event>
<event>
 7    1  0.6444902E-006  0.3580085E+02  0.7818608E-02  0.1598962E+00
          2   -1    0    0  502    0  0.00000000000E+00  0.00000000000E+00  0.16048555892E+03  0.16048555892E+03  0.00000000000E+00 0. -1.
          1   -1    0    0  501    0 -0.00000000000E+00 -0.00000000000E+00 -0.20122271096E+04  0.20122271096E+04  0.00000000000E+00 0. -1.
         25    2    1    2    0    0 -0.27005348958E+02  0.16707007952E+02 -0.30511868948E+03  0.33125835015E+03  0.12500506744E+03 0.  0.
          2    1    1    2  501    0  0.96120918436E+01 -0.34674513944E+02 -0.16927854910E+04  0.16931678691E+04  0.00000000000E+00 0. -1.
          1    1    1    2  502    0  0.17393257114E+02  0.17967505991E+02  0.14616262987E+03  0.14828644926E+03  0.00000000000E+00 0. -1.
         22    1    3    3    0    0  0.15977804003E+02  0.59560017974E+02 -0.20600648306E+03  0.21503803623E+03  0.00000000000E+00 0.  1.
         22    1    3    3    0    0 -0.42983152961E+02 -0.42853010021E+02 -0.99112206419E+02  0.11622031392E+03  0.00000000000E+00 0.  1.
</event>
<event>
 7    1  0.6444902E-006  0.4951441E+02  0.7818608E-02  0.1460044E+00
          2   -1    0    0  502    0  0.00000000000E+00  0.00000000000E+00  0.12022648850E+04  0.12022648850E+04  0.00000000000E+00 0. -1.
          1   -1    0    0  501    0 -0.00000000000E+00 -0.00000000000E+00 -0.29095395733E+03  0.29095395733E+03  0.00000000000E+00 0. -1.
         25    2    1    2    0    0 -0.19057949895E+02 -0.10828197402E+02  0.94337330557E+03  0.95187172396E+03  0.12500451955E+03 0.  0.
          2    1    1    2  501    0 -0.47856368701E+01  0.49375547620E+02 -0.28250938671E+03  0.28683165899E+03  0.00000000000E+00 0. -1.
          1    1    1    2  502    0  0.23843586765E+02 -0.38547350218E+02  0.25044700884E+03  0.25451545940E+03  0.00000000000E+00 0. -1.
         22    1    3    3    0    0 -0.12131407756E+02 -0.67839159203E+02  0.55890516745E+03  0.56313791275E+03  0.00000000000E+00 0.  1.
         22    1    3    3    0    0 -0.69265421391E+01  0.57010961801E+02  0.38446813811E+03  0.38873381121E+03  0.00000000000E+00 0.  1.
</event>
<event>
 7    1  0.6444902E-006  0.8200622E+02  0.7818608E-02  0.1450379E+00
          2   -1    0    0  502    0  0.00000000000E+00  0.00000000000E+00  0.88335700324E+03  0.88335700324E+03  0.00000000000E+00 0. -1.
          1   -1    0    0  501    0 -0.00000000000E+00 -0.00000000000E+00 -0.11402381921E+04  0.11402381921E+04  0.00000000000E+00 0. -1.
         25    2    1    2    0    0 -0.44744185521E+02  0.55064368541E+02  0.79222547537E+02  0.16412628102E+03  0.12500838876E+03 0.  0.
          2    1    1    2  501    0 -0.26452382769E+02 -0.12765413326E+02 -0.10953378919E+04  0.10957316194E+04  0.00000000000E+00 0. -1.
          1    1    1    2  502    0  0.71196568289E+02 -0.42298955215E+02  0.75923415544E+03  0.76373729498E+03  0.00000000000E+00 0. -1.
         22    1    3    3    0    0 -0.73143595900E+02 -0.82704211032E+01  0.32563234176E+02  0.80490680867E+02  0.00000000000E+00 0.  1.
         22    1    3    3    0    0  0.28399410379E+02  0.63334789644E+02  0.46659313360E+02  0.83635600150E+02  0.00000000000E+00 0.  1.
</event>
<event>
 7    1  0.1074445E-005  0.1161566E+03  0.7818608E-02  0.1273938E+00
          2   -1    0    0  502    0  0.00000000000E+00  0.00000000000E+00  0.10925510266E+04  0.10925510266E+04  0.00000000000E+00 0. -1.
          1   -1    0    0  501    0 -0.00000000000E+00 -0.00000000000E+00 -0.14358314055E+04  0.14358314055E+04  0.00000000000E+00 0. -1.
         25    2    1    2    0    0 -0.47549100105E+02  0.52453405111E+02 -0.41603631489E+03  0.44014065954E+03  0.12500123298E+03 0.  0.
          2    1    1    2  501    0  0.14829739847E+02 -0.13788790923E+03 -0.10010172643E+04  0.10105783295E+04  0.00000000000E+00 0. -1.
          1    1    1    2  502    0  0.32719360258E+02  0.85434504120E+02  0.10737732003E+04  0.10776634431E+04  0.00000000000E+00 0. -1.
         22    1    3    3    0    0 -0.83820209635E+02  0.54643865558E+02 -0.23370804684E+03  0.25422673098E+03  0.00000000000E+00 0.  1.
         22    1    3    3    0    0  0.36271109530E+02 -0.21904604472E+01 -0.18232826805E+03  0.18591392857E+03  0.00000000000E+00 0.  1.
</event>
<event>
 7    1  0.6444902E-006  0.5402728E+02  0.7818608E-02  0.1451025E+00
          2   -1    0    0  502    0  0.00000000000E+00  0.00000000000E+00  0.18297687233E+03  0.18297687233E+03  0.00000000000E+00 0. -1.
          1   -1    0    0  501    0 -0.00000000000E+00 -0.00000000000E+00 -0.11849437073E+04  0.11849437073E+04  0.00000000000E+00 0. -1.
         25    2    1    2    0    0  0.83879247425E+02  0.21034434031E+02  0.58615938364E+02  0.16290600962E+03  0.12499745669E+03 0.  0.
          2    1    1    2  501    0 -0.41544225278E+02 -0.34320233548E+02 -0.11252769537E+04  0.11265664754E+04  0.00000000000E+00 0. -1.
          1    1    1    2  502    0 -0.42335022147E+02  0.13285799517E+02  0.64694180350E+02  0.78448094561E+02  0.00000000000E+00 0. -1.
         22    1    3    3    0    0  0.27661978371E+02 -0.47139164195E+02  0.50082473524E+02  0.74131909477E+02  0.00000000000E+00 0. -1.
         22    1    3    3    0    0  0.56217269054E+02  0.68173598226E+02  0.85334648403E+01  0.88774100148E+02  0.00000000000E+00 0. -1.
</event>
<event>
 7    1  0.6444902E-006  0.1201260E+03  0.7818608E-02  0.1314793E+00
          2   -1    0    0  502    0  0.00000000000E+00  0.00000000000E+00  0.20573405937E+03  0.20573405937E+03  0.00000000000E+00 0. -1.
          1   -1    0    0  501    0 -0.00000000000E+00 -0.00000000000E+00 -0.19962505811E+04  0.19962505811E+04  0.00000000000E+00 0. -1.
         25    2    1    2    0    0 -0.69246135585E+02 -0.46832973468E+02 -0.42620205606E+02  0.15630252037E+03  0.12500256497E+03 0.  0.
          2    1    1    2  501    0 -0.87613364992E+01 -0.59854544128E+02 -0.18668737070E+04  0.18678535182E+04  0.00000000000E+00 0. -1.
          1    1    1    2  502    0  0.78007472084E+02  0.10668751760E+03  0.11897739089E+03  0.17782860191E+03  0.00000000000E+00 0. -1.
         22    1    3    3    0    0  0.25191421449E+02  0.21619987848E+02 -0.15060832251E+02  0.36453535593E+02  0.00000000000E+00 0.  1.
         22    1    3    3    0    0 -0.94437557034E+02 -0.68452961315E+02 -0.27559373356E+02  0.11984898477E+03  0.00000000000E+00 0.  1.
</event>
<event>
 7    1  0.6444902E-006  0.1812542E+03  0.7818608E-02  0.1335176E+00
          2   -1    0    0  502    0  0.00000000000E+00  0.00000000000E+00  0.12541172683E+04  0.12541172683E+04  0.00000000000E+00 0. -1.
          1   -1    0    0  501    0 -0.00000000000E+00 -0.00000000000E+00 -0.49209982305E+03  0.49209982305E+03  0.00000000000E+00 0. -1.
         25    2    1    2    0    0 -0.16270138923E+03  0.53108523588E+02 -0.13744870668E+03  0.25261594380E+03  0.12502164115E+03 0.  0.
          2    1    1    2  501    0  0.18509684911E+03 -0.28244076823E+02 -0.26729989008E+03  0.32635533191E+03  0.00000000000E+00 0. -1.
          1    1    1    2  502    0 -0.22395459877E+02 -0.24864446764E+02  0.11667660420E+04  0.11672458156E+04  0.00000000000E+00 0. -1.
         22    1    3    3    0    0 -0.13896523828E+03  0.65048203300E+02 -0.50243458415E+02  0.16145281452E+03  0.00000000000E+00 0. -1.
         22    1    3    3    0    0 -0.23736150949E+02 -0.11939679713E+02 -0.87205248267E+02  0.91163129273E+02  0.00000000000E+00 0. -1.
</event>
<event>
 7    1  0.6444902E-006  0.4317517E+02  0.7818608E-02  0.1486806E+00
          2   -1    0    0  502    0  0.00000000000E+00  0.00000000000E+00  0.58678252568E+03  0.58678252568E+03  0.00000000000E+00 0. -1.
          1   -1    0    0  501    0 -0.00000000000E+00 -0.00000000000E+00 -0.73334712764E+03  0.73334712764E+03  0.00000000000E+00 0. -1.
         25    2    1    2    0    0 -0.41567728464E+02  0.10883923056E+02  0.12909553858E+03  0.18476285049E+03  0.12500126803E+03 0.  0.
          2    1    1    2  501    0  0.10178683597E+02 -0.41728733369E+02 -0.70373060746E+03  0.70504018372E+03  0.00000000000E+00 0. -1.
          1    1    1    2  502    0  0.31389044867E+02  0.30844810313E+02  0.42807046692E+03  0.43032661910E+03  0.00000000000E+00 0. -1.
         22    1    3    3    0    0  0.50165531136E+01 -0.13157261550E+02 -0.21277107196E+02  0.25514596357E+02  0.00000000000E+00 0. -1.
         22    1    3    3    0    0 -0.46584281577E+02  0.24041184606E+02  0.15037264578E+03  0.15924825413E+03  0.00000000000E+00 0. -1.
</event>
<event>
 7    1  0.6444902E-006  0.6587432E+02  0.7818608E-02  0.1471629E+00
          2   -1    0    0  502    0  0.00000000000E+00  0.00000000000E+00  0.59387267791E+03  0.59387267791E+03  0.00000000000E+00 0. -1.
          1   -1    0    0  501    0 -0.00000000000E+00 -0.00000000000E+00 -0.10874473812E+03  0.10874473812E+03  0.00000000000E+00 0. -1.
         25    2    1    2    0    0  0.73967004070E+02 -0.32966158156E+02  0.64529313323E+02  0.16231907266E+03  0.12500225517E+03 0.  0.
          2    1    1    2  501    0 -0.28162756437E+02 -0.13752082124E+02 -0.53339408975E+02  0.61865605652E+02  0.00000000000E+00 0. -1.
          1    1    1    2  502    0 -0.45804247633E+02  0.46718240280E+02  0.47393803545E+03  0.47843273772E+03  0.00000000000E+00 0. -1.
         22    1    3    3    0    0  0.21703233421E+02  0.29169726825E+02  0.72125370750E+02  0.80771111233E+02  0.00000000000E+00 0. -1.
         22    1    3    3    0    0  0.52263770649E+02 -0.62135884981E+02 -0.75960574263E+01  0.81547961429E+02  0.00000000000E+00 0. -1.
</event>
<event>
 7    1  0.6444902E-006  0.1546423E+03  0.7818608E-02  0.1268489E+00
          2   -1    0    0  502    0  0.00000000000E+00  0.00000000000E+00  0.38079243175E+04  0.38079243175E+04  0.00000000000E+00 0. -1.
          1   -1    0    0  501    0 -0.00000000000E+00 -0.00000000000E+00 -0.27821798398E+03  0.27821798398E+03  0.00000000000E+00 0. -1.
         25    2    1    2    0    0 -0.19619531137E+02 -0.10314201522E+03  0.17175508055E+03  0.23695473560E+03  0.12499815088E+03 0.  0.
          2    1    1    2  501    0  0.51062277278E+02 -0.51365572822E+02 -0.23851363501E+03  0.24926799297E+03  0.00000000000E+00 0. -1.
          1    1    1    2  502    0 -0.31442746141E+02  0.15450758804E+03  0.35964648880E+04  0.35999195729E+04  0.00000000000E+00 0. -1.
         22    1    3    3    0    0 -0.93844709685E+01  0.18485077843E+02  0.84271371348E+02  0.86783814315E+02  0.00000000000E+00 0. -1.
         22    1    3    3    0    0 -0.10235060169E+02 -0.12162709306E+03  0.87483709203E+02  0.15017092129E+03  0.00000000000E+00 0. -1.
</event>
<event>
 7    1  0.6444902E-006  0.1277487E+03  0.7818608E-02  0.1311389E+00
          2   -1    0    0  502    0  0.00000000000E+00  0.00000000000E+00  0.22116379381E+04  0.22116379381E+04  0.00000000000E+00 0. -1.
          1   -1    0    0  501    0 -0.00000000000E+00 -0.00000000000E+00 -0.27112179785E+02  0.27112179785E+02  0.00000000000E+00 0. -1.
         25    2    1    2    0    0  0.16931433303E+03 -0.19742314768E+02  0.12194017861E+04  0.12375875744E+04  0.12500074469E+03 0.  0.
          2    1    1    2  501    0 -0.57984872236E+02  0.88663730390E+01  0.44141889131E+02  0.73412290219E+02  0.00000000000E+00 0. -1.
          1    1    1    2  502    0 -0.11132946079E+03  0.10875941729E+02  0.92098208317E+03  0.92775025328E+03  0.00000000000E+00 0. -1.
         22    1    3    3    0    0  0.18830022876E+03 -0.17843789977E+02  0.11561804357E+04  0.11715496477E+04  0.00000000000E+00 0.  1.
         22    1    3    3    0    0 -0.18985895727E+02 -0.18985247907E+01  0.63221350310E+02  0.66037926739E+02  0.00000000000E+00 0.  1.
</event>
<event>
 7    1  0.6444902E-006  0.7604842E+02  0.7818608E-02  0.1477372E+00
          2   -1    0    0  502    0  0.00000000000E+00  0.00000000000E+00  0.72047866155E+02  0.72047866155E+02  0.00000000000E+00 0. -1.
          1   -1    0    0  501    0 -0.00000000000E+00 -0.00000000000E+00 -0.23055062833E+03  0.23055062833E+03  0.00000000000E+00 0. -1.
         25    2    1    2    0    0 -0.62693183064E+02 -0.96702999396E+01 -0.60706145272E+02  0.15275116323E+03  0.12499492746E+03 0.  0.
          2    1    1    2  501    0 -0.20846310121E+02 -0.15639324456E+02 -0.26164780187E+02  0.36929024321E+02  0.00000000000E+00 0. -1.
          1    1    1    2  502    0  0.83539493185E+02  0.25309624395E+02 -0.71631836718E+02  0.11291830693E+03  0.00000000000E+00 0. -1.
         22    1    3    3    0    0 -0.45622181061E+02 -0.66494991504E+02 -0.38948291657E+02  0.89554099420E+02  0.00000000000E+00 0.  1.
         22    1    3    3    0    0 -0.17071002003E+02  0.56824691564E+02 -0.21757853615E+02  0.63197063814E+02  0.00000000000E+00 0.  1.
</event>
<event>
 7    1  0.6444902E-006  0.2442262E+02  0.7818608E-02  0.1669566E+00
          2   -1    0    0  502    0  0.00000000000E+00  0.00000000000E+00  0.19975547546E+03  0.19975547546E+03  0.00000000000E+00 0. -1.
          1   -1    0    0  501    0 -0.00000000000E+00 -0.00000000000E+00 -0.42746327885E+03  0.42746327885E+03  0.00000000000E+00 0. -1.
         25    2    1    2    0    0 -0.18078647116E+02  0.14775794388E+02 -0.15554549072E+03  0.20090972787E+03  0.12500062995E+03 0.  0.
          2    1    1    2  501    0 -0.46172336061E+01 -0.23964423914E+02 -0.24778686378E+03  0.24898582755E+03  0.00000000000E+00 0. -1.
          1    1    1    2  502    0  0.22695880722E+02  0.91886295256E+01  0.17562455110E+03  0.17732319889E+03  0.00000000000E+00 0. -1.
         22    1    3    3    0    0  0.35995733717E+02  0.13243794284E+02 -0.23308764120E+01  0.38425563337E+02  0.00000000000E+00 0.  1.
         22    1    3    3    0    0 -0.54074380833E+02  0.15320001036E+01 -0.15321461430E+03  0.16248416453E+03  0.00000000000E+00 0.  1.
</event>
<event>
 7    1  0.6444902E-006  0.4651220E+02  0.7818608E-02  0.1513185E+00
          2   -1    0    0  502    0  0.00000000000E+00  0.00000000000E+00  0.50114175170E+02  0.50114175170E+02  0.00000000000E+00 0. -1.
          1   -1    0    0  501    0 -0.00000000000E+00 -0.00000000000E+00 -0.66176747473E+03  0.66176747473E+03  0.00000000000E+00 0. -1.
         25    2    1    2    0    0  0.50575283278E+01  0.56230398023E+02 -0.30177188728E+03  0.33147818553E+03  0.12499631703E+03 0.  0.
          2    1    1    2  501    0 -0.28979499584E+02 -0.16322913294E+02 -0.32857965912E+03  0.33025874899E+03  0.00000000000E+00 0. -1.
          1    1    1    2  502    0  0.23921971256E+02 -0.39907484730E+02  0.18698246843E+02  0.50144715387E+02  0.00000000000E+00 0. -1.
         22    1    3    3    0    0 -0.18462810971E+02  0.19043869235E+02 -0.28199115023E+03  0.28323586134E+03  0.00000000000E+00 0.  1.
         22    1    3    3    0    0  0.23520339299E+02  0.37186528788E+02 -0.19780737056E+02  0.48242324183E+02  0.00000000000E+00 0.  1.
</event>
<event>
 7    1  0.6444902E-006  0.6937508E+02  0.7818608E-02  0.1454825E+00
          2   -1    0    0  502    0  0.00000000000E+00  0.00000000000E+00  0.10621246566E+04  0.10621246566E+04  0.00000000000E+00 0. -1.
          1   -1    0    0  501    0 -0.00000000000E+00 -0.00000000000E+00 -0.20353905267E+04  0.20353905267E+04  0.00000000000E+00 0. -1.
         25    2    1    2    0    0  0.93800037214E+02 -0.40756729374E+02 -0.79515317612E+02  0.18001947882E+03  0.12499907620E+03 0.  0.
          2    1    1    2  501    0 -0.64632738248E+02  0.24067272714E+02 -0.19047198353E+04  0.19059680678E+04  0.00000000000E+00 0. -1.
          1    1    1    2  502    0 -0.29167298966E+02  0.16689456660E+02  0.10109692827E+04  0.10115276367E+04  0.00000000000E+00 0. -1.
         22    1    3    3    0    0  0.79237064352E+02 -0.83052948631E+02 -0.69467945337E+02  0.13417190493E+03  0.00000000000E+00 0.  1.
         22    1    3    3    0    0  0.14562972862E+02  0.42296219258E+02 -0.10047372275E+02  0.45847573891E+02  0.00000000000E+00 0.  1.
</event>
<event>
 7    1  0.6444902E-006  0.1017769E+03  0.7818608E-02  0.1342588E+00
          2   -1    0    0  502    0  0.00000000000E+00  0.00000000000E+00  0.53775564286E+03  0.53775564286E+03  0.00000000000E+00 0. -1.
          1   -1    0    0  501    0 -0.00000000000E+00 -0.00000000000E+00 -0.20876380810E+04  0.20876380810E+04  0.00000000000E+00 0. -1.
         25    2    1    2    0    0  0.15039241808E+03  0.13158106579E+02  0.55661616168E+02  0.20375124337E+03  0.12500135389E+03 0.  0.
          2    1    1    2  501    0 -0.96943792583E+02 -0.29471537095E+02 -0.20103980788E+04  0.20129498518E+04  0.00000000000E+00 0. -1.
          1    1    1    2  502    0 -0.53448625498E+02  0.16313430516E+02  0.40485402452E+03  0.40869262870E+03  0.00000000000E+00 0. -1.
         22    1    3    3    0    0  0.72536031847E+02 -0.38920999234E+02  0.71156116244E+02  0.10880952613E+03  0.00000000000E+00 0.  1.
         22    1    3    3    0    0  0.77856386234E+02  0.52079105813E+02 -0.15494500076E+02  0.94941717239E+02  0.00000000000E+00 0.  1.
</event>
<event>
 7    1  0.6444902E-006  0.2049778E+03  0.7818608E-02  0.1253400E+00
          2   -1    0    0  502    0  0.00000000000E+00  0.00000000000E+00  0.30294412571E+03  0.30294412571E+03  0.00000000000E+00 0. -1.
          1   -1    0    0  501    0 -0.00000000000E+00 -0.00000000000E+00 -0.32576588938E+03  0.32576588938E+03  0.00000000000E+00 0. -1.
         25    2    1    2    0    0 -0.15917720229E+03  0.74706008552E+02 -0.13928717099E+03  0.25679370365E+03  0.12499488304E+03 0.  0.
          2    1    1    2  501    0 -0.37399592042E+01  0.63251995540E+02 -0.65700501587E+02  0.91276273716E+02  0.00000000000E+00 0. -1.
          1    1    1    2  502    0  0.16291716150E+03 -0.13795800409E+03  0.18216590891E+03  0.28064003772E+03  0.00000000000E+00 0. -1.
         22    1    3    3    0    0 -0.14299706448E+03  0.89191700551E+01 -0.11849700779E+03  0.18592808529E+03  0.00000000000E+00 0. -1.
         22    1    3    3    0    0 -0.16180137810E+02  0.65786838497E+02 -0.20790163204E+02  0.70865618356E+02  0.00000000000E+00 0. -1.
</event>
<event>
 7    1  0.6444902E-006  0.1080322E+03  0.7818608E-02  0.1293695E+00
          2   -1    0    0  502    0  0.00000000000E+00  0.00000000000E+00  0.17882037270E+04  0.17882037270E+04  0.00000000000E+00 0. -1.
          1   -1    0    0  501    0 -0.00000000000E+00 -0.00000000000E+00 -0.42552415700E+03  0.42552415700E+03  0.00000000000E+00 0. -1.
         25    2    1    2    0    0 -0.10119123766E+03  0.68667501170E+02  0.54929999792E+02  0.18329748384E+03  0.12500308160E+03 0.  0.
          2    1    1    2  501    0  0.28248848651E+02 -0.10524524322E+03 -0.35209965635E+03  0.36857662252E+03  0.00000000000E+00 0. -1.
          1    1    1    2  502    0  0.72942389013E+02  0.36577742053E+02  0.16598492265E+04  0.16618537776E+04  0.00000000000E+00 0. -1.
         22    1    3    3    0    0 -0.87409741242E+02  0.35069037402E+02  0.91818576235E+02  0.13153308021E+03  0.00000000000E+00 0. -1.
         22    1    3    3    0    0 -0.13781496421E+02  0.33598463768E+02 -0.36888576443E+02  0.51764403630E+02  0.00000000000E+00 0. -1.
</event>
<event>
 7    1  0.6444902E-006  0.1528901E+03  0.7818608E-02  0.1201666E+00
          2   -1    0    0  502    0  0.00000000000E+00  0.00000000000E+00  0.86499477773E+03  0.86499477773E+03  0.00000000000E+00 0. -1.
          1   -1    0    0  501    0 -0.00000000000E+00 -0.00000000000E+00 -0.91591620838E+03  0.91591620838E+03  0.00000000000E+00 0. -1.
         25    2    1    2    0    0 -0.13935871199E+03  0.21069393017E+03 -0.40803731001E+03  0.49591574323E+03  0.12500078082E+03 0.  0.
          2    1    1    2  501    0  0.23067968048E+01 -0.14525461538E+03 -0.44526672363E+03  0.46836596778E+03  0.00000000000E+00 0. -1.
          1    1    1    2  502    0  0.13705191519E+03 -0.65439314795E+02  0.80238260299E+03  0.81662927510E+03  0.00000000000E+00 0. -1.
         22    1    3    3    0    0 -0.54759829269E+02  0.23365362432E+01 -0.57420926983E+02  0.79380483488E+02  0.00000000000E+00 0.  1.
         22    1    3    3    0    0 -0.84598882722E+02  0.20835739393E+03 -0.35061638303E+03  0.41653525974E+03  0.00000000000E+00 0.  1.
</event>
<event>
 7    1  0.6444902E-006  0.6571203E+02  0.7818608E-02  0.1491635E+00
          2   -1    0    0  502    0  0.00000000000E+00  0.00000000000E+00  0.83657508599E+03  0.83657508599E+03  0.00000000000E+00 0. -1.
          1   -1    0    0  501    0 -0.00000000000E+00 -0.00000000000E+00 -0.18565377986E+03  0.18565377986E+03  0.00000000000E+00 0. -1.
         25    2    1    2    0    0  0.38938662916E+02 -0.49376298898E+02  0.36289920182E+03  0.38894045207E+03  0.12499842483E+03 0.  0.
          2    1    1    2  501    0  0.20434590667E+02  0.18082722216E+02 -0.16908897511E+03  0.17127649822E+03  0.00000000000E+00 0. -1.
          1    1    1    2  502    0 -0.59373253582E+02  0.31293576682E+02  0.45711107942E+03  0.46201191556E+03  0.00000000000E+00 0. -1.
         22    1    3    3    0    0  0.35287684673E+02  0.32167135052E+02  0.68953987596E+02  0.83872508442E+02  0.00000000000E+00 0.  1.
         22    1    3    3    0    0  0.36509782423E+01 -0.81543433950E+02  0.29394521423E+03  0.30506794363E+03  0.00000000000E+00 0.  1.
</event>
<event>
 7    1  0.6444902E-006  0.8041138E+02  0.7818608E-02  0.1331736E+00
          2   -1    0    0  502    0  0.00000000000E+00  0.00000000000E+00  0.18593544642E+04  0.18593544642E+04  0.00000000000E+00 0. -1.
          1   -1    0    0  501    0 -0.00000000000E+00 -0.00000000000E+00 -0.26267122388E+03  0.26267122388E+03  0.00000000000E+00 0. -1.
         25    2    1    2    0    0 -0.25962206417E+02 -0.18093297441E+02  0.13080010802E+03  0.18369197376E+03  0.12503067380E+03 0.  0.
          2    1    1    2  501    0 -0.42559312798E+02  0.65048903609E+02 -0.22878532778E+03  0.24163067102E+03  0.00000000000E+00 0. -1.
          1    1    1    2  502    0  0.68521519215E+02 -0.46955606168E+02  0.16946684601E+04  0.16967030433E+04  0.00000000000E+00 0. -1.
         22    1    3    3    0    0  0.37392082271E+02 -0.42260554228E+02  0.35272400519E+02  0.66545206428E+02  0.00000000000E+00 0.  1.
         22    1    3    3    0    0 -0.63354288688E+02  0.24167256788E+02  0.95527707500E+02  0.11714676733E+03  0.00000000000E+00 0.  1.
</event>
<event>
 7    1  0.6444902E-006  0.6436018E+02  0.7818608E-02  0.1452549E+00
          2   -1    0    0  502    0  0.00000000000E+00  0.00000000000E+00  0.76386768160E+02  0.76386768160E+02  0.00000000000E+00 0. -1.
          1   -1    0    0  501    0 -0.00000000000E+00 -0.00000000000E+00 -0.11467678876E+04  0.11467678876E+04  0.00000000000E+00 0. -1.
         25    2    1    2    0    0 -0.26274243969E+02 -0.29257093365E+02 -0.50529869546E+03  0.52201355342E+03  0.12500025963E+03 0.  0.
          2    1    1    2  501    0  0.25663494501E+02  0.66084203535E+02 -0.62597454575E+03  0.62997608592E+03  0.00000000000E+00 0. -1.
          1    1    1    2  502    0  0.61074946828E+00 -0.36827110170E+02  0.60892121808E+02  0.71165016382E+02  0.00000000000E+00 0. -1.
         22    1    3    3    0    0  0.42956417042E+02  0.15909953486E+02 -0.23234944348E+03  0.23682196746E+03  0.00000000000E+00 0.  1.
         22    1    3    3    0    0 -0.69230661011E+02 -0.45167046850E+02 -0.27294925198E+03  0.28519158596E+03  0.00000000000E+00 0.  1.
</event>
<event>
 7    1  0.6444902E-006  0.8061866E+02  0.7818608E-02  0.1355816E+00
          2   -1    0    0  502    0  0.00000000000E+00  0.00000000000E+00  0.27826449903E+03  0.27826449903E+03  0.00000000000E+00 0. -1.
          1   -1    0    0  501    0 -0.00000000000E+00 -0.00000000000E+00 -0.18269236623E+03  0.18269236623E+03  0.00000000000E+00 0. -1.
         25    2    1    2    0    0  0.32763894883E+02 -0.54815639739E+02  0.24566704762E+02  0.14250098462E+03  0.12499912186E+03 0.  0.
          2    1    1    2  501    0 -0.56193033839E+02 -0.28509341247E+02 -0.10492169097E+03  0.12238872835E+03  0.00000000000E+00 0. -1.
          1    1    1    2  502    0  0.23429138955E+02  0.83324980986E+02  0.17592711900E+03  0.19606715229E+03  0.00000000000E+00 0. -1.
         22    1    3    3    0    0 -0.11881592999E+02 -0.63827512963E+02  0.57154710733E+02  0.86497309913E+02  0.00000000000E+00 0. -1.
         22    1    3    3    0    0  0.44645487882E+02  0.90118732241E+01 -0.32588005971E+02  0.56003674705E+02  0.00000000000E+00 0. -1.
</event>
<event>
 7    1  0.6444902E-006  0.5433969E+02  0.7818608E-02  0.1527120E+00
          2   -1    0    0  502    0  0.00000000000E+00  0.00000000000E+00  0.42567525126E+02  0.42567525126E+02  0.00000000000E+00 0. -1.
          1   -1    0    0  501    0 -0.00000000000E+00 -0.00000000000E+00 -0.22943239425E+04  0.22943239425E+04  0.00000000000E+00 0. -1.
         25    2    1    2    0    0 -0.11259694981E+02 -0.62655480266E+02 -0.16257372339E+04  0.16317779274E+04  0.12500064272E+03 0.  0.
          2    1    1    2  501    0 -0.19045403409E+02  0.17606650213E+02 -0.64654833534E+03  0.64706836691E+03  0.00000000000E+00 0. -1.
          1    1    1    2  502    0  0.30305098391E+02  0.45048830054E+02  0.20529151822E+02  0.58045173375E+02  0.00000000000E+00 0. -1.
         22    1    3    3    0    0 -0.50245486029E+02 -0.60672211241E+02 -0.58154686498E+03  0.58685814492E+03  0.00000000000E+00 0. -1.
         22    1    3    3    0    0  0.38985791047E+02 -0.19832690258E+01 -0.10441903689E+04  0.10449197825E+04  0.00000000000E+00 0. -1.
</event>
<event>
 7    1  0.6444902E-006  0.2483510E+03  0.7818608E-02  0.1160638E+00
          2   -1    0    0  502    0  0.00000000000E+00  0.00000000000E+00  0.90041553871E+03  0.90041553871E+03  0.00000000000E+00 0. -1.
          1   -1    0    0  501    0 -0.00000000000E+00 -0.00000000000E+00 -0.23724600752E+03  0.23724600752E+03  0.00000000000E+00 0. -1.
         25    2    1    2    0    0  0.13020698018E+02  0.28258200235E+03  0.44890468976E+03  0.54512588363E+03  0.12499872756E+03 0.  0.
          2    1    1    2  501    0 -0.13390029182E+03 -0.20860661023E+03 -0.84477844936E+02  0.26188263071E+03  0.00000000000E+00 0. -1.
          1    1    1    2  502    0  0.12087959380E+03 -0.73975392125E+02  0.29874268637E+03  0.33065303189E+03  0.00000000000E+00 0. -1.
         22    1    3    3    0    0 -0.17611959877E+02  0.28718597835E+02  0.67534562770E+01  0.34359105984E+02  0.00000000000E+00 0. -1.
         22    1    3    3    0    0  0.30632657895E+02  0.25386340452E+03  0.44215123348E+03  0.51076677765E+03  0.00000000000E+00 0. -1.
</event>
<event>
 7    1  0.6444902E-006  0.1241594E+03  0.7818608E-02  0.1309859E+00
          2   -1    0    0  502    0  0.00000000000E+00  0.00000000000E+00  0.26354456059E+04  0.26354456059E+04  0.00000000000E+00 0. -1.
          1   -1    0    0  501    0 -0.00000000000E+00 -0.00000000000E+00 -0.22891072656E+02  0.22891072656E+02  0.00000000000E+00 0. -1.
         25    2    1    2    0    0 -0.10146140104E+03 -0.83538875658E+02  0.13231922277E+04  0.13355641693E+04  0.12498327599E+03 0.  0.
          2    1    1    2  501    0  0.52263332054E+02 -0.31837551944E+02  0.55699031208E+02  0.82749426999E+02  0.00000000000E+00 0. -1.
          1    1    1    2  502    0  0.49198068982E+02  0.11537642760E+03  0.12336632743E+04  0.12400230822E+04  0.00000000000E+00 0. -1.
         22    1    3    3    0    0 -0.38277045176E+02  0.28375459562E+02  0.51715995369E+03  0.51935028314E+03  0.00000000000E+00 0.  1.
         22    1    3    3    0    0 -0.63184355860E+02 -0.11191433522E+03  0.80603227400E+03  0.81621388618E+03  0.00000000000E+00 0.  1.
</event>
<event>
 7    1  0.6444902E-006  0.3968332E+02  0.7818608E-02  0.1561749E+00
          2   -1    0    0  502    0  0.00000000000E+00  0.00000000000E+00  0.32250234930E+04  0.32250234930E+04  0.00000000000E+00 0. -1.
          1   -1    0    0  501    0 -0.00000000000E+00 -0.00000000000E+00 -0.11711443669E+03  0.11711443669E+03  0.00000000000E+00 0. -1.
         25    2    1    2    0    0 -0.10699922543E+02 -0.18836048792E+02  0.80364249893E+03  0.81359390150E+03  0.12499794156E+03 0.  0.
          2    1    1    2  501    0 -0.27725475346E+02  0.60872207015E+01 -0.11016997403E+03  0.11376809490E+03  0.00000000000E+00 0. -1.
          1    1    1    2  502    0  0.38425397888E+02  0.12748828091E+02  0.24144365314E+04  0.24147759332E+04  0.00000000000E+00 0. -1.
         22    1    3    3    0    0  0.49359112322E+02 -0.14708446059E+02  0.18519942468E+03  0.19222769638E+03  0.00000000000E+00 0.  1.
         22    1    3    3    0    0 -0.60059034865E+02 -0.41276027331E+01  0.61844307426E+03  0.62136620513E+03  0.00000000000E+00 0.  1.
</event>
<event>
 7    1  0.6444902E-006  0.5472521E+02  0.7818608E-02  0.1539161E+00
          2   -1    0    0  502    0  0.00000000000E+00  0.00000000000E+00  0.28248165388E+02  0.28248165388E+02  0.00000000000E+00 0. -1.
          1   -1    0    0  501    0 -0.00000000000E+00 -0.00000000000E+00 -0.15011987065E+04  0.15011987065E+04  0.00000000000E+00 0. -1.
         25    2    1    2    0    0  0.27266022230E+02 -0.65295620160E+02 -0.30170785768E+03  0.33415105027E+03  0.12498935567E+03 0.  0.
          2    1    1    2  501    0 -0.19428627861E+02  0.13738715506E+02 -0.11260145483E+04  0.11262659486E+04  0.00000000000E+00 0. -1.
          1    1    1    2  502    0 -0.78373943696E+01  0.51556904654E+02 -0.45228135129E+02  0.69029873064E+02  0.00000000000E+00 0. -1.
         22    1    3    3    0    0 -0.40455178500E+02  0.96450141018E+01 -0.10711382365E+03  0.11490439061E+03  0.00000000000E+00 0. -1.
         22    1    3    3    0    0  0.67721200731E+02 -0.74940634262E+02 -0.19459403404E+03  0.21924665966E+03  0.00000000000E+00 0. -1.
</event>
<event>
 7    1  0.6444902E-006  0.5481029E+02  0.7818608E-02  0.1483949E+00
          2   -1    0    0  502    0  0.00000000000E+00  0.00000000000E+00  0.80230598404E+03  0.80230598404E+03  0.00000000000E+00 0. -1.
          1   -1    0    0  501    0 -0.00000000000E+00 -0.00000000000E+00 -0.20216165693E+03  0.20216165693E+03  0.00000000000E+00 0. -1.
         25    2    1    2    0    0  0.48707658460E+02 -0.34382722621E+02  0.12727913110E+03  0.18809467184E+03  0.12500008302E+03 0.  0.
          2    1    1    2  501    0 -0.18815004152E+02  0.51644797831E+02 -0.16687908769E+03  0.17569809172E+03  0.00000000000E+00 0. -1.
          1    1    1    2  502    0 -0.29892654308E+02 -0.17262075210E+02  0.63974428370E+03  0.64067487742E+03  0.00000000000E+00 0. -1.
         22    1    3    3    0    0  0.91141975589E+02 -0.20235030879E+02  0.92599179813E+02  0.13149495919E+03  0.00000000000E+00 0. -1.
         22    1    3    3    0    0 -0.42434317129E+02 -0.14147691741E+02  0.34679951286E+02  0.56599712659E+02  0.00000000000E+00 0. -1.
</event>
<event>
 7    1  0.6444902E-006  0.1017026E+03  0.7818608E-02  0.1288753E+00
          2   -1    0    0  502    0  0.00000000000E+00  0.00000000000E+00  0.82611880502E+03  0.82611880502E+03  0.00000000000E+00 0. -1.
          1   -1    0    0  501    0 -0.00000000000E+00 -0.00000000000E+00 -0.75784364018E+02  0.75784364018E+02  0.00000000000E+00 0. -1.
         25    2    1    2    0    0  0.33955991606E+02  0.50736205205E+02  0.20741418262E+03  0.24974515347E+03  0.12499930659E+03 0.  0.
          2    1    1    2  501    0  0.70406461214E+02 -0.73391789633E+02  0.29677812310E+01  0.10174592027E+03  0.00000000000E+00 0. -1.
          1    1    1    2  502    0 -0.10436245282E+03  0.22655584427E+02  0.53995247715E+03  0.55041209530E+03  0.00000000000E+00 0. -1.
         22    1    3    3    0    0 -0.18759428433E+02  0.58006553973E+02  0.17967246496E+03  0.18973368474E+03  0.00000000000E+00 0.  1.
         22    1    3    3    0    0  0.52715420039E+02 -0.72703487681E+01  0.27741717657E+02  0.60011468734E+02  0.00000000000E+00 0.  1.
</event>
<event>
 7    1  0.6444902E-006  0.8909838E+02  0.7818608E-02  0.1322317E+00
          2   -1    0    0  502    0  0.00000000000E+00  0.00000000000E+00  0.22431762604E+04  0.22431762604E+04  0.00000000000E+00 0. -1.
          1   -1    0    0  501    0 -0.00000000000E+00 -0.00000000000E+00 -0.11544646088E+04  0.11544646088E+04  0.00000000000E+00 0. -1.
         25    2    1    2    0    0 -0.12964672343E+03 -0.91802397219E+02  0.41512500598E+03  0.46172521171E+03  0.12500179001E+03 0.  0.
          2    1    1    2  501    0  0.70405085917E+02  0.29263711453E+02 -0.11288498786E+04  0.11314217999E+04  0.00000000000E+00 0. -1.
          1    1    1    2  502    0  0.59241637513E+02  0.62538685766E+02  0.18024365241E+04  0.18044938576E+04  0.00000000000E+00 0. -1.
         22    1    3    3    0    0 -0.11309666983E+03 -0.15692882560E+02  0.17216955850E+03  0.20659012601E+03  0.00000000000E+00 0. -1.
         22    1    3    3    0    0 -0.16550053602E+02 -0.76109514659E+02  0.24295544748E+03  0.25513508570E+03  0.00000000000E+00 0. -1.
</event>
<event>
 7    1  0.6444902E-006  0.8148013E+02  0.7818608E-02  0.1376199E+00
          2   -1    0    0  502    0  0.00000000000E+00  0.00000000000E+00  0.22365742701E+04  0.22365742701E+04  0.00000000000E+00 0. -1.
          1   -1    0    0  501    0 -0.00000000000E+00 -0.00000000000E+00 -0.22978935030E+03  0.22978935030E+03  0.00000000000E+00 0. -1.
         25    2    1    2    0    0 -0.47322292019E+00  0.13151394911E+03  0.40646500738E+03  0.44512328708E+03  0.12499918290E+03 0.  0.
          2    1    1    2  501    0 -0.10038111744E+02 -0.79963390229E+02 -0.20234720383E+03  0.21780564355E+03  0.00000000000E+00 0. -1.
          1    1    1    2  502    0  0.10511334664E+02 -0.51550558878E+02  0.18026671162E+04  0.18034346898E+04  0.00000000000E+00 0. -1.
         22    1    3    3    0    0 -0.29147184494E+02  0.78045040481E+02  0.35772646204E+03  0.36729934434E+03  0.00000000000E+00 0. -1.
         22    1    3    3    0    0  0.28673961574E+02  0.53468908627E+02  0.48738545347E+02  0.77823942747E+02  0.00000000000E+00 0. -1.
</event>
<event>
 7    1  0.6444902E-006  0.3371365E+03  0.7818608E-02  0.1216547E+00
          2   -1    0    0  502    0  0.00000000000E+00  0.00000000000E+00  0.22486017906E+04  0.22486017906E+04  0.00000000000E+00 0. -1.
          1   -1    0    0  501    0 -0.00000000000E+00 -0.00000000000E+00 -0.17553753944E+04  0.17553753944E+04  0.00000000000E+00 0. -1.
         25    2    1    2    0    0 -0.17745247698E+03  0.24282345922E+03 -0.69741903414E+03  0.76972208109E+03  0.12500463591E+03 0.  0.
          2    1    1    2  501    0  0.15932070924E+02  0.53883246745E+02 -0.10081223085E+04  0.10096869931E+04  0.00000000000E+00 0. -1.
          1    1    1    2  502    0  0.16152040606E+03 -0.29670670597E+03  0.21987677388E+04  0.22245681109E+04  0.00000000000E+00 0. -1.
         22    1    3    3    0    0 -0.64324347060E+02  0.13640370904E+03 -0.21278647091E+03  0.26080965409E+03  0.00000000000E+00 0. -1.
         22    1    3    3    0    0 -0.11312812992E+03  0.10641975018E+03 -0.48463256323E+03  0.50891242699E+03  0.00000000000E+00 0. -1.
</event>
<event>
 7    1  0.6444902E-006  0.4095417E+02  0.7818608E-02  0.1556623E+00
          2   -1    0    0  502    0  0.00000000000E+00  0.00000000000E+00  0.76811427976E+03  0.76811427976E+03  0.00000000000E+00 0. -1.
          1   -1    0    0  501    0 -0.00000000000E+00 -0.00000000000E+00 -0.68742748916E+02  0.68742748916E+02  0.00000000000E+00 0. -1.
         25    2    1    2    0    0 -0.21479844420E+02 -0.61174150839E+02  0.84052356820E+02  0.16399268574E+03  0.12500056737E+03 0.  0.
          2    1    1    2  501    0  0.20326749469E+02  0.32783245383E+02 -0.15379113038E+02  0.41526317435E+02  0.00000000000E+00 0. -1.
          1    1    1    2  502    0  0.11530949510E+01  0.28390905455E+02  0.63069828706E+03  0.63133802550E+03  0.00000000000E+00 0. -1.
         22    1    3    3    0    0 -0.63120454874E+02 -0.93342510041E+01  0.72369064531E+02  0.96481094347E+02  0.00000000000E+00 0. -1.
         22    1    3    3    0    0  0.41640610454E+02 -0.51839899834E+02  0.11683292289E+02  0.67511591394E+02  0.00000000000E+00 0. -1.
</event>
<event>
 7    1  0.6444902E-006  0.1209184E+03  0.7818608E-02  0.1305919E+00
          2   -1    0    0  502    0  0.00000000000E+00  0.00000000000E+00  0.89943479573E+03  0.89943479573E+03  0.00000000000E+00 0. -1.
          1   -1    0    0  501    0 -0.00000000000E+00 -0.00000000000E+00 -0.56434854343E+03  0.56434854343E+03  0.00000000000E+00 0. -1.
         25    2    1    2    0    0  0.68913216492E+02  0.30976178881E+02 -0.89160680742E+01  0.14632671955E+03  0.12499382992E+03 0.  0.
          2    1    1    2  501    0  0.55103288069E+02 -0.34726006896E+02 -0.47988215494E+03  0.48428209810E+03  0.00000000000E+00 0. -1.
          1    1    1    2  502    0 -0.12401650456E+03  0.37498280144E+01  0.82388447532E+03  0.83317452150E+03  0.00000000000E+00 0. -1.
         22    1    3    3    0    0  0.12448969948E+02 -0.20700841958E+02  0.46112616275E+02  0.52056460601E+02  0.00000000000E+00 0. -1.
         22    1    3    3    0    0  0.56464246544E+02  0.51677020840E+02 -0.55028684349E+02  0.94270258947E+02  0.00000000000E+00 0. -1.
</event>
<event>
 7    1  0.6444902E-006  0.1353693E+03  0.7818608E-02  0.1285521E+00
          2   -1    0    0  502    0  0.00000000000E+00  0.00000000000E+00  0.15019973505E+04  0.15019973505E+04  0.00000000000E+00 0. -1.
          1   -1    0    0  501    0 -0.00000000000E+00 -0.00000000000E+00 -0.41741353240E+03  0.41741353240E+03  0.00000000000E+00 0. -1.
         25    2    1    2    0    0  0.10363393530E+03 -0.53474892965E+02 -0.42597364174E+02  0.17618221045E+03  0.12500431641E+03 0.  0.
          2    1    1    2  501    0  0.32487847056E+02  0.62348996766E+02 -0.30071869534E+03  0.30882776968E+03  0.00000000000E+00 0. -1.
          1    1    1    2  502    0 -0.13612178236E+03 -0.88741038011E+01  0.14278998776E+04  0.14344009027E+04  0.00000000000E+00 0. -1.
         22    1    3    3    0    0  0.60233339132E+02 -0.89010879992E+02 -0.29935462442E+01  0.10751722289E+03  0.00000000000E+00 0.  1.
         22    1    3    3    0    0  0.43400596170E+02  0.35535987027E+02 -0.39603817930E+02  0.68664987559E+02  0.00000000000E+00 0.  1.
</event>
<event>
 7    1  0.6444902E-006  0.2343035E+03  0.7818608E-02  0.1305293E+00
          2   -1    0    0  502    0  0.00000000000E+00  0.00000000000E+00  0.19385112659E+04  0.19385112659E+04  0.00000000000E+00 0. -1.
          1   -1    0    0  501    0 -0.00000000000E+00 -0.00000000000E+00 -0.30019723855E+03  0.30019723855E+03  0.00000000000E+00 0. -1.
         25    2    1    2    0    0  0.11819305072E+03  0.22870966269E+03  0.62858419645E+03  0.69066695232E+03  0.12500015983E+03 0.  0.
          2    1    1    2  501    0 -0.12568148773E+03 -0.19574338086E+03 -0.21861964412E+03  0.31922696676E+03  0.00000000000E+00 0. -1.
          1    1    1    2  502    0  0.74884370135E+01 -0.32966281833E+02  0.12283494750E+04  0.12288145854E+04  0.00000000000E+00 0. -1.
         22    1    3    3    0    0  0.72047499232E+02  0.95449775527E+02  0.43514891778E+03  0.45128270789E+03  0.00000000000E+00 0. -1.
         22    1    3    3    0    0  0.46145551488E+02  0.13325988716E+03  0.19343527866E+03  0.23938424443E+03  0.00000000000E+00 0. -1.
</event>
<event>
 7    1  0.6444902E-006  0.1118697E+03  0.7818608E-02  0.1333403E+00
          2   -1    0    0  502    0  0.00000000000E+00  0.00000000000E+00  0.10163431104E+04  0.10163431104E+04  0.00000000000E+00 0. -1.
          1   -1    0    0  501    0 -0.00000000000E+00 -0.00000000000E+00 -0.32334688371E+03  0.32334688371E+03  0.00000000000E+00 0. -1.
         25    2    1    2    0    0  0.63864417589E+02  0.66490899380E+02  0.55904816478E+02  0.16507921960E+03  0.12500438674E+03 0.  0.
          2    1    1    2  501    0 -0.31269411679E+02 -0.11087205482E+03 -0.25552807471E+03  0.28029446233E+03  0.00000000000E+00 0. -1.
          1    1    1    2  502    0 -0.32595005911E+02  0.44381155435E+02  0.89261948495E+03  0.89431631220E+03  0.00000000000E+00 0. -1.
         22    1    3    3    0    0  0.82821433083E+02  0.41643327494E+02 -0.89041028136E+01  0.93128081423E+02  0.00000000000E+00 0.  1.
         22    1    3    3    0    0 -0.18957015493E+02  0.24847571887E+02  0.64808919292E+02  0.71951138176E+02  0.00000000000E+00 0.  1.
</event>
<event>
 7    1  0.6444902E-006  0.9445056E+02  0.7818608E-02  0.1425459E+00
          2   -1    0    0  502    0  0.00000000000E+00  0.00000000000E+00  0.70637458227E+03  0.70637458227E+03  0.00000000000E+00 0. -1.
          1   -1    0    0  501    0 -0.00000000000E+00 -0.00000000000E+00 -0.71222043508E+03  0.71222043508E+03  0.00000000000E+00 0. -1.
         25    2    1    2    0    0 -0.35829587316E+02  0.11083281540E+03 -0.46285002766E+03  0.49337886926E+03  0.12499955293E+03 0.  0.
          2    1    1    2  501    0  0.25560022764E+02 -0.17075425339E+02 -0.22986011672E+03  0.23190635647E+03  0.00000000000E+00 0. -1.
          1    1    1    2  502    0  0.10269564552E+02 -0.93757390056E+02  0.68686429156E+03  0.69330979163E+03  0.00000000000E+00 0. -1.
         22    1    3    3    0    0  0.38022516765E+02  0.82908365238E+02 -0.27007927599E+03  0.28506547341E+03  0.00000000000E+00 0. -1.
         22    1    3    3    0    0 -0.73852104081E+02  0.27924450158E+02 -0.19277075166E+03  0.20831339585E+03  0.00000000000E+00 0. -1.
</event>
<event>
 7    1  0.6444902E-006  0.7005270E+02  0.7818608E-02  0.1391545E+00
          2   -1    0    0  502    0  0.00000000000E+00  0.00000000000E+00  0.10271926241E+03  0.10271926241E+03  0.00000000000E+00 0. -1.
          1   -1    0    0  501    0 -0.00000000000E+00 -0.00000000000E+00 -0.15141958355E+04  0.15141958355E+04  0.00000000000E+00 0. -1.
         25    2    1    2    0    0  0.88501287737E+02 -0.66354079804E+02 -0.81588544350E+03  0.83278422694E+03  0.12500067953E+03 0.  0.
          2    1    1    2  501    0 -0.53683130728E+02  0.61463695067E+01 -0.67580596036E+03  0.67796264827E+03  0.00000000000E+00 0. -1.
          1    1    1    2  502    0 -0.34818157009E+02  0.60207710297E+02  0.80214830773E+02  0.10616822271E+03  0.00000000000E+00 0. -1.
         22    1    3    3    0    0  0.41160557447E+02  0.25356543280E+02 -0.12140096656E+03  0.13067264617E+03  0.00000000000E+00 0. -1.
         22    1    3    3    0    0  0.47340730290E+02 -0.91710623083E+02 -0.69448447694E+03  0.70211158077E+03  0.00000000000E+00 0. -1.
</event>
<event>
 7    1  0.6444902E-006  0.8793762E+02  0.7818608E-02  0.1315675E+00
          2   -1    0    0  502    0  0.00000000000E+00  0.00000000000E+00  0.60042944846E+03  0.60042944846E+03  0.00000000000E+00 0. -1.
          1   -1    0    0  501    0 -0.00000000000E+00 -0.00000000000E+00 -0.76379838056E+03  0.76379838056E+03  0.00000000000E+00 0. -1.
         25    2    1    2    0    0  0.39233446255E+02 -0.61728845883E+02 -0.21953930425E+03  0.26300518185E+03  0.12499802338E+03 0.  0.
          2    1    1    2  501    0  0.49347546217E+02  0.65465855145E+02 -0.51587447204E+03  0.52234799646E+03  0.00000000000E+00 0. -1.
          1    1    1    2  502    0 -0.88580992471E+02 -0.37370092625E+01  0.57204484419E+03  0.57887465071E+03  0.00000000000E+00 0. -1.
         22    1    3    3    0    0 -0.16787257489E+02 -0.25504302782E+02  0.30011558526E+01  0.30680423903E+02  0.00000000000E+00 0.  1.
         22    1    3    3    0    0  0.56020703743E+02 -0.36224543101E+02 -0.22254046010E+03  0.23232475794E+03  0.00000000000E+00 0.  1.
</event>
<event>
 7    1  0.6444902E-006  0.1262040E+03  0.7818608E-02  0.1340112E+00
          2   -1    0    0  502    0  0.00000000000E+00  0.00000000000E+00  0.51895524685E+03  0.51895524685E+03  0.00000000000E+00 0. -1.
          1   -1    0    0  501    0 -0.00000000000E+00 -0.00000000000E+00 -0.28522156517E+03  0.28522156517E+03  0.00000000000E+00 0. -1.
         25    2    1    2    0    0 -0.10994914462E+02  0.10316008062E+03  0.76518895749E+01  0.16261709444E+03  0.12499151016E+03 0.  0.
          2    1    1    2  501    0 -0.26246086657E+02 -0.13023228132E+03 -0.18508212926E+03  0.22782602734E+03  0.00000000000E+00 0. -1.
          1    1    1    2  502    0  0.37241001119E+02  0.27072200702E+02  0.41116392136E+03  0.41373369025E+03  0.00000000000E+00 0. -1.
         22    1    3    3    0    0  0.33337445407E+02  0.42566409624E+02 -0.45469392607E+02  0.70645241585E+02  0.00000000000E+00 0.  1.
         22    1    3    3    0    0 -0.44332359869E+02  0.60593670994E+02  0.53121282182E+02  0.91971852850E+02  0.00000000000E+00 0.  1.
</event>
<event>
 7    1  0.6444902E-006  0.1619297E+03  0.7818608E-02  0.1278766E+00
          2   -1    0    0  502    0  0.00000000000E+00  0.00000000000E+00  0.21755625817E+03  0.21755625817E+03  0.00000000000E+00 0. -1.
          1   -1    0    0  501    0 -0.00000000000E+00 -0.00000000000E+00 -0.51339829675E+03  0.51339829675E+03  0.00000000000E+00 0. -1.
         25    2    1    2    0    0  0.16780345824E+03  0.32319125750E+02 -0.95454295970E+02  0.23225399810E+03  0.12501148159E+03 0.  0.
          2    1    1    2  501    0 -0.15924737792E+03  0.29755329961E+02 -0.32280611443E+03  0.36117709583E+03  0.00000000000E+00 0. -1.
          1    1    1    2  502    0 -0.85560803197E+01 -0.62074455711E+02  0.12241837183E+03  0.13752346099E+03  0.00000000000E+00 0. -1.
         22    1    3    3    0    0  0.13461786393E+03 -0.19023820408E+01 -0.11845615509E+03  0.17932498160E+03  0.00000000000E+00 0. -1.
         22    1    3    3    0    0  0.33185594306E+02  0.34221507791E+02  0.23001859119E+02  0.52929016502E+02  0.00000000000E+00 0. -1.
</event>
<event>
 7    1  0.7184943E-006  0.9218698E+02  0.7818608E-02  0.1343402E+00
          2   -1    0    0  502    0  0.00000000000E+00  0.00000000000E+00  0.15487943859E+04  0.15487943859E+04  0.00000000000E+00 0. -1.
          1   -1    0    0  501    0 -0.00000000000E+00 -0.00000000000E+00 -0.64502915492E+03  0.64502915492E+03  0.00000000000E+00 0. -1.
         25    2    1    2    0    0 -0.95707342110E+02 -0.33165691566E+02 -0.10647106772E+03  0.19292791331E+03  0.12500093216E+03 0.  0.
          2    1    1    2  501    0  0.76497533811E+01  0.60784684972E+02 -0.49201386031E+03  0.49581340784E+03  0.00000000000E+00 0. -1.
          1    1    1    2  502    0  0.88057588729E+02 -0.27618993406E+02  0.15022501591E+04  0.15050822197E+04  0.00000000000E+00 0. -1.
         22    1    3    3    0    0 -0.35055339689E+02 -0.15181208805E+01 -0.11839434389E+03  0.12348442087E+03  0.00000000000E+00 0. -1.
         22    1    3    3    0    0 -0.60652002421E+02 -0.31647570685E+02  0.11923276167E+02  0.69443492441E+02  0.00000000000E+00 0. -1.
</event>
<event>
 7    1  0.6444902E-006  0.2062620E+03  0.7818608E-02  0.1279067E+00
          2   -1    0    0  502    0  0.00000000000E+00  0.00000000000E+00  0.56366453190E+03  0.56366453190E+03  0.00000000000E+00 0. -1.
          1   -1    0    0  501    0 -0.00000000000E+00 -0.00000000000E+00 -0.23587812127E+04  0.23587812127E+04  0.00000000000E+00 0. -1.
         25    2    1    2    0    0 -0.84402474911E+01 -0.19743031175E+03 -0.72840736866E+03  0.76501570072E+03  0.12498704676E+03 0.  0.
          2    1    1    2  501    0  0.48773253586E+02 -0.52280657221E+01 -0.15921054586E+04  0.15928609338E+04  0.00000000000E+00 0. -1.
          1    1    1    2  502    0 -0.40333006095E+02  0.20265837747E+03  0.52539614649E+03  0.56456911011E+03  0.00000000000E+00 0. -1.
         22    1    3    3    0    0 -0.48907141170E+02 -0.31734211505E+02 -0.12434341705E+03  0.13733263997E+03  0.00000000000E+00 0. -1.
         22    1    3    3    0    0  0.40466893679E+02 -0.16569610024E+03 -0.60406395161E+03  0.62768306075E+03  0.00000000000E+00 0. -1.
</event>
<event>
 7    1  0.6444902E-006  0.5829605E+02  0.7818608E-02  0.1524887E+00
          2   -1    0    0  502    0  0.00000000000E+00  0.00000000000E+00  0.55592450364E+03  0.55592450364E+03  0.00000000000E+00 0. -1.
          1   -1    0    0  501    0 -0.00000000000E+00 -0.00000000000E+00 -0.30558968895E+03  0.30558968895E+03  0.00000000000E+00 0. -1.
         25    2    1    2    0    0 -0.48026278163E+02 -0.29945977327E+01  0.28830880211E+03  0.31790624465E+03  0.12500769577E+03 0.  0.
          2    1    1    2  501    0  0.54674907050E+02 -0.20624776584E+02 -0.28724677079E+03  0.29313040477E+03  0.00000000000E+00 0. -1.
          1    1    1    2  502    0 -0.66486288868E+01  0.23619374316E+02  0.24927278337E+03  0.25047754318E+03  0.00000000000E+00 0. -1.
         22    1    3    3    0    0  0.38633977465E+02  0.20583786036E+02  0.83757903522E+02  0.94507475179E+02  0.00000000000E+00 0.  1.
         22    1    3    3    0    0 -0.86660255628E+02 -0.23578383769E+02  0.20455089859E+03  0.22339876947E+03  0.00000000000E+00 0.  1.
</event>
<event>
 7    1  0.6444902E-006  0.2224076E+03  0.7818608E-02  0.1184730E+00
          2   -1    0    0  502    0  0.00000000000E+00  0.00000000000E+00  0.10444190205E+04  0.10444190205E+04  0.00000000000E+00 0. -1.
          1   -1    0    0  501    0 -0.00000000000E+00 -0.00000000000E+00 -0.15360060818E+04  0.15360060818E+04  0.00000000000E+00 0. -1.
         25    2    1    2    0    0 -0.42595512755E+02 -0.16113137210E+03 -0.44876063876E+02  0.21311398360E+03  0.12500404839E+03 0.  0.
          2    1    1    2  501    0 -0.12026898208E+03 -0.22147704461E+01 -0.13905252907E+04  0.13957184950E+04  0.00000000000E+00 0. -1.
          1    1    1    2  502    0  0.16286449484E+03  0.16334614255E+03  0.94381429338E+03  0.97159262366E+03  0.00000000000E+00 0. -1.
         22    1    3    3    0    0 -0.46151529531E+01 -0.11643819817E+02 -0.57039197261E+02  0.58398186623E+02  0.00000000000E+00 0.  1.
         22    1    3    3    0    0 -0.37980359802E+02 -0.14948755229E+03  0.12163133385E+02  0.15471579697E+03  0.00000000000E+00 0.  1.
</event>
<event>
 7    1  0.6444902E-006  0.7780827E+02  0.7818608E-02  0.1371448E+00
          2   -1    0    0  502    0  0.00000000000E+00  0.00000000000E+00  0.48265775921E+03  0.48265775921E+03  0.00000000000E+00 0. -1.
          1   -1    0    0  501    0 -0.00000000000E+00 -0.00000000000E+00 -0.20713787764E+03  0.20713787764E+03  0.00000000000E+00 0. -1.
         25    2    1    2    0    0  0.92343856920E+02 -0.62035668592E+02  0.77816362898E+02  0.18454738834E+03  0.12500616033E+03 0.  0.
          2    1    1    2  501    0 -0.57034261814E+02 -0.54183988377E+01 -0.14409812911E+03  0.15506945824E+03  0.00000000000E+00 0. -1.
          1    1    1    2  502    0 -0.35309595106E+02  0.67454067430E+02  0.34180164779E+03  0.35017879026E+03  0.00000000000E+00 0. -1.
         22    1    3    3    0    0  0.61589607753E+02 -0.52361946781E+02  0.11163012791E+03  0.13782720599E+03  0.00000000000E+00 0.  1.
         22    1    3    3    0    0  0.30754249167E+02 -0.96737218104E+01 -0.33813765007E+02  0.46720182356E+02  0.00000000000E+00 0.  1.
</event>
<event>
 7    1  0.6444902E-006  0.1711728E+03  0.7818608E-02  0.1236205E+00
          2   -1    0    0  502    0  0.00000000000E+00  0.00000000000E+00  0.13821695951E+03  0.13821695951E+03  0.00000000000E+00 0. -1.
          1   -1    0    0  501    0 -0.00000000000E+00 -0.00000000000E+00 -0.62419520363E+03  0.62419520363E+03  0.00000000000E+00 0. -1.
         25    2    1    2    0    0  0.13591712098E+03  0.52713123629E+02 -0.14372407801E+03  0.23985999337E+03  0.12499627449E+03 0.  0.
          2    1    1    2  501    0 -0.73275430108E+01  0.89929681876E+02 -0.31610813878E+03  0.32873301625E+03  0.00000000000E+00 0. -1.
          1    1    1    2  502    0 -0.12858957797E+03 -0.14264280551E+03 -0.26146027326E+02  0.19381915352E+03  0.00000000000E+00 0. -1.
         22    1    3    3    0    0  0.13227094041E+03  0.77596066822E+02 -0.14938118485E+03  0.21408290368E+03  0.00000000000E+00 0. -1.
         22    1    3    3    0    0  0.36461805785E+01 -0.24882943193E+02  0.56571068374E+01  0.25777089683E+02  0.00000000000E+00 0. -1.
</event>
<event>
 7    1  0.6444902E-006  0.8177217E+02  0.7818608E-02  0.1397537E+00
          2   -1    0    0  502    0  0.00000000000E+00  0.00000000000E+00  0.48093999538E+03  0.48093999538E+03  0.00000000000E+00 0. -1.
          1   -1    0    0  501    0 -0.00000000000E+00 -0.00000000000E+00 -0.30926762232E+03  0.30926762232E+03  0.00000000000E+00 0. -1.
         25    2    1    2    0    0 -0.10868104209E+03  0.23519366694E+02  0.83131828463E+02  0.18681610836E+03  0.12499851166E+03 0.  0.
          2    1    1    2  501    0  0.80037138407E+02  0.10048767386E+02 -0.24963739749E+03  0.26234662467E+03  0.00000000000E+00 0. -1.
          1    1    1    2  502    0  0.28643903686E+02 -0.33568134080E+02  0.33817794209E+03  0.34104488467E+03  0.00000000000E+00 0. -1.
         22    1    3    3    0    0 -0.12100065026E+02 -0.24484119907E+02  0.73646100988E+02  0.78547004347E+02  0.00000000000E+00 0. -1.
         22    1    3    3    0    0 -0.96580977067E+02  0.48003486601E+02  0.94857274758E+01  0.10826910401E+03  0.00000000000E+00 0. -1.
</event>
<event>
 7    1  0.6444902E-006  0.1524583E+03  0.7818608E-02  0.1311600E+00
          2   -1    0    0  502    0  0.00000000000E+00  0.00000000000E+00  0.12539934063E+04  0.12539934063E+04  0.00000000000E+00 0. -1.
          1   -1    0    0  501    0 -0.00000000000E+00 -0.00000000000E+00 -0.12046585918E+03  0.12046585918E+03  0.00000000000E+00 0. -1.
         25    2    1    2    0    0 -0.64275474124E+01 -0.14736125043E+03  0.26308595877E+03  0.32647920982E+03  0.12497120168E+03 0.  0.
          2    1    1    2  501    0  0.49038646673E+02 -0.13702503037E+01 -0.75188313789E+02  0.89777218624E+02  0.00000000000E+00 0. -1.
          1    1    1    2  502    0 -0.42611099261E+02  0.14873150073E+03  0.94562990218E+03  0.95820283708E+03  0.00000000000E+00 0. -1.
         22    1    3    3    0    0 -0.27732606976E+02 -0.11189464071E+03  0.83900268329E+02  0.14257897158E+03  0.00000000000E+00 0. -1.
         22    1    3    3    0    0  0.21305059564E+02 -0.35466609713E+02  0.17918569044E+03  0.18390023824E+03  0.00000000000E+00 0. -1.
</event>
<event>
 7    1  0.6444902E-006  0.1892715E+03  0.7818608E-02  0.1265105E+00
          2   -1    0    0  502    0  0.00000000000E+00  0.00000000000E+00  0.18257230972E+04  0.18257230972E+04  0.00000000000E+00 0. -1.
          1   -1    0    0  501    0 -0.00000000000E+00 -0.00000000000E+00 -0.16342112783E+03  0.16342112783E+03  0.00000000000E+00 0. -1.
         25    2    1    2    0    0  0.69610484281E+02 -0.12220844898E+03  0.30102382699E+03  0.35499230336E+03  0.12499466590E+03 0.  0.
          2    1    1    2  501    0 -0.11271519363E+03  0.16558960908E+03 -0.61902319471E+02  0.20965812807E+03  0.00000000000E+00 0. -1.
          1    1    1    2  502    0  0.43104709351E+02 -0.43381160105E+02  0.14231804618E+04  0.14244937936E+04  0.00000000000E+00 0. -1.
         22    1    3    3    0    0  0.29434214307E+02 -0.70645051220E+01  0.18229152179E+03  0.18478765955E+03  0.00000000000E+00 0.  1.
         22    1    3    3    0    0  0.40176269973E+02 -0.11514394386E+03  0.11873230520E+03  0.17020464381E+03  0.00000000000E+00 0.  1.
</event>
<event>
 7    1  0.6444902E-006  0.8595803E+02  0.7818608E-02  0.1435555E+00
          2   -1    0    0  502    0  0.00000000000E+00  0.00000000000E+00  0.43546208751E+03  0.43546208751E+03  0.00000000000E+00 0. -1.
          1   -1    0    0  501    0 -0.00000000000E+00 -0.00000000000E+00 -0.12537917749E+04  0.12537917749E+04  0.00000000000E+00 0. -1.
         25    2    1    2    0    0 -0.11485553453E+02  0.77489150727E+02 -0.62369375864E+02  0.16015760031E+03  0.12499612583E+03 0.  0.
          2    1    1    2  501    0 -0.19063314128E+02 -0.84254807027E+02 -0.11402587058E+04  0.11435262124E+04  0.00000000000E+00 0. -1.
          1    1    1    2  502    0  0.30548867581E+02  0.67656562999E+01  0.38429839422E+03  0.38557004969E+03  0.00000000000E+00 0. -1.
         22    1    3    3    0    0 -0.32043297872E+02 -0.23533277177E+02 -0.17489108384E+00  0.39756995109E+02  0.00000000000E+00 0. -1.
         22    1    3    3    0    0  0.20557744418E+02  0.10102242790E+03 -0.62194484781E+02  0.12040060520E+03  0.00000000000E+00 0. -1.
</event>
<event>
 7    1  0.6444902E-006  0.8756151E+02  0.7818608E-02  0.1312552E+00
          2   -1    0    0  502    0  0.00000000000E+00  0.00000000000E+00  0.26053500979E+04  0.26053500979E+04  0.00000000000E+00 0. -1.
          1   -1    0    0  501    0 -0.00000000000E+00 -0.00000000000E+00 -0.42343804688E+02  0.42343804688E+02  0.00000000000E+00 0. -1.
         25    2    1    2    0    0  0.25324457795E+02  0.10525493320E+03  0.44630163257E+03  0.47595084071E+03  0.12499650560E+03 0.  0.
          2    1    1    2  501    0  0.52703729455E+02 -0.72344872442E+02  0.48494150361E+02  0.10179953972E+03  0.00000000000E+00 0. -1.
          1    1    1    2  502    0 -0.78028187250E+02 -0.32910060755E+02  0.20682105102E+04  0.20699435221E+04  0.00000000000E+00 0. -1.
         22    1    3    3    0    0  0.20506410370E+02  0.10387311736E+03  0.45432033750E+03  0.46649448704E+03  0.00000000000E+00 0.  1.
         22    1    3    3    0    0  0.48180474258E+01  0.13818158392E+01 -0.80187049266E+01  0.94563536689E+01  0.00000000000E+00 0.  1.
</event>
<event>
 7    1  0.6444902E-006  0.9146682E+02  0.7818608E-02  0.1349757E+00
          2   -1    0    0  502    0  0.00000000000E+00  0.00000000000E+00  0.30628371847E+03  0.30628371847E+03  0.00000000000E+00 0. -1.
          1   -1    0    0  501    0 -0.00000000000E+00 -0.00000000000E+00 -0.37147082239E+03  0.37147082239E+03  0.00000000000E+00 0. -1.
         25    2    1    2    0    0 -0.73646710845E+02  0.73630339257E+02 -0.52965928682E+02  0.17109972901E+03  0.12499785113E+03 0.  0.
          2    1    1    2  501    0  0.17563068758E+02 -0.90169007898E+02 -0.24761571348E+03  0.26410689679E+03  0.00000000000E+00 0. -1.
          1    1    1    2  502    0  0.56083642087E+02  0.16538668641E+02  0.23539453823E+03  0.24254791506E+03  0.00000000000E+00 0. -1.
         22    1    3    3    0    0 -0.94689637639E+01 -0.35105574252E+02 -0.13980436726E+02  0.38955297835E+02  0.00000000000E+00 0.  1.
         22    1    3    3    0    0 -0.64177747081E+02  0.10873591351E+03 -0.38985491956E+02  0.13214443117E+03  0.00000000000E+00 0.  1.
</event>
<event>
 7    1  0.6444902E-006  0.9305764E+02  0.7818608E-02  0.1298488E+00
          2   -1    0    0  502    0  0.00000000000E+00  0.00000000000E+00  0.57979284322E+02  0.57979284322E+02  0.00000000000E+00 0. -1.
          1   -1    0    0  501    0 -0.00000000000E+00 -0.00000000000E+00 -0.18072255170E+04  0.18072255170E+04  0.00000000000E+00 0. -1.
         25    2    1    2    0    0 -0.80886515896E+02  0.10196500829E+03 -0.30777684297E+03  0.35678068927E+03  0.12500553505E+03 0.  0.
          2    1    1    2  501    0  0.92087826613E+02 -0.12048123515E+02 -0.14091707602E+04  0.14122278699E+04  0.00000000000E+00 0. -1.
          1    1    1    2  502    0 -0.11201310717E+02 -0.89916884778E+02 -0.32298629433E+02  0.96196242095E+02  0.00000000000E+00 0. -1.
         22    1    3    3    0    0 -0.11111360700E+03  0.93241544558E+02 -0.21980326844E+03  0.26335089920E+03  0.00000000000E+00 0. -1.
         22    1    3    3    0    0  0.30227091102E+02  0.87234637351E+01 -0.87973574528E+02  0.93429790063E+02  0.00000000000E+00 0. -1.
</event>
<event>
 7    1  0.6444902E-006  0.1254512E+03  0.7818608E-02  0.1399165E+00
          2   -1    0    0  502    0  0.00000000000E+00  0.00000000000E+00  0.20411566133E+04  0.20411566133E+04  0.00000000000E+00 0. -1.
          1   -1    0    0  501    0 -0.00000000000E+00 -0.00000000000E+00 -0.15463410033E+04  0.15463410033E+04  0.00000000000E+00 0. -1.
         25    2    1    2    0    0 -0.90850764631E+02 -0.62358674757E+02 -0.34047734893E+03  0.37905362328E+03  0.12495742649E+03 0.  0.
          2    1    1    2  501    0  0.90959232720E+02  0.90752959214E+02 -0.11829969314E+04  0.11899543778E+04  0.00000000000E+00 0. -1.
          1    1    1    2  502    0 -0.10846808926E+00 -0.28394284457E+02  0.20182898903E+04  0.20184896156E+04  0.00000000000E+00 0. -1.
         22    1    3    3    0    0 -0.52835852837E+02  0.22089583963E+02 -0.21863373878E+03  0.22600948829E+03  0.00000000000E+00 0. -1.
         22    1    3    3    0    0 -0.38014911794E+02 -0.84448258720E+02 -0.12184361015E+03  0.15304413498E+03  0.00000000000E+00 0. -1.
</event>
<event>
 7    1  0.6444902E-006  0.3782770E+02  0.7818608E-02  0.1595462E+00
          2   -1    0    0  502    0  0.00000000000E+00  0.00000000000E+00  0.76222960707E+03  0.76222960707E+03  0.00000000000E+00 0. -1.
          1   -1    0    0  501    0 -0.00000000000E+00 -0.00000000000E+00 -0.10302041989E+04  0.10302041989E+04  0.00000000000E+00 0. -1.
         25    2    1    2    0    0 -0.41176404006E+02 -0.20111890374E+02 -0.27418066319E+03  0.30479719911E+03  0.12500524844E+03 0.  0.
          2    1    1    2  501    0  0.21036873276E+02 -0.11906735555E+02 -0.74003890177E+03  0.74043358684E+03  0.00000000000E+00 0. -1.
          1    1    1    2  502    0  0.20139530730E+02  0.32018625929E+02  0.74624497316E+03  0.74720301998E+03  0.00000000000E+00 0. -1.
         22    1    3    3    0    0  0.41844385120E+02 -0.14220993238E+02 -0.14085567265E+03  0.14762625015E+03  0.00000000000E+00 0. -1.
         22    1    3    3    0    0 -0.83020789126E+02 -0.58908971363E+01 -0.13332499054E+03  0.15717094896E+03  0.00000000000E+00 0. -1.
</event>
<event>
 7    1  0.6444902E-006  0.1049953E+03  0.7818608E-02  0.1312893E+00
          2   -1    0    0  502    0  0.00000000000E+00  0.00000000000E+00  0.16524308444E+04  0.16524308444E+04  0.00000000000E+00 0. -1.
          1   -1    0    0  501    0 -0.00000000000E+00 -0.00000000000E+00 -0.15795268646E+04  0.15795268646E+04  0.00000000000E+00 0. -1.
         25    2    1    2    0    0 -0.27893544674E+02  0.33555897933E+02  0.73269481903E+02  0.15131755446E+03  0.12499814874E+03 0.  0.
          2    1    1    2  501    0 -0.68817979430E+02  0.14869465020E+02 -0.15377975153E+04  0.15394083972E+04  0.00000000000E+00 0. -1.
          1    1    1    2  502    0  0.96711524104E+02 -0.48425362952E+02  0.15374320132E+04  0.15412317574E+04  0.00000000000E+00 0. -1.
         22    1    3    3    0    0  0.29276055017E+02 -0.33207667623E+02  0.20381182253E+02  0.48736322966E+02  0.00000000000E+00 0. -1.
         22    1    3    3    0    0 -0.57169599691E+02  0.66763565555E+02  0.52888299650E+02  0.10258123149E+03  0.00000000000E+00 0. -1.
</event>
<event>
 7    1  0.6444902E-006  0.6173106E+02  0.7818608E-02  0.1410629E+00
          2   -1    0    0  502    0  0.00000000000E+00  0.00000000000E+00  0.85858900056E+02  0.85858900056E+02  0.00000000000E+00 0. -1.
          1   -1    0    0  501    0 -0.00000000000E+00 -0.00000000000E+00 -0.20089956732E+04  0.20089956732E+04  0.00000000000E+00 0. -1.
         25    2    1    2    0    0 -0.24267008667E+02 -0.72639923460E+02 -0.63341041976E+03  0.65015325679E+03  0.12500020502E+03 0.  0.
          2    1    1    2  501    0 -0.25905800070E+02  0.56415524497E+02 -0.13574506271E+04  0.13588693929E+04  0.00000000000E+00 0. -1.
          1    1    1    2  502    0  0.50172808737E+02  0.16224398962E+02  0.67724273715E+02  0.85831923597E+02  0.00000000000E+00 0. -1.
         22    1    3    3    0    0 -0.67070361018E+02 -0.88457147663E+01 -0.35217720473E+03  0.35861603914E+03  0.00000000000E+00 0. -1.
         22    1    3    3    0    0  0.42803352351E+02 -0.63794208693E+02 -0.28123321503E+03  0.29153721764E+03  0.00000000000E+00 0. -1.
</event>
<event>
 7    1  0.9063414E-006  0.4470579E+02  0.7818608E-02  0.1476257E+00
          2   -1    0    0  502    0  0.00000000000E+00  0.00000000000E+00  0.18109939039E+04  0.18109939039E+04  0.00000000000E+00 0. -1.
          1   -1    0    0  501    0 -0.00000000000E+00 -0.00000000000E+00 -0.89198786771E+03  0.89198786771E+03  0.00000000000E+00 0. -1.
         25    2    1    2    0    0 -0.13552539356E+02 -0.12536314828E+01 -0.11472335421E+03  0.17021131948E+03  0.12500080944E+03 0.  0.
          2    1    1    2  501    0  0.62079014141E+01  0.45329394385E+02 -0.74854203725E+03  0.74993897990E+03  0.00000000000E+00 0. -1.
          1    1    1    2  502    0  0.73446379416E+01 -0.44075762902E+02  0.17822714276E+04  0.17828314722E+04  0.00000000000E+00 0. -1.
         22    1    3    3    0    0 -0.67847934784E+02 -0.88654853075E+01 -0.46693153358E+02  0.82838334452E+02  0.00000000000E+00 0. -1.
         22    1    3    3    0    0  0.54295395428E+02  0.76118538247E+01 -0.68030200856E+02  0.87372985023E+02  0.00000000000E+00 0. -1.
</event>
<event>
 7    1  0.6444902E-006  0.4883586E+02  0.7818608E-02  0.1529453E+00
          2   -1    0    0  502    0  0.00000000000E+00  0.00000000000E+00  0.36847374053E+04  0.36847374053E+04  0.00000000000E+00 0. -1.
          1   -1    0    0  501    0 -0.00000000000E+00 -0.00000000000E+00 -0.65270497859E+03  0.65270497859E+03  0.00000000000E+00 0. -1.
         25    2    1    2    0    0  0.40172579546E+02 -0.65207283115E+02  0.42509334265E+03  0.44965804738E+03  0.12498873425E+03 0.  0.
          2    1    1    2  501    0 -0.12226922034E+02  0.25653467660E+02 -0.63992669308E+03  0.64055739051E+03  0.00000000000E+00 0. -1.
          1    1    1    2  502    0 -0.27945657512E+02  0.39553815456E+02  0.32468657771E+04  0.32472269460E+04  0.00000000000E+00 0. -1.
         22    1    3    3    0    0  0.33843898015E+02 -0.74883140299E+02  0.12654442075E+03  0.15088533579E+03  0.00000000000E+00 0. -1.
         22    1    3    3    0    0  0.63286815318E+01  0.96758571839E+01  0.29854892190E+03  0.29877271159E+03  0.00000000000E+00 0. -1.
</event>
<event>
 7    1  0.6444902E-006  0.5526342E+02  0.7818608E-02  0.1485616E+00
          2   -1    0    0  502    0  0.00000000000E+00  0.00000000000E+00  0.11139660072E+04  0.11139660072E+04  0.00000000000E+00 0. -1.
          1   -1    0    0  501    0 -0.00000000000E+00 -0.00000000000E+00 -0.34208200082E+03  0.34208200082E+03  0.00000000000E+00 0. -1.
         25    2    1    2    0    0 -0.76962471592E+01  0.52045015952E+02  0.20480971593E+03  0.24564442965E+03  0.12500500060E+03 0.  0.
          2    1    1    2  501    0  0.33730315215E+02 -0.26922228258E+01 -0.31989563214E+03  0.32168027246E+03  0.00000000000E+00 0. -1.
          1    1    1    2  502    0 -0.26034068056E+02 -0.49352793126E+02  0.88696992262E+03  0.88872330594E+03  0.00000000000E+00 0. -1.
         22    1    3    3    0    0 -0.29604826141E+02 -0.33630864773E+02  0.48318606357E+02  0.65895132723E+02  0.00000000000E+00 0.  1.
         22    1    3    3    0    0  0.21908578982E+02  0.85675880725E+02  0.15649110958E+03  0.17974929693E+03  0.00000000000E+00 0.  1.
</event>
<event>
 7    1  0.6444902E-006  0.1313520E+03  0.7818608E-02  0.1421781E+00
          2   -1    0    0  502    0  0.00000000000E+00  0.00000000000E+00  0.72693408110E+03  0.72693408110E+03  0.00000000000E+00 0. -1.
          1   -1    0    0  501    0 -0.00000000000E+00 -0.00000000000E+00 -0.16001381993E+03  0.16001381993E+03  0.00000000000E+00 0. -1.
         25    2    1    2    0    0 -0.12031845188E+03  0.83733292558E+02  0.15863062117E+03  0.24955289290E+03  0.12500071296E+03 0.  0.
          2    1    1    2  501    0  0.11267021271E+03 -0.62324301375E+02 -0.78021251668E+02  0.15055301752E+03  0.00000000000E+00 0. -1.
          1    1    1    2  502    0  0.76482391717E+01 -0.21408991182E+02  0.48631089166E+03  0.48684199060E+03  0.00000000000E+00 0. -1.
         22    1    3    3    0    0 -0.45979846651E+02  0.56016219078E+02  0.15385860497E+03  0.17007184782E+03  0.00000000000E+00 0. -1.
         22    1    3    3    0    0 -0.74338605227E+02  0.27717073480E+02  0.47720162021E+01  0.79481045086E+02  0.00000000000E+00 0. -1.
</event>
<event>
 7    1  0.6444902E-006  0.1071847E+03  0.7818608E-02  0.1332598E+00
          2   -1    0    0  502    0  0.00000000000E+00  0.00000000000E+00  0.19580337264E+03  0.19580337264E+03  0.00000000000E+00 0. -1.
          1   -1    0    0  501    0 -0.00000000000E+00 -0.00000000000E+00 -0.13223653302E+04  0.13223653302E+04  0.00000000000E+00 0. -1.
         25    2    1    2    0    0 -0.77313190461E+02  0.11022076453E+03 -0.10065199512E+03  0.20947971860E+03  0.12499992812E+03 0.  0.
          2    1    1    2  501    0  0.19705888777E+02 -0.10462485560E+03 -0.11588321069E+04  0.11637123933E+04  0.00000000000E+00 0. -1.
          1    1    1    2  502    0  0.57607301684E+02 -0.55959089314E+01  0.13292214449E+03  0.14497659086E+03  0.00000000000E+00 0. -1.
         22    1    3    3    0    0 -0.44057758605E+02  0.61755184059E+02 -0.12470874271E+03  0.14596937816E+03  0.00000000000E+00 0. -1.
         22    1    3    3    0    0 -0.33255431856E+02  0.48465580470E+02  0.24056747593E+02  0.63510340442E+02  0.00000000000E+00 0. -1.
</event>
<event>
 7    1  0.6444902E-006  0.1193085E+03  0.7818608E-02  0.1354545E+00
          2   -1    0    0  502    0  0.00000000000E+00  0.00000000000E+00  0.48060789739E+03  0.48060789739E+03  0.00000000000E+00 0. -1.
          1   -1    0    0  501    0 -0.00000000000E+00 -0.00000000000E+00 -0.49357523169E+03  0.49357523169E+03  0.00000000000E+00 0. -1.
         25    2    1    2    0    0 -0.11201888567E+02  0.77738716309E+02  0.10930318804E+03  0.18368069538E+03  0.12499048211E+03 0.  0.
          2    1    1    2  501    0  0.18556081998E+02 -0.12014409895E+03 -0.44684508066E+03  0.46308688040E+03  0.00000000000E+00 0. -1.
          1    1    1    2  502    0 -0.73541934308E+01  0.42405382636E+02  0.32457455832E+03  0.32741555331E+03  0.00000000000E+00 0. -1.
         22    1    3    3    0    0 -0.45482321865E+02  0.85569289094E+01 -0.41300699318E+01  0.46464180960E+02  0.00000000000E+00 0.  1.
         22    1    3    3    0    0  0.34280433298E+02  0.69181787399E+02  0.11343325797E+03  0.13721651442E+03  0.00000000000E+00 0.  1.
</event>
<event>
 7    1  0.6444902E-006  0.7023046E+02  0.7818608E-02  0.1454678E+00
          2   -1    0    0  502    0  0.00000000000E+00  0.00000000000E+00  0.22184505595E+04  0.22184505595E+04  0.00000000000E+00 0. -1.
          1   -1    0    0  501    0 -0.00000000000E+00 -0.00000000000E+00 -0.88801749327E+01  0.88801749327E+01  0.00000000000E+00 0. -1.
         25    2    1    2    0    0 -0.57300607343E+02  0.13907290493E+02  0.12815288506E+04  0.12889601899E+04  0.12500161571E+03 0.  0.
          2    1    1    2  501    0  0.72189790177E+02  0.15801421331E+02  0.28350905961E+03  0.29298197488E+03  0.00000000000E+00 0. -1.
          1    1    1    2  502    0 -0.14889182834E+02 -0.29708711825E+02  0.64453247434E+03  0.64538856962E+03  0.00000000000E+00 0. -1.
         22    1    3    3    0    0 -0.80089834769E+02 -0.32437514723E+02  0.77208562090E+03  0.77690590164E+03  0.00000000000E+00 0.  1.
         22    1    3    3    0    0  0.22789227427E+02  0.46344805216E+02  0.50944322972E+03  0.51205428829E+03  0.00000000000E+00 0.  1.
</event>
<event>
 7    1  0.6444902E-006  0.7257854E+02  0.7818608E-02  0.1504429E+00
          2   -1    0    0  502    0  0.00000000000E+00  0.00000000000E+00  0.13917851199E+04  0.13917851199E+04  0.00000000000E+00 0. -1.
          1   -1    0    0  501    0 -0.00000000000E+00 -0.00000000000E+00 -0.11295679453E+03  0.11295679453E+03  0.00000000000E+00 0. -1.
         25    2    1    2    0    0 -0.91673038799E+02 -0.45963909437E+01  0.12866133171E+03  0.20150359911E+03  0.12499955730E+03 0.  0.
          2    1    1    2  501    0  0.19894132180E+02  0.10766220499E+02 -0.73781566820E+02  0.77171287416E+02  0.00000000000E+00 0. -1.
          1    1    1    2  502    0  0.71778906620E+02 -0.61698295549E+01  0.12239485604E+04  0.12260670279E+04  0.00000000000E+00 0. -1.
         22    1    3    3    0    0 -0.25557689117E+02 -0.51293493028E+02  0.10477383794E+02  0.58257990621E+02  0.00000000000E+00 0.  1.
         22    1    3    3    0    0 -0.66115349682E+02  0.46697102084E+02  0.11818394791E+03  0.14324560849E+03  0.00000000000E+00 0.  1.
</event>
<event>
 7    1  0.6444902E-006  0.3965886E+02  0.7818608E-02  0.1564548E+00
          2   -1    0    0  502    0  0.00000000000E+00  0.00000000000E+00  0.17201741401E+04  0.17201741401E+04  0.00000000000E+00 0. -1.
          1   -1    0    0  501    0 -0.00000000000E+00 -0.00000000000E+00 -0.44814764904E+03  0.44814764904E+03  0.00000000000E+00 0. -1.
         25    2    1    2    0    0  0.79945810604E+01  0.62934222056E+02  0.65243432606E+03  0.66732353444E+03  0.12500208062E+03 0.  0.
          2    1    1    2  501    0  0.65073688991E+01 -0.39092425433E+02 -0.43962796316E+03  0.44141059069E+03  0.00000000000E+00 0. -1.
          1    1    1    2  502    0 -0.14501949959E+02 -0.23841796623E+02  0.10592201282E+04  0.10595876640E+04  0.00000000000E+00 0. -1.
         22    1    3    3    0    0  0.51938983934E+01  0.99530325099E+02  0.39972608370E+03  0.41196383844E+03  0.00000000000E+00 0. -1.
         22    1    3    3    0    0  0.28006826669E+01 -0.36596103042E+02  0.25270824236E+03  0.25535969600E+03  0.00000000000E+00 0. -1.
</event>
<event>
 7    1  0.6444902E-006  0.1178872E+03  0.7818608E-02  0.1287955E+00
          2   -1    0    0  502    0  0.00000000000E+00  0.00000000000E+00  0.37101971608E+03  0.37101971608E+03  0.00000000000E+00 0. -1.
          1   -1    0    0  501    0 -0.00000000000E+00 -0.00000000000E+00 -0.11516563959E+04  0.11516563959E+04  0.00000000000E+00 0. -1.
         25    2    1    2    0    0  0.52985182988E+02  0.22297442370E+02 -0.16331119275E+03  0.21354168496E+03  0.12499959994E+03 0.  0.
          2    1    1    2  501    0 -0.12901239893E+03 -0.11919367737E+01 -0.95433248534E+03  0.96301407693E+03  0.00000000000E+00 0. -1.
          1    1    1    2  502    0  0.76027215942E+02 -0.21105505596E+02  0.33700699822E+03  0.34612035014E+03  0.00000000000E+00 0. -1.
         22    1    3    3    0    0  0.47179595904E+02  0.14089619625E+02 -0.18403499382E+03  0.19050803291E+03  0.00000000000E+00 0.  1.
         22    1    3    3    0    0  0.58055870832E+01  0.82078227442E+01  0.20723801076E+02  0.23033652047E+02  0.00000000000E+00 0.  1.
</event>
<event>
 7    1  0.6444902E-006  0.6326911E+02  0.7818608E-02  0.1508167E+00
          2   -1    0    0  502    0  0.00000000000E+00  0.00000000000E+00  0.67307582037E+03  0.67307582037E+03  0.00000000000E+00 0. -1.
          1   -1    0    0  501    0 -0.00000000000E+00 -0.00000000000E+00 -0.13211331712E+03  0.13211331712E+03  0.00000000000E+00 0. -1.
         25    2    1    2    0    0 -0.43840257741E+01  0.49280977821E+02  0.88582173517E+02  0.16099613570E+03  0.12500047915E+03 0.  0.
          2    1    1    2  501    0 -0.23895596203E+02  0.83012904203E+01 -0.92322531274E+02  0.95725444483E+02  0.00000000000E+00 0. -1.
          1    1    1    2  502    0  0.28279621977E+02 -0.57582268242E+02  0.54470286100E+03  0.54846755731E+03  0.00000000000E+00 0. -1.
         22    1    3    3    0    0 -0.54462557310E+02  0.49442107998E+01  0.74877683120E+02  0.92721533630E+02  0.00000000000E+00 0.  1.
         22    1    3    3    0    0  0.50078531536E+02  0.44336767022E+02  0.13704490397E+02  0.68274602070E+02  0.00000000000E+00 0.  1.
</event>
<event>
 7    1  0.6444902E-006  0.8141645E+02  0.7818608E-02  0.1330955E+00
          2   -1    0    0  502    0  0.00000000000E+00  0.00000000000E+00  0.21600862646E+03  0.21600862646E+03  0.00000000000E+00 0. -1.
          1   -1    0    0  501    0 -0.00000000000E+00 -0.00000000000E+00 -0.53584705903E+03  0.53584705903E+03  0.00000000000E+00 0. -1.
         25    2    1    2    0    0  0.54263607060E+01  0.22990740541E+00 -0.60069139419E+02  0.13878914356E+03  0.12499850643E+03 0.  0.
          2    1    1    2  501    0  0.50257357979E+02  0.64053383214E+02 -0.42206045193E+03  0.42984143939E+03  0.00000000000E+00 0. -1.
          1    1    1    2  502    0 -0.55683718685E+02 -0.64283290620E+02  0.16229115879E+03  0.18322510254E+03  0.00000000000E+00 0. -1.
         22    1    3    3    0    0 -0.10721119323E+02 -0.43127804762E+02 -0.77508218964E+02  0.89344691785E+02  0.00000000000E+00 0. -1.
         22    1    3    3    0    0  0.16147480029E+02  0.43357712167E+02  0.17439079545E+02  0.49444451772E+02  0.00000000000E+00 0. -1.
</event>
<event>
 7    1  0.6444902E-006  0.1009392E+03  0.7818608E-02  0.1409608E+00
          2   -1    0    0  502    0  0.00000000000E+00  0.00000000000E+00  0.14240136732E+04  0.14240136732E+04  0.00000000000E+00 0. -1.
          1   -1    0    0  501    0 -0.00000000000E+00 -0.00000000000E+00 -0.30685393661E+03  0.30685393661E+03  0.00000000000E+00 0. -1.
         25    2    1    2    0    0  0.11611567576E+03  0.48035094160E+01  0.27500098523E+03  0.32366077169E+03  0.12499931758E+03 0.  0.
          2    1    1    2  501    0 -0.95932080412E+02 -0.30284373438E+02 -0.27332468285E+03  0.29124987482E+03  0.00000000000E+00 0. -1.
          1    1    1    2  502    0 -0.20183595348E+02  0.25480864022E+02  0.11154834343E+04  0.11159569633E+04  0.00000000000E+00 0. -1.
         22    1    3    3    0    0 -0.18764287818E+02  0.24883405539E+02  0.29958074998E+02  0.43229256599E+02  0.00000000000E+00 0. -1.
         22    1    3    3    0    0  0.13487996358E+03 -0.20079896123E+02  0.24504291023E+03  0.28043151509E+03  0.00000000000E+00 0. -1.
</event>
<event>
 7    1  0.6444902E-006  0.4037673E+02  0.7818608E-02  0.1552332E+00
          2   -1    0    0  502    0  0.00000000000E+00  0.00000000000E+00  0.16866772343E+03  0.16866772343E+03  0.00000000000E+00 0. -1.
          1   -1    0    0  501    0 -0.00000000000E+00 -0.00000000000E+00 -0.31800346397E+03  0.31800346397E+03  0.00000000000E+00 0. -1.
         25    2    1    2    0    0 -0.52373627882E+02  0.39401719384E+02  0.64475361704E+02  0.15516690614E+03  0.12499681638E+03 0.  0.
          2    1    1    2  501    0  0.37660519412E+02 -0.13692905547E+02 -0.26733975293E+03  0.27032638399E+03  0.00000000000E+00 0. -1.
          1    1    1    2  502    0  0.14713108471E+02 -0.25708813836E+02  0.53528650691E+02  0.61177897272E+02  0.00000000000E+00 0. -1.
         22    1    3    3    0    0 -0.61142019045E+02 -0.21711049839E+02  0.67144322909E+02  0.93370639266E+02  0.00000000000E+00 0. -1.
         22    1    3    3    0    0  0.87683911629E+01  0.61112769223E+02 -0.26689612048E+01  0.61796266874E+02  0.00000000000E+00 0. -1.
</event>
<event>
 7    1  0.6444902E-006  0.6790469E+02  0.7818608E-02  0.1509701E+00
          2   -1    0    0  502    0  0.00000000000E+00  0.00000000000E+00  0.24863069061E+03  0.24863069061E+03  0.00000000000E+00 0. -1.
          1   -1    0    0  501    0 -0.00000000000E+00 -0.00000000000E+00 -0.35315512095E+03  0.35315512095E+03  0.00000000000E+00 0. -1.
         25    2    1    2    0    0  0.67948014916E+02  0.11840354802E+02  0.16026410588E+03  0.21463145170E+03  0.12499979878E+03 0.  0.
          2    1    1    2  501    0 -0.11294481992E+00 -0.23325155252E+02 -0.30604474612E+03  0.30693234148E+03  0.00000000000E+00 0. -1.
          1    1    1    2  502    0 -0.67835070096E+02  0.11484800450E+02  0.41256209897E+02  0.80222018370E+02  0.00000000000E+00 0. -1.
         22    1    3    3    0    0  0.52203109160E+02 -0.52376612501E+02  0.63711681290E+02  0.97609694579E+02  0.00000000000E+00 0. -1.
         22    1    3    3    0    0  0.15744905756E+02  0.64216967303E+02  0.96552424587E+02  0.11702175712E+03  0.00000000000E+00 0. -1.
</event>
<event>
 7    1  0.6444902E-006  0.3347568E+02  0.7818608E-02  0.1590315E+00
          2   -1    0    0  502    0  0.00000000000E+00  0.00000000000E+00  0.28275927441E+03  0.28275927441E+03  0.00000000000E+00 0. -1.
          1   -1    0    0  501    0 -0.00000000000E+00 -0.00000000000E+00 -0.62948417119E+03  0.62948417119E+03  0.00000000000E+00 0. -1.
         25    2    1    2    0    0  0.24709925613E+02 -0.52725306041E+02 -0.19414022615E+03  0.23812625786E+03  0.12499259559E+03 0.  0.
          2    1    1    2  501    0 -0.21995319376E+01  0.28096398550E+02 -0.41180000229E+03  0.41276323412E+03  0.00000000000E+00 0. -1.
          1    1    1    2  502    0 -0.22510393675E+02  0.24628907491E+02  0.25921533166E+03  0.26135395362E+03  0.00000000000E+00 0. -1.
         22    1    3    3    0    0  0.29215442875E+02 -0.39430712461E+02 -0.21074483068E+03  0.21638324068E+03  0.00000000000E+00 0.  1.
         22    1    3    3    0    0 -0.45055172626E+01 -0.13294593580E+02  0.16604604535E+02  0.21743017179E+02  0.00000000000E+00 0.  1.
</event>
<event>
 7    1  0.6444902E-006  0.8535387E+02  0.7818608E-02  0.1414263E+00
          2   -1    0    0  502    0  0.00000000000E+00  0.00000000000E+00  0.10014215008E+04  0.10014215008E+04  0.00000000000E+00 0. -1.
          1   -1    0    0  501    0 -0.00000000000E+00 -0.00000000000E+00 -0.14888399306E+04  0.14888399306E+04  0.00000000000E+00 0. -1.
         25    2    1    2    0    0 -0.44745072157E+02 -0.24898162996E+02  0.15796687913E+03  0.20784772291E+03  0.12500040406E+03 0.  0.
          2    1    1    2  501    0  0.81818580854E+02  0.25144632959E+02 -0.14622274876E+04  0.14647306094E+04  0.00000000000E+00 0. -1.
          1    1    1    2  502    0 -0.37073508696E+02 -0.24646996375E+00  0.81684217861E+03  0.81768309910E+03  0.00000000000E+00 0. -1.
         22    1    3    3    0    0  0.34290952173E+02  0.18961270170E+01  0.65598848060E+01  0.34964221531E+02  0.00000000000E+00 0. -1.
         22    1    3    3    0    0 -0.79036024331E+02 -0.26794290013E+02  0.15140699432E+03  0.17288350138E+03  0.00000000000E+00 0. -1.
</event>
<event>
 7    1  0.6444902E-006  0.3780398E+02  0.7818608E-02  0.1612290E+00
          2   -1    0    0  502    0  0.00000000000E+00  0.00000000000E+00  0.10114969869E+04  0.10114969869E+04  0.00000000000E+00 0. -1.
          1   -1    0    0  501    0 -0.00000000000E+00 -0.00000000000E+00 -0.47993148560E+03  0.47993148560E+03  0.00000000000E+00 0. -1.
         25    2    1    2    0    0 -0.45668202892E+02 -0.12624709957E+02  0.93344902163E+02  0.16305102801E+03  0.12500959530E+03 0.  0.
          2    1    1    2  501    0  0.27937158769E+02  0.25426881562E+02 -0.44414113612E+03  0.44574472508E+03  0.00000000000E+00 0. -1.
          1    1    1    2  502    0  0.17731044124E+02 -0.12802171605E+02  0.88236173525E+03  0.88263271940E+03  0.00000000000E+00 0. -1.
         22    1    3    3    0    0 -0.64796705851E+02 -0.56313533633E+02  0.63641038966E+02  0.10686444217E+03  0.00000000000E+00 0.  1.
         22    1    3    3    0    0  0.19128502958E+02  0.43688823676E+02  0.29703863197E+02  0.56186585840E+02  0.00000000000E+00 0.  1.
</event>
<event>
 7    1  0.6444902E-006  0.1509777E+03  0.7818608E-02  0.1293823E+00
          2   -1    0    0  502    0  0.00000000000E+00  0.00000000000E+00  0.38089694886E+04  0.38089694886E+04  0.00000000000E+00 0. -1.
          1   -1    0    0  501    0 -0.00000000000E+00 -0.00000000000E+00 -0.28137701160E+02  0.28137701160E+02  0.00000000000E+00 0. -1.
         25    2    1    2    0    0  0.61687630240E+02 -0.12735679712E+03  0.18087480723E+04  0.18185763386E+04  0.12500077044E+03 0.  0.
          2    1    1    2  501    0 -0.11446405922E+03  0.10254170175E+03  0.23697840842E+03  0.28244572489E+03  0.00000000000E+00 0. -1.
          1    1    1    2  502    0  0.52776428977E+02  0.24815095371E+02  0.17351053067E+04  0.17360851263E+04  0.00000000000E+00 0. -1.
         22    1    3    3    0    0  0.92171748408E+01 -0.12999621215E+03  0.10587848501E+04  0.10667752014E+04  0.00000000000E+00 0.  1.
         22    1    3    3    0    0  0.52470455399E+02  0.26394150318E+01  0.74996322226E+03  0.75180113724E+03  0.00000000000E+00 0.  1.
</event>
<event>
 7    1  0.6444902E-006  0.1814945E+03  0.7818608E-02  0.1176821E+00
          2   -1    0    0  502    0  0.00000000000E+00  0.00000000000E+00  0.18805203307E+04  0.18805203307E+04  0.00000000000E+00 0. -1.
          1   -1    0    0  501    0 -0.00000000000E+00 -0.00000000000E+00 -0.41185828219E+03  0.41185828219E+03  0.00000000000E+00 0. -1.
         25    2    1    2    0    0 -0.18894319946E+03 -0.22775746271E+03  0.58149595030E+03  0.66432915490E+03  0.12499076524E+03 0.  0.
          2    1    1    2  501    0  0.35553000004E+02  0.15711788383E+03 -0.34690208445E+03  0.38248019743E+03  0.00000000000E+00 0. -1.
          1    1    1    2  502    0  0.15339019945E+03  0.70639578881E+02  0.12340681827E+04  0.12455692606E+04  0.00000000000E+00 0. -1.
         22    1    3    3    0    0 -0.20623718027E+03 -0.19681011967E+03  0.53010443464E+03  0.60189592901E+03  0.00000000000E+00 0. -1.
         22    1    3    3    0    0  0.17293980815E+02 -0.30947343040E+02  0.51391515659E+02  0.62433225893E+02  0.00000000000E+00 0. -1.
</event>
<event>
 7    1  0.6444902E-006  0.1567910E+03  0.7818608E-02  0.1282618E+00
          2   -1    0    0  502    0  0.00000000000E+00  0.00000000000E+00  0.76538808351E+03  0.76538808351E+03  0.00000000000E+00 0. -1.
          1   -1    0    0  501    0 -0.00000000000E+00 -0.00000000000E+00 -0.15100229312E+03  0.15100229312E+03  0.00000000000E+00 0. -1.
         25    2    1    2    0    0  0.44366691088E+02  0.97274473845E+02 -0.23953140132E+02  0.16622251917E+03  0.12500178565E+03 0.  0.
          2    1    1    2  501    0 -0.10981727797E+02  0.61414693521E+02 -0.25062262799E+02  0.67234514516E+02  0.00000000000E+00 0. -1.
          1    1    1    2  502    0 -0.33384963291E+02 -0.15868916737E+03  0.66340119332E+03  0.68293334294E+03  0.00000000000E+00 0. -1.
         22    1    3    3    0    0  0.80166131459E+02  0.28045645427E+02 -0.24105555743E+02  0.88285019557E+02  0.00000000000E+00 0.  1.
         22    1    3    3    0    0 -0.35799440371E+02  0.69228828418E+02  0.15241561106E+00  0.77937499611E+02  0.00000000000E+00 0.  1.
</event>
<event>
 7    1  0.6444902E-006  0.1239685E+03  0.7818608E-02  0.1445002E+00
          2   -1    0    0  502    0  0.00000000000E+00  0.00000000000E+00  0.20894633922E+04  0.20894633922E+04  0.00000000000E+00 0. -1.
          1   -1    0    0  501    0 -0.00000000000E+00 -0.00000000000E+00 -0.60557503630E+02  0.60557503630E+02  0.00000000000E+00 0. -1.
         25    2    1    2    0    0 -0.10661005529E+02  0.11290736546E+03  0.53467635387E+03  0.56068276665E+03  0.12499852484E+03 0.  0.
          2    1    1    2  501    0  0.15277514923E+02  0.13241419136E+02 -0.42694204852E+02  0.47239102139E+02  0.00000000000E+00 0. -1.
          1    1    1    2  502    0 -0.46165093939E+01 -0.12614878460E+03  0.15369237396E+04  0.15420990270E+04  0.00000000000E+00 0. -1.
         22    1    3    3    0    0 -0.51880677051E+02  0.37322559257E+02  0.10872484846E+03  0.12611768613E+03  0.00000000000E+00 0.  1.
         22    1    3    3    0    0  0.41219671521E+02  0.75584806205E+02  0.42595150541E+03  0.43456508052E+03  0.00000000000E+00 0.  1.
</event>
<event>
 7    1  0.6444902E-006  0.1163267E+03  0.7818608E-02  0.1314192E+00
          2   -1    0    0  502    0  0.00000000000E+00  0.00000000000E+00  0.10632122721E+04  0.10632122721E+04  0.00000000000E+00 0. -1.
          1   -1    0    0  501    0 -0.00000000000E+00 -0.00000000000E+00 -0.10409478202E+04  0.10409478202E+04  0.00000000000E+00 0. -1.
         25    2    1    2    0    0 -0.10567004580E+03 -0.48743236165E+02  0.50415400111E+03  0.53229433738E+03  0.12499577243E+03 0.  0.
          2    1    1    2  501    0 -0.15432654320E+02  0.60882100659E+02 -0.10191035793E+04  0.10210371699E+04  0.00000000000E+00 0. -1.
          1    1    1    2  502    0  0.12110270012E+03 -0.12138864494E+02  0.53721403007E+03  0.55082858505E+03  0.00000000000E+00 0. -1.
         22    1    3    3    0    0 -0.11399373796E+03 -0.47390666332E+02  0.50817253026E+03  0.52295293101E+03  0.00000000000E+00 0. -1.
         22    1    3    3    0    0  0.83236921640E+01 -0.13525698336E+01 -0.40185291487E+01  0.93414063670E+01  0.00000000000E+00 0. -1.
</event>
<event>
 7    1  0.6444902E-006  0.8084114E+02  0.7818608E-02  0.1407520E+00
          2   -1    0    0  502    0  0.00000000000E+00  0.00000000000E+00  0.37921172811E+04  0.37921172811E+04  0.00000000000E+00 0. -1.
          1   -1    0    0  501    0 -0.00000000000E+00 -0.00000000000E+00 -0.42190571191E+02  0.42190571191E+02  0.00000000000E+00 0. -1.
         25    2    1    2    0    0 -0.23289562507E+02  0.75322451142E+02  0.19529358918E+04  0.19585195706E+04  0.12499774240E+03 0.  0.
          2    1    1    2  501    0  0.59348747712E+02 -0.55277942685E+02  0.28305898611E+01  0.81153786365E+02  0.00000000000E+00 0. -1.
          1    1    1    2  502    0 -0.36059185205E+02 -0.20044508457E+02  0.17941602282E+04  0.17946344953E+04  0.00000000000E+00 0. -1.
         22    1    3    3    0    0 -0.60234881333E+02  0.15019159969E+02  0.13540822878E+04  0.13555045770E+04  0.00000000000E+00 0. -1.
         22    1    3    3    0    0  0.36945318826E+02  0.60303291174E+02  0.59885360401E+03  0.60301499363E+03  0.00000000000E+00 0. -1.
</event>
<event>
 7    1  0.6444902E-006  0.2343179E+03  0.7818608E-02  0.1225684E+00
          2   -1    0    0  502    0  0.00000000000E+00  0.00000000000E+00  0.25856715427E+04  0.25856715427E+04  0.00000000000E+00 0. -1.
          1   -1    0    0  501    0 -0.00000000000E+00 -0.00000000000E+00 -0.46638139803E+02  0.46638139803E+02  0.00000000000E+00 0. -1.
         25    2    1    2    0    0  0.11076831466E+03 -0.15389421908E+03  0.78810702372E+03  0.82017677381E+03  0.12499683698E+03 0.  0.
          2    1    1    2  501    0  0.52085118874E+02 -0.51807339101E+02  0.45001823236E+02  0.86151169971E+02  0.00000000000E+00 0. -1.
          1    1    1    2  502    0 -0.16285343354E+03  0.20570155818E+03  0.17059245560E+04  0.17259817388E+04  0.00000000000E+00 0. -1.
         22    1    3    3    0    0  0.12868066501E+02 -0.43307240344E+02  0.43618505444E+03  0.43851853543E+03  0.00000000000E+00 0.  1.
         22    1    3    3    0    0  0.97900248163E+02 -0.11058697874E+03  0.35192196928E+03  0.38165823837E+03  0.00000000000E+00 0.  1.
</event>
<event>
 7    1  0.6444902E-006  0.5871629E+02  0.7818608E-02  0.1494630E+00
          2   -1    0    0  502    0  0.00000000000E+00  0.00000000000E+00  0.47050586111E+03  0.47050586111E+03  0.00000000000E+00 0. -1.
          1   -1    0    0  501    0 -0.00000000000E+00 -0.00000000000E+00 -0.45349303215E+02  0.45349303215E+02  0.00000000000E+00 0. -1.
         25    2    1    2    0    0  0.60752697781E+02 -0.39073997810E+02  0.21060607823E+03  0.25533686174E+03  0.12499730071E+03 0.  0.
          2    1    1    2  501    0 -0.42243314686E+01  0.29609965188E+02 -0.77913674359E+01  0.30907934601E+02  0.00000000000E+00 0. -1.
          1    1    1    2  502    0 -0.56528366313E+02  0.94640326225E+01  0.22234184711E+03  0.22961036798E+03  0.00000000000E+00 0. -1.
         22    1    3    3    0    0  0.77777797960E+02  0.17391800744E+02  0.15495092712E+03  0.17424594803E+03  0.00000000000E+00 0. -1.
         22    1    3    3    0    0 -0.17025100179E+02 -0.56465798554E+02  0.55655151112E+02  0.81090913719E+02  0.00000000000E+00 0. -1.
</event>
<event>
 7    1  0.6444902E-006  0.5658073E+02  0.7818608E-02  0.1421376E+00
          2   -1    0    0  502    0  0.00000000000E+00  0.00000000000E+00  0.11306442112E+04  0.11306442112E+04  0.00000000000E+00 0. -1.
          1   -1    0    0  501    0 -0.00000000000E+00 -0.00000000000E+00 -0.18018365355E+03  0.18018365355E+03  0.00000000000E+00 0. -1.
         25    2    1    2    0    0  0.77508816074E+02 -0.21151696528E+02  0.73825450857E+03  0.75305988824E+03  0.12499786003E+03 0.  0.
          2    1    1    2  501    0 -0.28646897533E+02  0.44521189918E+02 -0.16675433925E+03  0.17495653960E+03  0.00000000000E+00 0. -1.
          1    1    1    2  502    0 -0.48861918541E+02 -0.23369493390E+02  0.37896038832E+03  0.38281143690E+03  0.00000000000E+00 0. -1.
         22    1    3    3    0    0  0.11139078503E+03 -0.23863139762E+02  0.59717145875E+03  0.60794005262E+03  0.00000000000E+00 0.  1.
         22    1    3    3    0    0 -0.33881968952E+02  0.27114432346E+01  0.14108304981E+03  0.14511983562E+03  0.00000000000E+00 0.  1.
</event>
<event>
 7    1  0.6444902E-006  0.9200871E+02  0.7818608E-02  0.1299081E+00
          2   -1    0    0  502    0  0.00000000000E+00  0.00000000000E+00  0.19456814849E+04  0.19456814849E+04  0.00000000000E+00 0. -1.
          1   -1    0    0  501    0 -0.00000000000E+00 -0.00000000000E+00 -0.52433879651E+02  0.52433879651E+02  0.00000000000E+00 0. -1.
         25    2    1    2    0    0 -0.91061370267E+02 -0.30512145242E+02  0.19537093536E+03  0.25104669451E+03  0.12502590243E+03 0.  0.
          2    1    1    2  501    0  0.83492819253E+02 -0.61184742069E+02  0.91786430641E+02  0.13834512055E+03  0.00000000000E+00 0. -1.
          1    1    1    2  502    0  0.75685510140E+01  0.91696887311E+02  0.16060902393E+04  0.16087235495E+04  0.00000000000E+00 0. -1.
         22    1    3    3    0    0 -0.99530645377E+02  0.22046398899E+02  0.14845771038E+03  0.18008910252E+03  0.00000000000E+00 0. -1.
         22    1    3    3    0    0  0.84692751103E+01 -0.52558544142E+02  0.46913224979E+02  0.70957591991E+02  0.00000000000E+00 0. -1.
</event>
<event>
 7    1  0.6444902E-006  0.1284969E+03  0.7818608E-02  0.1230125E+00
          2   -1    0    0  502    0  0.00000000000E+00  0.00000000000E+00  0.50219938214E+03  0.50219938214E+03  0.00000000000E+00 0. -1.
          1   -1    0    0  501    0 -0.00000000000E+00 -0.00000000000E+00 -0.92073814142E+03  0.92073814142E+03  0.00000000000E+00 0. -1.
         25    2    1    2    0    0  0.77893880386E+02  0.68736237383E+02  0.83891252854E+01  0.16274697445E+03  0.12499629330E+03 0.  0.
          2    1    1    2  501    0  0.53766484578E+02 -0.11609179047E+03 -0.82675138008E+03  0.83659188565E+03  0.00000000000E+00 0. -1.
          1    1    1    2  502    0 -0.13166036496E+03  0.47355553084E+02  0.39982349552E+03  0.42359866346E+03  0.00000000000E+00 0. -1.
         22    1    3    3    0    0  0.28463770079E+02 -0.24443135898E+02  0.37785729948E+02  0.53248610192E+02  0.00000000000E+00 0.  1.
         22    1    3    3    0    0  0.49430110307E+02  0.93179373281E+02 -0.29396604663E+02  0.10949836426E+03  0.00000000000E+00 0.  1.
</event>
<event>
 7    1  0.6444902E-006  0.8850975E+02  0.7818608E-02  0.1417772E+00
          2   -1    0    0  502    0  0.00000000000E+00  0.00000000000E+00  0.17174652681E+04  0.17174652681E+04  0.00000000000E+00 0. -1.
          1   -1    0    0  501    0 -0.00000000000E+00 -0.00000000000E+00 -0.58632809564E+03  0.58632809564E+03  0.00000000000E+00 0. -1.
         25    2    1    2    0    0  0.54375114337E+02  0.23465343529E+02 -0.35446504051E+03  0.38049418435E+03  0.12499233567E+03 0.  0.
          2    1    1    2  501    0  0.33244746723E+02 -0.10271011495E+02 -0.21630558610E+03  0.21908631505E+03  0.00000000000E+00 0. -1.
          1    1    1    2  502    0 -0.87619861061E+02 -0.13194332034E+02  0.17019077991E+04  0.17042128644E+04  0.00000000000E+00 0. -1.
         22    1    3    3    0    0  0.51001457655E+02  0.51971616879E+02 -0.96261548086E+02  0.12069997218E+03  0.00000000000E+00 0. -1.
         22    1    3    3    0    0  0.33736566826E+01 -0.28506273350E+02 -0.25820349242E+03  0.25979421217E+03  0.00000000000E+00 0. -1.
</event>
<event>
 7    1  0.6444902E-006  0.1196605E+03  0.7818608E-02  0.1296611E+00
          2   -1    0    0  502    0  0.00000000000E+00  0.00000000000E+00  0.29311319635E+03  0.29311319635E+03  0.00000000000E+00 0. -1.
          1   -1    0    0  501    0 -0.00000000000E+00 -0.00000000000E+00 -0.19811586533E+03  0.19811586533E+03  0.00000000000E+00 0. -1.
         25    2    1    2    0    0  0.46525843184E+02  0.14495119035E+03 -0.13819489806E+02  0.19746438069E+03  0.12500280668E+03 0.  0.
          2    1    1    2  501    0  0.15888736090E+02 -0.10965938372E+03 -0.48442265878E+02  0.12093091208E+03  0.00000000000E+00 0. -1.
          1    1    1    2  502    0 -0.62414579273E+02 -0.35291806629E+02  0.15725908671E+03  0.17283376890E+03  0.00000000000E+00 0. -1.
         22    1    3    3    0    0  0.63049578664E+02  0.58154295691E+02  0.39323133328E+02  0.94358255027E+02  0.00000000000E+00 0.  1.
         22    1    3    3    0    0 -0.16523735480E+02  0.86796894658E+02 -0.53142623134E+02  0.10310612567E+03  0.00000000000E+00 0.  1.
</event>
<event>
 7    1  0.6444902E-006  0.5898712E+02  0.7818608E-02  0.1466543E+00
          2   -1    0    0  502    0  0.00000000000E+00  0.00000000000E+00  0.69829634987E+03  0.69829634987E+03  0.00000000000E+00 0. -1.
          1   -1    0    0  501    0 -0.00000000000E+00 -0.00000000000E+00 -0.24697835811E+03  0.24697835811E+03  0.00000000000E+00 0. -1.
         25    2    1    2    0    0 -0.24579310771E+02  0.54935667583E+02 -0.42212281182E+01  0.13879221732E+03  0.12499356276E+03 0.  0.
          2    1    1    2  501    0 -0.26410452131E+02 -0.24903950671E+02 -0.17218765791E+03  0.17597246454E+03  0.00000000000E+00 0. -1.
          1    1    1    2  502    0  0.50989762901E+02 -0.30031716912E+02  0.62772687779E+03  0.63051002612E+03  0.00000000000E+00 0. -1.
         22    1    3    3    0    0 -0.57108392036E+02  0.21168493987E+02 -0.45737309327E+02  0.76166758123E+02  0.00000000000E+00 0. -1.
         22    1    3    3    0    0  0.32529081265E+02  0.33767173596E+02  0.41516081208E+02  0.62625459196E+02  0.00000000000E+00 0. -1.
</event>
<event>
 7    1  0.6444902E-006  0.7610587E+02  0.7818608E-02  0.1474204E+00
          2   -1    0    0  502    0  0.00000000000E+00  0.00000000000E+00  0.95822029107E+02  0.95822029107E+02  0.00000000000E+00 0. -1.
          1   -1    0    0  501    0 -0.00000000000E+00 -0.00000000000E+00 -0.69548252151E+03  0.69548252151E+03  0.00000000000E+00 0. -1.
         25    2    1    2    0    0  0.42016420109E+02 -0.31754855650E+02 -0.45958231321E+02  0.14321392661E+03  0.12499727731E+03 0.  0.
          2    1    1    2  501    0 -0.53651129896E+02  0.55712963623E+02 -0.59442263059E+03  0.59943360084E+03  0.00000000000E+00 0. -1.
          1    1    1    2  502    0  0.11634709787E+02 -0.23958107973E+02  0.40720369514E+02  0.48657023160E+02  0.00000000000E+00 0. -1.
         22    1    3    3    0    0  0.54130250915E+02 -0.43274938678E+02  0.22406935826E+02  0.72834573897E+02  0.00000000000E+00 0. -1.
         22    1    3    3    0    0 -0.12113830805E+02  0.11520083028E+02 -0.68365167147E+02  0.70379352717E+02  0.00000000000E+00 0. -1.
</event>
<event>
 7    1  0.6444902E-006  0.6267490E+02  0.7818608E-02  0.1485691E+00
          2   -1    0    0  502    0  0.00000000000E+00  0.00000000000E+00  0.30430946834E+04  0.30430946834E+04  0.00000000000E+00 0. -1.
          1   -1    0    0  501    0 -0.00000000000E+00 -0.00000000000E+00 -0.33073668649E+03  0.33073668649E+03  0.00000000000E+00 0. -1.
         25    2    1    2    0    0  0.83959310417E+02 -0.18405929163E+02  0.81993996346E+02  0.17244210381E+03  0.12500127877E+03 0.  0.
          2    1    1    2  501    0 -0.21478601010E+02  0.20686507347E+02 -0.28439782271E+03  0.28595696083E+03  0.00000000000E+00 0. -1.
          1    1    1    2  502    0 -0.62480709407E+02 -0.22805781841E+01  0.29147618233E+04  0.29154323053E+04  0.00000000000E+00 0. -1.
         22    1    3    3    0    0 -0.12269697342E+01  0.31408289513E+02  0.65145477764E+02  0.72332007977E+02  0.00000000000E+00 0. -1.
         22    1    3    3    0    0  0.85186280151E+02 -0.49814218676E+02  0.16848518582E+02  0.10011009583E+03  0.00000000000E+00 0. -1.
</event>
<event>
 7    1  0.6444902E-006  0.1712410E+03  0.7818608E-02  0.1304863E+00
          2   -1    0    0  502    0  0.00000000000E+00  0.00000000000E+00  0.60276520603E+03  0.60276520603E+03  0.00000000000E+00 0. -1.
          1   -1    0    0  501    0 -0.00000000000E+00 -0.00000000000E+00 -0.13971180472E+03  0.13971180472E+03  0.00000000000E+00 0. -1.
         25    2    1    2    0    0  0.10198767788E+03 -0.10080532623E+03  0.19406813566E+03  0.27175476068E+03  0.12500003374E+03 0.  0.
          2    1    1    2  501    0  0.39417576634E+02 -0.24550998713E+02 -0.69190926564E+02  0.83329953824E+02  0.00000000000E+00 0. -1.
          1    1    1    2  502    0 -0.14140525452E+03  0.12535632494E+03  0.33817619222E+03  0.38739229625E+03  0.00000000000E+00 0. -1.
         22    1    3    3    0    0  0.95156708903E+02 -0.12920389345E+03  0.17133004992E+03  0.23473907075E+03  0.00000000000E+00 0.  1.
         22    1    3    3    0    0  0.68309689808E+01  0.28398567222E+02  0.22738085746E+02  0.37015689928E+02  0.00000000000E+00 0.  1.
</event>
<event>
 7    1  0.6444902E-006  0.9155308E+02  0.7818608E-02  0.1343032E+00
          2   -1    0    0  502    0  0.00000000000E+00  0.00000000000E+00  0.12507942357E+04  0.12507942357E+04  0.00000000000E+00 0. -1.
          1   -1    0    0  501    0 -0.00000000000E+00 -0.00000000000E+00 -0.87183394012E+03  0.87183394012E+03  0.00000000000E+00 0. -1.
         25    2    1    2    0    0  0.75714968030E+02 -0.62929400620E+02  0.50508377395E+02  0.16694154497E+03  0.12500206960E+03 0.  0.
          2    1    1    2  501    0 -0.19912500999E+02  0.89685397117E+02 -0.81018106896E+03  0.81537313093E+03  0.00000000000E+00 0. -1.
          1    1    1    2  502    0 -0.55802467032E+02 -0.26755996497E+02  0.11386329872E+04  0.11403134999E+04  0.00000000000E+00 0. -1.
         22    1    3    3    0    0  0.40889047633E+02  0.15857378797E+02  0.66174589732E+02  0.79387952517E+02  0.00000000000E+00 0. -1.
         22    1    3    3    0    0  0.34825920397E+02 -0.78786779417E+02 -0.15666212337E+02  0.87553592453E+02  0.00000000000E+00 0. -1.
</event>
<event>
 7    1  0.6444902E-006  0.4121988E+02  0.7818608E-02  0.1559510E+00
          2   -1    0    0  502    0  0.00000000000E+00  0.00000000000E+00  0.16585823182E+03  0.16585823182E+03  0.00000000000E+00 0. -1.
          1   -1    0    0  501    0 -0.00000000000E+00 -0.00000000000E+00 -0.42374109103E+03  0.42374109103E+03  0.00000000000E+00 0. -1.
         25    2    1    2    0    0 -0.20874608324E+02 -0.51747401869E+02 -0.78258060123E+02  0.15767957332E+03  0.12499992399E+03 0.  0.
          2    1    1    2  501    0  0.31498494846E+02  0.26146187013E+02 -0.30285581638E+03  0.30560992096E+03  0.00000000000E+00 0. -1.
          1    1    1    2  502    0 -0.10623886522E+02  0.25601214856E+02  0.12323101730E+03  0.12630982857E+03  0.00000000000E+00 0. -1.
         22    1    3    3    0    0 -0.72630219662E+02 -0.23462554427E+02 -0.55887033741E+02  0.94599158605E+02  0.00000000000E+00 0. -1.
         22    1    3    3    0    0  0.51755611338E+02 -0.28284847442E+02 -0.22371026382E+02  0.63080414720E+02  0.00000000000E+00 0. -1.
</event>
<event>
 7    1  0.6444902E-006  0.6298108E+02  0.7818608E-02  0.1386616E+00
          2   -1    0    0  502    0  0.00000000000E+00  0.00000000000E+00  0.21862437209E+03  0.21862437209E+03  0.00000000000E+00 0. -1.
          1   -1    0    0  501    0 -0.00000000000E+00 -0.00000000000E+00 -0.78836914812E+03  0.78836914812E+03  0.00000000000E+00 0. -1.
         25    2    1    2    0    0  0.78327610056E+02  0.64838293861E+00 -0.28615280873E+01  0.14753942329E+03  0.12499623268E+03 0.  0.
          2    1    1    2  501    0 -0.37549335353E+02 -0.50003061354E+02 -0.70471256638E+03  0.70748149088E+03  0.00000000000E+00 0. -1.
          1    1    1    2  502    0 -0.40778274703E+02  0.49354678415E+02  0.13782931843E+03  0.15197260605E+03  0.00000000000E+00 0. -1.
         22    1    3    3    0    0  0.18741139802E+01 -0.32901024516E+02  0.41501747766E+02  0.52994195768E+02  0.00000000000E+00 0.  1.
         22    1    3    3    0    0  0.76453496076E+02  0.33549407455E+02 -0.44363275853E+02  0.94545227522E+02  0.00000000000E+00 0.  1.
</event>
<event>
 7    1  0.6444902E-006  0.4106961E+02  0.7818608E-02  0.1555107E+00
          2   -1    0    0  502    0  0.00000000000E+00  0.00000000000E+00  0.29787387905E+02  0.29787387905E+02  0.00000000000E+00 0. -1.
          1   -1    0    0  501    0 -0.00000000000E+00 -0.00000000000E+00 -0.74870471471E+03  0.74870471471E+03  0.00000000000E+00 0. -1.
         25    2    1    2    0    0  0.47630256919E+02  0.49616531723E+02 -0.16918074800E+03  0.22129843866E+03  0.12498172613E+03 0.  0.
          2    1    1    2  501    0 -0.27364523499E+02 -0.29422414095E+02 -0.48188292749E+03  0.48355522064E+03  0.00000000000E+00 0. -1.
          1    1    1    2  502    0 -0.20265733420E+02 -0.20194117628E+02 -0.67853651311E+02  0.73638443317E+02  0.00000000000E+00 0. -1.
         22    1    3    3    0    0  0.12409319929E+02  0.39592416433E+02  0.63622654943E+01  0.41976530137E+02  0.00000000000E+00 0. -1.
         22    1    3    3    0    0  0.35220936990E+02  0.10024115290E+02 -0.17554301350E+03  0.17932190853E+03  0.00000000000E+00 0. -1.
</event>
<event>
 7    1  0.6444902E-006  0.1324502E+03  0.7818608E-02  0.1330205E+00
          2   -1    0    0  502    0  0.00000000000E+00  0.00000000000E+00  0.11902723632E+04  0.11902723632E+04  0.00000000000E+00 0. -1.
          1   -1    0    0  501    0 -0.00000000000E+00 -0.00000000000E+00 -0.44265642993E+03  0.44265642993E+03  0.00000000000E+00 0. -1.
         25    2    1    2    0    0  0.88617273018E+01  0.12273336990E+03 -0.24470862722E+03  0.30107987639E+03  0.12499907774E+03 0.  0.
          2    1    1    2  501    0 -0.47649994572E+02  0.41657015178E+01 -0.16251655333E+03  0.16940928297E+03  0.00000000000E+00 0. -1.
          1    1    1    2  502    0  0.38788267270E+02 -0.12689907142E+03  0.11548411138E+04  0.11624396337E+04  0.00000000000E+00 0. -1.
         22    1    3    3    0    0  0.18513186323E+02  0.68095792828E+01 -0.14939922207E+03  0.15069583933E+03  0.00000000000E+00 0. -1.
         22    1    3    3    0    0 -0.96514590214E+01  0.11592379062E+03 -0.95309405151E+02  0.15038403706E+03  0.00000000000E+00 0. -1.
</event>
<event>
 7    1  0.6444902E-006  0.9073635E+02  0.7818608E-02  0.1332839E+00
          2   -1    0    0  502    0  0.00000000000E+00  0.00000000000E+00  0.22276482273E+04  0.22276482273E+04  0.00000000000E+00 0. -1.
          1   -1    0    0  501    0 -0.00000000000E+00 -0.00000000000E+00 -0.13265573902E+03  0.13265573902E+03  0.00000000000E+00 0. -1.
         25    2    1    2    0    0  0.29338793068E+02  0.19059748932E+02  0.55523018419E+02  0.14118059429E+03  0.12500046328E+03 0.  0.
          2    1    1    2  501    0  0.62506498118E+02 -0.27343936072E+02 -0.75720987593E+02  0.10192360428E+03  0.00000000000E+00 0. -1.
          1    1    1    2  502    0 -0.91845291186E+02  0.82841871408E+01  0.21151904574E+04  0.21171997677E+04  0.00000000000E+00 0. -1.
         22    1    3    3    0    0 -0.14930683845E+02 -0.39272842676E+02 -0.96958512866E+01  0.43119497030E+02  0.00000000000E+00 0.  1.
         22    1    3    3    0    0  0.44269476913E+02  0.58332591608E+02  0.65218869705E+02  0.98061097258E+02  0.00000000000E+00 0.  1.
</event>
<event>
 7    1  0.6444902E-006  0.1963423E+03  0.7818608E-02  0.1228038E+00
          2   -1    0    0  502    0  0.00000000000E+00  0.00000000000E+00  0.14059347643E+04  0.14059347643E+04  0.00000000000E+00 0. -1.
          1   -1    0    0  501    0 -0.00000000000E+00 -0.00000000000E+00 -0.82516263095E+03  0.82516263095E+03  0.00000000000E+00 0. -1.
         25    2    1    2    0    0 -0.13544227763E+03 -0.46612832244E+02  0.54958302427E+02  0.19787917318E+03  0.12497353910E+03 0.  0.
          2    1    1    2  501    0  0.20293949850E+03 -0.59609335256E+01 -0.73855773818E+03  0.76595528943E+03  0.00000000000E+00 0. -1.
          1    1    1    2  502    0 -0.67497220867E+02  0.52573765769E+02  0.12643715691E+04  0.12672629326E+04  0.00000000000E+00 0. -1.
         22    1    3    3    0    0 -0.13649528270E+03 -0.22592513539E+02  0.82686686435E+02  0.16117838559E+03  0.00000000000E+00 0. -1.
         22    1    3    3    0    0  0.10530050694E+01 -0.24020318705E+02 -0.27728384008E+02  0.36700787595E+02  0.00000000000E+00 0. -1.
</event>
<event>
 7    1  0.6444902E-006  0.9284324E+02  0.7818608E-02  0.1296272E+00
          2   -1    0    0  502    0  0.00000000000E+00  0.00000000000E+00  0.20330926635E+04  0.20330926635E+04  0.00000000000E+00 0. -1.
          1   -1    0    0  501    0 -0.00000000000E+00 -0.00000000000E+00 -0.18993892198E+04  0.18993892198E+04  0.00000000000E+00 0. -1.
         25    2    1    2    0    0 -0.36717610367E+02 -0.97666119265E+02  0.46683101339E+03  0.49441174724E+03  0.12499970793E+03 0.  0.
          2    1    1    2  501    0  0.90281246634E+02  0.22004453201E+02 -0.18830682585E+04  0.18853596383E+04  0.00000000000E+00 0. -1.
          1    1    1    2  502    0 -0.53563636266E+02  0.75661666063E+02  0.15499406889E+04  0.15527104978E+04  0.00000000000E+00 0. -1.
         22    1    3    3    0    0 -0.13283834081E+02  0.27516246855E+02  0.14729128883E+03  0.15042715132E+03  0.00000000000E+00 0.  1.
         22    1    3    3    0    0 -0.23433776286E+02 -0.12518236612E+03  0.31953972455E+03  0.34398459591E+03  0.00000000000E+00 0.  1.
</event>
<event>
 7    1  0.6444902E-006  0.7786544E+02  0.7818608E-02  0.1488385E+00
          2   -1    0    0  502    0  0.00000000000E+00  0.00000000000E+00  0.12166204587E+04  0.12166204587E+04  0.00000000000E+00 0. -1.
          1   -1    0    0  501    0 -0.00000000000E+00 -0.00000000000E+00 -0.68590993497E+02  0.68590993497E+02  0.00000000000E+00 0. -1.
         25    2    1    2    0    0  0.13623125407E+02  0.82984907569E+02  0.10459461183E+04  0.10567406125E+04  0.12500142172E+03 0.  0.
          2    1    1    2  501    0 -0.33435197332E+02 -0.70244683881E+02 -0.37887803624E+02  0.86531576304E+02  0.00000000000E+00 0. -1.
          1    1    1    2  502    0  0.19812071925E+02 -0.12740223688E+02  0.13997115051E+03  0.14193926331E+03  0.00000000000E+00 0. -1.
         22    1    3    3    0    0 -0.43922476624E+02  0.36159154657E+02  0.72945532115E+03  0.73167050916E+03  0.00000000000E+00 0. -1.
         22    1    3    3    0    0  0.57545602032E+02  0.46825752911E+02  0.31649079712E+03  0.32507010338E+03  0.00000000000E+00 0. -1.
</event>
<event>
 7    1  0.6444902E-006  0.6063422E+02  0.7818608E-02  0.1431997E+00
          2   -1    0    0  502    0  0.00000000000E+00  0.00000000000E+00  0.10761824231E+04  0.10761824231E+04  0.00000000000E+00 0. -1.
          1   -1    0    0  501    0 -0.00000000000E+00 -0.00000000000E+00 -0.43472881974E+03  0.43472881974E+03  0.00000000000E+00 0. -1.
         25    2    1    2    0    0 -0.15716067463E+02 -0.66709554519E+02  0.20690760294E+02  0.14404786934E+03  0.12499808663E+03 0.  0.
          2    1    1    2  501    0 -0.33421386667E+02  0.30967883219E+02 -0.37072551511E+03  0.37351493469E+03  0.00000000000E+00 0. -1.
          1    1    1    2  502    0  0.49137454130E+02  0.35741671300E+02  0.99148835814E+03  0.99334843876E+03  0.00000000000E+00 0. -1.
         22    1    3    3    0    0 -0.70800727403E+00 -0.12659121290E+02 -0.51265303456E+02  0.52809904039E+02  0.00000000000E+00 0.  1.
         22    1    3    3    0    0 -0.15008060189E+02 -0.54050433229E+02  0.71956063750E+02  0.91237965306E+02  0.00000000000E+00 0.  1.
</event>
<event>
 7    1  0.6444902E-006  0.9401547E+02  0.7818608E-02  0.1429071E+00
          2   -1    0    0  502    0  0.00000000000E+00  0.00000000000E+00  0.51058137185E+02  0.51058137185E+02  0.00000000000E+00 0. -1.
          1   -1    0    0  501    0 -0.00000000000E+00 -0.00000000000E+00 -0.15695215146E+04  0.15695215146E+04  0.00000000000E+00 0. -1.
         25    2    1    2    0    0  0.10693630668E+03 -0.22973409287E+02 -0.13008809953E+03  0.21097402532E+03  0.12499589793E+03 0.  0.
          2    1    1    2  501    0 -0.93461519844E+02 -0.38793131213E+01 -0.13723891478E+04  0.13755733633E+04  0.00000000000E+00 0. -1.
          1    1    1    2  502    0 -0.13474786836E+02  0.26852722408E+02 -0.15986130044E+02  0.34032263145E+02  0.00000000000E+00 0. -1.
         22    1    3    3    0    0  0.13170220224E+03  0.84381376749E+00 -0.10156660020E+03  0.16631883950E+03  0.00000000000E+00 0.  1.
         22    1    3    3    0    0 -0.24765895558E+02 -0.23817223054E+02 -0.28521499335E+02  0.44655185826E+02  0.00000000000E+00 0.  1.
</event>
<event>
 7    1  0.6444902E-006  0.8309900E+02  0.7818608E-02  0.1329459E+00
          2   -1    0    0  502    0  0.00000000000E+00  0.00000000000E+00  0.36339117955E+03  0.36339117955E+03  0.00000000000E+00 0. -1.
          1   -1    0    0  501    0 -0.00000000000E+00 -0.00000000000E+00 -0.16943905896E+03  0.16943905896E+03  0.00000000000E+00 0. -1.
         25    2    1    2    0    0 -0.78528173700E+02  0.84557106949E+02  0.70014775142E+02  0.18396606196E+03  0.12499945926E+03 0.  0.
          2    1    1    2  501    0  0.81822186073E+02 -0.78872069548E+01 -0.89815342375E+02  0.12175333216E+03  0.00000000000E+00 0. -1.
          1    1    1    2  502    0 -0.32940123730E+01 -0.76669899994E+02  0.21375268783E+03  0.22711084438E+03  0.00000000000E+00 0. -1.
         22    1    3    3    0    0  0.77057012382E+00  0.56104203054E+02 -0.21030546232E+02  0.59921275466E+02  0.00000000000E+00 0.  1.
         22    1    3    3    0    0 -0.79298743824E+02  0.28452903895E+02  0.91045321374E+02  0.12404478649E+03  0.00000000000E+00 0.  1.
</event>
<event>
 7    1  0.6444902E-006  0.5753515E+02  0.7818608E-02  0.1443949E+00
          2   -1    0    0  502    0  0.00000000000E+00  0.00000000000E+00  0.14704442715E+03  0.14704442715E+03  0.00000000000E+00 0. -1.
          1   -1    0    0  501    0 -0.00000000000E+00 -0.00000000000E+00 -0.77786771569E+03  0.77786771569E+03  0.00000000000E+00 0. -1.
         25    2    1    2    0    0  0.94482076743E+02  0.27206111843E+02 -0.15793056594E+03  0.22412924830E+03  0.12499928375E+03 0.  0.
          2    1    1    2  501    0 -0.43786851589E+02 -0.31941083545E+01 -0.57905238392E+03  0.58071434805E+03  0.00000000000E+00 0. -1.
          1    1    1    2  502    0 -0.50695225153E+02 -0.24012003488E+02  0.10615966133E+03  0.12006854650E+03  0.00000000000E+00 0. -1.
         22    1    3    3    0    0  0.93501361568E+02 -0.13240585228E+02 -0.15753213697E+03  0.18366870144E+03  0.00000000000E+00 0.  1.
         22    1    3    3    0    0  0.98071517453E+00  0.40446697071E+02 -0.39842897119E+00  0.40460546855E+02  0.00000000000E+00 0.  1.
</event>
<event>
 7    1  0.6444902E-006  0.4722208E+02  0.7818608E-02  0.1493181E+00
          2   -1    0    0  502    0  0.00000000000E+00  0.00000000000E+00  0.15237624121E+04  0.15237624121E+04  0.00000000000E+00 0. -1.
          1   -1    0    0  501    0 -0.00000000000E+00 -0.00000000000E+00 -0.12709876033E+03  0.12709876033E+03  0.00000000000E+00 0. -1.
         25    2    1    2    0    0 -0.31551129774E+01 -0.10343204173E+02  0.21079230971E+03  0.24530616238E+03  0.12499911544E+03 0.  0.
          2    1    1    2  501    0 -0.27956726536E+01 -0.37461079831E+02 -0.10616800696E+03  0.11261791149E+03  0.00000000000E+00 0. -1.
          1    1    1    2  502    0  0.59507856311E+01  0.47804284004E+02  0.12920393491E+04  0.12929370986E+04  0.00000000000E+00 0. -1.
         22    1    3    3    0    0 -0.41084227047E+02 -0.52667775503E+02  0.92802181100E+02  0.11434182570E+03  0.00000000000E+00 0.  1.
         22    1    3    3    0    0  0.37929114069E+02  0.42324571330E+02  0.11799012861E+03  0.13096433668E+03  0.00000000000E+00 0.  1.
</event>
<event>
 7    1  0.6444902E-006  0.1192542E+03  0.7818608E-02  0.1246903E+00
          2   -1    0    0  502    0  0.00000000000E+00  0.00000000000E+00  0.14325423784E+04  0.14325423784E+04  0.00000000000E+00 0. -1.
          1   -1    0    0  501    0 -0.00000000000E+00 -0.00000000000E+00 -0.30580231050E+03  0.30580231050E+03  0.00000000000E+00 0. -1.
         25    2    1    2    0    0 -0.11275940936E+03  0.47467199126E+02  0.10077049058E+03  0.20186557489E+03  0.12500879634E+03 0.  0.
          2    1    1    2  501    0  0.90682928105E+02  0.72672605334E+02 -0.23893165533E+03  0.26569350187E+03  0.00000000000E+00 0. -1.
          1    1    1    2  502    0  0.22076481252E+02 -0.12013980446E+03  0.12649012327E+04  0.12707856121E+04  0.00000000000E+00 0. -1.
         22    1    3    3    0    0 -0.32816516038E+02  0.72480868619E+02  0.13142862671E+02  0.80642016839E+02  0.00000000000E+00 0.  1.
         22    1    3    3    0    0 -0.79942893319E+02 -0.25013669493E+02  0.87627627904E+02  0.12122355805E+03  0.00000000000E+00 0.  1.
</event>
<event>
 7    1  0.6444902E-006  0.1123553E+03  0.7818608E-02  0.1436087E+00
          2   -1    0    0  502    0  0.00000000000E+00  0.00000000000E+00  0.60519627140E+03  0.60519627140E+03  0.00000000000E+00 0. -1.
          1   -1    0    0  501    0 -0.00000000000E+00 -0.00000000000E+00 -0.72312080816E+02  0.72312080816E+02  0.00000000000E+00 0. -1.
         25    2    1    2    0    0 -0.83076578901E+01  0.10168110443E+03  0.19555108381E+03  0.25352090227E+03  0.12499822931E+03 0.  0.
          2    1    1    2  501    0  0.19509196045E+02  0.13705887824E+02 -0.30273018740E+02  0.38534604643E+02  0.00000000000E+00 0. -1.
          1    1    1    2  502    0 -0.11201538155E+02 -0.11538699225E+03  0.36760612551E+03  0.38545284530E+03  0.00000000000E+00 0. -1.
         22    1    3    3    0    0  0.28075803302E+02  0.43831634176E+02  0.64508234046E+01  0.52450700741E+02  0.00000000000E+00 0.  1.
         22    1    3    3    0    0 -0.36383461192E+02  0.57849470249E+02  0.18910026041E+03  0.20107020153E+03  0.00000000000E+00 0.  1.
</event>
<event>
 7    1  0.6444902E-006  0.1406212E+03  0.7818608E-02  0.1231967E+00
          2   -1    0    0  502    0  0.00000000000E+00  0.00000000000E+00  0.13292107657E+04  0.13292107657E+04  0.00000000000E+00 0. -1.
          1   -1    0    0  501    0 -0.00000000000E+00 -0.00000000000E+00 -0.19902684247E+03  0.19902684247E+03  0.00000000000E+00 0. -1.
         25    2    1    2    0    0  0.55163758783E+02 -0.10373209430E+02  0.18219246331E+03  0.22796274378E+03  0.12498909996E+03 0.  0.
          2    1    1    2  501    0  0.81556459223E+02 -0.80664413943E+02 -0.15069023455E+03  0.18938255069E+03  0.00000000000E+00 0. -1.
          1    1    1    2  502    0 -0.13672021801E+03  0.91037623374E+02  0.10986816945E+04  0.11108923137E+04  0.00000000000E+00 0. -1.
         22    1    3    3    0    0  0.15724030623E+01  0.13901051154E+02  0.16648184884E+03  0.16706860168E+03  0.00000000000E+00 0.  1.
         22    1    3    3    0    0  0.53591355721E+02 -0.24274260585E+02  0.15710614467E+02  0.60894142098E+02  0.00000000000E+00 0.  1.
</event>
<event>
 7    1  0.6444902E-006  0.7245479E+02  0.7818608E-02  0.1485938E+00
          2   -1    0    0  502    0  0.00000000000E+00  0.00000000000E+00  0.11488454391E+04  0.11488454391E+04  0.00000000000E+00 0. -1.
          1   -1    0    0  501    0 -0.00000000000E+00 -0.00000000000E+00 -0.45891407676E+03  0.45891407676E+03  0.00000000000E+00 0. -1.
         25    2    1    2    0    0 -0.48301935419E+02  0.23685863468E+02  0.38018671711E+03  0.40380663220E+03  0.12499503688E+03 0.  0.
          2    1    1    2  501    0  0.71518849006E+02 -0.12546996731E+02 -0.44393471096E+03  0.44983374760E+03  0.00000000000E+00 0. -1.
          1    1    1    2  502    0 -0.23216913587E+02 -0.11138866737E+02  0.75367935614E+03  0.75411913601E+03  0.00000000000E+00 0. -1.
         22    1    3    3    0    0 -0.40845398937E+01 -0.43643467197E+01  0.33379402267E+03  0.33384754089E+03  0.00000000000E+00 0.  1.
         22    1    3    3    0    0 -0.44217395526E+02  0.28050210188E+02  0.46392694441E+02  0.69959091304E+02  0.00000000000E+00 0.  1.
</event>
<event>
 7    1  0.6444902E-006  0.1466547E+03  0.7818608E-02  0.1222853E+00
          2   -1    0    0  502    0  0.00000000000E+00  0.00000000000E+00  0.50052866688E+03  0.50052866688E+03  0.00000000000E+00 0. -1.
          1   -1    0    0  501    0 -0.00000000000E+00 -0.00000000000E+00 -0.20382721173E+04  0.20382721173E+04  0.00000000000E+00 0. -1.
         25    2    1    2    0    0  0.69884171826E+02 -0.49422739937E+01 -0.21758298664E+03  0.26053149924E+03  0.12500432983E+03 0.  0.
          2    1    1    2  501    0  0.16763135227E+02 -0.11972381393E+03 -0.17850902891E+04  0.17891791790E+04  0.00000000000E+00 0. -1.
          1    1    1    2  502    0 -0.86647307053E+02  0.12466608793E+03  0.46492982530E+03  0.48909010596E+03  0.00000000000E+00 0. -1.
         22    1    3    3    0    0  0.44861112865E+02  0.24781204912E+02 -0.21562074086E+03  0.22162791217E+03  0.00000000000E+00 0.  1.
         22    1    3    3    0    0  0.25023058961E+02 -0.29723478906E+02 -0.19622457796E+01  0.38903587065E+02  0.00000000000E+00 0.  1.
</event>
<event>
 7    1  0.6444902E-006  0.9136371E+02  0.7818608E-02  0.1450042E+00
          2   -1    0    0  502    0  0.00000000000E+00  0.00000000000E+00  0.24003423950E+04  0.24003423950E+04  0.00000000000E+00 0. -1.
          1   -1    0    0  501    0 -0.00000000000E+00 -0.00000000000E+00 -0.10735177574E+04  0.10735177574E+04  0.00000000000E+00 0. -1.
         25    2    1    2    0    0 -0.74580395038E+02  0.41504627283E+01  0.13317103285E+04  0.13396485444E+04  0.12500544682E+03 0.  0.
          2    1    1    2  501    0  0.89694430327E+02  0.17530045879E+02 -0.10674317168E+04  0.10713369514E+04  0.00000000000E+00 0. -1.
          1    1    1    2  502    0 -0.15114035289E+02 -0.21680508607E+02  0.10625460259E+04  0.10628746566E+04  0.00000000000E+00 0. -1.
         22    1    3    3    0    0 -0.51385042077E+02 -0.58758180904E+02  0.65982525736E+03  0.66442630639E+03  0.00000000000E+00 0. -1.
         22    1    3    3    0    0 -0.23195352961E+02  0.62908643632E+02  0.67188507112E+03  0.67522223796E+03  0.00000000000E+00 0. -1.
</event>
<event>
 7    1  0.6444902E-006  0.6302540E+02  0.7818608E-02  0.1490089E+00
          2   -1    0    0  502    0  0.00000000000E+00  0.00000000000E+00  0.50937864408E+03  0.50937864408E+03  0.00000000000E+00 0. -1.
          1   -1    0    0  501    0 -0.00000000000E+00 -0.00000000000E+00 -0.12425952685E+03  0.12425952685E+03  0.00000000000E+00 0. -1.
         25    2    1    2    0    0 -0.10088890909E+02  0.86192912212E+02  0.17063672052E+02  0.15312463123E+03  0.12499991979E+03 0.  0.
          2    1    1    2  501    0  0.15516381389E+01 -0.58731988697E+02 -0.40236722075E+02  0.71209886115E+02  0.00000000000E+00 0. -1.
          1    1    1    2  502    0  0.85372527706E+01 -0.27460923515E+02  0.40829216725E+03  0.40930365359E+03  0.00000000000E+00 0. -1.
         22    1    3    3    0    0 -0.56930698461E+02  0.16580384720E+02 -0.18323385351E+02  0.62062549380E+02  0.00000000000E+00 0. -1.
         22    1    3    3    0    0  0.46841807552E+02  0.69612527492E+02  0.35387057403E+02  0.91062081846E+02  0.00000000000E+00 0. -1.
</event>
<event>
 7    1  0.6444902E-006  0.1705518E+03  0.7818608E-02  0.1288758E+00
          2   -1    0    0  502    0  0.00000000000E+00  0.00000000000E+00  0.19619825436E+04  0.19619825436E+04  0.00000000000E+00 0. -1.
          1   -1    0    0  501    0 -0.00000000000E+00 -0.00000000000E+00 -0.70061442749E+02  0.70061442749E+02  0.00000000000E+00 0. -1.
         25    2    1    2    0    0  0.18063595537E+03 -0.27920602382E+02  0.28343962166E+03  0.35968163863E+03  0.12499581446E+03 0.  0.
          2    1    1    2  501    0 -0.27801210007E+02 -0.46443441327E+02 -0.79575177501E+00  0.54134404412E+02  0.00000000000E+00 0. -1.
          1    1    1    2  502    0 -0.15283474536E+03  0.74364043709E+02  0.16092772310E+04  0.16182279434E+04  0.00000000000E+00 0. -1.
         22    1    3    3    0    0  0.15730276642E+03 -0.70764964507E+02  0.22650891163E+03  0.28470709084E+03  0.00000000000E+00 0.  1.
         22    1    3    3    0    0  0.23333188948E+02  0.42844362125E+02  0.56930710029E+02  0.74974547793E+02  0.00000000000E+00 0.  1.
</event>
<event>
 7    1  0.6444902E-006  0.3158339E+02  0.7818608E-02  0.1631305E+00
          2   -1    0    0  502    0  0.00000000000E+00  0.00000000000E+00  0.39383995187E+03  0.39383995187E+03  0.00000000000E+00 0. -1.
          1   -1    0    0  501    0 -0.00000000000E+00 -0.00000000000E+00 -0.45208999952E+02  0.45208999952E+02  0.00000000000E+00 0. -1.
         25    2    1    2    0    0 -0.28310908570E+02  0.23200581340E+02  0.19635221816E+03  0.23562452648E+03  0.12499979752E+03 0.  0.
          2    1    1    2  501    0  0.31718354252E+02 -0.28813605486E-01 -0.14594970069E+02  0.34915153988E+02  0.00000000000E+00 0. -1.
          1    1    1    2  502    0 -0.34074456818E+01 -0.23171767734E+02  0.16687370383E+03  0.16850927136E+03  0.00000000000E+00 0. -1.
         22    1    3    3    0    0 -0.52841113823E+02 -0.33661053865E+02  0.64317909628E+02  0.89788882142E+02  0.00000000000E+00 0. -1.
         22    1    3    3    0    0  0.24530205253E+02  0.56861635205E+02  0.13203430854E+03  0.14583564434E+03  0.00000000000E+00 0. -1.
</event>
<event>
 7    1  0.6444902E-006  0.9398183E+02  0.7818608E-02  0.1334074E+00
          2   -1    0    0  502    0  0.00000000000E+00  0.00000000000E+00  0.15475975616E+04  0.15475975616E+04  0.00000000000E+00 0. -1.
          1   -1    0    0  501    0 -0.00000000000E+00 -0.00000000000E+00 -0.57848686273E+02  0.57848686273E+02  0.00000000000E+00 0. -1.
         25    2    1    2    0    0 -0.52991733605E+02 -0.21131805510E+02  0.28108812755E+03  0.31287366163E+03  0.12499886263E+03 0.  0.
          2    1    1    2  501    0 -0.43337768783E+02  0.48661023652E+02 -0.13305394171E+02  0.66506322556E+02  0.00000000000E+00 0. -1.
          1    1    1    2  502    0  0.96329502388E+02 -0.27529218142E+02  0.12219661420E+04  0.12260662637E+04  0.00000000000E+00 0. -1.
         22    1    3    3    0    0  0.18336407027E+01 -0.43220783548E+02  0.24813438391E+02  0.49870884226E+02  0.00000000000E+00 0.  1.
         22    1    3    3    0    0 -0.54825374307E+02  0.22088978039E+02  0.25627468916E+03  0.26300277740E+03  0.00000000000E+00 0.  1.
</event>
<event>
 7    1  0.6444902E-006  0.4651172E+02  0.7818608E-02  0.1487552E+00
          2   -1    0    0  502    0  0.00000000000E+00  0.00000000000E+00  0.31350487487E+04  0.31350487487E+04  0.00000000000E+00 0. -1.
          1   -1    0    0  501    0 -0.00000000000E+00 -0.00000000000E+00 -0.47752199052E+03  0.47752199052E+03  0.00000000000E+00 0. -1.
         25    2    1    2    0    0  0.50259594433E+02  0.27132778056E+01 -0.27238205984E+03  0.30390500350E+03  0.12503149971E+03 0.  0.
          2    1    1    2  501    0 -0.17400703480E+02 -0.35642865683E+02 -0.18712620434E+03  0.19128359759E+03  0.00000000000E+00 0. -1.
          1    1    1    2  502    0 -0.32858890953E+02  0.32929587877E+02  0.31170350224E+04  0.31173821381E+04  0.00000000000E+00 0. -1.
         22    1    3    3    0    0 -0.33131199431E+02 -0.10174120522E+02 -0.15805744263E+03  0.16181268268E+03  0.00000000000E+00 0.  1.
         22    1    3    3    0    0  0.83390793864E+02  0.12887398327E+02 -0.11432461721E+03  0.14209232083E+03  0.00000000000E+00 0.  1.
</event>
<event>
 7    1  0.6444902E-006  0.8987813E+02  0.7818608E-02  0.1470658E+00
          2   -1    0    0  502    0  0.00000000000E+00  0.00000000000E+00  0.21770870206E+04  0.21770870206E+04  0.00000000000E+00 0. -1.
          1   -1    0    0  501    0 -0.00000000000E+00 -0.00000000000E+00 -0.64159802837E+02  0.64159802837E+02  0.00000000000E+00 0. -1.
         25    2    1    2    0    0  0.13790067628E+02 -0.76473026528E+02  0.68351400915E+03  0.69918186429E+03  0.12500235557E+03 0.  0.
          2    1    1    2  501    0  0.21313438083E+02 -0.89870231867E+01 -0.52450301022E+02  0.57324194770E+02  0.00000000000E+00 0. -1.
          1    1    1    2  502    0 -0.35103505711E+02  0.85460049715E+02  0.14818635097E+04  0.14847407644E+04  0.00000000000E+00 0. -1.
         22    1    3    3    0    0 -0.14869405656E+02 -0.36311478318E+02  0.60618441357E+03  0.60745301541E+03  0.00000000000E+00 0.  1.
         22    1    3    3    0    0  0.28659473284E+02 -0.40161548210E+02  0.77329595579E+02  0.91728848875E+02  0.00000000000E+00 0.  1.
</event>
<event>
 7    1  0.6444902E-006  0.1130818E+03  0.7818608E-02  0.1263207E+00
          2   -1    0    0  502    0  0.00000000000E+00  0.00000000000E+00  0.50398869462E+03  0.50398869462E+03  0.00000000000E+00 0. -1.
          1   -1    0    0  501    0 -0.00000000000E+00 -0.00000000000E+00 -0.21051187079E+03  0.21051187079E+03  0.00000000000E+00 0. -1.
         25    2    1    2    0    0  0.46652463964E+02  0.54485392095E+02  0.87243996558E+02  0.16846614049E+03  0.12499686080E+03 0.  0.
          2    1    1    2  501    0  0.32521501612E+02 -0.12234039438E+03 -0.13746175308E+03  0.18687041961E+03  0.00000000000E+00 0. -1.
          1    1    1    2  502    0 -0.79173965576E+02  0.67855002288E+02  0.34369458035E+03  0.35916400532E+03  0.00000000000E+00 0. -1.
         22    1    3    3    0    0  0.80922715553E+02  0.21764851230E+02  0.87401569122E+02  0.12108356175E+03  0.00000000000E+00 0. -1.
         22    1    3    3    0    0 -0.34270251590E+02  0.32720540865E+02 -0.15757256311E+00  0.47382578735E+02  0.00000000000E+00 0. -1.
</event>
<event>
 7    1  0.6444902E-006  0.5891698E+02  0.7818608E-02  0.1482691E+00
          2   -1    0    0  502    0  0.00000000000E+00  0.00000000000E+00  0.72482860817E+03  0.72482860817E+03  0.00000000000E+00 0. -1.
          1   -1    0    0  501    0 -0.00000000000E+00 -0.00000000000E+00 -0.12140664858E+04  0.12140664858E+04  0.00000000000E+00 0. -1.
         25    2    1    2    0    0 -0.38706637874E+02  0.38845294490E+01 -0.64304333108E+03  0.65623408694E+03  0.12500063129E+03 0.  0.
          2    1    1    2  501    0  0.58108130492E+02 -0.29831032712E+02 -0.56217050903E+03  0.56595240663E+03  0.00000000000E+00 0. -1.
          1    1    1    2  502    0 -0.19401492618E+02  0.25946503263E+02  0.71597596252E+03  0.71670860038E+03  0.00000000000E+00 0. -1.
         22    1    3    3    0    0 -0.70361908358E+02  0.41541350233E+02 -0.40524802394E+03  0.41340348672E+03  0.00000000000E+00 0. -1.
         22    1    3    3    0    0  0.31655270483E+02 -0.37656820784E+02 -0.23779530715E+03  0.24283060022E+03  0.00000000000E+00 0. -1.
</event>
<event>
 7    1  0.6444902E-006  0.5911908E+02  0.7818608E-02  0.1407399E+00
          2   -1    0    0  502    0  0.00000000000E+00  0.00000000000E+00  0.37743028504E+03  0.37743028504E+03  0.00000000000E+00 0. -1.
          1   -1    0    0  501    0 -0.00000000000E+00 -0.00000000000E+00 -0.12316125821E+04  0.12316125821E+04  0.00000000000E+00 0. -1.
         25    2    1    2    0    0 -0.98070609851E+02  0.38407230167E+02 -0.18464590493E+03  0.24660187918E+03  0.12500166703E+03 0.  0.
          2    1    1    2  501    0  0.39422271781E+02 -0.40428864492E+02 -0.10127115155E+04  0.10142845864E+04  0.00000000000E+00 0. -1.
          1    1    1    2  502    0  0.58648338069E+02  0.20216343248E+01  0.34317512343E+03  0.34815640150E+03  0.00000000000E+00 0. -1.
         22    1    3    3    0    0  0.24734744185E+02 -0.96601698816E+01 -0.11461592845E+02  0.28922215727E+02  0.00000000000E+00 0.  1.
         22    1    3    3    0    0 -0.12280535404E+03  0.48067400049E+02 -0.17318431209E+03  0.21767966345E+03  0.00000000000E+00 0.  1.
</event>
<event>
 7    1  0.6444902E-006  0.1484494E+03  0.7818608E-02  0.1304176E+00
          2   -1    0    0  502    0  0.00000000000E+00  0.00000000000E+00  0.78824998678E+03  0.78824998678E+03  0.00000000000E+00 0. -1.
          1   -1    0    0  501    0 -0.00000000000E+00 -0.00000000000E+00 -0.43856663768E+03  0.43856663768E+03  0.00000000000E+00 0. -1.
         25    2    1    2    0    0 -0.14040901094E+03 -0.99825057629E+02  0.22808866980E+02  0.21407034239E+03  0.12500453829E+03 0.  0.
          2    1    1    2  501    0  0.13876839243E+03  0.45944452303E+02 -0.32619788827E+03  0.35745296438E+03  0.00000000000E+00 0. -1.
          1    1    1    2  502    0  0.16406185118E+01  0.53880605326E+02  0.65307237038E+03  0.65529331769E+03  0.00000000000E+00 0. -1.
         22    1    3    3    0    0 -0.26196247783E+02 -0.93079501843E+02  0.24090639791E+02  0.99651372228E+02  0.00000000000E+00 0.  1.
         22    1    3    3    0    0 -0.11421276316E+03 -0.67455557860E+01 -0.12817728113E+01  0.11441897016E+03  0.00000000000E+00 0.  1.
</event>
<event>
 7    1  0.6444902E-006  0.1512245E+03  0.7818608E-02  0.1257888E+00
          2   -1    0    0  502    0  0.00000000000E+00  0.00000000000E+00  0.19653455068E+04  0.19653455068E+04  0.00000000000E+00 0. -1.
          1   -1    0    0  501    0 -0.00000000000E+00 -0.00000000000E+00 -0.20598499294E+04  0.20598499294E+04  0.00000000000E+00 0. -1.
         25    2    1    2    0    0 -0.78646910639E+02  0.45934252942E+02  0.14826426727E+01  0.15466821016E+03  0.12499905943E+03 0.  0.
          2    1    1    2  501    0 -0.74923486938E+02 -0.33699357184E+02 -0.19792597042E+04  0.19809639452E+04  0.00000000000E+00 0. -1.
          1    1    1    2  502    0  0.15357039758E+03 -0.12234895758E+02  0.18832726389E+04  0.18895632808E+04  0.00000000000E+00 0. -1.
         22    1    3    3    0    0 -0.94481799248E+02 -0.11260998100E+02 -0.25489268236E+01  0.95184649473E+02  0.00000000000E+00 0.  1.
         22    1    3    3    0    0  0.15834888609E+02  0.57195251042E+02  0.40315694963E+01  0.59483560684E+02  0.00000000000E+00 0.  1.
</event>
<event>
 7    1  0.6444902E-006  0.1120875E+03  0.7818608E-02  0.1374190E+00
          2   -1    0    0  502    0  0.00000000000E+00  0.00000000000E+00  0.40638282889E+03  0.40638282889E+03  0.00000000000E+00 0. -1.
          1   -1    0    0  501    0 -0.00000000000E+00 -0.00000000000E+00 -0.55162953531E+03  0.55162953531E+03  0.00000000000E+00 0. -1.
         25    2    1    2    0    0 -0.76265362563E+02 -0.94869794323E+02 -0.67094721500E+02  0.18692908618E+03  0.12499639276E+03 0.  0.
          2    1    1    2  501    0  0.93936218068E+02  0.60236038901E+02 -0.41615231750E+03  0.43085397156E+03  0.00000000000E+00 0. -1.
          1    1    1    2  502    0 -0.17670855505E+02  0.34633755422E+02  0.33800033258E+03  0.34022930646E+03  0.00000000000E+00 0. -1.
         22    1    3    3    0    0 -0.26268148183E+02 -0.12954745620E+02 -0.84467733685E+02  0.89401560819E+02  0.00000000000E+00 0.  1.
         22    1    3    3    0    0 -0.49997214380E+02 -0.81915048704E+02  0.17373012185E+02  0.97527525357E+02  0.00000000000E+00 0.  1.
</event>
<event>
 7    1  0.6444902E-006  0.3486902E+02  0.7818608E-02  0.1551008E+00
          2   -1    0    0  502    0  0.00000000000E+00  0.00000000000E+00  0.39421387868E+03  0.39421387868E+03  0.00000000000E+00 0. -1.
          1   -1    0    0  501    0 -0.00000000000E+00 -0.00000000000E+00 -0.10078185208E+04  0.10078185208E+04  0.00000000000E+00 0. -1.
         25    2    1    2    0    0 -0.76819985405E+01  0.97076527515E+00 -0.88521497154E+02  0.15337818407E+03  0.12501542466E+03 0.  0.
          2    1    1    2  501    0  0.85524775416E+01  0.33887386840E+02 -0.88568305069E+03  0.88637236314E+03  0.00000000000E+00 0. -1.
          1    1    1    2  502    0 -0.87047900116E+00 -0.34858152115E+02  0.36059990571E+03  0.36228185229E+03  0.00000000000E+00 0. -1.
         22    1    3    3    0    0 -0.24907575092E+02 -0.46796885068E+02 -0.19924878463E+01  0.53050030696E+02  0.00000000000E+00 0. -1.
         22    1    3    3    0    0  0.17225576551E+02  0.47767650343E+02 -0.86529009307E+02  0.10032815337E+03  0.00000000000E+00 0. -1.
</event>
<event>
 7    1  0.6444902E-006  0.8244950E+02  0.7818608E-02  0.1442566E+00
          2   -1    0    0  502    0  0.00000000000E+00  0.00000000000E+00  0.65216276681E+03  0.65216276681E+03  0.00000000000E+00 0. -1.
          1   -1    0    0  501    0 -0.00000000000E+00 -0.00000000000E+00 -0.96019237936E+03  0.96019237936E+03  0.00000000000E+00 0. -1.
         25    2    1    2    0    0 -0.41264604522E+02 -0.75260400188E+02  0.20298057725E+02  0.15298404155E+03  0.12500084160E+03 0.  0.
          2    1    1    2  501    0  0.11001684185E+02  0.81761751379E+02 -0.89151992812E+03  0.89532887995E+03  0.00000000000E+00 0. -1.
          1    1    1    2  502    0  0.30262920337E+02 -0.65013511912E+01  0.56319225784E+03  0.56404222466E+03  0.00000000000E+00 0. -1.
         22    1    3    3    0    0 -0.12012032886E+02 -0.10215229347E+03  0.37777360471E+02  0.10957421667E+03  0.00000000000E+00 0. -1.
         22    1    3    3    0    0 -0.29252571636E+02  0.26891893283E+02 -0.17479302745E+02  0.43409824880E+02  0.00000000000E+00 0. -1.
</event>
<event>
 7    1  0.6444902E-006  0.3243917E+02  0.7818608E-02  0.1608718E+00
          2   -1    0    0  502    0  0.00000000000E+00  0.00000000000E+00  0.58942101113E+03  0.58942101113E+03  0.00000000000E+00 0. -1.
          1   -1    0    0  501    0 -0.00000000000E+00 -0.00000000000E+00 -0.32511348761E+03  0.32511348761E+03  0.00000000000E+00 0. -1.
         25    2    1    2    0    0  0.25575908441E+02  0.27692748804E+02  0.11499123456E+03  0.17397959122E+03  0.12499959482E+03 0.  0.
          2    1    1    2  501    0  0.15055613860E-01 -0.32468180277E+02 -0.29434510117E+03  0.29613041306E+03  0.00000000000E+00 0. -1.
          1    1    1    2  502    0 -0.25590964055E+02  0.47754314728E+01  0.44366139013E+03  0.44442449446E+03  0.00000000000E+00 0. -1.
         22    1    3    3    0    0  0.70277187202E+02  0.36058006116E+02  0.46175378637E+02  0.91494417526E+02  0.00000000000E+00 0. -1.
         22    1    3    3    0    0 -0.44701278761E+02 -0.83652573125E+01  0.68815855923E+02  0.82485173693E+02  0.00000000000E+00 0. -1.
</event>
<event>
 7    1  0.6444902E-006  0.5974410E+02  0.7818608E-02  0.1447574E+00
          2   -1    0    0  502    0  0.00000000000E+00  0.00000000000E+00  0.16654699711E+03  0.16654699711E+03  0.00000000000E+00 0. -1.
          1   -1    0    0  501    0 -0.00000000000E+00 -0.00000000000E+00 -0.24298554094E+03  0.24298554094E+03  0.00000000000E+00 0. -1.
         25    2    1    2    0    0  0.12747813651E+02 -0.35529521453E+02 -0.82844697123E+02  0.15465657075E+03  0.12502222757E+03 0.  0.
          2    1    1    2  501    0 -0.53680122879E+02  0.39844309513E+02 -0.11149278787E+03  0.12999910130E+03  0.00000000000E+00 0. -1.
          1    1    1    2  502    0  0.40932309229E+02 -0.43147880597E+01  0.11789894116E+03  0.12487686600E+03  0.00000000000E+00 0. -1.
         22    1    3    3    0    0 -0.24992610484E+02 -0.70841469269E+02 -0.30443541079E+02  0.81055249924E+02  0.00000000000E+00 0.  1.
         22    1    3    3    0    0  0.37740424134E+02  0.35311947816E+02 -0.52401156044E+02  0.73601320825E+02  0.00000000000E+00 0.  1.
</event>
<event>
 7    1  0.6444902E-006  0.9415655E+02  0.7818608E-02  0.1392665E+00
          2   -1    0    0  502    0  0.00000000000E+00  0.00000000000E+00  0.32954452665E+03  0.32954452665E+03  0.00000000000E+00 0. -1.
          1   -1    0    0  501    0 -0.00000000000E+00 -0.00000000000E+00 -0.17475154257E+04  0.17475154257E+04  0.00000000000E+00 0. -1.
         25    2    1    2    0    0 -0.60188639200E+02  0.10690968187E+03 -0.61842390930E+03  0.64274823475E+03  0.12499923725E+03 0.  0.
          2    1    1    2  501    0  0.26023740368E+02 -0.86411691633E+02 -0.11138467737E+04  0.11174966894E+04  0.00000000000E+00 0. -1.
          1    1    1    2  502    0  0.34164898832E+02 -0.20497990237E+02  0.31429978394E+03  0.31681502821E+03  0.00000000000E+00 0. -1.
         22    1    3    3    0    0 -0.11096967195E+02  0.52689610621E+02 -0.50450151788E+03  0.50736684883E+03  0.00000000000E+00 0. -1.
         22    1    3    3    0    0 -0.49091672006E+02  0.54220071249E+02 -0.11392239142E+03  0.13538138592E+03  0.00000000000E+00 0. -1.
</event>
<event>
 7    1  0.6444902E-006  0.5530467E+02  0.7818608E-02  0.1471989E+00
          2   -1    0    0  502    0  0.00000000000E+00  0.00000000000E+00  0.13090667646E+03  0.13090667646E+03  0.00000000000E+00 0. -1.
          1   -1    0    0  501    0 -0.00000000000E+00 -0.00000000000E+00 -0.71958339766E+03  0.71958339766E+03  0.00000000000E+00 0. -1.
         25    2    1    2    0    0 -0.78516679300E+02 -0.23550841598E+02 -0.18459527104E+03  0.23752920069E+03  0.12500078409E+03 0.  0.
          2    1    1    2  501    0  0.24141462033E+02  0.28348294239E+02 -0.50064973252E+03  0.50203245975E+03  0.00000000000E+00 0. -1.
          1    1    1    2  502    0  0.54375217268E+02 -0.47974526404E+01  0.96568282355E+02  0.11092841368E+03  0.00000000000E+00 0. -1.
         22    1    3    3    0    0 -0.89985542026E+00 -0.47861532684E+02 -0.16228690344E+02  0.50546082350E+02  0.00000000000E+00 0.  1.
         22    1    3    3    0    0 -0.77616823880E+02  0.24310691086E+02 -0.16836658069E+03  0.18698311834E+03  0.00000000000E+00 0.  1.
</event>
<event>
 7    1  0.6444902E-006  0.6501066E+02  0.7818608E-02  0.1449355E+00
          2   -1    0    0  502    0  0.00000000000E+00  0.00000000000E+00  0.57700476920E+03  0.57700476920E+03  0.00000000000E+00 0. -1.
          1   -1    0    0  501    0 -0.00000000000E+00 -0.00000000000E+00 -0.33816973011E+03  0.33816973011E+03  0.00000000000E+00 0. -1.
         25    2    1    2    0    0  0.54938481992E+02  0.84174922226E+02  0.75069944191E+02  0.17709973221E+03  0.12500065717E+03 0.  0.
          2    1    1    2  501    0 -0.40046948964E+02 -0.49943132948E+02 -0.28279849994E+03  0.28995355872E+03  0.00000000000E+00 0. -1.
          1    1    1    2  502    0 -0.14891533027E+02 -0.34231789278E+02  0.44656359485E+03  0.44812120837E+03  0.00000000000E+00 0. -1.
         22    1    3    3    0    0  0.56740987395E+02  0.19126148546E+02 -0.18907079383E+02  0.62791933077E+02  0.00000000000E+00 0.  1.
         22    1    3    3    0    0 -0.18025054036E+01  0.65048773680E+02  0.93977023574E+02  0.11430779913E+03  0.00000000000E+00 0.  1.
</event>
<event>
 7    1  0.6444902E-006  0.3150344E+02  0.7818608E-02  0.1597654E+00
          2   -1    0    0  502    0  0.00000000000E+00  0.00000000000E+00  0.40149423312E+04  0.40149423312E+04  0.00000000000E+00 0. -1.
          1   -1    0    0  501    0 -0.00000000000E+00 -0.00000000000E+00 -0.17833150516E+02  0.17833150516E+02  0.00000000000E+00 0. -1.
         25    2    1    2    0    0 -0.45094470249E+01  0.63771367559E+01  0.20012168631E+04  0.20051323060E+04  0.12500251332E+03 0.  0.
          2    1    1    2  501    0 -0.13330417058E+02 -0.28786553230E+02  0.17845130544E+00  0.31723768860E+02  0.00000000000E+00 0. -1.
          1    1    1    2  502    0  0.17839864083E+02  0.22409416474E+02  0.19957138663E+04  0.19959194069E+04  0.00000000000E+00 0. -1.
         22    1    3    3    0    0 -0.86160626900E+01  0.36870590297E+02  0.19438026837E+03  0.19803374888E+03  0.00000000000E+00 0. -1.
         22    1    3    3    0    0  0.41066156651E+01 -0.30493453541E+02  0.18068365947E+04  0.18070985571E+04  0.00000000000E+00 0. -1.
</event>
<event>
 7    1  0.6444902E-006  0.1093655E+03  0.7818608E-02  0.1416724E+00
          2   -1    0    0  502    0  0.00000000000E+00  0.00000000000E+00  0.34872786009E+03  0.34872786009E+03  0.00000000000E+00 0. -1.
          1   -1    0    0  501    0 -0.00000000000E+00 -0.00000000000E+00 -0.65822429458E+03  0.65822429458E+03  0.00000000000E+00 0. -1.
         25    2    1    2    0    0  0.87097822349E+01  0.86928141836E+02 -0.47335119984E+03  0.49732573240E+03  0.12505664146E+03 0.  0.
          2    1    1    2  501    0 -0.17263629490E+02  0.22535988298E+02 -0.16267361086E+03  0.16513209059E+03  0.00000000000E+00 0. -1.
          1    1    1    2  502    0  0.85538472553E+01 -0.10946413013E+03  0.32652837621E+03  0.34449433168E+03  0.00000000000E+00 0. -1.
         22    1    3    3    0    0 -0.14411702814E+02  0.60936539254E+02 -0.76082462803E+02  0.98536795871E+02  0.00000000000E+00 0. -1.
         22    1    3    3    0    0  0.23121485048E+02  0.25991602582E+02 -0.39726873703E+03  0.39878893653E+03  0.00000000000E+00 0. -1.
</event>
<event>
 7    1  0.6444902E-006  0.6730659E+02  0.7818608E-02  0.1396144E+00
          2   -1    0    0  502    0  0.00000000000E+00  0.00000000000E+00  0.12850636975E+02  0.12850636975E+02  0.00000000000E+00 0. -1.
          1   -1    0    0  501    0 -0.00000000000E+00 -0.00000000000E+00 -0.18426824579E+04  0.18426824579E+04  0.00000000000E+00 0. -1.
         25    2    1    2    0    0 -0.18780695346E+02  0.75536858231E+01 -0.39468576591E+03  0.41450427837E+03  0.12500868086E+03 0.  0.
          2    1    1    2  501    0  0.65755580745E+02 -0.34609544337E+02 -0.93701124627E+03  0.93995302680E+03  0.00000000000E+00 0. -1.
          1    1    1    2  502    0 -0.46974885399E+02  0.27055858513E+02 -0.49813480878E+03  0.50107578973E+03  0.00000000000E+00 0. -1.
         22    1    3    3    0    0 -0.17390010585E+02  0.28624633974E+02 -0.19563358591E+02  0.38787976715E+02  0.00000000000E+00 0. -1.
         22    1    3    3    0    0 -0.13906847604E+01 -0.21070948150E+02 -0.37512240732E+03  0.37571630166E+03  0.00000000000E+00 0. -1.
</event>
<event>
 7    1  0.6444902E-006  0.5021938E+02  0.7818608E-02  0.1519357E+00
          2   -1    0    0  502    0  0.00000000000E+00  0.00000000000E+00  0.46392026566E+03  0.46392026566E+03  0.00000000000E+00 0. -1.
          1   -1    0    0  501    0 -0.00000000000E+00 -0.00000000000E+00 -0.14457322697E+04  0.14457322697E+04  0.00000000000E+00 0. -1.
         25    2    1    2    0    0 -0.25105620424E+02  0.56807329409E+02 -0.46322163109E+02  0.14706601989E+03  0.12500122624E+03 0.  0.
          2    1    1    2  501    0  0.28761481351E+02 -0.67959059090E+01 -0.13473554613E+04  0.13476795414E+04  0.00000000000E+00 0. -1.
          1    1    1    2  502    0 -0.36558609266E+01 -0.50011423500E+02  0.41186562044E+03  0.41490697403E+03  0.00000000000E+00 0. -1.
         22    1    3    3    0    0  0.14793924565E+02  0.80604643132E+02 -0.70103101521E+00  0.81954012366E+02  0.00000000000E+00 0. -1.
         22    1    3    3    0    0 -0.39899544990E+02 -0.23797313723E+02 -0.45621132094E+02  0.65112007528E+02  0.00000000000E+00 0. -1.
</event>
<event>
 7    1  0.6444902E-006  0.6162560E+02  0.7818608E-02  0.1515028E+00
          2   -1    0    0  502    0  0.00000000000E+00  0.00000000000E+00  0.14255685568E+04  0.14255685568E+04  0.00000000000E+00 0. -1.
          1   -1    0    0  501    0 -0.00000000000E+00 -0.00000000000E+00 -0.21506226629E+02  0.21506226629E+02  0.00000000000E+00 0. -1.
         25    2    1    2    0    0 -0.54099157294E+02 -0.18860155584E+02  0.64198043231E+03  0.65654112714E+03  0.12499980748E+03 0.  0.
          2    1    1    2  501    0  0.46066785369E+02  0.42316452166E+02  0.55821978144E+02  0.83838678914E+02  0.00000000000E+00 0. -1.
          1    1    1    2  502    0  0.80323719250E+01 -0.23456296582E+02  0.70625991971E+03  0.70669497736E+03  0.00000000000E+00 0. -1.
         22    1    3    3    0    0 -0.19083281266E+02  0.45807722030E+01  0.58671900753E+03  0.58704714367E+03  0.00000000000E+00 0. -1.
         22    1    3    3    0    0 -0.35015876028E+02 -0.23440927787E+02  0.55261424783E+02  0.69493983470E+02  0.00000000000E+00 0. -1.
</event>
<event>
 7    1  0.6444902E-006  0.9785899E+02  0.7818608E-02  0.1370976E+00
          2   -1    0    0  502    0  0.00000000000E+00  0.00000000000E+00  0.33946777555E+04  0.33946777555E+04  0.00000000000E+00 0. -1.
          1   -1    0    0  501    0 -0.00000000000E+00 -0.00000000000E+00 -0.12588301604E+03  0.12588301604E+03  0.00000000000E+00 0. -1.
         25    2    1    2    0    0 -0.80929063481E+02 -0.77270704378E+02  0.63273153018E+02  0.17930056587E+03  0.12499970383E+03 0.  0.
          2    1    1    2  501    0  0.90289424488E+02  0.32508417040E+02 -0.33705327058E+02  0.10171050302E+03  0.00000000000E+00 0. -1.
          1    1    1    2  502    0 -0.93603610069E+01  0.44762287338E+02  0.32392269135E+04  0.32395497026E+04  0.00000000000E+00 0. -1.
         22    1    3    3    0    0  0.29807979284E+02  0.39455274193E+01  0.16031052805E+02  0.34074586860E+02  0.00000000000E+00 0. -1.
         22    1    3    3    0    0 -0.11073704277E+03 -0.81216231798E+02  0.47242100214E+02  0.14522597901E+03  0.00000000000E+00 0. -1.
</event>
<event>
 7    1  0.6444902E-006  0.8110459E+02  0.7818608E-02  0.1357865E+00
          2   -1    0    0  502    0  0.00000000000E+00  0.00000000000E+00  0.25510336202E+04  0.25510336202E+04  0.00000000000E+00 0. -1.
          1   -1    0    0  501    0 -0.00000000000E+00 -0.00000000000E+00 -0.88935764679E+02  0.88935764679E+02  0.00000000000E+00 0. -1.
         25    2    1    2    0    0  0.33990715889E+02 -0.16375550975E+02  0.11049507986E+04  0.11126386663E+04  0.12500002812E+03 0.  0.
          2    1    1    2  501    0 -0.77431079573E+02 -0.27241757103E+02 -0.64474216088E+02  0.10437724826E+03  0.00000000000E+00 0. -1.
          1    1    1    2  502    0  0.43440363684E+02  0.43617308078E+02  0.14216212730E+04  0.14229534703E+04  0.00000000000E+00 0. -1.
         22    1    3    3    0    0  0.69007163035E+02  0.12909108936E+02  0.39265451641E+03  0.39888118896E+03  0.00000000000E+00 0.  1.
         22    1    3    3    0    0 -0.35016447145E+02 -0.29284659911E+02  0.71229628219E+03  0.71375747737E+03  0.00000000000E+00 0.  1.
</event>
<event>
 7    1  0.6444902E-006  0.3506778E+02  0.7818608E-02  0.1553692E+00
          2   -1    0    0  502    0  0.00000000000E+00  0.00000000000E+00  0.57818832823E+03  0.57818832823E+03  0.00000000000E+00 0. -1.
          1   -1    0    0  501    0 -0.00000000000E+00 -0.00000000000E+00 -0.21633227918E+02  0.21633227918E+02  0.00000000000E+00 0. -1.
         25    2    1    2    0    0 -0.21277966699E+02 -0.31903329352E+02  0.22982617111E+03  0.26441345848E+03  0.12499533514E+03 0.  0.
          2    1    1    2  501    0 -0.12192826588E+02  0.36681080364E+02  0.12419090980E+03  0.13006747770E+03  0.00000000000E+00 0. -1.
          1    1    1    2  502    0  0.33470793287E+02 -0.47777510119E+01  0.20253801940E+03  0.20534061998E+03  0.00000000000E+00 0. -1.
         22    1    3    3    0    0 -0.41197716608E+02 -0.23598635593E+02  0.16899464783E+02  0.50395826866E+02  0.00000000000E+00 0.  1.
         22    1    3    3    0    0  0.19919749909E+02 -0.83046937587E+01  0.21292670632E+03  0.21401763161E+03  0.00000000000E+00 0.  1.
</event>
<event>
 7    1  0.6444902E-006  0.1024880E+03  0.7818608E-02  0.1462353E+00
          2   -1    0    0  502    0  0.00000000000E+00  0.00000000000E+00  0.73009341441E+03  0.73009341441E+03  0.00000000000E+00 0. -1.
          1   -1    0    0  501    0 -0.00000000000E+00 -0.00000000000E+00 -0.94336190679E+02  0.94336190679E+02  0.00000000000E+00 0. -1.
         25    2    1    2    0    0  0.97907640581E+02 -0.73673159016E+02  0.47285217049E+03  0.50419945905E+03  0.12495710833E+03 0.  0.
          2    1    1    2  501    0 -0.79410706172E+02  0.62646368850E+02 -0.45361981749E+02  0.11085277251E+03  0.00000000000E+00 0. -1.
          1    1    1    2  502    0 -0.18496934408E+02  0.11026790166E+02  0.20826703499E+03  0.20937737353E+03  0.00000000000E+00 0. -1.
         22    1    3    3    0    0  0.33414223008E+02 -0.76453211627E+02  0.39178133016E+03  0.40056736579E+03  0.00000000000E+00 0. -1.
         22    1    3    3    0    0  0.64493417572E+02  0.27800526110E+01  0.81070840328E+02  0.10363209326E+03  0.00000000000E+00 0. -1.
</event>
<event>
 7    1  0.6444902E-006  0.7180772E+02  0.7818608E-02  0.1469204E+00
          2   -1    0    0  502    0  0.00000000000E+00  0.00000000000E+00  0.15418296129E+03  0.15418296129E+03  0.00000000000E+00 0. -1.
          1   -1    0    0  501    0 -0.00000000000E+00 -0.00000000000E+00 -0.24187039280E+03  0.24187039280E+03  0.00000000000E+00 0. -1.
         25    2    1    2    0    0 -0.19354635979E+02  0.51368599232E+02 -0.11641891094E+03  0.17942143922E+03  0.12500142042E+03 0.  0.
          2    1    1    2  501    0  0.15757178464E+02 -0.80401332451E+02 -0.73640663321E+02  0.11016174575E+03  0.00000000000E+00 0. -1.
          1    1    1    2  502    0  0.35974575156E+01  0.29032733219E+02  0.10237214275E+03  0.10647016911E+03  0.00000000000E+00 0. -1.
         22    1    3    3    0    0 -0.20823878078E+01 -0.97696138822E+01  0.23619937305E+02  0.25645333546E+02  0.00000000000E+00 0.  1.
         22    1    3    3    0    0 -0.17272248172E+02  0.61138213114E+02 -0.14003884825E+03  0.15377610568E+03  0.00000000000E+00 0.  1.
</event>
<event>
 7    1  0.6444902E-006  0.1136914E+03  0.7818608E-02  0.1262251E+00
          2   -1    0    0  502    0  0.00000000000E+00  0.00000000000E+00  0.20373616580E+04  0.20373616580E+04  0.00000000000E+00 0. -1.
          1   -1    0    0  501    0 -0.00000000000E+00 -0.00000000000E+00 -0.24861410895E+04  0.24861410895E+04  0.00000000000E+00 0. -1.
         25    2    1    2    0    0 -0.22682723242E+02 -0.79827265130E+02  0.13042149720E+04  0.13128171315E+04  0.12500091740E+03 0.  0.
          2    1    1    2  501    0  0.11121514607E+03  0.23955710543E+02 -0.24767683035E+04  0.24793797438E+04  0.00000000000E+00 0. -1.
          1    1    1    2  502    0 -0.88532422825E+02  0.55871554587E+02  0.72377389996E+03  0.73130587223E+03  0.00000000000E+00 0. -1.
         22    1    3    3    0    0 -0.46832729524E+02 -0.10418973732E+03  0.10744950664E+04  0.10805500700E+04  0.00000000000E+00 0.  1.
         22    1    3    3    0    0  0.24150006281E+02  0.24362472188E+02  0.22971990558E+03  0.23226706153E+03  0.00000000000E+00 0.  1.
</event>
<event>
 7    1  0.6444902E-006  0.4054785E+02  0.7818608E-02  0.1578931E+00
          2   -1    0    0  502    0  0.00000000000E+00  0.00000000000E+00  0.55389080989E+03  0.55389080989E+03  0.00000000000E+00 0. -1.
          1   -1    0    0  501    0 -0.00000000000E+00 -0.00000000000E+00 -0.30351889293E+03  0.30351889293E+03  0.00000000000E+00 0. -1.
         25    2    1    2    0    0  0.56305452528E+02 -0.48634063779E+01  0.17482666610E+03  0.22222157344E+03  0.12499643122E+03 0.  0.
          2    1    1    2  501    0 -0.38459672424E+02 -0.12573985596E+02 -0.27791660700E+03  0.28084674106E+03  0.00000000000E+00 0. -1.
          1    1    1    2  502    0 -0.17845780104E+02  0.17437391974E+02  0.35346185787E+03  0.35434138832E+03  0.00000000000E+00 0. -1.
         22    1    3    3    0    0 -0.17473602776E+02  0.32692509991E+02  0.11002885376E+02  0.38667693106E+02  0.00000000000E+00 0. -1.
         22    1    3    3    0    0  0.73779055304E+02 -0.37555916369E+02  0.16382378072E+03  0.18355388033E+03  0.00000000000E+00 0. -1.
</event>
<event>
 7    1  0.6444902E-006  0.1221648E+03  0.7818608E-02  0.1402187E+00
          2   -1    0    0  502    0  0.00000000000E+00  0.00000000000E+00  0.87721093054E+03  0.87721093054E+03  0.00000000000E+00 0. -1.
          1   -1    0    0  501    0 -0.00000000000E+00 -0.00000000000E+00 -0.67668534686E+03  0.67668534686E+03  0.00000000000E+00 0. -1.
         25    2    1    2    0    0 -0.44345844446E+02 -0.83795915487E+02 -0.11151828658E+03  0.19248390067E+03  0.12500165760E+03 0.  0.
          2    1    1    2  501    0 -0.17256878394E+02 -0.22643257436E+02 -0.51977374992E+03  0.52055284849E+03  0.00000000000E+00 0. -1.
          1    1    1    2  502    0  0.61602722840E+02  0.10643917292E+03  0.83181762018E+03  0.84085952824E+03  0.00000000000E+00 0. -1.
         22    1    3    3    0    0 -0.51933597319E+02 -0.27951637145E+02  0.87903448472E+01  0.59629377928E+02  0.00000000000E+00 0. -1.
         22    1    3    3    0    0  0.75877528723E+01 -0.55844278341E+02 -0.12030863143E+03  0.13285452274E+03  0.00000000000E+00 0. -1.
</event>
<event>
 7    1  0.6444902E-006  0.7938755E+02  0.7818608E-02  0.1345359E+00
          2   -1    0    0  502    0  0.00000000000E+00  0.00000000000E+00  0.22113196725E+04  0.22113196725E+04  0.00000000000E+00 0. -1.
          1   -1    0    0  501    0 -0.00000000000E+00 -0.00000000000E+00 -0.87238741205E+02  0.87238741205E+02  0.00000000000E+00 0. -1.
         25    2    1    2    0    0 -0.64163312171E+02 -0.21166769476E+02  0.86377645121E+03  0.87538605054E+03  0.12500406816E+03 0.  0.
          2    1    1    2  501    0 -0.93116694999E+01  0.69331315622E+02 -0.64682943284E+02  0.95275504022E+02  0.00000000000E+00 0. -1.
          1    1    1    2  502    0  0.73474981670E+02 -0.48164546146E+02  0.13249874234E+04  0.13278968592E+04  0.00000000000E+00 0. -1.
         22    1    3    3    0    0 -0.39218330066E+02  0.43234891023E+02  0.20967642912E+03  0.21765003593E+03  0.00000000000E+00 0.  1.
         22    1    3    3    0    0 -0.24944982104E+02 -0.64401660499E+02  0.65410002209E+03  0.65773601460E+03  0.00000000000E+00 0.  1.
</event>
<event>
 7    1  0.6444902E-006  0.2442396E+02  0.7818608E-02  0.1697263E+00
          2   -1    0    0  502    0  0.00000000000E+00  0.00000000000E+00  0.10923459561E+04  0.10923459561E+04  0.00000000000E+00 0. -1.
          1   -1    0    0  501    0 -0.00000000000E+00 -0.00000000000E+00 -0.44005898260E+03  0.44005898260E+03  0.00000000000E+00 0. -1.
         25    2    1    2    0    0  0.26328507969E+02 -0.16960658679E+02  0.76673414615E+03  0.77748851690E+03  0.12500515492E+03 0.  0.
          2    1    1    2  501    0 -0.63933933277E+01  0.23572853003E+02 -0.43399367639E+03  0.43468041827E+03  0.00000000000E+00 0. -1.
          1    1    1    2  502    0 -0.19935114641E+02 -0.66121943237E+01  0.31954650374E+03  0.32023600353E+03  0.00000000000E+00 0. -1.
         22    1    3    3    0    0 -0.33594860107E+02 -0.45917531832E+02  0.46709247071E+03  0.47054480185E+03  0.00000000000E+00 0.  1.
         22    1    3    3    0    0  0.59923368075E+02  0.28956873153E+02  0.29964167544E+03  0.30694371505E+03  0.00000000000E+00 0.  1.
</event>
<event>
 7    1  0.6444902E-006  0.7413461E+02  0.7818608E-02  0.1388479E+00
          2   -1    0    0  502    0  0.00000000000E+00  0.00000000000E+00  0.26218493715E+04  0.26218493715E+04  0.00000000000E+00 0. -1.
          1   -1    0    0  501    0 -0.00000000000E+00 -0.00000000000E+00 -0.54713967234E+02  0.54713967234E+02  0.00000000000E+00 0. -1.
         25    2    1    2    0    0  0.56755326299E+02  0.38907337054E+02  0.18253885707E+03  0.23167673664E+03  0.12497490957E+03 0.  0.
          2    1    1    2  501    0  0.17182045025E+02 -0.49430947987E+02 -0.64018416007E+01  0.52722147775E+02  0.00000000000E+00 0. -1.
          1    1    1    2  502    0 -0.73937371324E+02  0.10523610934E+02  0.23909983888E+04  0.23921644543E+04  0.00000000000E+00 0. -1.
         22    1    3    3    0    0 -0.11135636459E+02  0.52388547789E+02  0.14129148101E+03  0.15110210106E+03  0.00000000000E+00 0. -1.
         22    1    3    3    0    0  0.67890962758E+02 -0.13481210735E+02  0.41247376055E+02  0.80574635578E+02  0.00000000000E+00 0. -1.
</event>
<event>
 7    1  0.6444902E-006  0.8115076E+02  0.7818608E-02  0.1333192E+00
          2   -1    0    0  502    0  0.00000000000E+00  0.00000000000E+00  0.21298257658E+04  0.21298257658E+04  0.00000000000E+00 0. -1.
          1   -1    0    0  501    0 -0.00000000000E+00 -0.00000000000E+00 -0.35880000820E+02  0.35880000820E+02  0.00000000000E+00 0. -1.
         25    2    1    2    0    0 -0.19619434763E+02  0.14796749252E+02  0.90089476200E+03  0.90985628893E+03  0.12499291300E+03 0.  0.
          2    1    1    2  501    0 -0.31284278397E+02  0.74878165059E+02  0.27407639979E+02  0.85654097430E+02  0.00000000000E+00 0. -1.
          1    1    1    2  502    0  0.50903713160E+02 -0.89674914311E+02  0.11656433630E+04  0.11701953803E+04  0.00000000000E+00 0. -1.
         22    1    3    3    0    0 -0.18774728689E+01  0.20030094718E+01 -0.39152854788E+01  0.47818836977E+01  0.00000000000E+00 0.  1.
         22    1    3    3    0    0 -0.17741961894E+02  0.12793739780E+02  0.90481004748E+03  0.90507440524E+03  0.00000000000E+00 0.  1.
</event>
<event>
 7    1  0.6444902E-006  0.7786797E+02  0.7818608E-02  0.1398187E+00
          2   -1    0    0  502    0  0.00000000000E+00  0.00000000000E+00  0.24029109232E+03  0.24029109232E+03  0.00000000000E+00 0. -1.
          1   -1    0    0  501    0 -0.00000000000E+00 -0.00000000000E+00 -0.16271368387E+04  0.16271368387E+04  0.00000000000E+00 0. -1.
         25    2    1    2    0    0  0.67934785632E+02 -0.12615172108E+02  0.47575402967E+02  0.15054107020E+03  0.12499966873E+03 0.  0.
          2    1    1    2  501    0  0.74638028444E+01  0.45493695323E+02 -0.15633087312E+04  0.15639883547E+04  0.00000000000E+00 0. -1.
          1    1    1    2  502    0 -0.75398588477E+02 -0.32878523215E+02  0.12888758181E+03  0.15289850614E+03  0.00000000000E+00 0. -1.
         22    1    3    3    0    0  0.56051071797E+02  0.18553553676E+01  0.88934652262E+02  0.10514056004E+03  0.00000000000E+00 0.  1.
         22    1    3    3    0    0  0.11883713836E+02 -0.14470527476E+02 -0.41359249295E+02  0.45400510154E+02  0.00000000000E+00 0.  1.
</event>
<event>
 7    1  0.6444902E-006  0.6656883E+02  0.7818608E-02  0.1535743E+00
          2   -1    0    0  502    0  0.00000000000E+00  0.00000000000E+00  0.34183021588E+04  0.34183021588E+04  0.00000000000E+00 0. -1.
          1   -1    0    0  501    0 -0.00000000000E+00 -0.00000000000E+00 -0.23041844401E+03  0.23041844401E+03  0.00000000000E+00 0. -1.
         25    2    1    2    0    0 -0.54973476813E+02  0.32150978109E+02 -0.12311231239E+03  0.18664900769E+03  0.12500176824E+03 0.  0.
          2    1    1    2  501    0 -0.99433140019E+01 -0.17357150628E+02 -0.73880330626E+02  0.76540469196E+02  0.00000000000E+00 0. -1.
          1    1    1    2  502    0  0.64916790815E+02 -0.14793827481E+02  0.33848763578E+04  0.33855311259E+04  0.00000000000E+00 0. -1.
         22    1    3    3    0    0 -0.17000012410E+02 -0.28423337803E+02  0.10809775568E+02  0.34838739955E+02  0.00000000000E+00 0.  1.
         22    1    3    3    0    0 -0.37973464404E+02  0.60574315912E+02 -0.13392208796E+03  0.15181026773E+03  0.00000000000E+00 0.  1.
</event>
<event>
 7    1  0.6444902E-006  0.3067249E+02  0.7818608E-02  0.1602768E+00
          2   -1    0    0  502    0  0.00000000000E+00  0.00000000000E+00  0.80722888133E+03  0.80722888133E+03  0.00000000000E+00 0. -1.
          1   -1    0    0  501    0 -0.00000000000E+00 -0.00000000000E+00 -0.50129501576E+02  0.50129501576E+02  0.00000000000E+00 0. -1.
         25    2    1    2    0    0  0.37035721059E+02  0.40067854650E+02  0.37107678414E+03  0.39534962340E+03  0.12500506944E+03 0.  0.
          2    1    1    2  501    0 -0.10535919109E+02 -0.26511328634E+02 -0.32032971794E+02  0.42894841407E+02  0.00000000000E+00 0. -1.
          1    1    1    2  502    0 -0.26499801950E+02 -0.13556526016E+02  0.41805556740E+03  0.41911391809E+03  0.00000000000E+00 0. -1.
         22    1    3    3    0    0 -0.40964126317E+02 -0.99214012803E+01  0.14571392195E+03  0.15168731291E+03  0.00000000000E+00 0. -1.
         22    1    3    3    0    0  0.77999847376E+02  0.49989255930E+02  0.22536286219E+03  0.24366231049E+03  0.00000000000E+00 0. -1.
</event>
<event>
 7    1  0.6444902E-006  0.2350074E+03  0.7818608E-02  0.1198892E+00
          2   -1    0    0  502    0  0.00000000000E+00  0.00000000000E+00  0.15702281532E+04  0.15702281532E+04  0.00000000000E+00 0. -1.
          1   -1    0    0  501    0 -0.00000000000E+00 -0.00000000000E+00 -0.16169008498E+03  0.16169008498E+03  0.00000000000E+00 0. -1.
         25    2    1    2    0    0  0.17789735067E+03  0.84139350764E+02  0.36454291889E+03  0.43271562658E+03  0.12499750418E+03 0.  0.
          2    1    1    2  501    0  0.60576144861E+00  0.97399166028E+02 -0.92628663543E+02  0.13441366671E+03  0.00000000000E+00 0. -1.
          1    1    1    2  502    0 -0.17850311212E+03 -0.18153851679E+03  0.11366238128E+04  0.11647889448E+04  0.00000000000E+00 0. -1.
         22    1    3    3    0    0 -0.71536876802E+01  0.29192881323E+02  0.15423633946E+02  0.33782955044E+02  0.00000000000E+00 0.  1.
         22    1    3    3    0    0  0.18505103835E+03  0.54946469441E+02  0.34911928495E+03  0.39893267154E+03  0.00000000000E+00 0.  1.
</event>
<event>
 7    1  0.6444902E-006  0.5285671E+02  0.7818608E-02  0.1454990E+00
          2   -1    0    0  502    0  0.00000000000E+00  0.00000000000E+00  0.10383349608E+03  0.10383349608E+03  0.00000000000E+00 0. -1.
          1   -1    0    0  501    0 -0.00000000000E+00 -0.00000000000E+00 -0.60287778842E+03  0.60287778842E+03  0.00000000000E+00 0. -1.
         25    2    1    2    0    0  0.87265096421E+02 -0.18575784672E+02 -0.77939364317E+02  0.17220940584E+03  0.12498511160E+03 0.  0.
          2    1    1    2  501    0 -0.51422762816E+02 -0.70369536963E+01 -0.46758816187E+03  0.47045989030E+03  0.00000000000E+00 0. -1.
          1    1    1    2  502    0 -0.35842333605E+02  0.25612738368E+02  0.46483233847E+02  0.64041988366E+02  0.00000000000E+00 0. -1.
         22    1    3    3    0    0  0.70878473921E+02  0.44895180056E+02 -0.23855723315E+02  0.87226319380E+02  0.00000000000E+00 0.  1.
         22    1    3    3    0    0  0.16386622500E+02 -0.63470964728E+02 -0.54083641002E+02  0.84983086461E+02  0.00000000000E+00 0.  1.
</event>
<event>
 7    1  0.6444902E-006  0.2918858E+03  0.7818608E-02  0.1273835E+00
          2   -1    0    0  502    0  0.00000000000E+00  0.00000000000E+00  0.37702425100E+03  0.37702425100E+03  0.00000000000E+00 0. -1.
          1   -1    0    0  501    0 -0.00000000000E+00 -0.00000000000E+00 -0.28385983476E+03  0.28385983476E+03  0.00000000000E+00 0. -1.
         25    2    1    2    0    0 -0.28758400488E+03  0.39352322630E+02  0.21861741923E+02  0.31679547491E+03  0.12501308733E+03 0.  0.
          2    1    1    2  501    0  0.28475164178E+03 -0.75684908297E+02  0.42604580423E+02  0.29770262531E+03  0.00000000000E+00 0. -1.
          1    1    1    2  502    0  0.28323630981E+01  0.36332585668E+02  0.28698093891E+02  0.46385985545E+02  0.00000000000E+00 0. -1.
         22    1    3    3    0    0 -0.10166903898E+03 -0.41818179089E+02 -0.13888897922E+02  0.11080728800E+03  0.00000000000E+00 0.  1.
         22    1    3    3    0    0 -0.18591496590E+03  0.81170501718E+02  0.35750639844E+02  0.20598818691E+03  0.00000000000E+00 0.  1.
</event>
<event>
 7    1  0.6444902E-006  0.6314023E+02  0.7818608E-02  0.1509624E+00
          2   -1    0    0  502    0  0.00000000000E+00  0.00000000000E+00  0.35896720271E+03  0.35896720271E+03  0.00000000000E+00 0. -1.
          1   -1    0    0  501    0 -0.00000000000E+00 -0.00000000000E+00 -0.37061522237E+03  0.37061522237E+03  0.00000000000E+00 0. -1.
         25    2    1    2    0    0 -0.39976503711E+02 -0.31940377931E+02  0.11541020290E+03  0.17766194494E+03  0.12500377256E+03 0.  0.
          2    1    1    2  501    0  0.60850678401E+02  0.18004430952E+02 -0.33576544462E+03  0.34170952342E+03  0.00000000000E+00 0. -1.
          1    1    1    2  502    0 -0.20874174690E+02  0.13935946979E+02  0.20870722205E+03  0.21021095672E+03  0.00000000000E+00 0. -1.
         22    1    3    3    0    0 -0.36663403257E+02  0.33785602753E+02  0.97422276743E+02  0.10943843976E+03  0.00000000000E+00 0.  1.
         22    1    3    3    0    0 -0.33131004531E+01 -0.65725980684E+02  0.17987926161E+02  0.68223505180E+02  0.00000000000E+00 0.  1.
</event>
<event>
 7    1  0.6444902E-006  0.1048283E+03  0.7818608E-02  0.1348908E+00
          2   -1    0    0  502    0  0.00000000000E+00  0.00000000000E+00  0.30435665146E+03  0.30435665146E+03  0.00000000000E+00 0. -1.
          1   -1    0    0  501    0 -0.00000000000E+00 -0.00000000000E+00 -0.15857601128E+04  0.15857601128E+04  0.00000000000E+00 0. -1.
         25    2    1    2    0    0  0.95568623699E+01 -0.66003217936E+02 -0.88540498255E+01  0.14195412724E+03  0.12499928658E+03 0.  0.
          2    1    1    2  501    0 -0.54468742935E+02  0.90980109173E+02 -0.15056931068E+04  0.15094223916E+04  0.00000000000E+00 0. -1.
          1    1    1    2  502    0  0.44911880566E+02 -0.24976891237E+02  0.23314369533E+03  0.23874024543E+03  0.00000000000E+00 0. -1.
         22    1    3    3    0    0 -0.22847351267E+02 -0.59545445084E+02 -0.55666981114E+02  0.84655031017E+02  0.00000000000E+00 0.  1.
         22    1    3    3    0    0  0.32404213637E+02 -0.64577728518E+01  0.46812931289E+02  0.57299096219E+02  0.00000000000E+00 0.  1.
</event>
<event>
 7    1  0.6444902E-006  0.8046663E+02  0.7818608E-02  0.1469914E+00
          2   -1    0    0  502    0  0.00000000000E+00  0.00000000000E+00  0.19384580799E+04  0.19384580799E+04  0.00000000000E+00 0. -1.
          1   -1    0    0  501    0 -0.00000000000E+00 -0.00000000000E+00 -0.31890417040E+03  0.31890417040E+03  0.00000000000E+00 0. -1.
         25    2    1    2    0    0  0.53255870784E+02  0.18216747391E+02  0.31645733430E+03  0.34488209518E+03  0.12502150810E+03 0.  0.
          2    1    1    2  501    0  0.24703763538E+02  0.80239312365E+01 -0.30308383917E+03  0.30419479445E+03  0.00000000000E+00 0. -1.
          1    1    1    2  502    0 -0.77959634322E+02 -0.26240678627E+02  0.16061804143E+04  0.16082853606E+04  0.00000000000E+00 0. -1.
         22    1    3    3    0    0  0.13422394460E+02 -0.19089613498E+02  0.27590399571E+03  0.27688912739E+03  0.00000000000E+00 0.  1.
         22    1    3    3    0    0  0.39833476324E+02  0.37306360889E+02  0.40553338585E+02  0.67992967793E+02  0.00000000000E+00 0.  1.
</event>
<event>
 7    1  0.6444902E-006  0.2162548E+02  0.7818608E-02  0.1715464E+00
          2   -1    0    0  502    0  0.00000000000E+00  0.00000000000E+00  0.36674332038E+03  0.36674332038E+03  0.00000000000E+00 0. -1.
          1   -1    0    0  501    0 -0.00000000000E+00 -0.00000000000E+00 -0.10436349522E+03  0.10436349522E+03  0.00000000000E+00 0. -1.
         25    2    1    2    0    0 -0.27415527384E+02  0.58121887368E+01  0.27840989690E+02  0.13109202927E+03  0.12499842700E+03 0.  0.
          2    1    1    2  501    0  0.17136140251E+02  0.13213988444E+02 -0.50090671495E+02  0.54564935298E+02  0.00000000000E+00 0. -1.
          1    1    1    2  502    0  0.10279387133E+02 -0.19026177180E+02  0.28462950697E+03  0.28544985103E+03  0.00000000000E+00 0. -1.
         22    1    3    3    0    0 -0.54728606771E+02 -0.19842065814E+02 -0.27400400687E+02  0.64340577653E+02  0.00000000000E+00 0. -1.
         22    1    3    3    0    0  0.27313079387E+02  0.25654254551E+02  0.55241390377E+02  0.66751451617E+02  0.00000000000E+00 0. -1.
</event>
<event>
 7    1  0.6444902E-006  0.1758740E+03  0.7818608E-02  0.1380043E+00
          2   -1    0    0  502    0  0.00000000000E+00  0.00000000000E+00  0.16865737907E+04  0.16865737907E+04  0.00000000000E+00 0. -1.
          1   -1    0    0  501    0 -0.00000000000E+00 -0.00000000000E+00 -0.43630246176E+02  0.43630246176E+02  0.00000000000E+00 0. -1.
         25    2    1    2    0    0 -0.12372911164E+03  0.11228068829E+03  0.50771158096E+03  0.54891896651E+03  0.12500054530E+03 0.  0.
          2    1    1    2  501    0  0.12161958182E+03 -0.13580624915E+03  0.34075018899E+03  0.38645226263E+03  0.00000000000E+00 0. -1.
          1    1    1    2  502    0  0.21095298211E+01  0.23525560865E+02  0.79448177454E+03  0.79483280771E+03  0.00000000000E+00 0. -1.
         22    1    3    3    0    0 -0.20403400591E+02 -0.26003243808E+02  0.12090288862E+03  0.12533944280E+03  0.00000000000E+00 0. -1.
         22    1    3    3    0    0 -0.10332571105E+03  0.13828393210E+03  0.38680869235E+03  0.42357952372E+03  0.00000000000E+00 0. -1.
</event>
<event>
 7    1  0.6444902E-006  0.1075399E+03  0.7818608E-02  0.1321291E+00
          2   -1    0    0  502    0  0.00000000000E+00  0.00000000000E+00  0.87351222509E+03  0.87351222509E+03  0.00000000000E+00 0. -1.
          1   -1    0    0  501    0 -0.00000000000E+00 -0.00000000000E+00 -0.17793473452E+03  0.17793473452E+03  0.00000000000E+00 0. -1.
         25    2    1    2    0    0  0.16394546415E+03  0.21890826003E+01  0.24435162243E+03  0.31971200165E+03  0.12500056526E+03 0.  0.
          2    1    1    2  501    0 -0.63123185357E+02 -0.89159326296E+01 -0.12840664853E+03  0.14336072604E+03  0.00000000000E+00 0. -1.
          1    1    1    2  502    0 -0.10082227880E+03  0.67268500293E+01  0.57963251667E+03  0.58837423192E+03  0.00000000000E+00 0. -1.
         22    1    3    3    0    0  0.13074696182E+03  0.34440505764E+02  0.23698839691E+03  0.27284504161E+03  0.00000000000E+00 0.  1.
         22    1    3    3    0    0  0.33198502330E+02 -0.32251423164E+02  0.73632255235E+01  0.46866960037E+02  0.00000000000E+00 0.  1.
</event>
<event>
 7    1  0.6444902E-006  0.8963634E+02  0.7818608E-02  0.1313051E+00
          2   -1    0    0  502    0  0.00000000000E+00  0.00000000000E+00  0.40388820489E+03  0.40388820489E+03  0.00000000000E+00 0. -1.
          1   -1    0    0  501    0 -0.00000000000E+00 -0.00000000000E+00 -0.15002406648E+03  0.15002406648E+03  0.00000000000E+00 0. -1.
         25    2    1    2    0    0 -0.11837211639E+02 -0.41531578301E+02  0.10844677551E+03  0.17102660097E+03  0.12499761415E+03 0.  0.
          2    1    1    2  501    0  0.91727500391E+02  0.88413266060E+00 -0.91508528920E+02  0.12957054790E+03  0.00000000000E+00 0. -1.
          1    1    1    2  502    0 -0.79890288752E+02  0.40647445640E+02  0.23692589182E+03  0.25331512250E+03  0.00000000000E+00 0. -1.
         22    1    3    3    0    0  0.90128114689E+01 -0.83907584857E+02  0.77386526529E+02  0.11450060286E+03  0.00000000000E+00 0.  1.
         22    1    3    3    0    0 -0.20850023108E+02  0.42376006556E+02  0.31060248984E+02  0.56525998108E+02  0.00000000000E+00 0.  1.
</event>
<event>
 7    1  0.6444902E-006  0.3934028E+02  0.7818608E-02  0.1537801E+00
          2   -1    0    0  502    0  0.00000000000E+00  0.00000000000E+00  0.21276338025E+02  0.21276338025E+02  0.00000000000E+00 0. -1.
          1   -1    0    0  501    0 -0.00000000000E+00 -0.00000000000E+00 -0.12669327316E+04  0.12669327316E+04  0.00000000000E+00 0. -1.
         25    2    1    2    0    0  0.10729791273E+02  0.27603604935E+02 -0.58623696923E+03  0.60014719415E+03  0.12500313245E+03 0.  0.
          2    1    1    2  501    0  0.21820021013E+02 -0.35074358522E+02 -0.65268829681E+03  0.65399414121E+03  0.00000000000E+00 0. -1.
          1    1    1    2  502    0 -0.32549812286E+02  0.74707535868E+01 -0.67311275087E+01  0.34067734244E+02  0.00000000000E+00 0. -1.
         22    1    3    3    0    0 -0.11401639723E+02  0.72259990640E+02 -0.25885895269E+03  0.26899713943E+03  0.00000000000E+00 0. -1.
         22    1    3    3    0    0  0.22131430997E+02 -0.44656385705E+02 -0.32737801655E+03  0.33115005472E+03  0.00000000000E+00 0. -1.
</event>
<event>
 7    1  0.6444902E-006  0.9793265E+02  0.7818608E-02  0.1362139E+00
          2   -1    0    0  502    0  0.00000000000E+00  0.00000000000E+00  0.69136530134E+03  0.69136530134E+03  0.00000000000E+00 0. -1.
          1   -1    0    0  501    0 -0.00000000000E+00 -0.00000000000E+00 -0.15112512510E+03  0.15112512510E+03  0.00000000000E+00 0. -1.
         25    2    1    2    0    0 -0.68096984318E+02 -0.74321670061E+02  0.85488561445E+02  0.18191695863E+03  0.12499830313E+03 0.  0.
          2    1    1    2  501    0  0.24107449235E+02  0.96318789650E+02 -0.77561471354E+02  0.12599309579E+03  0.00000000000E+00 0. -1.
          1    1    1    2  502    0  0.43989535082E+02 -0.21997119589E+02  0.53231308615E+03  0.53458037203E+03  0.00000000000E+00 0. -1.
         22    1    3    3    0    0 -0.44586402291E+02 -0.10900859165E+03  0.71304125095E+02  0.13767751660E+03  0.00000000000E+00 0.  1.
         22    1    3    3    0    0 -0.23510582027E+02  0.34686921584E+02  0.14184436350E+02  0.44239442026E+02  0.00000000000E+00 0.  1.
</event>
<event>
 7    1  0.6444902E-006  0.1371762E+03  0.7818608E-02  0.1294918E+00
          2   -1    0    0  502    0  0.00000000000E+00  0.00000000000E+00  0.14826288955E+04  0.14826288955E+04  0.00000000000E+00 0. -1.
          1   -1    0    0  501    0 -0.00000000000E+00 -0.00000000000E+00 -0.71183174303E+03  0.71183174303E+03  0.00000000000E+00 0. -1.
         25    2    1    2    0    0 -0.68773392841E+02 -0.69413207000E+02 -0.59522442772E+02  0.16945632048E+03  0.12499820194E+03 0.  0.
          2    1    1    2  501    0  0.13153427398E+03  0.59517677338E+02 -0.58789723110E+03  0.60536499195E+03  0.00000000000E+00 0. -1.
          1    1    1    2  502    0 -0.62760881142E+02  0.98955296619E+01  0.14182168263E+04  0.14196393261E+04  0.00000000000E+00 0. -1.
         22    1    3    3    0    0 -0.71386230878E+02 -0.29266873614E+02 -0.90322743141E+02  0.11878864331E+03  0.00000000000E+00 0. -1.
         22    1    3    3    0    0  0.26128380375E+01 -0.40146333386E+02  0.30800300369E+02  0.50667677170E+02  0.00000000000E+00 0. -1.
</event>
<event>
 7    1  0.6444902E-006  0.1237546E+03  0.7818608E-02  0.1264628E+00
          2   -1    0    0  502    0  0.00000000000E+00  0.00000000000E+00  0.34399431500E+03  0.34399431500E+03  0.00000000000E+00 0. -1.
          1   -1    0    0  501    0 -0.00000000000E+00 -0.00000000000E+00 -0.10314525466E+04  0.10314525466E+04  0.00000000000E+00 0. -1.
         25    2    1    2    0    0 -0.13007141352E+02  0.61507744290E+01  0.47491132856E+02  0.13449005089E+03  0.12500059334E+03 0.  0.
          2    1    1    2  501    0 -0.74186869940E+02 -0.99053052711E+02 -0.96771792285E+03  0.97559888127E+03  0.00000000000E+00 0. -1.
          1    1    1    2  502    0  0.87194011292E+02  0.92902278282E+02  0.23276855842E+03  0.26535792942E+03  0.00000000000E+00 0. -1.
         22    1    3    3    0    0 -0.55548996289E+02  0.22403226103E+02  0.62473800627E+02  0.86548086596E+02  0.00000000000E+00 0.  1.
         22    1    3    3    0    0  0.42541854937E+02 -0.16252451674E+02 -0.14982667771E+02  0.47941964295E+02  0.00000000000E+00 0.  1.
</event>
<event>
 7    1  0.6444902E-006  0.1343118E+03  0.7818608E-02  0.1415972E+00
          2   -1    0    0  502    0  0.00000000000E+00  0.00000000000E+00  0.19538912473E+03  0.19538912473E+03  0.00000000000E+00 0. -1.
          1   -1    0    0  501    0 -0.00000000000E+00 -0.00000000000E+00 -0.25981684737E+04  0.25981684737E+04  0.00000000000E+00 0. -1.
         25    2    1    2    0    0 -0.11591321386E+03 -0.30503551861E+02 -0.66906303942E+03  0.69111269626E+03  0.12500027355E+03 0.  0.
          2    1    1    2  501    0  0.12821527682E+03  0.50232902900E+02 -0.19148650938E+04  0.19198101024E+04  0.00000000000E+00 0. -1.
          1    1    1    2  502    0 -0.12302062959E+02 -0.19729351039E+02  0.18114878427E+03  0.18263479977E+03  0.00000000000E+00 0. -1.
         22    1    3    3    0    0 -0.80687476066E+01  0.41341165144E+02 -0.20585805589E+03  0.21012314436E+03  0.00000000000E+00 0.  1.
         22    1    3    3    0    0 -0.10784446625E+03 -0.71844717004E+02 -0.46320498353E+03  0.48098955189E+03  0.00000000000E+00 0.  1.
</event>
<event>
 7    1  0.6444902E-006  0.1050427E+03  0.7818608E-02  0.1358291E+00
          2   -1    0    0  502    0  0.00000000000E+00  0.00000000000E+00  0.18189815416E+04  0.18189815416E+04  0.00000000000E+00 0. -1.
          1   -1    0    0  501    0 -0.00000000000E+00 -0.00000000000E+00 -0.10189222734E+03  0.10189222734E+03  0.00000000000E+00 0. -1.
         25    2    1    2    0    0 -0.73382124074E+02  0.37901012375E+02  0.34241719303E+03  0.37375912907E+03  0.12499971843E+03 0.  0.
          2    1    1    2  501    0 -0.35243986525E+02 -0.31636136159E+02 -0.77525217235E+02  0.90846810646E+02  0.00000000000E+00 0. -1.
          1    1    1    2  502    0  0.10862611060E+03 -0.62648762164E+01  0.14521973385E+04  0.14562678292E+04  0.00000000000E+00 0. -1.
         22    1    3    3    0    0  0.92109444966E+01  0.23115669371E+02  0.24033208065E+03  0.24161681369E+03  0.00000000000E+00 0.  1.
         22    1    3    3    0    0 -0.82593068571E+02  0.14785343004E+02  0.10208511238E+03  0.13214231538E+03  0.00000000000E+00 0.  1.
</event>
<event>
 7    1  0.6444902E-006  0.1717082E+03  0.7818608E-02  0.1244313E+00
          2   -1    0    0  502    0  0.00000000000E+00  0.00000000000E+00  0.29016653727E+04  0.29016653727E+04  0.00000000000E+00 0. -1.
          1   -1    0    0  501    0 -0.00000000000E+00 -0.00000000000E+00 -0.15800366668E+04  0.15800366668E+04  0.00000000000E+00 0. -1.
         25    2    1    2    0    0  0.12427752945E+03  0.86159666236E+02 -0.57181056367E+03  0.60453318984E+03  0.12499865793E+03 0.  0.
          2    1    1    2  501    0 -0.94137785506E+02 -0.16332239201E+03 -0.98230604278E+03  0.10002306174E+04  0.00000000000E+00 0. -1.
          1    1    1    2  502    0 -0.30139743945E+02  0.77162725778E+02  0.28757453123E+04  0.28769382322E+04  0.00000000000E+00 0. -1.
         22    1    3    3    0    0  0.93452578867E+02  0.38981369364E+02 -0.51369765470E+03  0.52358209681E+03  0.00000000000E+00 0.  1.
         22    1    3    3    0    0  0.30824950584E+02  0.47178296872E+02 -0.58112908969E+02  0.80951093032E+02  0.00000000000E+00 0.  1.
</event>
<event>
 7    1  0.6444902E-006  0.1289549E+03  0.7818608E-02  0.1352477E+00
          2   -1    0    0  502    0  0.00000000000E+00  0.00000000000E+00  0.10726730130E+04  0.10726730130E+04  0.00000000000E+00 0. -1.
          1   -1    0    0  501    0 -0.00000000000E+00 -0.00000000000E+00 -0.64253555447E+03  0.64253555447E+03  0.00000000000E+00 0. -1.
         25    2    1    2    0    0  0.79120475560E+02 -0.13370874467E+03  0.60111163070E+03  0.63332244401E+03  0.12499618983E+03 0.  0.
          2    1    1    2  501    0 -0.87789957730E+02  0.94123174642E+02 -0.61889442007E+03  0.63213649782E+03  0.00000000000E+00 0. -1.
          1    1    1    2  502    0  0.86694821702E+01  0.39585570027E+02  0.44792024794E+03  0.44974962567E+03  0.00000000000E+00 0. -1.
         22    1    3    3    0    0  0.10910515454E+03 -0.12030541103E+03  0.54063276787E+03  0.56450076737E+03  0.00000000000E+00 0.  1.
         22    1    3    3    0    0 -0.29984678979E+02 -0.13403333639E+02  0.60478862831E+02  0.68821676639E+02  0.00000000000E+00 0.  1.
</event>
<event>
 7    1  0.6444902E-006  0.5260657E+02  0.7818608E-02  0.1537835E+00
          2   -1    0    0  502    0  0.00000000000E+00  0.00000000000E+00  0.32431475294E+03  0.32431475294E+03  0.00000000000E+00 0. -1.
          1   -1    0    0  501    0 -0.00000000000E+00 -0.00000000000E+00 -0.75810640291E+03  0.75810640291E+03  0.00000000000E+00 0. -1.
         25    2    1    2    0    0  0.54312344693E+02  0.29942082351E+02 -0.19542007439E+02  0.14094489178E+03  0.12504884398E+03 0.  0.
          2    1    1    2  501    0 -0.22158690140E+02  0.11508210915E+02 -0.67501997724E+03  0.67548161792E+03  0.00000000000E+00 0. -1.
          1    1    1    2  502    0 -0.32153654553E+02 -0.41450293266E+02  0.26077033472E+03  0.26599464615E+03  0.00000000000E+00 0. -1.
         22    1    3    3    0    0  0.91823176704E+02  0.37522770042E+02 -0.29613759392E+01  0.99238217432E+02  0.00000000000E+00 0.  1.
         22    1    3    3    0    0 -0.37510832011E+02 -0.75806876908E+01 -0.16580631500E+02  0.41706674346E+02  0.00000000000E+00 0.  1.
</event>
<event>
 7    1  0.6444902E-006  0.1469816E+03  0.7818608E-02  0.1282222E+00
          2   -1    0    0  502    0  0.00000000000E+00  0.00000000000E+00  0.26986698202E+04  0.26986698202E+04  0.00000000000E+00 0. -1.
          1   -1    0    0  501    0 -0.00000000000E+00 -0.00000000000E+00 -0.73255195072E+03  0.73255195072E+03  0.00000000000E+00 0. -1.
         25    2    1    2    0    0  0.19753357459E+02  0.20569341962E+03  0.32675253503E+02  0.24370152398E+03  0.12499113006E+03 0.  0.
          2    1    1    2  501    0  0.45126672090E+01 -0.14345397431E+03 -0.61838299408E+03  0.63482039529E+03  0.00000000000E+00 0. -1.
          1    1    1    2  502    0 -0.24266024668E+02 -0.62239445306E+02  0.25518256100E+04  0.25526998516E+04  0.00000000000E+00 0. -1.
         22    1    3    3    0    0  0.40128451978E+02  0.34126822044E+02  0.46650804846E+02  0.70364978744E+02  0.00000000000E+00 0. -1.
         22    1    3    3    0    0 -0.20375094519E+02  0.17156659757E+03 -0.13975551342E+02  0.17333654524E+03  0.00000000000E+00 0. -1.
</event>
<event>
 7    1  0.6444902E-006  0.7591237E+02  0.7818608E-02  0.1456442E+00
          2   -1    0    0  502    0  0.00000000000E+00  0.00000000000E+00  0.79485492775E+03  0.79485492775E+03  0.00000000000E+00 0. -1.
          1   -1    0    0  501    0 -0.00000000000E+00 -0.00000000000E+00 -0.26205960732E+03  0.26205960732E+03  0.00000000000E+00 0. -1.
         25    2    1    2    0    0  0.57751379346E+01 -0.68375232822E+02  0.15462752941E+03  0.21034139530E+03  0.12500122017E+03 0.  0.
          2    1    1    2  501    0 -0.36104834675E+02  0.67272218589E+02 -0.22759036362E+03  0.24005516885E+03  0.00000000000E+00 0. -1.
          1    1    1    2  502    0  0.30329696740E+02  0.11030142336E+01  0.60575815463E+03  0.60651797092E+03  0.00000000000E+00 0. -1.
         22    1    3    3    0    0 -0.59567358200E+01 -0.70468677014E+02  0.17706770785E+02  0.72902996327E+02  0.00000000000E+00 0. -1.
         22    1    3    3    0    0  0.11731873755E+02  0.20934441919E+01  0.13692075863E+03  0.13743839898E+03  0.00000000000E+00 0. -1.
</event>
<event>
 7    1  0.6444902E-006  0.1164577E+03  0.7818608E-02  0.1446402E+00
          2   -1    0    0  502    0  0.00000000000E+00  0.00000000000E+00  0.13262376643E+04  0.13262376643E+04  0.00000000000E+00 0. -1.
          1   -1    0    0  501    0 -0.00000000000E+00 -0.00000000000E+00 -0.20147485010E+03  0.20147485010E+03  0.00000000000E+00 0. -1.
         25    2    1    2    0    0  0.86869637781E+02  0.49854018198E+02  0.11070268686E+03  0.19470689430E+03  0.12499573078E+03 0.  0.
          2    1    1    2  501    0 -0.10816218430E+03 -0.49329460737E+02 -0.13720558404E+03  0.18154290430E+03  0.00000000000E+00 0. -1.
          1    1    1    2  502    0  0.21292546521E+02 -0.52455746051E+00  0.11512657114E+04  0.11514627158E+04  0.00000000000E+00 0. -1.
         22    1    3    3    0    0  0.35096425638E+02 -0.34731026547E+02  0.74000765517E+02  0.88961320778E+02  0.00000000000E+00 0.  1.
         22    1    3    3    0    0  0.51773212143E+02  0.84585044745E+02  0.36701921339E+02  0.10574557352E+03  0.00000000000E+00 0.  1.
</event>
<event>
 7    1  0.6444902E-006  0.2661090E+03  0.7818608E-02  0.1319126E+00
          2   -1    0    0  502    0  0.00000000000E+00  0.00000000000E+00  0.21038590381E+04  0.21038590381E+04  0.00000000000E+00 0. -1.
          1   -1    0    0  501    0 -0.00000000000E+00 -0.00000000000E+00 -0.17426732582E+03  0.17426732582E+03  0.00000000000E+00 0. -1.
         25    2    1    2    0    0 -0.21737668945E+03 -0.15438141967E+03  0.46662408013E+03  0.55176888935E+03  0.12499850894E+03 0.  0.
          2    1    1    2  501    0 -0.13816609028E+02  0.22337991780E+02 -0.11914152287E+03  0.12200240586E+03  0.00000000000E+00 0. -1.
          1    1    1    2  502    0  0.23119329848E+03  0.13204342789E+03  0.15821091550E+04  0.16043550687E+04  0.00000000000E+00 0. -1.
         22    1    3    3    0    0 -0.15320248783E+03 -0.16718062139E+03  0.33155379956E+03  0.40168181991E+03  0.00000000000E+00 0. -1.
         22    1    3    3    0    0 -0.64174201626E+02  0.12799201715E+02  0.13507028057E+03  0.15008706943E+03  0.00000000000E+00 0. -1.
</event>
<event>
 7    1  0.6444902E-006  0.2087668E+03  0.7818608E-02  0.1232939E+00
          2   -1    0    0  502    0  0.00000000000E+00  0.00000000000E+00  0.83870031016E+03  0.83870031016E+03  0.00000000000E+00 0. -1.
          1   -1    0    0  501    0 -0.00000000000E+00 -0.00000000000E+00 -0.17268850910E+03  0.17268850910E+03  0.00000000000E+00 0. -1.
         25    2    1    2    0    0  0.62618976195E+02 -0.19120856517E+03  0.16702125147E+03  0.28983517106E+03  0.12500590532E+03 0.  0.
          2    1    1    2  501    0  0.72405200557E+02  0.24686103670E+02 -0.76038639224E+02  0.10786005487E+03  0.00000000000E+00 0. -1.
          1    1    1    2  502    0 -0.13502417675E+03  0.16652246150E+03  0.57502918881E+03  0.61369359332E+03  0.00000000000E+00 0. -1.
         22    1    3    3    0    0  0.72191215118E+02 -0.13736354688E+03  0.54049023924E+02  0.16432167398E+03  0.00000000000E+00 0. -1.
         22    1    3    3    0    0 -0.95722389235E+01 -0.53845018291E+02  0.11297222755E+03  0.12551349708E+03  0.00000000000E+00 0. -1.
</event>
<event>
 7    1  0.6444902E-006  0.1331942E+03  0.7818608E-02  0.1235685E+00
          2   -1    0    0  502    0  0.00000000000E+00  0.00000000000E+00  0.21452074453E+04  0.21452074453E+04  0.00000000000E+00 0. -1.
          1   -1    0    0  501    0 -0.00000000000E+00 -0.00000000000E+00 -0.26194074870E+04  0.26194074870E+04  0.00000000000E+00 0. -1.
         25    2    1    2    0    0 -0.12990077998E+03  0.13592216522E+03  0.65521705827E+02  0.23507730824E+03  0.12497679496E+03 0.  0.
          2    1    1    2  501    0  0.13382557849E+02 -0.13233700164E+03 -0.25311789696E+04  0.25346714088E+04  0.00000000000E+00 0. -1.
          1    1    1    2  502    0  0.11651822213E+03 -0.35851635788E+01  0.19914572220E+04  0.19948662152E+04  0.00000000000E+00 0. -1.
         22    1    3    3    0    0 -0.11468717588E+02  0.49832747141E+02 -0.30916582378E+02  0.59755077078E+02  0.00000000000E+00 0. -1.
         22    1    3    3    0    0 -0.11843206239E+03  0.86089418075E+02  0.96438288205E+02  0.17532223116E+03  0.00000000000E+00 0. -1.
</event>
<event>
 7    1  0.6444902E-006  0.5854099E+02  0.7818608E-02  0.1446157E+00
          2   -1    0    0  502    0  0.00000000000E+00  0.00000000000E+00  0.75323897806E+03  0.75323897806E+03  0.00000000000E+00 0. -1.
          1   -1    0    0  501    0 -0.00000000000E+00 -0.00000000000E+00 -0.30686855661E+03  0.30686855661E+03  0.00000000000E+00 0. -1.
         25    2    1    2    0    0  0.30118561376E+02 -0.50249357549E+02 -0.71140874686E+02  0.15530665772E+03  0.12500803258E+03 0.  0.
          2    1    1    2  501    0  0.26130587249E+02  0.33451642965E+02 -0.19008845082E+03  0.19477022140E+03  0.00000000000E+00 0. -1.
          1    1    1    2  502    0 -0.56249148625E+02  0.16797714584E+02  0.70759974696E+03  0.71003065556E+03  0.00000000000E+00 0. -1.
         22    1    3    3    0    0  0.77854887214E+02 -0.42370582011E+02 -0.36786626266E+02  0.95968252850E+02  0.00000000000E+00 0.  1.
         22    1    3    3    0    0 -0.47736325838E+02 -0.78787755378E+01 -0.34354248420E+02  0.59338404874E+02  0.00000000000E+00 0.  1.
</event>
<event>
 7    1  0.6444902E-006  0.1228652E+03  0.7818608E-02  0.1343531E+00
          2   -1    0    0  502    0  0.00000000000E+00  0.00000000000E+00  0.10214182220E+04  0.10214182220E+04  0.00000000000E+00 0. -1.
          1   -1    0    0  501    0 -0.00000000000E+00 -0.00000000000E+00 -0.16495315837E+04  0.16495315837E+04  0.00000000000E+00 0. -1.
         25    2    1    2    0    0  0.91954844935E+02 -0.12274513328E+03  0.35388734587E+03  0.40544666098E+03  0.12501471945E+03 0.  0.
          2    1    1    2  501    0 -0.95564795686E+02  0.76971106194E+02 -0.16206081948E+04  0.16252470896E+04  0.00000000000E+00 0. -1.
          1    1    1    2  502    0  0.36099507506E+01  0.45774027090E+02  0.63860748726E+03  0.64025605510E+03  0.00000000000E+00 0. -1.
         22    1    3    3    0    0  0.85884921213E+02 -0.12826685817E+03  0.20644106642E+03  0.25777222601E+03  0.00000000000E+00 0.  1.
         22    1    3    3    0    0  0.60699237215E+01  0.55217248865E+01  0.14744627945E+03  0.14767443497E+03  0.00000000000E+00 0.  1.
</event>
<event>
 7    1  0.6444902E-006  0.1130453E+03  0.7818608E-02  0.1420325E+00
          2   -1    0    0  502    0  0.00000000000E+00  0.00000000000E+00  0.96227523350E+03  0.96227523350E+03  0.00000000000E+00 0. -1.
          1   -1    0    0  501    0 -0.00000000000E+00 -0.00000000000E+00 -0.57133223927E+02  0.57133223927E+02  0.00000000000E+00 0. -1.
         25    2    1    2    0    0  0.27356769781E+01  0.13437270189E+03  0.30416129379E+03  0.35524922126E+03  0.12499763847E+03 0.  0.
          2    1    1    2  501    0 -0.82912388821E+01 -0.25393303194E+02 -0.20185207350E+02  0.33481443892E+02  0.00000000000E+00 0. -1.
          1    1    1    2  502    0  0.55555619040E+01 -0.10897939870E+03  0.62116592313E+03  0.63067779228E+03  0.00000000000E+00 0. -1.
         22    1    3    3    0    0  0.55802443464E+02  0.72502842027E+02  0.21911697167E+03  0.23745067293E+03  0.00000000000E+00 0. -1.
         22    1    3    3    0    0 -0.53066766486E+02  0.61869859866E+02  0.85044322123E+02  0.11779854834E+03  0.00000000000E+00 0. -1.
</event>
<event>
 7    1  0.6444902E-006  0.8042008E+02  0.7818608E-02  0.1403564E+00
          2   -1    0    0  502    0  0.00000000000E+00  0.00000000000E+00  0.47561779570E+03  0.47561779570E+03  0.00000000000E+00 0. -1.
          1   -1    0    0  501    0 -0.00000000000E+00 -0.00000000000E+00 -0.18513466844E+03  0.18513466844E+03  0.00000000000E+00 0. -1.
         25    2    1    2    0    0 -0.88517311824E+01 -0.55838604179E+02  0.21355145756E+02  0.13884800570E+03  0.12500569418E+03 0.  0.
          2    1    1    2  501    0  0.49127496587E+02  0.70261941362E+02 -0.11050826387E+03  0.13986539139E+03  0.00000000000E+00 0. -1.
          1    1    1    2  502    0 -0.40275765405E+02 -0.14423337183E+02  0.37963624538E+03  0.38203906704E+03  0.00000000000E+00 0. -1.
         22    1    3    3    0    0 -0.64158250238E+02 -0.45915719942E+02  0.24380772923E+02  0.82576973181E+02  0.00000000000E+00 0. -1.
         22    1    3    3    0    0  0.55306519055E+02 -0.99228842370E+01 -0.30256271677E+01  0.56271032524E+02  0.00000000000E+00 0. -1.
</event>
<event>
 7    1  0.6444902E-006  0.1189744E+03  0.7818608E-02  0.1367502E+00
          2   -1    0    0  502    0  0.00000000000E+00  0.00000000000E+00  0.20439899686E+04  0.20439899686E+04  0.00000000000E+00 0. -1.
          1   -1    0    0  501    0 -0.00000000000E+00 -0.00000000000E+00 -0.18335227957E+03  0.18335227957E+03  0.00000000000E+00 0. -1.
         25    2    1    2    0    0  0.14185760230E+01  0.15672770244E+03  0.14987068902E+04  0.15120550548E+04  0.12499024399E+03 0.  0.
          2    1    1    2  501    0 -0.62162639877E+01 -0.11831294194E+03 -0.15601245766E+03  0.19589916057E+03  0.00000000000E+00 0. -1.
          1    1    1    2  502    0  0.47976879647E+01 -0.38414760497E+02  0.51794325653E+03  0.51938803280E+03  0.00000000000E+00 0. -1.
         22    1    3    3    0    0  0.38116184879E+01  0.23503285380E+02  0.82253401755E+03  0.82287857116E+03  0.00000000000E+00 0. -1.
         22    1    3    3    0    0 -0.23930424649E+01  0.13322441706E+03  0.67617287265E+03  0.68917648368E+03  0.00000000000E+00 0. -1.
</event>
<event>
 7    1  0.6444902E-006  0.8434715E+02  0.7818608E-02  0.1384058E+00
          2   -1    0    0  502    0  0.00000000000E+00  0.00000000000E+00  0.33903996595E+04  0.33903996595E+04  0.00000000000E+00 0. -1.
          1   -1    0    0  501    0 -0.00000000000E+00 -0.00000000000E+00 -0.15344187673E+02  0.15344187673E+02  0.00000000000E+00 0. -1.
         25    2    1    2    0    0 -0.84810050656E+02 -0.57419513638E+02  0.10174020431E+04  0.10301559632E+04  0.12499858404E+03 0.  0.
          2    1    1    2  501    0  0.39608019344E+02  0.72554706519E+02  0.18752070879E+03  0.20493168828E+03  0.00000000000E+00 0. -1.
          1    1    1    2  502    0  0.45202031313E+02 -0.15135192880E+02  0.21701327200E+04  0.21706561957E+04  0.00000000000E+00 0. -1.
         22    1    3    3    0    0  0.27771199624E+02 -0.70399839488E+01  0.86559986548E+02  0.91178024621E+02  0.00000000000E+00 0.  1.
         22    1    3    3    0    0 -0.11258125028E+03 -0.50379529690E+02  0.93084205657E+03  0.93897793861E+03  0.00000000000E+00 0.  1.
</event>
<event>
 7    1  0.6444902E-006  0.6596532E+02  0.7818608E-02  0.1458021E+00
          2   -1    0    0  502    0  0.00000000000E+00  0.00000000000E+00  0.40687855062E+03  0.40687855062E+03  0.00000000000E+00 0. -1.
          1   -1    0    0  501    0 -0.00000000000E+00 -0.00000000000E+00 -0.16076109866E+04  0.16076109866E+04  0.00000000000E+00 0. -1.
         25    2    1    2    0    0 -0.77332290574E+02 -0.55737219981E+02 -0.34097814437E+03  0.37546664106E+03  0.12498873050E+03 0.  0.
          2    1    1    2  501    0  0.58937763763E+02  0.26518718349E+02 -0.12477857756E+04  0.12494583803E+04  0.00000000000E+00 0. -1.
          1    1    1    2  502    0  0.18394526811E+02  0.29218501632E+02  0.38803148397E+03  0.38956451584E+03  0.00000000000E+00 0. -1.
         22    1    3    3    0    0 -0.89943867203E+02 -0.33167011275E+02 -0.33564628883E+03  0.34906787462E+03  0.00000000000E+00 0.  1.
         22    1    3    3    0    0  0.12611576629E+02 -0.22570208706E+02 -0.53318555425E+01  0.26398766441E+02  0.00000000000E+00 0.  1.
</event>
<event>
 7    1  0.6444902E-006  0.7374064E+02  0.7818608E-02  0.1456410E+00
          2   -1    0    0  502    0  0.00000000000E+00  0.00000000000E+00  0.63716817919E+03  0.63716817919E+03  0.00000000000E+00 0. -1.
          1   -1    0    0  501    0 -0.00000000000E+00 -0.00000000000E+00 -0.47898778154E+02  0.47898778154E+02  0.00000000000E+00 0. -1.
         25    2    1    2    0    0  0.50368665549E+02  0.34506153007E+02  0.37101067277E+03  0.39623650198E+03  0.12500707634E+03 0.  0.
          2    1    1    2  501    0 -0.74259086757E+02 -0.14359910199E+02  0.77681470093E+01  0.76032644928E+02  0.00000000000E+00 0. -1.
          1    1    1    2  502    0  0.23890421207E+02 -0.20146242809E+02  0.21049058126E+03  0.21279781043E+03  0.00000000000E+00 0. -1.
         22    1    3    3    0    0  0.89663951391E+02  0.41565393748E+02  0.25082907278E+03  0.26959697678E+03  0.00000000000E+00 0. -1.
         22    1    3    3    0    0 -0.39295285841E+02 -0.70592407412E+01  0.12018159999E+03  0.12663952521E+03  0.00000000000E+00 0. -1.
</event>
<event>
 7    1  0.6444902E-006  0.1178213E+03  0.7818608E-02  0.1361178E+00
          2   -1    0    0  502    0  0.00000000000E+00  0.00000000000E+00  0.22544437120E+02  0.22544437120E+02  0.00000000000E+00 0. -1.
          1   -1    0    0  501    0 -0.00000000000E+00 -0.00000000000E+00 -0.28468627756E+04  0.28468627756E+04  0.00000000000E+00 0. -1.
         25    2    1    2    0    0  0.41073547536E+02 -0.73592886990E+02 -0.13669939085E+04  0.13752816535E+04  0.12499732525E+03 0.  0.
          2    1    1    2  501    0  0.33021081164E+02 -0.24657211371E+02 -0.12658282718E+04  0.12664989474E+04  0.00000000000E+00 0. -1.
          1    1    1    2  502    0 -0.74094628700E+02  0.98250098361E+02 -0.19149615809E+03  0.22762661179E+03  0.00000000000E+00 0. -1.
         22    1    3    3    0    0 -0.12114570028E+02  0.22332438388E+02 -0.88028771040E+02  0.91621859521E+02  0.00000000000E+00 0.  1.
         22    1    3    3    0    0  0.53188117564E+02 -0.95925325378E+02 -0.12789651375E+04  0.12836597940E+04  0.00000000000E+00 0.  1.
</event>
<event>
 7    1  0.6444902E-006  0.7001864E+02  0.7818608E-02  0.1406096E+00
          2   -1    0    0  502    0  0.00000000000E+00  0.00000000000E+00  0.84403507259E+03  0.84403507259E+03  0.00000000000E+00 0. -1.
          1   -1    0    0  501    0 -0.00000000000E+00 -0.00000000000E+00 -0.82514757001E+03  0.82514757001E+03  0.00000000000E+00 0. -1.
         25    2    1    2    0    0 -0.74922174240E+02  0.15043985327E+02  0.12885046802E+03  0.19510929644E+03  0.12500216302E+03 0.  0.
          2    1    1    2  501    0  0.45599542219E+02 -0.53257333091E+02 -0.78961251858E+03  0.79271911247E+03  0.00000000000E+00 0. -1.
          1    1    1    2  502    0  0.29322632021E+02  0.38213347763E+02  0.67964955313E+03  0.68135423369E+03  0.00000000000E+00 0. -1.
         22    1    3    3    0    0 -0.45997341311E+02  0.27616046831E+01 -0.14536951005E+02  0.48318783228E+02  0.00000000000E+00 0. -1.
         22    1    3    3    0    0 -0.28924832929E+02  0.12282380644E+02  0.14338741902E+03  0.14679051321E+03  0.00000000000E+00 0. -1.
</event>
<event>
 7    1  0.6444902E-006  0.8195269E+02  0.7818608E-02  0.1389494E+00
          2   -1    0    0  502    0  0.00000000000E+00  0.00000000000E+00  0.83413361979E+03  0.83413361979E+03  0.00000000000E+00 0. -1.
          1   -1    0    0  501    0 -0.00000000000E+00 -0.00000000000E+00 -0.22807867303E+04  0.22807867303E+04  0.00000000000E+00 0. -1.
         25    2    1    2    0    0  0.58373913044E+02 -0.25782602155E+02 -0.18194018997E+02  0.14152132670E+03  0.12500002914E+03 0.  0.
          2    1    1    2  501    0 -0.43048587985E+02  0.70166003287E+02 -0.21994448300E+04  0.22009847817E+04  0.00000000000E+00 0. -1.
          1    1    1    2  502    0 -0.15325325059E+02 -0.44383401132E+02  0.77098573847E+03  0.77241424172E+03  0.00000000000E+00 0. -1.
         22    1    3    3    0    0 -0.16285865991E-01 -0.53234137335E+02 -0.46858143096E+02  0.70919385343E+02  0.00000000000E+00 0.  1.
         22    1    3    3    0    0  0.58390198910E+02  0.27451535180E+02  0.28664124100E+02  0.70601941353E+02  0.00000000000E+00 0.  1.
</event>
<event>
 7    1  0.6444902E-006  0.1559882E+03  0.7818608E-02  0.1358547E+00
          2   -1    0    0  502    0  0.00000000000E+00  0.00000000000E+00  0.18003095424E+04  0.18003095424E+04  0.00000000000E+00 0. -1.
          1   -1    0    0  501    0 -0.00000000000E+00 -0.00000000000E+00 -0.82446949547E+03  0.82446949547E+03  0.00000000000E+00 0. -1.
         25    2    1    2    0    0  0.78265538439E+02  0.10935846854E+03  0.70302798344E+02  0.19659345094E+03  0.12498692871E+03 0.  0.
          2    1    1    2  501    0 -0.71166837283E+02 -0.14038049902E+03 -0.75303558172E+03  0.76930747466E+03  0.00000000000E+00 0. -1.
          1    1    1    2  502    0 -0.70987011551E+01  0.31022030483E+02  0.16585728303E+04  0.16588781123E+04  0.00000000000E+00 0. -1.
         22    1    3    3    0    0  0.77698613284E+02  0.10417370843E+02  0.56634195870E+02  0.96711055538E+02  0.00000000000E+00 0. -1.
         22    1    3    3    0    0  0.56692515484E+00  0.98941097698E+02  0.13668602474E+02  0.99882395403E+02  0.00000000000E+00 0. -1.
</event>
<event>
 7    1  0.6444902E-006  0.8161187E+02  0.7818608E-02  0.1330595E+00
          2   -1    0    0  502    0  0.00000000000E+00  0.00000000000E+00  0.23697898753E+03  0.23697898753E+03  0.00000000000E+00 0. -1.
          1   -1    0    0  501    0 -0.00000000000E+00 -0.00000000000E+00 -0.22734293692E+04  0.22734293692E+04  0.00000000000E+00 0. -1.
         25    2    1    2    0    0  0.90088717486E+02  0.11876244973E+03 -0.64946876708E+03  0.67797969974E+03  0.12500518937E+03 0.  0.
          2    1    1    2  501    0 -0.61816437976E+02 -0.46751501524E+02 -0.16020220450E+04  0.16038957596E+04  0.00000000000E+00 0. -1.
          1    1    1    2  502    0 -0.28272279511E+02 -0.72010948209E+02  0.21504043045E+03  0.22853289737E+03  0.00000000000E+00 0. -1.
         22    1    3    3    0    0 -0.99248223289E+01 -0.10465975203E+02 -0.90177020409E+01  0.17010516903E+02  0.00000000000E+00 0. -1.
         22    1    3    3    0    0  0.10001353982E+03  0.12922842494E+03 -0.64045106504E+03  0.66096918284E+03  0.00000000000E+00 0. -1.
</event>
<event>
 7    1  0.6444902E-006  0.7752033E+02  0.7818608E-02  0.1337735E+00
          2   -1    0    0  502    0  0.00000000000E+00  0.00000000000E+00  0.38301270760E+02  0.38301270760E+02  0.00000000000E+00 0. -1.
          1   -1    0    0  501    0 -0.00000000000E+00 -0.00000000000E+00 -0.18458698493E+04  0.18458698493E+04  0.00000000000E+00 0. -1.
         25    2    1    2    0    0 -0.58361857506E+02  0.45342420750E+02 -0.53529440936E+03  0.55464134220E+03  0.12499948899E+03 0.  0.
          2    1    1    2  501    0 -0.16186784199E+02 -0.75811537550E+02 -0.12405532480E+04  0.12429729532E+04  0.00000000000E+00 0. -1.
          1    1    1    2  502    0  0.74548641705E+02  0.30469116800E+02 -0.31720921171E+02  0.86556824680E+02  0.00000000000E+00 0. -1.
         22    1    3    3    0    0  0.36024285750E+02  0.19469246469E+02 -0.92471650919E+02  0.10113262058E+03  0.00000000000E+00 0.  1.
         22    1    3    3    0    0 -0.94386143256E+02  0.25873174281E+02 -0.44282275844E+03  0.45350872162E+03  0.00000000000E+00 0.  1.
</event>
<event>
 7    1  0.6444902E-006  0.7776876E+02  0.7818608E-02  0.1360503E+00
          2   -1    0    0  502    0  0.00000000000E+00  0.00000000000E+00  0.27508314822E+03  0.27508314822E+03  0.00000000000E+00 0. -1.
          1   -1    0    0  501    0 -0.00000000000E+00 -0.00000000000E+00 -0.14879565480E+04  0.14879565480E+04  0.00000000000E+00 0. -1.
         25    2    1    2    0    0 -0.89199838607E+02 -0.14907586640E+02  0.52677627541E+02  0.16303027786E+03  0.12500036684E+03 0.  0.
          2    1    1    2  501    0  0.40834520352E+02 -0.47699167324E+02 -0.14226922014E+04  0.14240771638E+04  0.00000000000E+00 0. -1.
          1    1    1    2  502    0  0.48365318254E+02  0.62606753964E+02  0.15714117399E+03  0.17593225462E+03  0.00000000000E+00 0. -1.
         22    1    3    3    0    0 -0.53200284767E+02  0.48790423787E+02  0.53514296980E+02  0.89858531781E+02  0.00000000000E+00 0.  1.
         22    1    3    3    0    0 -0.35999553839E+02 -0.63698010428E+02 -0.83666943913E+00  0.73171746083E+02  0.00000000000E+00 0.  1.
</event>
<event>
 7    1  0.6444902E-006  0.2791837E+03  0.7818608E-02  0.1163514E+00
          2   -1    0    0  502    0  0.00000000000E+00  0.00000000000E+00  0.22113101935E+04  0.22113101935E+04  0.00000000000E+00 0. -1.
          1   -1    0    0  501    0 -0.00000000000E+00 -0.00000000000E+00 -0.80738944616E+02  0.80738944616E+02  0.00000000000E+00 0. -1.
         25    2    1    2    0    0 -0.94646493571E+02  0.25872563100E+03  0.10457773599E+04  0.10886561063E+04  0.12499968144E+03 0.  0.
          2    1    1    2  501    0  0.20319181643E+03 -0.20317807499E+03  0.32472767435E+03  0.43360847191E+03  0.00000000000E+00 0. -1.
          1    1    1    2  502    0 -0.10854532285E+03 -0.55547556012E+02  0.76006621464E+03  0.76978455994E+03  0.00000000000E+00 0. -1.
         22    1    3    3    0    0 -0.89837875416E+02  0.24586540388E+03  0.10420562564E+04  0.10744309574E+04  0.00000000000E+00 0. -1.
         22    1    3    3    0    0 -0.48086181559E+01  0.12860227121E+02  0.37211035285E+01  0.14225148915E+02  0.00000000000E+00 0. -1.
</event>
<event>
 7    1  0.6444902E-006  0.4774501E+02  0.7818608E-02  0.1577030E+00
          2   -1    0    0  502    0  0.00000000000E+00  0.00000000000E+00  0.75054856732E+03  0.75054856732E+03  0.00000000000E+00 0. -1.
          1   -1    0    0  501    0 -0.00000000000E+00 -0.00000000000E+00 -0.66573574348E+03  0.66573574348E+03  0.00000000000E+00 0. -1.
         25    2    1    2    0    0 -0.42434639080E+02  0.45390465111E+02 -0.13348383927E+03  0.19314011200E+03  0.12499669835E+03 0.  0.
          2    1    1    2  501    0  0.12170419765E+01 -0.21405785168E+02 -0.50140557369E+03  0.50186376454E+03  0.00000000000E+00 0. -1.
          1    1    1    2  502    0  0.41217597104E+02 -0.23984679943E+02  0.71970223681E+03  0.72128043427E+03  0.00000000000E+00 0. -1.
         22    1    3    3    0    0 -0.71143896809E+02  0.43553853739E+01 -0.12271672289E+03  0.14191482485E+03  0.00000000000E+00 0.  1.
         22    1    3    3    0    0  0.28709257728E+02  0.41035079737E+02 -0.10767116385E+02  0.51225287150E+02  0.00000000000E+00 0.  1.
</event>
<event>
 7    1  0.6444902E-006  0.1207224E+03  0.7818608E-02  0.1384690E+00
          2   -1    0    0  502    0  0.00000000000E+00  0.00000000000E+00  0.53362589282E+03  0.53362589282E+03  0.00000000000E+00 0. -1.
          1   -1    0    0  501    0 -0.00000000000E+00 -0.00000000000E+00 -0.86824629493E+03  0.86824629493E+03  0.00000000000E+00 0. -1.
         25    2    1    2    0    0 -0.14477474661E+03  0.10872427525E+02 -0.28485874870E+03  0.34328951769E+03  0.12500099722E+03 0.  0.
          2    1    1    2  501    0  0.28011815312E+02  0.17699727148E+02 -0.54650143047E+03  0.54750502796E+03  0.00000000000E+00 0. -1.
          1    1    1    2  502    0  0.11676293130E+03 -0.28572154672E+02  0.49673977706E+03  0.51107764211E+03  0.00000000000E+00 0. -1.
         22    1    3    3    0    0 -0.64622573740E+02  0.41003068998E+02 -0.22800098855E+03  0.24050317978E+03  0.00000000000E+00 0. -1.
         22    1    3    3    0    0 -0.80152172870E+02 -0.30130641474E+02 -0.56857760152E+02  0.10278633791E+03  0.00000000000E+00 0. -1.
</event>
<event>
 7    1  0.6444902E-006  0.4473405E+02  0.7818608E-02  0.1598472E+00
          2   -1    0    0  502    0  0.00000000000E+00  0.00000000000E+00  0.83901797909E+02  0.83901797909E+02  0.00000000000E+00 0. -1.
          1   -1    0    0  501    0 -0.00000000000E+00 -0.00000000000E+00 -0.19419484751E+03  0.19419484751E+03  0.00000000000E+00 0. -1.
         25    2    1    2    0    0 -0.27465678721E+02 -0.56449451213E+02 -0.57573027885E+02  0.15126303548E+03  0.12499979325E+03 0.  0.
          2    1    1    2  501    0  0.18462087894E+02  0.38509646216E+02 -0.81343964226E+02  0.91873184646E+02  0.00000000000E+00 0. -1.
          1    1    1    2  502    0  0.90035908266E+01  0.17939804998E+02  0.28623942514E+02  0.34960425286E+02  0.00000000000E+00 0. -1.
         22    1    3    3    0    0 -0.12246729956E+01  0.29715826528E+02  0.17061289077E+02  0.34287282703E+02  0.00000000000E+00 0. -1.
         22    1    3    3    0    0 -0.26241005725E+02 -0.86165277742E+02 -0.74634316962E+02  0.11697575278E+03  0.00000000000E+00 0. -1.
</event>
<event>
 7    1  0.6444902E-006  0.9275566E+02  0.7818608E-02  0.1443317E+00
          2   -1    0    0  502    0  0.00000000000E+00  0.00000000000E+00  0.57948060905E+03  0.57948060905E+03  0.00000000000E+00 0. -1.
          1   -1    0    0  501    0 -0.00000000000E+00 -0.00000000000E+00 -0.37942285052E+03  0.37942285052E+03  0.00000000000E+00 0. -1.
         25    2    1    2    0    0 -0.93808902900E+02  0.44383314937E+01 -0.21626830047E+03  0.26686434243E+03  0.12499916169E+03 0.  0.
          2    1    1    2  501    0  0.38158681706E+01 -0.27093540748E+02 -0.13256462715E+03  0.13535878683E+03  0.00000000000E+00 0. -1.
          1    1    1    2  502    0  0.89993034730E+02  0.22655209255E+02  0.54889068615E+03  0.55668033031E+03  0.00000000000E+00 0. -1.
         22    1    3    3    0    0 -0.62796489201E+01  0.43444740448E+02 -0.13251080880E+03  0.13959224159E+03  0.00000000000E+00 0. -1.
         22    1    3    3    0    0 -0.87529253980E+02 -0.39006408955E+02 -0.83757491666E+02  0.12727210084E+03  0.00000000000E+00 0. -1.
</event>
<event>
 7    1  0.6444902E-006  0.5081040E+02  0.7818608E-02  0.1543187E+00
          2   -1    0    0  502    0  0.00000000000E+00  0.00000000000E+00  0.15542295699E+04  0.15542295699E+04  0.00000000000E+00 0. -1.
          1   -1    0    0  501    0 -0.00000000000E+00 -0.00000000000E+00 -0.23804258066E+02  0.23804258066E+02  0.00000000000E+00 0. -1.
         25    2    1    2    0    0 -0.51736864430E+02 -0.46480574047E+02  0.68347792666E+03  0.69828630013E+03  0.12499813525E+03 0.  0.
          2    1    1    2  501    0  0.44484593588E+02  0.22590084697E+02  0.22175809721E+02  0.54598145848E+02  0.00000000000E+00 0. -1.
          1    1    1    2  502    0  0.72522708418E+01  0.23890489350E+02  0.82477157542E+03  0.82514938195E+03  0.00000000000E+00 0. -1.
         22    1    3    3    0    0 -0.20126510641E+02  0.40307281017E+01  0.11219652838E+02  0.23392387852E+02  0.00000000000E+00 0. -1.
         22    1    3    3    0    0 -0.31610353788E+02 -0.50511302149E+02  0.67225827382E+03  0.67489391228E+03  0.00000000000E+00 0. -1.
</event>
<event>
 7    1  0.6444902E-006  0.1490862E+03  0.7818608E-02  0.1418319E+00
          2   -1    0    0  502    0  0.00000000000E+00  0.00000000000E+00  0.80636591986E+03  0.80636591986E+03  0.00000000000E+00 0. -1.
          1   -1    0    0  501    0 -0.00000000000E+00 -0.00000000000E+00 -0.21408115356E+04  0.21408115356E+04  0.00000000000E+00 0. -1.
         25    2    1    2    0    0  0.20634875208E+02  0.16790838041E+03  0.10674444471E+03  0.23587643235E+03  0.12499717028E+03 0.  0.
          2    1    1    2  501    0 -0.20620333471E+02 -0.14733813594E+03 -0.20734129368E+04  0.20787435944E+04  0.00000000000E+00 0. -1.
          1    1    1    2  502    0 -0.14541736621E-01 -0.20570244465E+02  0.63222287642E+03  0.63255742872E+03  0.00000000000E+00 0. -1.
         22    1    3    3    0    0  0.60845388790E+02  0.35805479095E+02  0.50367179015E+02  0.86723966654E+02  0.00000000000E+00 0.  1.
         22    1    3    3    0    0 -0.40210513582E+02  0.13210290131E+03  0.56377265691E+02  0.14915246570E+03  0.00000000000E+00 0.  1.
</event>
<event>
 7    1  0.6444902E-006  0.1139206E+03  0.7818608E-02  0.1300985E+00
          2   -1    0    0  502    0  0.00000000000E+00  0.00000000000E+00  0.10032398379E+04  0.10032398379E+04  0.00000000000E+00 0. -1.
          1   -1    0    0  501    0 -0.00000000000E+00 -0.00000000000E+00 -0.12773896921E+04  0.12773896921E+04  0.00000000000E+00 0. -1.
         25    2    1    2    0    0 -0.16448199298E+03 -0.71847233532E+02  0.45703206274E+02  0.22345059038E+03  0.12500012919E+03 0.  0.
          2    1    1    2  501    0  0.11005198436E+03  0.24209513892E+02 -0.11843313142E+04  0.11896798736E+04  0.00000000000E+00 0. -1.
          1    1    1    2  502    0  0.54430008614E+02  0.47637719641E+02  0.86447825382E+03  0.86749906600E+03  0.00000000000E+00 0. -1.
         22    1    3    3    0    0 -0.32720533436E+02 -0.73875309229E+02 -0.79125950220E+01  0.81183765507E+02  0.00000000000E+00 0.  1.
         22    1    3    3    0    0 -0.13176145954E+03  0.20280756962E+01  0.53615801296E+02  0.14226682487E+03  0.00000000000E+00 0.  1.
</event>
<event>
 7    1  0.6444902E-006  0.1235663E+03  0.7818608E-02  0.1355036E+00
          2   -1    0    0  502    0  0.00000000000E+00  0.00000000000E+00  0.41142249876E+04  0.41142249876E+04  0.00000000000E+00 0. -1.
          1   -1    0    0  501    0 -0.00000000000E+00 -0.00000000000E+00 -0.17043540148E+03  0.17043540148E+03  0.00000000000E+00 0. -1.
         25    2    1    2    0    0  0.97765067031E+02  0.25151488831E+02  0.39714587209E+03  0.42841555934E+03  0.12499776815E+03 0.  0.
          2    1    1    2  501    0  0.27492181169E+02 -0.30931037581E+02 -0.15095296945E+03  0.15652267598E+03  0.00000000000E+00 0. -1.
          1    1    1    2  502    0 -0.12525724820E+03  0.57795487503E+01  0.36975966835E+04  0.36997221538E+04  0.00000000000E+00 0. -1.
         22    1    3    3    0    0  0.10351750304E+03  0.63467297151E+02  0.31492634403E+03  0.33752418196E+03  0.00000000000E+00 0.  1.
         22    1    3    3    0    0 -0.57524360102E+01 -0.38315808320E+02  0.82219528063E+02  0.90891377381E+02  0.00000000000E+00 0.  1.
</event>
<event>
 7    1  0.6444902E-006  0.7290779E+02  0.7818608E-02  0.1387168E+00
          2   -1    0    0  502    0  0.00000000000E+00  0.00000000000E+00  0.18728024426E+04  0.18728024426E+04  0.00000000000E+00 0. -1.
          1   -1    0    0  501    0 -0.00000000000E+00 -0.00000000000E+00 -0.99698179397E+02  0.99698179397E+02  0.00000000000E+00 0. -1.
         25    2    1    2    0    0 -0.67150165463E+01 -0.22758476303E+02 -0.12666340650E+02  0.12786358347E+03  0.12500248038E+03 0.  0.
          2    1    1    2  501    0  0.12074761372E+02  0.95468990664E+02  0.52088820674E+02  0.10942291021E+03  0.00000000000E+00 0. -1.
          1    1    1    2  502    0 -0.53597448253E+01 -0.72710514361E+02  0.17336817832E+04  0.17352141283E+04  0.00000000000E+00 0. -1.
         22    1    3    3    0    0 -0.51262909463E+02 -0.48866963576E+02 -0.24407499129E+02  0.74910560200E+02  0.00000000000E+00 0.  1.
         22    1    3    3    0    0  0.44547892917E+02  0.26108487273E+02  0.11741158479E+02  0.52953023270E+02  0.00000000000E+00 0.  1.
</event>
<event>
 7    1  0.6444902E-006  0.4743293E+02  0.7818608E-02  0.1535539E+00
          2   -1    0    0  502    0  0.00000000000E+00  0.00000000000E+00  0.89498489028E+03  0.89498489028E+03  0.00000000000E+00 0. -1.
          1   -1    0    0  501    0 -0.00000000000E+00 -0.00000000000E+00 -0.10092808483E+04  0.10092808483E+04  0.00000000000E+00 0. -1.
         25    2    1    2    0    0  0.39887913037E+02 -0.54299542993E+02 -0.24410879173E+03  0.28240687076E+03  0.12500020992E+03 0.  0.
          2    1    1    2  501    0 -0.38785035861E+02  0.26210106766E+02 -0.74506273008E+03  0.74653179467E+03  0.00000000000E+00 0. -1.
          1    1    1    2  502    0 -0.11028771767E+01  0.28089436227E+02  0.87487556382E+03  0.87532707312E+03  0.00000000000E+00 0. -1.
         22    1    3    3    0    0 -0.20845603985E+02  0.85531036681E+01 -0.15839668809E+03  0.15999126722E+03  0.00000000000E+00 0.  1.
         22    1    3    3    0    0  0.60733517022E+02 -0.62852646661E+02 -0.85712103639E+02  0.12241560355E+03  0.00000000000E+00 0.  1.
</event>
<event>
 7    1  0.6444902E-006  0.8937030E+02  0.7818608E-02  0.1424666E+00
          2   -1    0    0  502    0  0.00000000000E+00  0.00000000000E+00  0.20964045788E+03  0.20964045788E+03  0.00000000000E+00 0. -1.
          1   -1    0    0  501    0 -0.00000000000E+00 -0.00000000000E+00 -0.47502978768E+03  0.47502978768E+03  0.00000000000E+00 0. -1.
         25    2    1    2    0    0 -0.34625116495E+02 -0.56055483635E+02 -0.39624934496E+02  0.14675088129E+03  0.12499827914E+03 0.  0.
          2    1    1    2  501    0  0.66402583177E+02  0.63698065252E+02 -0.37449829282E+03  0.38563676937E+03  0.00000000000E+00 0. -1.
          1    1    1    2  502    0 -0.31777466682E+02 -0.76425816161E+01  0.14873389751E+03  0.15228259491E+03  0.00000000000E+00 0. -1.
         22    1    3    3    0    0 -0.19222511493E+02  0.39048632772E+02 -0.22149648316E+02  0.48835515662E+02  0.00000000000E+00 0. -1.
         22    1    3    3    0    0 -0.15402605003E+02 -0.95104116408E+02 -0.17475286180E+02  0.97915365626E+02  0.00000000000E+00 0. -1.
</event>
<event>
 7    1  0.6444902E-006  0.7795711E+02  0.7818608E-02  0.1406805E+00
          2   -1    0    0  502    0  0.00000000000E+00  0.00000000000E+00  0.19870348763E+04  0.19870348763E+04  0.00000000000E+00 0. -1.
          1   -1    0    0  501    0 -0.00000000000E+00 -0.00000000000E+00 -0.19274583146E+04  0.19274583146E+04  0.00000000000E+00 0. -1.
         25    2    1    2    0    0  0.24166284636E+02  0.10910397508E+03  0.64387693650E+03  0.66534919329E+03  0.12499741186E+03 0.  0.
          2    1    1    2  501    0 -0.26096109641E+02 -0.34204274522E+02 -0.19154271558E+04  0.19159102610E+04  0.00000000000E+00 0. -1.
          1    1    1    2  502    0  0.19298250055E+01 -0.74899700555E+02  0.13311267810E+04  0.13332337366E+04  0.00000000000E+00 0. -1.
         22    1    3    3    0    0  0.60741971437E+02  0.61127183658E+02  0.20544938427E+03  0.22279041535E+03  0.00000000000E+00 0.  1.
         22    1    3    3    0    0 -0.36575686801E+02  0.47976791419E+02  0.43842755223E+03  0.44255877794E+03  0.00000000000E+00 0.  1.
</event>
<event>
 7    1  0.6444902E-006  0.4929764E+02  0.7818608E-02  0.1521176E+00
          2   -1    0    0  502    0  0.00000000000E+00  0.00000000000E+00  0.98405935551E+03  0.98405935551E+03  0.00000000000E+00 0. -1.
          1   -1    0    0  501    0 -0.00000000000E+00 -0.00000000000E+00 -0.19730418358E+04  0.19730418358E+04  0.00000000000E+00 0. -1.
         25    2    1    2    0    0 -0.19190887981E+02 -0.18116535941E+02  0.16994709883E+03  0.21261034020E+03  0.12499856520E+03 0.  0.
          2    1    1    2  501    0  0.13811887787E+02  0.47368302766E+02 -0.19511192610E+04  0.19517430402E+04  0.00000000000E+00 0. -1.
          1    1    1    2  502    0  0.53790001942E+01 -0.29251766824E+02  0.79218968191E+03  0.79274781086E+03  0.00000000000E+00 0. -1.
         22    1    3    3    0    0 -0.53026781208E+02  0.80278195818E+01  0.15994407855E+03  0.16869615785E+03  0.00000000000E+00 0.  1.
         22    1    3    3    0    0  0.33835893227E+02 -0.26144355523E+02  0.10003020285E+02  0.43914182344E+02  0.00000000000E+00 0.  1.
</event>
<event>
 7    1  0.6444902E-006  0.5185681E+02  0.7818608E-02  0.1510197E+00
          2   -1    0    0  502    0  0.00000000000E+00  0.00000000000E+00  0.41206372554E+03  0.41206372554E+03  0.00000000000E+00 0. -1.
          1   -1    0    0  501    0 -0.00000000000E+00 -0.00000000000E+00 -0.20389487985E+03  0.20389487985E+03  0.00000000000E+00 0. -1.
         25    2    1    2    0    0 -0.50202323276E+02  0.16450824225E+02  0.11146205618E+03  0.17561193747E+03  0.12499943893E+03 0.  0.
          2    1    1    2  501    0  0.50154703685E+02  0.13990487230E+02 -0.16697919240E+03  0.17490934432E+03  0.00000000000E+00 0. -1.
          1    1    1    2  502    0  0.47619590404E-01 -0.30441311455E+02  0.26368598191E+03  0.26543732361E+03  0.00000000000E+00 0. -1.
         22    1    3    3    0    0 -0.15004103501E+02 -0.52585498342E+02  0.66219446057E+02  0.85879990649E+02  0.00000000000E+00 0.  1.
         22    1    3    3    0    0 -0.35198219775E+02  0.69036322567E+02  0.45242610126E+02  0.89731946818E+02  0.00000000000E+00 0.  1.
</event>
<event>
 7    1  0.6444902E-006  0.7582231E+02  0.7818608E-02  0.1402730E+00
          2   -1    0    0  502    0  0.00000000000E+00  0.00000000000E+00  0.10340950086E+04  0.10340950086E+04  0.00000000000E+00 0. -1.
          1   -1    0    0  501    0 -0.00000000000E+00 -0.00000000000E+00 -0.11954217482E+04  0.11954217482E+04  0.00000000000E+00 0. -1.
         25    2    1    2    0    0  0.18151938396E+02  0.10329665285E+03 -0.52267047097E+02  0.17133880722E+03  0.12500180515E+03 0.  0.
          2    1    1    2  501    0  0.16488835417E+02 -0.73528794005E+02 -0.10817722638E+04  0.10843936536E+04  0.00000000000E+00 0. -1.
          1    1    1    2  502    0 -0.34640773813E+02 -0.29767858843E+02  0.97271257128E+03  0.97378429590E+03  0.00000000000E+00 0. -1.
         22    1    3    3    0    0  0.63486790727E+02  0.39139473542E+02  0.40307486841E+01  0.74690815505E+02  0.00000000000E+00 0.  1.
         22    1    3    3    0    0 -0.45334852330E+02  0.64157179306E+02 -0.56297795781E+02  0.96647991713E+02  0.00000000000E+00 0.  1.
</event>
<event>
 7    1  0.6444902E-006  0.7123826E+02  0.7818608E-02  0.1372608E+00
          2   -1    0    0  502    0  0.00000000000E+00  0.00000000000E+00  0.22235503380E+03  0.22235503380E+03  0.00000000000E+00 0. -1.
          1   -1    0    0  501    0 -0.00000000000E+00 -0.00000000000E+00 -0.14881332554E+04  0.14881332554E+04  0.00000000000E+00 0. -1.
         25    2    1    2    0    0 -0.10101191779E+03  0.50083643855E+02 -0.27804085472E+03  0.32502981373E+03  0.12500353597E+03 0.  0.
          2    1    1    2  501    0  0.39513435018E+02 -0.57783587046E+02 -0.11807067530E+04  0.11827800688E+04  0.00000000000E+00 0. -1.
          1    1    1    2  502    0  0.61498482768E+02  0.76999431910E+01  0.19296938619E+03  0.20267840663E+03  0.00000000000E+00 0. -1.
         22    1    3    3    0    0 -0.62319559604E+02  0.91025380143E+02 -0.20491667432E+03  0.23272342115E+03  0.00000000000E+00 0.  1.
         22    1    3    3    0    0 -0.38692358182E+02 -0.40941736287E+02 -0.73124180404E+02  0.92306392583E+02  0.00000000000E+00 0.  1.
</event>
<event>
 7    1  0.6444902E-006  0.7164480E+02  0.7818608E-02  0.1394144E+00
          2   -1    0    0  502    0  0.00000000000E+00  0.00000000000E+00  0.11566376858E+04  0.11566376858E+04  0.00000000000E+00 0. -1.
          1   -1    0    0  501    0 -0.00000000000E+00 -0.00000000000E+00 -0.58586073225E+02  0.58586073225E+02  0.00000000000E+00 0. -1.
         25    2    1    2    0    0 -0.20819531977E+02 -0.57824816100E+02  0.56982280026E+02  0.15048243844E+03  0.12498328598E+03 0.  0.
          2    1    1    2  501    0  0.71247950492E+02  0.69425198648E+02  0.21331095532E+03  0.23536714366E+03  0.00000000000E+00 0. -1.
          1    1    1    2  502    0 -0.50428418515E+02 -0.11600382548E+02  0.82775837722E+03  0.82937417692E+03  0.00000000000E+00 0. -1.
         22    1    3    3    0    0 -0.71041120823E+02 -0.43419169867E+02  0.17710402404E+02  0.85121815729E+02  0.00000000000E+00 0. -1.
         22    1    3    3    0    0  0.50221588845E+02 -0.14405646233E+02  0.39271877622E+02  0.65360622714E+02  0.00000000000E+00 0. -1.
</event>
<event>
 7    1  0.6444902E-006  0.2999046E+03  0.7818608E-02  0.1140465E+00
          2   -1    0    0  502    0  0.00000000000E+00  0.00000000000E+00  0.70898298116E+03  0.70898298116E+03  0.00000000000E+00 0. -1.
          1   -1    0    0  501    0 -0.00000000000E+00 -0.00000000000E+00 -0.29154088153E+04  0.29154088153E+04  0.00000000000E+00 0. -1.
         25    2    1    2    0    0  0.18003634908E+03 -0.12458694457E+03 -0.24340984403E+03  0.35044036977E+03  0.12500042736E+03 0.  0.
          2    1    1    2  501    0 -0.25057758230E+02 -0.14688668834E+03 -0.25789407391E+04  0.25832419411E+04  0.00000000000E+00 0. -1.
          1    1    1    2  502    0 -0.15497859085E+03  0.27147363290E+03  0.61592474903E+03  0.69070948557E+03  0.00000000000E+00 0. -1.
         22    1    3    3    0    0 -0.18438146111E+02 -0.19219401808E+02 -0.34830818266E+02  0.43846739205E+02  0.00000000000E+00 0.  1.
         22    1    3    3    0    0  0.19847449519E+03 -0.10536754276E+03 -0.20857902577E+03  0.30659363056E+03  0.00000000000E+00 0.  1.
</event>
<event>
 7    1  0.6444902E-006  0.2064323E+03  0.7818608E-02  0.1194488E+00
          2   -1    0    0  502    0  0.00000000000E+00  0.00000000000E+00  0.45124315893E+03  0.45124315893E+03  0.00000000000E+00 0. -1.
          1   -1    0    0  501    0 -0.00000000000E+00 -0.00000000000E+00 -0.17953621261E+04  0.17953621261E+04  0.00000000000E+00 0. -1.
         25    2    1    2    0    0 -0.99380675489E+02  0.13999177302E+02 -0.47937658281E+03  0.50546891936E+03  0.12499769865E+03 0.  0.
          2    1    1    2  501    0 -0.98987581509E+02  0.61138705374E+02 -0.12744624609E+04  0.12797621056E+04  0.00000000000E+00 0. -1.
          1    1    1    2  502    0  0.19836825700E+03 -0.75137882677E+02  0.40972007652E+03  0.46137426012E+03  0.00000000000E+00 0. -1.
         22    1    3    3    0    0 -0.49871213805E+02  0.60708026199E+02 -0.35595981664E+03  0.36452708195E+03  0.00000000000E+00 0. -1.
         22    1    3    3    0    0 -0.49509461684E+02 -0.46708848897E+02 -0.12341676617E+03  0.14094183741E+03  0.00000000000E+00 0. -1.
</event>
<event>
 7    1  0.6444902E-006  0.8524239E+02  0.7818608E-02  0.1344614E+00
          2   -1    0    0  502    0  0.00000000000E+00  0.00000000000E+00  0.29658479060E+04  0.29658479060E+04  0.00000000000E+00 0. -1.
          1   -1    0    0  501    0 -0.00000000000E+00 -0.00000000000E+00 -0.72605459309E+02  0.72605459309E+02  0.00000000000E+00 0. -1.
         25    2    1    2    0    0 -0.73017853664E+02  0.26738591498E+02  0.12684248042E+03  0.19433573554E+03  0.12502321400E+03 0.  0.
          2    1    1    2  501    0  0.41596631969E+02 -0.84287178474E+02  0.18948068847E+02  0.95883458215E+02  0.00000000000E+00 0. -1.
          1    1    1    2  502    0  0.31421221695E+02  0.57548586976E+02  0.27474518975E+04  0.27482341716E+04  0.00000000000E+00 0. -1.
         22    1    3    3    0    0 -0.41971331693E+02  0.67189843441E+02  0.29667729079E+02  0.84594573670E+02  0.00000000000E+00 0. -1.
         22    1    3    3    0    0 -0.31046521971E+02 -0.40451251943E+02  0.97174751339E+02  0.10974116187E+03  0.00000000000E+00 0. -1.
</event>
<event>
 7    1  0.6444902E-006  0.1719767E+03  0.7818608E-02  0.1256674E+00
          2   -1    0    0  502    0  0.00000000000E+00  0.00000000000E+00  0.15463381386E+04  0.15463381386E+04  0.00000000000E+00 0. -1.
          1   -1    0    0  501    0 -0.00000000000E+00 -0.00000000000E+00 -0.28633726184E+03  0.28633726184E+03  0.00000000000E+00 0. -1.
         25    2    1    2    0    0  0.12255452758E+03 -0.63799120282E+02  0.10830491415E+03  0.21551104411E+03  0.12500046290E+03 0.  0.
          2    1    1    2  501    0 -0.10122710128E+02 -0.72406364876E+02 -0.22119263141E+03  0.23296208088E+03  0.00000000000E+00 0. -1.
          1    1    1    2  502    0 -0.11243181746E+03  0.13620548516E+03  0.13728885941E+04  0.13842022755E+04  0.00000000000E+00 0. -1.
         22    1    3    3    0    0  0.91798142529E+02 -0.26359353079E+02  0.13090811259E+03  0.16204520483E+03  0.00000000000E+00 0.  1.
         22    1    3    3    0    0  0.30756385054E+02 -0.37439767203E+02 -0.22603198445E+02  0.53465839279E+02  0.00000000000E+00 0.  1.
</event>
<event>
 7    1  0.6444902E-006  0.6865611E+02  0.7818608E-02  0.1404741E+00
          2   -1    0    0  502    0  0.00000000000E+00  0.00000000000E+00  0.12395340445E+04  0.12395340445E+04  0.00000000000E+00 0. -1.
          1   -1    0    0  501    0 -0.00000000000E+00 -0.00000000000E+00 -0.48390771012E+03  0.48390771012E+03  0.00000000000E+00 0. -1.
         25    2    1    2    0    0  0.47217986635E+02  0.98625699374E+02  0.57118083990E+03  0.59483535597E+03  0.12499992800E+03 0.  0.
          2    1    1    2  501    0 -0.71995846179E+01 -0.49124212949E+02 -0.46922475458E+03  0.47184414018E+03  0.00000000000E+00 0. -1.
          1    1    1    2  502    0 -0.40018402017E+02 -0.49501486425E+02  0.65367024903E+03  0.65676225845E+03  0.00000000000E+00 0. -1.
         22    1    3    3    0    0  0.63482200790E+02  0.12036154932E+03  0.51112507646E+03  0.52892885737E+03  0.00000000000E+00 0. -1.
         22    1    3    3    0    0 -0.16264214154E+02 -0.21735849947E+02  0.60055763442E+02  0.65906498599E+02  0.00000000000E+00 0. -1.
</event>
<event>
 7    1  0.6444902E-006  0.8565328E+02  0.7818608E-02  0.1347989E+00
          2   -1    0    0  502    0  0.00000000000E+00  0.00000000000E+00  0.34849698829E+04  0.34849698829E+04  0.00000000000E+00 0. -1.
          1   -1    0    0  501    0 -0.00000000000E+00 -0.00000000000E+00 -0.11759320515E+04  0.11759320515E+04  0.00000000000E+00 0. -1.
         25    2    1    2    0    0 -0.35719763987E+02  0.13232689549E+03  0.23260743276E+03  0.29752133082E+03  0.12500566270E+03 0.  0.
          2    1    1    2  501    0 -0.12150418273E+02 -0.62215567279E+02 -0.11420363894E+04  0.11437943540E+04  0.00000000000E+00 0. -1.
          1    1    1    2  502    0  0.47870182260E+02 -0.70111328208E+02  0.32184667881E+04  0.32195862496E+04  0.00000000000E+00 0. -1.
         22    1    3    3    0    0 -0.79996331632E+02  0.10431976398E+03  0.14750151084E+03  0.19758219032E+03  0.00000000000E+00 0.  1.
         22    1    3    3    0    0  0.44276567645E+02  0.28007131510E+02  0.85105921922E+02  0.99939140501E+02  0.00000000000E+00 0.  1.
</event>
<event>
 7    1  0.6444902E-006  0.7080681E+02  0.7818608E-02  0.1358957E+00
          2   -1    0    0  502    0  0.00000000000E+00  0.00000000000E+00  0.10014159016E+04  0.10014159016E+04  0.00000000000E+00 0. -1.
          1   -1    0    0  501    0 -0.00000000000E+00 -0.00000000000E+00 -0.50368434871E+03  0.50368434871E+03  0.00000000000E+00 0. -1.
         25    2    1    2    0    0 -0.73395009546E+02 -0.32446709700E+02  0.13168365101E+02  0.14911893682E+03  0.12499374017E+03 0.  0.
          2    1    1    2  501    0  0.12080991720E+02  0.68814313917E+02 -0.43151451789E+03  0.43713400613E+03  0.00000000000E+00 0. -1.
          1    1    1    2  502    0  0.61314017826E+02 -0.36367604217E+02  0.91607770564E+03  0.91884730733E+03  0.00000000000E+00 0. -1.
         22    1    3    3    0    0 -0.19425956144E+02  0.47806293698E+02  0.84699061829E+01  0.52292913478E+02  0.00000000000E+00 0. -1.
         22    1    3    3    0    0 -0.53969053402E+02 -0.80253003398E+02  0.46984589177E+01  0.96826023339E+02  0.00000000000E+00 0. -1.
</event>
<event>
 7    1  0.6444902E-006  0.8746201E+02  0.7818608E-02  0.1447259E+00
          2   -1    0    0  502    0  0.00000000000E+00  0.00000000000E+00  0.27499263674E+03  0.27499263674E+03  0.00000000000E+00 0. -1.
          1   -1    0    0  501    0 -0.00000000000E+00 -0.00000000000E+00 -0.26459583413E+03  0.26459583413E+03  0.00000000000E+00 0. -1.
         25    2    1    2    0    0 -0.45334695971E+02  0.76544663417E+02 -0.41651529231E+02  0.15897132212E+03  0.12499084451E+03 0.  0.
          2    1    1    2  501    0  0.18750241390E+02 -0.85894921628E+02 -0.15148123990E+03  0.17514586822E+03  0.00000000000E+00 0. -1.
          1    1    1    2  502    0  0.26584454580E+02  0.93502582107E+01  0.20352957174E+03  0.20547128054E+03  0.00000000000E+00 0. -1.
         22    1    3    3    0    0 -0.45507139579E+02  0.10051169146E+03  0.66849389590E+00  0.11033560965E+03  0.00000000000E+00 0. -1.
         22    1    3    3    0    0  0.17244360849E+00 -0.23967028039E+02 -0.42320023127E+02  0.48635712469E+02  0.00000000000E+00 0. -1.
</event>
<event>
 7    1  0.6444902E-006  0.7093966E+02  0.7818608E-02  0.1376180E+00
          2   -1    0    0  502    0  0.00000000000E+00  0.00000000000E+00  0.39971451087E+03  0.39971451087E+03  0.00000000000E+00 0. -1.
          1   -1    0    0  501    0 -0.00000000000E+00 -0.00000000000E+00 -0.15591452839E+04  0.15591452839E+04  0.00000000000E+00 0. -1.
         25    2    1    2    0    0  0.10490329156E+02  0.12494727288E+03  0.35764014837E+02  0.18062539668E+03  0.12499840464E+03 0.  0.
          2    1    1    2  501    0  0.91062701589E+01 -0.59747879996E+02 -0.14821154507E+04  0.14833472090E+04  0.00000000000E+00 0. -1.
          1    1    1    2  502    0 -0.19596599315E+02 -0.65199392888E+02  0.28692066281E+03  0.29488718908E+03  0.00000000000E+00 0. -1.
         22    1    3    3    0    0 -0.22144959412E+02  0.84835193512E+02 -0.33782309625E+02  0.93960915966E+02  0.00000000000E+00 0. -1.
         22    1    3    3    0    0  0.32635288568E+02  0.40112079371E+02  0.69546324462E+02  0.86664480715E+02  0.00000000000E+00 0. -1.
</event>
<event>
 7    1  0.6444902E-006  0.1073151E+03  0.7818608E-02  0.1312910E+00
          2   -1    0    0  502    0  0.00000000000E+00  0.00000000000E+00  0.17611375366E+04  0.17611375366E+04  0.00000000000E+00 0. -1.
          1   -1    0    0  501    0 -0.00000000000E+00 -0.00000000000E+00 -0.27469552796E+03  0.27469552796E+03  0.00000000000E+00 0. -1.
         25    2    1    2    0    0 -0.45370471865E+02  0.15223101619E+03 -0.54613215681E+02  0.20938279199E+03  0.12500315295E+03 0.  0.
          2    1    1    2  501    0  0.49461273818E+02 -0.83478726602E+02 -0.12540868086E+03  0.15856371791E+03  0.00000000000E+00 0. -1.
          1    1    1    2  502    0 -0.40908019532E+01 -0.68752289589E+02  0.16664639051E+04  0.16678865546E+04  0.00000000000E+00 0. -1.
         22    1    3    3    0    0 -0.39258717729E+02  0.17388481391E+03 -0.55971234155E+02  0.18684205757E+03  0.00000000000E+00 0.  1.
         22    1    3    3    0    0 -0.61117541363E+01 -0.21653797714E+02  0.13580184742E+01  0.22540734421E+02  0.00000000000E+00 0.  1.
</event>
<event>
 7    1  0.6444902E-006  0.1377035E+03  0.7818608E-02  0.1297419E+00
          2   -1    0    0  502    0  0.00000000000E+00  0.00000000000E+00  0.39018634743E+04  0.39018634743E+04  0.00000000000E+00 0. -1.
          1   -1    0    0  501    0 -0.00000000000E+00 -0.00000000000E+00 -0.14792387833E+02  0.14792387833E+02  0.00000000000E+00 0. -1.
         25    2    1    2    0    0 -0.10235886549E+03 -0.24452179705E+02  0.11446740810E+04  0.11562780636E+04  0.12499984865E+03 0.  0.
          2    1    1    2  501    0 -0.26242462761E+02 -0.55997899547E+02  0.13409177901E+03  0.14766528638E+03  0.00000000000E+00 0. -1.
          1    1    1    2  502    0  0.12860132825E+03  0.80450079252E+02  0.26083052264E+04  0.26127125121E+04  0.00000000000E+00 0. -1.
         22    1    3    3    0    0  0.23126083593E+02  0.19696168034E+02  0.21389960598E+03  0.21604581971E+03  0.00000000000E+00 0.  1.
         22    1    3    3    0    0 -0.12548494908E+03 -0.44148347739E+02  0.93077447504E+03  0.94023224388E+03  0.00000000000E+00 0.  1.
</event>
<event>
 7    1  0.6444902E-006  0.9129676E+02  0.7818608E-02  0.1316352E+00
          2   -1    0    0  502    0  0.00000000000E+00  0.00000000000E+00  0.12415272888E+04  0.12415272888E+04  0.00000000000E+00 0. -1.
          1   -1    0    0  501    0 -0.00000000000E+00 -0.00000000000E+00 -0.10619033002E+03  0.10619033002E+03  0.00000000000E+00 0. -1.
         25    2    1    2    0    0 -0.11241945100E+02  0.19354592817E+02 -0.12068264974E+02  0.12755969307E+03  0.12499940274E+03 0.  0.
          2    1    1    2  501    0 -0.78111053361E+02  0.76638323611E+01  0.10221097158E+02  0.79148858556E+02  0.00000000000E+00 0. -1.
          1    1    1    2  502    0  0.89352998461E+02 -0.27018425179E+02  0.11371841266E+04  0.11410090672E+04  0.00000000000E+00 0. -1.
         22    1    3    3    0    0 -0.65159006575E+02  0.25916897341E+02  0.58445695812E+01  0.70367184818E+02  0.00000000000E+00 0. -1.
         22    1    3    3    0    0  0.53917061475E+02 -0.65623045237E+01 -0.17912834555E+02  0.57192508256E+02  0.00000000000E+00 0. -1.
</event>
<event>
 7    1  0.6444902E-006  0.1208812E+03  0.7818608E-02  0.1317193E+00
          2   -1    0    0  502    0  0.00000000000E+00  0.00000000000E+00  0.20482098492E+04  0.20482098492E+04  0.00000000000E+00 0. -1.
          1   -1    0    0  501    0 -0.00000000000E+00 -0.00000000000E+00 -0.47058549927E+03  0.47058549927E+03  0.00000000000E+00 0. -1.
         25    2    1    2    0    0 -0.29754954254E+02 -0.16961056275E+03 -0.37918852671E+02  0.21613936106E+03  0.12500113485E+03 0.  0.
          2    1    1    2  501    0  0.31874081909E+02  0.49448938031E+02 -0.33917867752E+03  0.34424312608E+03  0.00000000000E+00 0. -1.
          1    1    1    2  502    0 -0.21191276545E+01  0.12016162472E+03  0.19547218802E+04  0.19584128614E+04  0.00000000000E+00 0. -1.
         22    1    3    3    0    0  0.51635307527E+01 -0.16510956383E+03 -0.58636642288E+02  0.17528857903E+03  0.00000000000E+00 0. -1.
         22    1    3    3    0    0 -0.34918485007E+02 -0.45009989233E+01  0.20717789617E+02  0.40850782038E+02  0.00000000000E+00 0. -1.
</event>
<event>
 7    1  0.6444902E-006  0.1793704E+03  0.7818608E-02  0.1341581E+00
          2   -1    0    0  502    0  0.00000000000E+00  0.00000000000E+00  0.11455371296E+04  0.11455371296E+04  0.00000000000E+00 0. -1.
          1   -1    0    0  501    0 -0.00000000000E+00 -0.00000000000E+00 -0.91686672438E+03  0.91686672438E+03  0.00000000000E+00 0. -1.
         25    2    1    2    0    0 -0.20192009893E+03  0.13094058913E+01  0.47943240019E+03  0.53502705326E+03  0.12500032191E+03 0.  0.
          2    1    1    2  501    0  0.31762335491E+02 -0.37695470022E+01 -0.87743043604E+03  0.87801322629E+03  0.00000000000E+00 0. -1.
          1    1    1    2  502    0  0.17015776344E+03  0.24601411109E+01  0.62666844111E+03  0.64936357446E+03  0.00000000000E+00 0. -1.
         22    1    3    3    0    0 -0.19459134963E+03  0.39463527361E+02  0.40598557798E+03  0.45193744354E+03  0.00000000000E+00 0.  1.
         22    1    3    3    0    0 -0.73287492919E+01 -0.38154121470E+02  0.73446822204E+02  0.83089609718E+02  0.00000000000E+00 0.  1.
</event>
<event>
 7    1  0.6444902E-006  0.3461561E+02  0.7818608E-02  0.1619625E+00
          2   -1    0    0  502    0  0.00000000000E+00  0.00000000000E+00  0.67294110292E+03  0.67294110292E+03  0.00000000000E+00 0. -1.
          1   -1    0    0  501    0 -0.00000000000E+00 -0.00000000000E+00 -0.10976905992E+04  0.10976905992E+04  0.00000000000E+00 0. -1.
         25    2    1    2    0    0 -0.30916385992E+02 -0.22536341247E+02 -0.27699609485E+03  0.30629339200E+03  0.12500038327E+03 0.  0.
          2    1    1    2  501    0  0.20354711958E+02 -0.10434744124E+02 -0.80542817012E+03  0.80575289972E+03  0.00000000000E+00 0. -1.
          1    1    1    2  502    0  0.10561674035E+02  0.32971085371E+02  0.65767476869E+03  0.65858541041E+03  0.00000000000E+00 0. -1.
         22    1    3    3    0    0  0.33917730947E+02  0.11617159651E+01 -0.20010447630E+03  0.20296197548E+03  0.00000000000E+00 0. -1.
         22    1    3    3    0    0 -0.64834116939E+02 -0.23698057212E+02 -0.76891618553E+02  0.10333141651E+03  0.00000000000E+00 0. -1.
</event>
<event>
 7    1  0.6444902E-006  0.4133332E+02  0.7818608E-02  0.1506286E+00
          2   -1    0    0  502    0  0.00000000000E+00  0.00000000000E+00  0.19549787919E+04  0.19549787919E+04  0.00000000000E+00 0. -1.
          1   -1    0    0  501    0 -0.00000000000E+00 -0.00000000000E+00 -0.34183579017E+03  0.34183579017E+03  0.00000000000E+00 0. -1.
         25    2    1    2    0    0 -0.28200738969E+02  0.44292693603E+02  0.19522390392E+03  0.23768601300E+03  0.12500057491E+03 0.  0.
          2    1    1    2  501    0  0.40749341111E+02 -0.71341684354E+01 -0.31904793343E+03  0.32171880422E+03  0.00000000000E+00 0. -1.
          1    1    1    2  502    0 -0.12548602142E+02 -0.37158525167E+02  0.17369670312E+04  0.17374097648E+04  0.00000000000E+00 0. -1.
         22    1    3    3    0    0 -0.11765109780E+02  0.37949333794E+01  0.19355393261E+03  0.19394830279E+03  0.00000000000E+00 0.  1.
         22    1    3    3    0    0 -0.16435629189E+02  0.40497760223E+02  0.16699713092E+01  0.43737710207E+02  0.00000000000E+00 0.  1.
</event>
<event>
 7    1  0.6444902E-006  0.1610359E+03  0.7818608E-02  0.1302233E+00
          2   -1    0    0  502    0  0.00000000000E+00  0.00000000000E+00  0.13789602611E+04  0.13789602611E+04  0.00000000000E+00 0. -1.
          1   -1    0    0  501    0 -0.00000000000E+00 -0.00000000000E+00 -0.11895320717E+03  0.11895320717E+03  0.00000000000E+00 0. -1.
         25    2    1    2    0    0 -0.16577102308E+03  0.95727413323E+02  0.41126784644E+03  0.47054020390E+03  0.12499228861E+03 0.  0.
          2    1    1    2  501    0  0.14933621681E+03 -0.47885530018E+02 -0.19168220258E+02  0.15799288055E+03  0.00000000000E+00 0. -1.
          1    1    1    2  502    0  0.16434806277E+02 -0.47841883305E+02  0.86790742772E+03  0.86938038381E+03  0.00000000000E+00 0. -1.
         22    1    3    3    0    0 -0.18597423889E+03  0.78086470130E+02  0.36725233223E+03  0.41899664662E+03  0.00000000000E+00 0.  1.
         22    1    3    3    0    0  0.20203215809E+02  0.17640943193E+02  0.44015514209E+02  0.51543557278E+02  0.00000000000E+00 0.  1.
</event>
<event>
 7    1  0.6444902E-006  0.2909208E+03  0.7818608E-02  0.1240969E+00
          2   -1    0    0  502    0  0.00000000000E+00  0.00000000000E+00  0.16750221109E+04  0.16750221109E+04  0.00000000000E+00 0. -1.
          1   -1    0    0  501    0 -0.00000000000E+00 -0.00000000000E+00 -0.33967223347E+03  0.33967223347E+03  0.00000000000E+00 0. -1.
         25    2    1    2    0    0  0.25616770758E+03  0.18140820366E+03  0.25671684231E+03  0.42433440089E+03  0.12500126357E+03 0.  0.
          2    1    1    2  501    0 -0.20790773868E+03 -0.19653615931E+03 -0.17521764956E+03  0.33548966368E+03  0.00000000000E+00 0. -1.
          1    1    1    2  502    0 -0.48259968897E+02  0.15127955650E+02  0.12538506847E+04  0.12548702798E+04  0.00000000000E+00 0. -1.
         22    1    3    3    0    0  0.63765908081E+01 -0.15053764531E+02  0.29296520860E+02  0.33549409404E+02  0.00000000000E+00 0. -1.
         22    1    3    3    0    0  0.24979111677E+03  0.19646196820E+03  0.22742032145E+03  0.39078499149E+03  0.00000000000E+00 0. -1.
</event>
<event>
 7    1  0.6444902E-006  0.4787360E+02  0.7818608E-02  0.1457407E+00
          2   -1    0    0  502    0  0.00000000000E+00  0.00000000000E+00  0.43449757509E+03  0.43449757509E+03  0.00000000000E+00 0. -1.
          1   -1    0    0  501    0 -0.00000000000E+00 -0.00000000000E+00 -0.57346605575E+03  0.57346605575E+03  0.00000000000E+00 0. -1.
         25    2    1    2    0    0 -0.83877090281E+01  0.33822923966E+02 -0.27084828598E+03  0.30032922284E+03  0.12499801688E+03 0.  0.
          2    1    1    2  501    0 -0.39155630963E+02 -0.27544845368E+02 -0.28450114364E+03  0.28850092318E+03  0.00000000000E+00 0. -1.
          1    1    1    2  502    0  0.47543339991E+02 -0.62780785979E+01  0.41638094895E+03  0.41913348482E+03  0.00000000000E+00 0. -1.
         22    1    3    3    0    0 -0.20327824500E+02 -0.40792004254E+02 -0.53835979454E+02  0.70537371256E+02  0.00000000000E+00 0. -1.
         22    1    3    3    0    0  0.11940115472E+02  0.74614928220E+02 -0.21701230653E+03  0.22979185158E+03  0.00000000000E+00 0. -1.
</event>
<event>
 7    1  0.6444902E-006  0.1419522E+03  0.7818608E-02  0.1347897E+00
          2   -1    0    0  502    0  0.00000000000E+00  0.00000000000E+00  0.12085435061E+04  0.12085435061E+04  0.00000000000E+00 0. -1.
          1   -1    0    0  501    0 -0.00000000000E+00 -0.00000000000E+00 -0.52450405434E+03  0.52450405434E+03  0.00000000000E+00 0. -1.
         25    2    1    2    0    0 -0.10596766379E+03 -0.82238307367E+02 -0.91433302980E+02  0.20488406070E+03  0.12500057786E+03 0.  0.
          2    1    1    2  501    0  0.21044797968E+02 -0.31976015753E+02 -0.37095998406E+03  0.37292983104E+03  0.00000000000E+00 0. -1.
          1    1    1    2  502    0  0.84922865821E+02  0.11421432312E+03  0.11464327387E+04  0.11552336687E+04  0.00000000000E+00 0. -1.
         22    1    3    3    0    0 -0.98503150012E+02 -0.85151272977E+02 -0.11886730373E+03  0.17630384496E+03  0.00000000000E+00 0. -1.
         22    1    3    3    0    0 -0.74645137773E+01  0.29129656096E+01  0.27434000748E+02  0.28580215737E+02  0.00000000000E+00 0. -1.
</event>
<event>
 7    1  0.6444902E-006  0.1468104E+03  0.7818608E-02  0.1273018E+00
          2   -1    0    0  502    0  0.00000000000E+00  0.00000000000E+00  0.38062219119E+03  0.38062219119E+03  0.00000000000E+00 0. -1.
          1   -1    0    0  501    0 -0.00000000000E+00 -0.00000000000E+00 -0.14876202739E+04  0.14876202739E+04  0.00000000000E+00 0. -1.
         25    2    1    2    0    0 -0.62172603367E+01  0.76990615761E+02  0.33041989483E+02  0.15061348979E+03  0.12500576385E+03 0.  0.
          2    1    1    2  501    0  0.63271876796E+00 -0.14980301661E+03 -0.14202148035E+04  0.14280936357E+04  0.00000000000E+00 0. -1.
          1    1    1    2  502    0  0.55845415687E+01  0.72812400847E+02  0.28017473133E+03  0.28953533963E+03  0.00000000000E+00 0. -1.
         22    1    3    3    0    0 -0.39030356144E+02  0.36224598145E+02 -0.35780533682E+02  0.64154787834E+02  0.00000000000E+00 0. -1.
         22    1    3    3    0    0  0.32813095807E+02  0.40766017616E+02  0.68822523166E+02  0.86458701954E+02  0.00000000000E+00 0. -1.
</event>
<event>
 7    1  0.6444902E-006  0.5030524E+02  0.7818608E-02  0.1519392E+00
          2   -1    0    0  502    0  0.00000000000E+00  0.00000000000E+00  0.14910054604E+04  0.14910054604E+04  0.00000000000E+00 0. -1.
          1   -1    0    0  501    0 -0.00000000000E+00 -0.00000000000E+00 -0.20817201563E+03  0.20817201563E+03  0.00000000000E+00 0. -1.
         25    2    1    2    0    0  0.39492674358E+02 -0.19889846285E+02  0.27704463580E+03  0.30714198722E+03  0.12500877079E+03 0.  0.
          2    1    1    2  501    0 -0.15673725854E+02 -0.24987146150E+02 -0.19145517237E+03  0.19371398035E+03  0.00000000000E+00 0. -1.
          1    1    1    2  502    0 -0.23818948504E+02  0.44876992435E+02  0.11972439813E+04  0.11983215084E+04  0.00000000000E+00 0. -1.
         22    1    3    3    0    0 -0.11177014659E+02 -0.46378902750E+02  0.22441975231E+03  0.22943442092E+03  0.00000000000E+00 0. -1.
         22    1    3    3    0    0  0.50669689017E+02  0.26489056465E+02  0.52624883490E+02  0.77707566297E+02  0.00000000000E+00 0. -1.
</event>
<event>
 7    1  0.6444902E-006  0.2206726E+03  0.7818608E-02  0.1245899E+00
          2   -1    0    0  502    0  0.00000000000E+00  0.00000000000E+00  0.22121964213E+04  0.22121964213E+04  0.00000000000E+00 0. -1.
          1   -1    0    0  501    0 -0.00000000000E+00 -0.00000000000E+00 -0.93140823407E+03  0.93140823407E+03  0.00000000000E+00 0. -1.
         25    2    1    2    0    0 -0.24016221805E+03 -0.54427499799E+02 -0.28496310226E+03  0.39682575976E+03  0.12500588085E+03 0.  0.
          2    1    1    2  501    0  0.43898322271E+02 -0.45796655244E+02 -0.58315850796E+03  0.58659887635E+03  0.00000000000E+00 0. -1.
          1    1    1    2  502    0  0.19626389578E+03  0.10022415504E+03  0.21489097974E+04  0.21601800192E+04  0.00000000000E+00 0. -1.
         22    1    3    3    0    0 -0.23480202813E+03 -0.20572852985E+02 -0.27264473700E+03  0.36040309004E+03  0.00000000000E+00 0.  1.
         22    1    3    3    0    0 -0.53601899177E+01 -0.33854646814E+02 -0.12318365252E+02  0.36422669717E+02  0.00000000000E+00 0.  1.
</event>
<event>
 7    1  0.6444902E-006  0.5758770E+02  0.7818608E-02  0.1442924E+00
          2   -1    0    0  502    0  0.00000000000E+00  0.00000000000E+00  0.35421734932E+02  0.35421734932E+02  0.00000000000E+00 0. -1.
          1   -1    0    0  501    0 -0.00000000000E+00 -0.00000000000E+00 -0.10678338024E+04  0.10678338024E+04  0.00000000000E+00 0. -1.
         25    2    1    2    0    0  0.53132134335E+02  0.42252617134E+02 -0.27367273382E+03  0.30843085837E+03  0.12499808719E+03 0.  0.
          2    1    1    2  501    0 -0.57866219405E+02  0.16917696166E+01 -0.74680188227E+03  0.74904233044E+03  0.00000000000E+00 0. -1.
          1    1    1    2  502    0  0.47340850692E+01 -0.43944386750E+02 -0.11937451339E+02  0.45782348485E+02  0.00000000000E+00 0. -1.
         22    1    3    3    0    0  0.45686615140E+02 -0.30141967247E+02 -0.18907055630E+03  0.19683363597E+03  0.00000000000E+00 0. -1.
         22    1    3    3    0    0  0.74455191954E+01  0.72394584381E+02 -0.84602177525E+02  0.11159722239E+03  0.00000000000E+00 0. -1.
</event>
<event>
 7    1  0.6444902E-006  0.1383261E+03  0.7818608E-02  0.1412896E+00
          2   -1    0    0  502    0  0.00000000000E+00  0.00000000000E+00  0.12190847047E+03  0.12190847047E+03  0.00000000000E+00 0. -1.
          1   -1    0    0  501    0 -0.00000000000E+00 -0.00000000000E+00 -0.22411569400E+04  0.22411569400E+04  0.00000000000E+00 0. -1.
         25    2    1    2    0    0  0.15023572567E+03  0.56255086327E+02 -0.95846169523E+03  0.97980032537E+03  0.12499779344E+03 0.  0.
          2    1    1    2  501    0 -0.21081400140E+02 -0.94941782223E+01 -0.12294729351E+04  0.12296903118E+04  0.00000000000E+00 0. -1.
          1    1    1    2  502    0 -0.12915432553E+03 -0.46760908105E+02  0.68686160742E+02  0.15357477334E+03  0.00000000000E+00 0. -1.
         22    1    3    3    0    0  0.96768619361E+02 -0.54420513628E+01 -0.74466702127E+03  0.75094790378E+03  0.00000000000E+00 0.  1.
         22    1    3    3    0    0  0.53467106307E+02  0.61697137690E+02 -0.21379467395E+03  0.22885242159E+03  0.00000000000E+00 0.  1.
</event>
<event>
 7    1  0.6444902E-006  0.1121384E+03  0.7818608E-02  0.1414254E+00
          2   -1    0    0  502    0  0.00000000000E+00  0.00000000000E+00  0.72488524058E+02  0.72488524058E+02  0.00000000000E+00 0. -1.
          1   -1    0    0  501    0 -0.00000000000E+00 -0.00000000000E+00 -0.34879300200E+04  0.34879300200E+04  0.00000000000E+00 0. -1.
         25    2    1    2    0    0 -0.11763119373E+02  0.83781894551E+02 -0.19250441161E+04  0.19309527014E+04  0.12500283765E+03 0.  0.
          2    1    1    2  501    0 -0.54479317874E+01  0.27690298576E+02 -0.15139724078E+04  0.15142354124E+04  0.00000000000E+00 0. -1.
          1    1    1    2  502    0  0.17211051160E+02 -0.11147219313E+03  0.23575027894E+02  0.11523043028E+03  0.00000000000E+00 0. -1.
         22    1    3    3    0    0 -0.10283692862E+02  0.98075155177E+02 -0.83339038096E+03  0.83920439553E+03  0.00000000000E+00 0.  1.
         22    1    3    3    0    0 -0.14794265111E+01 -0.14293260626E+02 -0.10916537351E+04  0.10917483059E+04  0.00000000000E+00 0.  1.
</event>
<event>
 7    1  0.6444902E-006  0.6712849E+02  0.7818608E-02  0.1438195E+00
          2   -1    0    0  502    0  0.00000000000E+00  0.00000000000E+00  0.91326133265E+03  0.91326133265E+03  0.00000000000E+00 0. -1.
          1   -1    0    0  501    0 -0.00000000000E+00 -0.00000000000E+00 -0.53808846834E+03  0.53808846834E+03  0.00000000000E+00 0. -1.
         25    2    1    2    0    0  0.10364886105E+02 -0.96219586720E+02 -0.25384160403E+03  0.29904227210E+03  0.12500032333E+03 0.  0.
          2    1    1    2  501    0 -0.21866359203E+02  0.58661602321E+02 -0.25746052766E+03  0.26496272295E+03  0.00000000000E+00 0. -1.
          1    1    1    2  502    0  0.11501473098E+02  0.37557984399E+02  0.88647499601E+03  0.88734480593E+03  0.00000000000E+00 0. -1.
         22    1    3    3    0    0  0.11280980477E+02  0.15642146288E+02 -0.13292240629E+03  0.13431419640E+03  0.00000000000E+00 0. -1.
         22    1    3    3    0    0 -0.91609437252E+00 -0.11186173301E+03 -0.12091919774E+03  0.16472807570E+03  0.00000000000E+00 0. -1.
</event>
<event>
 7    1  0.6444902E-006  0.1475990E+03  0.7818608E-02  0.1259768E+00
          2   -1    0    0  502    0  0.00000000000E+00  0.00000000000E+00  0.18165192488E+04  0.18165192488E+04  0.00000000000E+00 0. -1.
          1   -1    0    0  501    0 -0.00000000000E+00 -0.00000000000E+00 -0.82474962136E+02  0.82474962136E+02  0.00000000000E+00 0. -1.
         25    2    1    2    0    0  0.19343605229E+03  0.68894416069E+02  0.80116993191E+03  0.83645901385E+03  0.12500590055E+03 0.  0.
          2    1    1    2  501    0 -0.82435109279E+02  0.56316005707E+01 -0.31877503333E+02  0.88563183014E+02  0.00000000000E+00 0. -1.
          1    1    1    2  502    0 -0.11100094301E+03 -0.74526016639E+02  0.96475185810E+03  0.97397201408E+03  0.00000000000E+00 0. -1.
         22    1    3    3    0    0  0.86359771691E+02 -0.29998811443E+02  0.24482429083E+03  0.26133670281E+03  0.00000000000E+00 0.  1.
         22    1    3    3    0    0  0.10707628060E+03  0.98893227512E+02  0.55634564108E+03  0.57512231105E+03  0.00000000000E+00 0.  1.
</event>
<event>
 7    1  0.6761982E-006  0.6798806E+02  0.7818608E-02  0.1373557E+00
          2   -1    0    0  502    0  0.00000000000E+00  0.00000000000E+00  0.90273664493E+03  0.90273664493E+03  0.00000000000E+00 0. -1.
          1   -1    0    0  501    0 -0.00000000000E+00 -0.00000000000E+00 -0.97487669821E+03  0.97487669821E+03  0.00000000000E+00 0. -1.
         25    2    1    2    0    0 -0.74823868297E+02  0.10257581886E+03 -0.21336937327E+03  0.27797733881E+03  0.12499800623E+03 0.  0.
          2    1    1    2  501    0  0.21637370081E+02 -0.60694664986E+02 -0.72645887445E+03  0.72931098608E+03  0.00000000000E+00 0. -1.
          1    1    1    2  502    0  0.53186498216E+02 -0.41881153874E+02  0.86768819443E+03  0.87032501825E+03  0.00000000000E+00 0. -1.
         22    1    3    3    0    0 -0.10727333523E+03  0.95707897785E+02 -0.15960795334E+03  0.21480751598E+03  0.00000000000E+00 0. -1.
         22    1    3    3    0    0  0.32449466938E+02  0.68679210761E+01 -0.53761419922E+02  0.63169822831E+02  0.00000000000E+00 0. -1.
</event>
<event>
 7    1  0.6444902E-006  0.1243558E+03  0.7818608E-02  0.1307345E+00
          2   -1    0    0  502    0  0.00000000000E+00  0.00000000000E+00  0.50711112984E+03  0.50711112984E+03  0.00000000000E+00 0. -1.
          1   -1    0    0  501    0 -0.00000000000E+00 -0.00000000000E+00 -0.14375873185E+04  0.14375873185E+04  0.00000000000E+00 0. -1.
         25    2    1    2    0    0  0.17160011998E+03  0.59686486489E+02 -0.14840862934E+03  0.26581805108E+03  0.12500014868E+03 0.  0.
          2    1    1    2  501    0 -0.52113750015E+02 -0.34527099720E+02 -0.12213469621E+04  0.12229457737E+04  0.00000000000E+00 0. -1.
          1    1    1    2  502    0 -0.11948636997E+03 -0.25159386769E+02  0.43927940273E+03  0.45593462361E+03  0.00000000000E+00 0. -1.
         22    1    3    3    0    0  0.17986669750E+03  0.39937528963E+02 -0.92939830277E+02  0.20636096322E+03  0.00000000000E+00 0.  1.
         22    1    3    3    0    0 -0.82665775213E+01  0.19748957526E+02 -0.55468799059E+02  0.59457087856E+02  0.00000000000E+00 0.  1.
</event>
<event>
 7    1  0.6444902E-006  0.5131260E+02  0.7818608E-02  0.1492329E+00
          2   -1    0    0  502    0  0.00000000000E+00  0.00000000000E+00  0.68144617302E+03  0.68144617302E+03  0.00000000000E+00 0. -1.
          1   -1    0    0  501    0 -0.00000000000E+00 -0.00000000000E+00 -0.86004356171E+03  0.86004356171E+03  0.00000000000E+00 0. -1.
         25    2    1    2    0    0  0.62970087755E+02 -0.55470074483E+02  0.67775048841E+02  0.16510666168E+03  0.12499836547E+03 0.  0.
          2    1    1    2  501    0 -0.31845853325E+02  0.39958051441E+02 -0.81003692319E+03  0.81164685743E+03  0.00000000000E+00 0. -1.
          1    1    1    2  502    0 -0.31124234430E+02  0.15512023042E+02  0.56366448567E+03  0.56473621562E+03  0.00000000000E+00 0. -1.
         22    1    3    3    0    0 -0.13179192888E+02 -0.28436641241E+02  0.77614933476E+02  0.83704310455E+02  0.00000000000E+00 0. -1.
         22    1    3    3    0    0  0.76149280642E+02 -0.27033433242E+02 -0.98398846357E+01  0.81402351224E+02  0.00000000000E+00 0. -1.
</event>
<event>
 7    1  0.6444902E-006  0.6067416E+02  0.7818608E-02  0.1522334E+00
          2   -1    0    0  502    0  0.00000000000E+00  0.00000000000E+00  0.26277617893E+03  0.26277617893E+03  0.00000000000E+00 0. -1.
          1   -1    0    0  501    0 -0.00000000000E+00 -0.00000000000E+00 -0.56725470906E+03  0.56725470906E+03  0.00000000000E+00 0. -1.
         25    2    1    2    0    0 -0.38078036935E+02 -0.47473248900E+02 -0.59921354953E+02  0.15139361684E+03  0.12500324869E+03 0.  0.
          2    1    1    2  501    0  0.53467182825E+02  0.29083219799E+02 -0.45891939356E+03  0.46293799055E+03  0.00000000000E+00 0. -1.
          1    1    1    2  502    0 -0.15389145890E+02  0.18390029102E+02  0.21436221838E+03  0.21569928060E+03  0.00000000000E+00 0. -1.
         22    1    3    3    0    0 -0.53437520492E+02 -0.60505582543E-01  0.20123638416E+02  0.57101077751E+02  0.00000000000E+00 0. -1.
         22    1    3    3    0    0  0.15359483557E+02 -0.47412743318E+02 -0.80044993369E+02  0.94292539087E+02  0.00000000000E+00 0. -1.
</event>
<event>
 7    1  0.6444902E-006  0.8338774E+02  0.7818608E-02  0.1352358E+00
          2   -1    0    0  502    0  0.00000000000E+00  0.00000000000E+00  0.14519448463E+04  0.14519448463E+04  0.00000000000E+00 0. -1.
          1   -1    0    0  501    0 -0.00000000000E+00 -0.00000000000E+00 -0.62114235392E+03  0.62114235392E+03  0.00000000000E+00 0. -1.
         25    2    1    2    0    0  0.86316186257E+02 -0.68767502660E+02  0.15267867256E+03  0.22607683054E+03  0.12498200998E+03 0.  0.
          2    1    1    2  501    0 -0.34758901314E+01  0.62634778319E+02 -0.58138789798E+03  0.58476241772E+03  0.00000000000E+00 0. -1.
          1    1    1    2  502    0 -0.82840296126E+02  0.61327243411E+01  0.12595117178E+04  0.12622479519E+04  0.00000000000E+00 0. -1.
         22    1    3    3    0    0 -0.29035981973E+02 -0.36648706588E+02  0.37566510079E+02  0.59978818121E+02  0.00000000000E+00 0. -1.
         22    1    3    3    0    0  0.11535216823E+03 -0.32118796073E+02  0.11511216248E+03  0.16609801241E+03  0.00000000000E+00 0. -1.
</event>
<event>
 7    1  0.6444902E-006  0.5386048E+02  0.7818608E-02  0.1515256E+00
          2   -1    0    0  502    0  0.00000000000E+00  0.00000000000E+00  0.22018865857E+03  0.22018865857E+03  0.00000000000E+00 0. -1.
          1   -1    0    0  501    0 -0.00000000000E+00 -0.00000000000E+00 -0.84350901537E+03  0.84350901537E+03  0.00000000000E+00 0. -1.
         25    2    1    2    0    0  0.15946662546E+02 -0.73451275760E+02  0.10100456515E+03  0.17741402531E+03  0.12499771293E+03 0.  0.
          2    1    1    2  501    0  0.42340554655E+01  0.53576262810E+02 -0.80190021014E+03  0.80369912914E+03  0.00000000000E+00 0. -1.
          1    1    1    2  502    0 -0.20180718011E+02  0.19875012950E+02  0.77575288197E+02  0.82584519481E+02  0.00000000000E+00 0. -1.
         22    1    3    3    0    0  0.61319585170E+02 -0.66843726730E+02  0.94694139748E+02  0.13113029944E+03  0.00000000000E+00 0.  1.
         22    1    3    3    0    0 -0.45372922624E+02 -0.66075490308E+01  0.63104253988E+01  0.46283725870E+02  0.00000000000E+00 0.  1.
</event>
<event>
 7    1  0.6444902E-006  0.1171266E+03  0.7818608E-02  0.1389264E+00
          2   -1    0    0  502    0  0.00000000000E+00  0.00000000000E+00  0.19226130316E+04  0.19226130316E+04  0.00000000000E+00 0. -1.
          1   -1    0    0  501    0 -0.00000000000E+00 -0.00000000000E+00 -0.62976340090E+02  0.62976340090E+02  0.00000000000E+00 0. -1.
         25    2    1    2    0    0  0.10356120706E+03  0.63150788858E+02  0.45192820953E+03  0.48432685693E+03  0.12498180679E+03 0.  0.
          2    1    1    2  501    0  0.92044983428E+01 -0.31601459337E+02 -0.38311673178E+02  0.50509002402E+02  0.00000000000E+00 0. -1.
          1    1    1    2  502    0 -0.11276570540E+03 -0.31549329521E+02  0.14460201551E+04  0.14507535124E+04  0.00000000000E+00 0. -1.
         22    1    3    3    0    0  0.10496620661E+03  0.52965965155E+02  0.19861854813E+03  0.23080863428E+03  0.00000000000E+00 0.  1.
         22    1    3    3    0    0 -0.14049995510E+01  0.10184823704E+02  0.25330966140E+03  0.25351822265E+03  0.00000000000E+00 0.  1.
</event>
<event>
 7    1  0.6444902E-006  0.1330867E+03  0.7818608E-02  0.1289542E+00
          2   -1    0    0  502    0  0.00000000000E+00  0.00000000000E+00  0.30253226263E+04  0.30253226263E+04  0.00000000000E+00 0. -1.
          1   -1    0    0  501    0 -0.00000000000E+00 -0.00000000000E+00 -0.13722639906E+03  0.13722639906E+03  0.00000000000E+00 0. -1.
         25    2    1    2    0    0 -0.50174665789E+02 -0.49532508025E+02  0.39653936008E+03  0.42170493281E+03  0.12498247806E+03 0.  0.
          2    1    1    2  501    0  0.92329417076E+02  0.10397867827E+03 -0.85256903045E+02  0.16311047271E+03  0.00000000000E+00 0. -1.
          1    1    1    2  502    0 -0.42154751287E+02 -0.54446170245E+02  0.25768137702E+04  0.25777336199E+04  0.00000000000E+00 0. -1.
         22    1    3    3    0    0  0.97925322549E+00 -0.82514431344E+02  0.21991199843E+03  0.23488481724E+03  0.00000000000E+00 0.  1.
         22    1    3    3    0    0 -0.51153919014E+02  0.32981923319E+02  0.17662736165E+03  0.18682011557E+03  0.00000000000E+00 0.  1.
</event>
<event>
 7    1  0.6444902E-006  0.3964645E+02  0.7818608E-02  0.1548136E+00
          2   -1    0    0  502    0  0.00000000000E+00  0.00000000000E+00  0.29074417347E+03  0.29074417347E+03  0.00000000000E+00 0. -1.
          1   -1    0    0  501    0 -0.00000000000E+00 -0.00000000000E+00 -0.23403613694E+04  0.23403613694E+04  0.00000000000E+00 0. -1.
         25    2    1    2    0    0  0.90828835416E+01  0.16753003142E+02 -0.65901386291E+03  0.67103442433E+03  0.12499906094E+03 0.  0.
          2    1    1    2  501    0  0.29773965831E+02 -0.85983037627E+01 -0.16738090334E+04  0.16740959053E+04  0.00000000000E+00 0. -1.
          1    1    1    2  502    0 -0.38856849372E+02 -0.81546993790E+01  0.28320570037E+03  0.28597521324E+03  0.00000000000E+00 0. -1.
         22    1    3    3    0    0  0.25575643976E+02  0.49358293140E+02 -0.13850649241E+03  0.14924611588E+03  0.00000000000E+00 0.  1.
         22    1    3    3    0    0 -0.16492760434E+02 -0.32605289999E+02 -0.52050737050E+03  0.52178830845E+03  0.00000000000E+00 0.  1.
</event>
<event>
 7    1  0.6444902E-006  0.5489680E+02  0.7818608E-02  0.1435570E+00
          2   -1    0    0  502    0  0.00000000000E+00  0.00000000000E+00  0.70728854531E+03  0.70728854531E+03  0.00000000000E+00 0. -1.
          1   -1    0    0  501    0 -0.00000000000E+00 -0.00000000000E+00 -0.29931382062E+04  0.29931382062E+04  0.00000000000E+00 0. -1.
         25    2    1    2    0    0  0.11144157589E+02  0.23569586453E+02 -0.14106219009E+03  0.19027064195E+03  0.12499863224E+03 0.  0.
          2    1    1    2  501    0 -0.55315748008E+02 -0.23880609939E+01 -0.28263215023E+04  0.28268637691E+04  0.00000000000E+00 0. -1.
          1    1    1    2  502    0  0.44171590419E+02 -0.21181525459E+02  0.68153403150E+03  0.68329234044E+03  0.00000000000E+00 0. -1.
         22    1    3    3    0    0 -0.39119867428E+02 -0.33010426574E+02 -0.67652578395E+02  0.84834684261E+02  0.00000000000E+00 0. -1.
         22    1    3    3    0    0  0.50264025017E+02  0.56580013027E+02 -0.73409611698E+02  0.10543595769E+03  0.00000000000E+00 0. -1.
</event>
<event>
 7    1  0.6444902E-006  0.9898975E+02  0.7818608E-02  0.1301513E+00
          2   -1    0    0  502    0  0.00000000000E+00  0.00000000000E+00  0.22361193939E+04  0.22361193939E+04  0.00000000000E+00 0. -1.
          1   -1    0    0  501    0 -0.00000000000E+00 -0.00000000000E+00 -0.12989303459E+04  0.12989303459E+04  0.00000000000E+00 0. -1.
         25    2    1    2    0    0  0.15060509006E+03 -0.53924513591E+02  0.78597458140E+03  0.81176923175E+03  0.12499398664E+03 0.  0.
          2    1    1    2  501    0 -0.57658849579E+02  0.59479208293E+02 -0.12831879750E+04  0.12858591285E+04  0.00000000000E+00 0. -1.
          1    1    1    2  502    0 -0.92946240482E+02 -0.55546947022E+01  0.14344024415E+04  0.14374213796E+04  0.00000000000E+00 0. -1.
         22    1    3    3    0    0  0.70943577088E+02  0.31711334650E+02  0.43311651059E+03  0.44003239837E+03  0.00000000000E+00 0.  1.
         22    1    3    3    0    0  0.79661512973E+02 -0.85635848241E+02  0.35285807081E+03  0.37173683338E+03  0.00000000000E+00 0.  1.
</event>
<event>
 7    1  0.6444902E-006  0.6893012E+02  0.7818608E-02  0.1417526E+00
          2   -1    0    0  502    0  0.00000000000E+00  0.00000000000E+00  0.30574414423E+03  0.30574414423E+03  0.00000000000E+00 0. -1.
          1   -1    0    0  501    0 -0.00000000000E+00 -0.00000000000E+00 -0.28863112549E+03  0.28863112549E+03  0.00000000000E+00 0. -1.
         25    2    1    2    0    0  0.54644317598E+01  0.44866880405E+02  0.44388115518E+02  0.14013392009E+03  0.12499725512E+03 0.  0.
          2    1    1    2  501    0  0.43828075656E+02  0.91037148420E+01 -0.23230174586E+03  0.23657531352E+03  0.00000000000E+00 0. -1.
          1    1    1    2  502    0 -0.49292507415E+02 -0.53970595247E+02  0.20502664908E+03  0.21766603610E+03  0.00000000000E+00 0. -1.
         22    1    3    3    0    0  0.73038415619E+00 -0.27347672808E+02  0.60139914120E+02  0.66069947324E+02  0.00000000000E+00 0.  1.
         22    1    3    3    0    0  0.47340476036E+01  0.72214553213E+02 -0.15751798602E+02  0.74063972764E+02  0.00000000000E+00 0.  1.
</event>
<event>
 7    1  0.6444902E-006  0.7303335E+02  0.7818608E-02  0.1449650E+00
          2   -1    0    0  502    0  0.00000000000E+00  0.00000000000E+00  0.27139518532E+03  0.27139518532E+03  0.00000000000E+00 0. -1.
          1   -1    0    0  501    0 -0.00000000000E+00 -0.00000000000E+00 -0.54790583697E+03  0.54790583697E+03  0.00000000000E+00 0. -1.
         25    2    1    2    0    0  0.28569241746E+02 -0.29620165117E+02 -0.27166779229E+03  0.30186444508E+03  0.12500079231E+03 0.  0.
          2    1    1    2  501    0  0.15742374206E+02 -0.29182478367E+02 -0.25475499310E+03  0.25690376778E+03  0.00000000000E+00 0. -1.
          1    1    1    2  502    0 -0.44311615953E+02  0.58802643483E+02  0.24991213376E+03  0.26053280943E+03  0.00000000000E+00 0. -1.
         22    1    3    3    0    0 -0.32914658181E+02 -0.55342609991E+02 -0.14744891902E+03  0.16089550312E+03  0.00000000000E+00 0.  1.
         22    1    3    3    0    0  0.61483899927E+02  0.25722444875E+02 -0.12421887328E+03  0.14096894196E+03  0.00000000000E+00 0.  1.
</event>
<event>
 7    1  0.6444902E-006  0.9464218E+02  0.7818608E-02  0.1355915E+00
          2   -1    0    0  502    0  0.00000000000E+00  0.00000000000E+00  0.28257542502E+04  0.28257542502E+04  0.00000000000E+00 0. -1.
          1   -1    0    0  501    0 -0.00000000000E+00 -0.00000000000E+00 -0.23870643539E+03  0.23870643539E+03  0.00000000000E+00 0. -1.
         25    2    1    2    0    0 -0.27470591608E+02  0.11789304094E+03  0.17467307740E+03  0.24655471937E+03  0.12500057267E+03 0.  0.
          2    1    1    2  501    0  0.57971093343E+02 -0.73781160663E+02 -0.19161943809E+03  0.21335959408E+03  0.00000000000E+00 0. -1.
          1    1    1    2  502    0 -0.30500501735E+02 -0.44111880279E+02  0.26039941755E+04  0.26045463721E+04  0.00000000000E+00 0. -1.
         22    1    3    3    0    0  0.38879226856E+02  0.61911557044E+02  0.12945767131E+03  0.14867388418E+03  0.00000000000E+00 0. -1.
         22    1    3    3    0    0 -0.66349818464E+02  0.55981483898E+02  0.45215406098E+02  0.97880835193E+02  0.00000000000E+00 0. -1.
</event>
<event>
 7    1  0.6444902E-006  0.9942682E+02  0.7818608E-02  0.1408647E+00
          2   -1    0    0  502    0  0.00000000000E+00  0.00000000000E+00  0.19281699170E+04  0.19281699170E+04  0.00000000000E+00 0. -1.
          1   -1    0    0  501    0 -0.00000000000E+00 -0.00000000000E+00 -0.41054346596E+03  0.41054346596E+03  0.00000000000E+00 0. -1.
         25    2    1    2    0    0  0.40233109510E+02  0.11129671101E+03 -0.18842212051E+02  0.17316472957E+03  0.12500133451E+03 0.  0.
          2    1    1    2  501    0 -0.30797636517E+02 -0.12530875980E+02 -0.31232744432E+03  0.31409226311E+03  0.00000000000E+00 0. -1.
          1    1    1    2  502    0 -0.94354729933E+01 -0.98765835032E+02  0.18487961074E+04  0.18514563902E+04  0.00000000000E+00 0. -1.
         22    1    3    3    0    0  0.52974564028E+02  0.81611165620E+02 -0.64864583760E+02  0.11693631179E+03  0.00000000000E+00 0.  1.
         22    1    3    3    0    0 -0.12741454519E+02  0.29685545392E+02  0.46022371710E+02  0.56228417782E+02  0.00000000000E+00 0.  1.
</event>
<event>
 7    1  0.6444902E-006  0.1314522E+03  0.7818608E-02  0.1274946E+00
          2   -1    0    0  502    0  0.00000000000E+00  0.00000000000E+00  0.15523681729E+04  0.15523681729E+04  0.00000000000E+00 0. -1.
          1   -1    0    0  501    0 -0.00000000000E+00 -0.00000000000E+00 -0.59490113277E+02  0.59490113277E+02  0.00000000000E+00 0. -1.
         25    2    1    2    0    0 -0.10023956841E+03 -0.14302176529E+03  0.42430128708E+03  0.47556273335E+03  0.12500053884E+03 0.  0.
          2    1    1    2  501    0  0.23302745083E+02  0.12087203978E+03  0.85297564984E+02  0.14976228672E+03  0.00000000000E+00 0. -1.
          1    1    1    2  502    0  0.76936823329E+02  0.22149725510E+02  0.98327920753E+03  0.98653326608E+03  0.00000000000E+00 0. -1.
         22    1    3    3    0    0 -0.90338247376E+02 -0.88170969588E+02  0.15184633881E+03  0.19746500811E+03  0.00000000000E+00 0. -1.
         22    1    3    3    0    0 -0.99013210358E+01 -0.54850795707E+02  0.27245494828E+03  0.27809772525E+03  0.00000000000E+00 0. -1.
</event>
<event>
 7    1  0.6444902E-006  0.7462307E+02  0.7818608E-02  0.1468408E+00
          2   -1    0    0  502    0  0.00000000000E+00  0.00000000000E+00  0.12622996279E+03  0.12622996279E+03  0.00000000000E+00 0. -1.
          1   -1    0    0  501    0 -0.00000000000E+00 -0.00000000000E+00 -0.14666726156E+03  0.14666726156E+03  0.00000000000E+00 0. -1.
         25    2    1    2    0    0  0.80071436054E+02  0.13117044804E+02  0.27793057218E+02  0.15159586607E+03  0.12500144337E+03 0.  0.
          2    1    1    2  501    0 -0.64407951848E+02 -0.36701691897E+02 -0.54860804568E+02  0.92223133363E+02  0.00000000000E+00 0. -1.
          1    1    1    2  502    0 -0.15663484205E+02  0.23584647093E+02  0.66304485720E+01  0.29078224915E+02  0.00000000000E+00 0. -1.
         22    1    3    3    0    0  0.79689546462E+02  0.42270672848E+02 -0.22943383137E+02  0.93078635724E+02  0.00000000000E+00 0. -1.
         22    1    3    3    0    0  0.38188959124E+00 -0.29153628044E+02  0.50736440356E+02  0.58517230349E+02  0.00000000000E+00 0. -1.
</event>
<event>
 7    1  0.6444902E-006  0.1461394E+03  0.7818608E-02  0.1319545E+00
          2   -1    0    0  502    0  0.00000000000E+00  0.00000000000E+00  0.15910712504E+04  0.15910712504E+04  0.00000000000E+00 0. -1.
          1   -1    0    0  501    0 -0.00000000000E+00 -0.00000000000E+00 -0.90130798884E+03  0.90130798884E+03  0.00000000000E+00 0. -1.
         25    2    1    2    0    0 -0.78500440254E+02  0.59838104025E+02  0.13140789523E+04  0.13236958948E+04  0.12499764498E+03 0.  0.
          2    1    1    2  501    0  0.11647231499E+03 -0.88622341964E+02 -0.88837986689E+03  0.90035465653E+03  0.00000000000E+00 0. -1.
          1    1    1    2  502    0 -0.37971874737E+02  0.28784237939E+02  0.26406417616E+03  0.26832868791E+03  0.00000000000E+00 0. -1.
         22    1    3    3    0    0 -0.44664632036E+02 -0.19532588022E+02  0.18467041961E+03  0.19099637491E+03  0.00000000000E+00 0. -1.
         22    1    3    3    0    0 -0.33835808218E+02  0.79370692047E+02  0.11294085327E+04  0.11326995199E+04  0.00000000000E+00 0. -1.
</event>
<event>
 7    1  0.6444902E-006  0.1145155E+03  0.7818608E-02  0.1333214E+00
          2   -1    0    0  502    0  0.00000000000E+00  0.00000000000E+00  0.22845934423E+03  0.22845934423E+03  0.00000000000E+00 0. -1.
          1   -1    0    0  501    0 -0.00000000000E+00 -0.00000000000E+00 -0.17760848012E+04  0.17760848012E+04  0.00000000000E+00 0. -1.
         25    2    1    2    0    0 -0.40980453739E+01  0.11321310745E+03 -0.29906053778E+03  0.34336143151E+03  0.12500346282E+03 0.  0.
          2    1    1    2  501    0 -0.49137650028E+02 -0.10489415827E+03 -0.14490046496E+04  0.14536271075E+04  0.00000000000E+00 0. -1.
          1    1    1    2  502    0  0.53235695402E+02 -0.83189491877E+01  0.20043973047E+03  0.20755560636E+03  0.00000000000E+00 0. -1.
         22    1    3    3    0    0 -0.52987460777E+02  0.96608754402E+02 -0.15379286260E+03  0.18919082169E+03  0.00000000000E+00 0.  1.
         22    1    3    3    0    0  0.48889415403E+02  0.16604353053E+02 -0.14526767518E+03  0.15417060982E+03  0.00000000000E+00 0.  1.
</event>
<event>
 7    1  0.6444902E-006  0.1098779E+03  0.7818608E-02  0.1275620E+00
          2   -1    0    0  502    0  0.00000000000E+00  0.00000000000E+00  0.62202885237E+03  0.62202885237E+03  0.00000000000E+00 0. -1.
          1   -1    0    0  501    0 -0.00000000000E+00 -0.00000000000E+00 -0.12136739929E+04  0.12136739929E+04  0.00000000000E+00 0. -1.
         25    2    1    2    0    0  0.57350921739E+02 -0.11391677284E+03 -0.45548255349E+01  0.17864826802E+03  0.12501319079E+03 0.  0.
          2    1    1    2  501    0 -0.10579585732E+03  0.32006127007E+02 -0.11150863140E+04  0.11205510444E+04  0.00000000000E+00 0. -1.
          1    1    1    2  502    0  0.48444935585E+02  0.81910645831E+02  0.52799599902E+03  0.53650353276E+03  0.00000000000E+00 0. -1.
         22    1    3    3    0    0  0.34516260115E+02  0.71779581575E+01  0.34551621531E+02  0.49363041296E+02  0.00000000000E+00 0.  1.
         22    1    3    3    0    0  0.22834661624E+02 -0.12109473100E+03 -0.39106447066E+02  0.12928522672E+03  0.00000000000E+00 0.  1.
</event>
<event>
 7    1  0.6444902E-006  0.6422017E+02  0.7818608E-02  0.1457729E+00
          2   -1    0    0  502    0  0.00000000000E+00  0.00000000000E+00  0.10347958617E+03  0.10347958617E+03  0.00000000000E+00 0. -1.
          1   -1    0    0  501    0 -0.00000000000E+00 -0.00000000000E+00 -0.80858262648E+03  0.80858262648E+03  0.00000000000E+00 0. -1.
         25    2    1    2    0    0 -0.10260894569E+02  0.83667887634E+02 -0.32258254519E+02  0.15418007853E+03  0.12500120101E+03 0.  0.
          2    1    1    2  501    0  0.31818022090E+02 -0.55412080452E+02 -0.70623358092E+03  0.70911829479E+03  0.00000000000E+00 0. -1.
          1    1    1    2  502    0 -0.21557127521E+02 -0.28255807182E+02  0.33388795124E+02  0.48763839331E+02  0.00000000000E+00 0. -1.
         22    1    3    3    0    0  0.11615223569E+02  0.10849862275E+03 -0.45908423677E+02  0.11838263353E+03  0.00000000000E+00 0.  1.
         22    1    3    3    0    0 -0.21876118138E+02 -0.24830735111E+02  0.13650169159E+02  0.35797445007E+02  0.00000000000E+00 0.  1.
</event>
<event>
 7    1  0.6444902E-006  0.5830170E+02  0.7818608E-02  0.1432498E+00
          2   -1    0    0  502    0  0.00000000000E+00  0.00000000000E+00  0.58534831998E+02  0.58534831998E+02  0.00000000000E+00 0. -1.
          1   -1    0    0  501    0 -0.00000000000E+00 -0.00000000000E+00 -0.12352863160E+04  0.12352863160E+04  0.00000000000E+00 0. -1.
         25    2    1    2    0    0 -0.33186281030E+02  0.33645825661E+02 -0.99531783005E+02  0.16662607783E+03  0.12499721258E+03 0.  0.
          2    1    1    2  501    0  0.58670975885E+02  0.60910091106E+01 -0.10783623367E+04  0.10799744039E+04  0.00000000000E+00 0. -1.
          1    1    1    2  502    0 -0.25484694855E+02 -0.39736834772E+02  0.11426356995E+01  0.47220666301E+02  0.00000000000E+00 0. -1.
         22    1    3    3    0    0  0.32068396697E+01 -0.26005806269E+02 -0.92796944658E+02  0.96425404942E+02  0.00000000000E+00 0. -1.
         22    1    3    3    0    0 -0.36393120700E+02  0.59651631930E+02 -0.67348383465E+01  0.70200672887E+02  0.00000000000E+00 0. -1.
</event>
<event>
 7    1  0.6444902E-006  0.1822982E+03  0.7818608E-02  0.1303049E+00
          2   -1    0    0  502    0  0.00000000000E+00  0.00000000000E+00  0.49169617248E+03  0.49169617248E+03  0.00000000000E+00 0. -1.
          1   -1    0    0  501    0 -0.00000000000E+00 -0.00000000000E+00 -0.16871945532E+03  0.16871945532E+03  0.00000000000E+00 0. -1.
         25    2    1    2    0    0 -0.14237999730E+03  0.72380646893E+02  0.18921253503E+03  0.27737833825E+03  0.12500534966E+03 0.  0.
          2    1    1    2  501    0  0.18249065586E+03 -0.53453148648E+02 -0.47849946880E+02  0.19608594033E+03  0.00000000000E+00 0. -1.
          1    1    1    2  502    0 -0.40110658567E+02 -0.18927498246E+02  0.18161412901E+03  0.18695134922E+03  0.00000000000E+00 0. -1.
         22    1    3    3    0    0 -0.12458726736E+03  0.23908985905E+02  0.18664974879E+03  0.22568064942E+03  0.00000000000E+00 0.  1.
         22    1    3    3    0    0 -0.17792729932E+02  0.48471660989E+02  0.25627862332E+01  0.51697688833E+02  0.00000000000E+00 0.  1.
</event>
<event>
 7    1  0.6444902E-006  0.4231395E+02  0.7818608E-02  0.1560194E+00
          2   -1    0    0  502    0  0.00000000000E+00  0.00000000000E+00  0.22597659875E+04  0.22597659875E+04  0.00000000000E+00 0. -1.
          1   -1    0    0  501    0 -0.00000000000E+00 -0.00000000000E+00 -0.84000440937E+02  0.84000440937E+02  0.00000000000E+00 0. -1.
         25    2    1    2    0    0 -0.34077041299E+02 -0.13893237412E+02  0.16251626889E+04  0.16303781562E+04  0.12499959891E+03 0.  0.
          2    1    1    2  501    0  0.40566628054E+02 -0.12196253772E+02 -0.75573121631E+02  0.86635423649E+02  0.00000000000E+00 0. -1.
          1    1    1    2  502    0 -0.64895867548E+01  0.26089491184E+02  0.62617597923E+03  0.62675284862E+03  0.00000000000E+00 0. -1.
         22    1    3    3    0    0 -0.67629033384E+02  0.30083238042E+02  0.10266904754E+04  0.10293551474E+04  0.00000000000E+00 0.  1.
         22    1    3    3    0    0  0.33551992086E+02 -0.43976475454E+02  0.59847221359E+03  0.60102300872E+03  0.00000000000E+00 0.  1.
</event>
<event>
 7    1  0.6444902E-006  0.4445365E+02  0.7818608E-02  0.1538964E+00
          2   -1    0    0  502    0  0.00000000000E+00  0.00000000000E+00  0.26507236953E+04  0.26507236953E+04  0.00000000000E+00 0. -1.
          1   -1    0    0  501    0 -0.00000000000E+00 -0.00000000000E+00 -0.22255176082E+03  0.22255176082E+03  0.00000000000E+00 0. -1.
         25    2    1    2    0    0 -0.44471342616E+02  0.39899621295E+01  0.60230106805E+02  0.14575951775E+03  0.12499820454E+03 0.  0.
          2    1    1    2  501    0  0.72773716827E+01 -0.28414313933E+02 -0.17839506159E+03  0.18079029668E+03  0.00000000000E+00 0. -1.
          1    1    1    2  502    0  0.37193970933E+02  0.24424351804E+02  0.25463368893E+04  0.25467256417E+04  0.00000000000E+00 0. -1.
         22    1    3    3    0    0  0.28258181313E+02 -0.10477944773E+02 -0.20261906186E+02  0.36316070548E+02  0.00000000000E+00 0. -1.
         22    1    3    3    0    0 -0.72729523928E+02  0.14467906903E+02  0.80492012992E+02  0.10944344721E+03  0.00000000000E+00 0. -1.
</event>
<event>
 7    1  0.6444902E-006  0.3629758E+02  0.7818608E-02  0.1600439E+00
          2   -1    0    0  502    0  0.00000000000E+00  0.00000000000E+00  0.31728345473E+04  0.31728345473E+04  0.00000000000E+00 0. -1.
          1   -1    0    0  501    0 -0.00000000000E+00 -0.00000000000E+00 -0.44948519419E+02  0.44948519419E+02  0.00000000000E+00 0. -1.
         25    2    1    2    0    0 -0.12159947834E+02  0.11670347289E+02  0.65127014767E+03  0.66337132243E+03  0.12499857934E+03 0.  0.
          2    1    1    2  501    0 -0.23977184003E+02 -0.47674065566E+01 -0.34908819549E+02  0.42617592615E+02  0.00000000000E+00 0. -1.
          1    1    1    2  502    0  0.36137131837E+02 -0.69029407326E+01  0.25115246997E+04  0.25117941516E+04  0.00000000000E+00 0. -1.
         22    1    3    3    0    0  0.55293795945E+02  0.15003883758E+02  0.34681208389E+03  0.35151264832E+03  0.00000000000E+00 0. -1.
         22    1    3    3    0    0 -0.67453743779E+02 -0.33335364683E+01  0.30445806379E+03  0.31185867411E+03  0.00000000000E+00 0. -1.
</event>
<event>
 7    1  0.6444902E-006  0.6895299E+02  0.7818608E-02  0.1404184E+00
          2   -1    0    0  502    0  0.00000000000E+00  0.00000000000E+00  0.33393627039E+04  0.33393627039E+04  0.00000000000E+00 0. -1.
          1   -1    0    0  501    0 -0.00000000000E+00 -0.00000000000E+00 -0.14200838295E+03  0.14200838295E+03  0.00000000000E+00 0. -1.
         25    2    1    2    0    0 -0.10198961481E+03  0.31817320001E+02  0.90603591758E+03  0.92083696820E+03  0.12500165876E+03 0.  0.
          2    1    1    2  501    0  0.53593606411E+02 -0.42915460739E+02 -0.12558117554E+03  0.14312457186E+03  0.00000000000E+00 0. -1.
          1    1    1    2  502    0  0.48396008399E+02  0.11098140738E+02  0.24168995789E+04  0.24174095468E+04  0.00000000000E+00 0. -1.
         22    1    3    3    0    0 -0.79081866914E+02  0.68110360446E+02  0.79454905423E+03  0.80137454567E+03  0.00000000000E+00 0.  1.
         22    1    3    3    0    0 -0.22907747896E+02 -0.36293040445E+02  0.11148686334E+03  0.11946242253E+03  0.00000000000E+00 0.  1.
</event>
<event>
 7    1  0.6444902E-006  0.4743891E+02  0.7818608E-02  0.1466778E+00
          2   -1    0    0  502    0  0.00000000000E+00  0.00000000000E+00  0.17929069457E+04  0.17929069457E+04  0.00000000000E+00 0. -1.
          1   -1    0    0  501    0 -0.00000000000E+00 -0.00000000000E+00 -0.26092159525E+03  0.26092159525E+03  0.00000000000E+00 0. -1.
         25    2    1    2    0    0 -0.54195105978E+02  0.21927791633E+02  0.87345756590E+03  0.88429177086E+03  0.12500351611E+03 0.  0.
          2    1    1    2  501    0  0.15421638406E+02 -0.44886295782E+02 -0.25273889550E+03  0.25715667555E+03  0.00000000000E+00 0. -1.
          1    1    1    2  502    0  0.38773467572E+02  0.22958504148E+02  0.91126668006E+03  0.91238009452E+03  0.00000000000E+00 0. -1.
         22    1    3    3    0    0  0.29799842023E+02  0.11810365283E+02  0.51456029225E+03  0.51555776561E+03  0.00000000000E+00 0. -1.
         22    1    3    3    0    0 -0.83994948001E+02  0.10117426351E+02  0.35889727364E+03  0.36873400526E+03  0.00000000000E+00 0. -1.
</event>
<event>
 7    1  0.6444902E-006  0.9982360E+02  0.7818608E-02  0.1284391E+00
          2   -1    0    0  502    0  0.00000000000E+00  0.00000000000E+00  0.15792293017E+04  0.15792293017E+04  0.00000000000E+00 0. -1.
          1   -1    0    0  501    0 -0.00000000000E+00 -0.00000000000E+00 -0.27021860145E+03  0.27021860145E+03  0.00000000000E+00 0. -1.
         25    2    1    2    0    0  0.14085276329E+03  0.50755556516E+02  0.24952493018E+03  0.31670122350E+03  0.12498538612E+03 0.  0.
          2    1    1    2  501    0 -0.47729637717E+02 -0.83711282403E+02 -0.22484421953E+03  0.24462342523E+03  0.00000000000E+00 0. -1.
          1    1    1    2  502    0 -0.93123125568E+02  0.32955725887E+02  0.12843299896E+04  0.12881232544E+04  0.00000000000E+00 0. -1.
         22    1    3    3    0    0  0.10992083883E+03  0.90180675667E+02  0.20614791289E+03  0.25042385482E+03  0.00000000000E+00 0.  1.
         22    1    3    3    0    0  0.30931924459E+02 -0.39425119151E+02  0.43377017290E+02  0.66277368685E+02  0.00000000000E+00 0.  1.
</event>
<event>
 7    1  0.6444902E-006  0.1028832E+03  0.7818608E-02  0.1409857E+00
          2   -1    0    0  502    0  0.00000000000E+00  0.00000000000E+00  0.13516981509E+04  0.13516981509E+04  0.00000000000E+00 0. -1.
          1   -1    0    0  501    0 -0.00000000000E+00 -0.00000000000E+00 -0.12742659617E+03  0.12742659617E+03  0.00000000000E+00 0. -1.
         25    2    1    2    0    0 -0.84330372738E+02 -0.45753112694E+02  0.87314994923E+03  0.88725435860E+03  0.12499801571E+03 0.  0.
          2    1    1    2  501    0  0.71142296751E+02  0.74722704420E+02 -0.97599097778E+02  0.14202215612E+03  0.00000000000E+00 0. -1.
          1    1    1    2  502    0  0.13188075987E+02 -0.28969591725E+02  0.44872070327E+03  0.44984823234E+03  0.00000000000E+00 0. -1.
         22    1    3    3    0    0  0.66488739140E+01 -0.26705400224E+02  0.37844716040E+02  0.46793252265E+02  0.00000000000E+00 0. -1.
         22    1    3    3    0    0 -0.90979246652E+02 -0.19047712471E+02  0.83530523319E+03  0.84046110634E+03  0.00000000000E+00 0. -1.
</event>
<event>
 7    1  0.6444902E-006  0.2180072E+03  0.7818608E-02  0.1194143E+00
          2   -1    0    0  502    0  0.00000000000E+00  0.00000000000E+00  0.25338964847E+03  0.25338964847E+03  0.00000000000E+00 0. -1.
          1   -1    0    0  501    0 -0.00000000000E+00 -0.00000000000E+00 -0.22663147460E+04  0.22663147460E+04  0.00000000000E+00 0. -1.
         25    2    1    2    0    0  0.11768400057E+03  0.66805612081E+02  0.26902695004E+02  0.18617811137E+03  0.12500408137E+03 0.  0.
          2    1    1    2  501    0 -0.22123292010E+03 -0.27984153707E+02 -0.21592678794E+04  0.21707521491E+04  0.00000000000E+00 0. -1.
          1    1    1    2  502    0  0.10354891953E+03 -0.38821458374E+02  0.11944008684E+03  0.16277413403E+03  0.00000000000E+00 0. -1.
         22    1    3    3    0    0  0.10042141683E+03  0.10236281971E+03  0.11859878922E+02  0.14388629033E+03  0.00000000000E+00 0. -1.
         22    1    3    3    0    0  0.17262583740E+02 -0.35557207626E+02  0.15042816082E+02  0.42291821044E+02  0.00000000000E+00 0. -1.
</event>
<event>
 7    1  0.6444902E-006  0.8095822E+02  0.7818608E-02  0.1490182E+00
          2   -1    0    0  502    0  0.00000000000E+00  0.00000000000E+00  0.22197151727E+03  0.22197151727E+03  0.00000000000E+00 0. -1.
          1   -1    0    0  501    0 -0.00000000000E+00 -0.00000000000E+00 -0.68696539912E+03  0.68696539912E+03  0.00000000000E+00 0. -1.
         25    2    1    2    0    0 -0.61201435724E+02 -0.71428937360E+02  0.13136750363E+03  0.20428142766E+03  0.12500308736E+03 0.  0.
          2    1    1    2  501    0  0.64053047986E+02  0.49238495608E+02 -0.64556678466E+03  0.65060256368E+03  0.00000000000E+00 0. -1.
          1    1    1    2  502    0 -0.28516122611E+01  0.22190441752E+02  0.49205399186E+02  0.54052925052E+02  0.00000000000E+00 0. -1.
         22    1    3    3    0    0 -0.96089771298E+02 -0.29663569460E+02  0.71594752617E+02  0.12344626403E+03  0.00000000000E+00 0. -1.
         22    1    3    3    0    0  0.34888335573E+02 -0.41765367900E+02  0.59772751009E+02  0.80835163624E+02  0.00000000000E+00 0. -1.
</event>
<event>
 7    1  0.6444902E-006  0.4473854E+02  0.7818608E-02  0.1516061E+00
          2   -1    0    0  502    0  0.00000000000E+00  0.00000000000E+00  0.34727002316E+03  0.34727002316E+03  0.00000000000E+00 0. -1.
          1   -1    0    0  501    0 -0.00000000000E+00 -0.00000000000E+00 -0.23179521526E+04  0.23179521526E+04  0.00000000000E+00 0. -1.
         25    2    1    2    0    0  0.20396284938E+02  0.47672052240E+02  0.20110242824E+03  0.24239538141E+03  0.12499880512E+03 0.  0.
          2    1    1    2  501    0 -0.33640538898E+02 -0.43102160251E+01 -0.22930819331E+04  0.22933327311E+04  0.00000000000E+00 0. -1.
          1    1    1    2  502    0  0.13244253960E+02 -0.43361836215E+02  0.12129737546E+03  0.12949406317E+03  0.00000000000E+00 0. -1.
         22    1    3    3    0    0  0.22536296508E+02  0.73047963790E+02  0.55211340391E+02  0.94298365744E+02  0.00000000000E+00 0.  1.
         22    1    3    3    0    0 -0.21400115701E+01 -0.25375911550E+02  0.14589108785E+03  0.14809701567E+03  0.00000000000E+00 0.  1.
</event>
<event>
 7    1  0.6444902E-006  0.7905570E+02  0.7818608E-02  0.1355988E+00
          2   -1    0    0  502    0  0.00000000000E+00  0.00000000000E+00  0.15414538596E+04  0.15414538596E+04  0.00000000000E+00 0. -1.
          1   -1    0    0  501    0 -0.00000000000E+00 -0.00000000000E+00 -0.10384384109E+03  0.10384384109E+03  0.00000000000E+00 0. -1.
         25    2    1    2    0    0 -0.11403138138E+03  0.38630552201E+02  0.11735339208E+03  0.20950554033E+03  0.12500110917E+03 0.  0.
          2    1    1    2  501    0  0.51666502629E+02 -0.53715601119E+02 -0.32647484131E+02  0.81367386081E+02  0.00000000000E+00 0. -1.
          1    1    1    2  502    0  0.62364878750E+02  0.15085048917E+02  0.13529041106E+04  0.13544247743E+04  0.00000000000E+00 0. -1.
         22    1    3    3    0    0 -0.41308319657E+02  0.34620261953E+02  0.12514356080E+03  0.13625656175E+03  0.00000000000E+00 0. -1.
         22    1    3    3    0    0 -0.72723061722E+02  0.40102902481E+01 -0.77901687225E+01  0.73248978579E+02  0.00000000000E+00 0. -1.
</event>
<event>
 7    1  0.6444902E-006  0.1093931E+03  0.7818608E-02  0.1348849E+00
          2   -1    0    0  502    0  0.00000000000E+00  0.00000000000E+00  0.69413577278E+02  0.69413577278E+02  0.00000000000E+00 0. -1.
          1   -1    0    0  501    0 -0.00000000000E+00 -0.00000000000E+00 -0.86461034775E+03  0.86461034775E+03  0.00000000000E+00 0. -1.
         25    2    1    2    0    0 -0.13860955907E+03  0.58150760572E+02 -0.30523108105E+03  0.36246964340E+03  0.12499643485E+03 0.  0.
          2    1    1    2  501    0  0.43211267152E+02 -0.23671762556E+02 -0.46431728920E+03  0.46692409555E+03  0.00000000000E+00 0. -1.
          1    1    1    2  502    0  0.95398291921E+02 -0.34478998016E+02 -0.25648400221E+02  0.10463018608E+03  0.00000000000E+00 0. -1.
         22    1    3    3    0    0  0.16856077643E+01  0.53539255775E+02 -0.64928673358E+02  0.84172595342E+02  0.00000000000E+00 0. -1.
         22    1    3    3    0    0 -0.14029516684E+03  0.46115047969E+01 -0.24030240769E+03  0.27829704805E+03  0.00000000000E+00 0. -1.
</event>
<event>
 7    1  0.6444902E-006  0.7395257E+02  0.7818608E-02  0.1350011E+00
          2   -1    0    0  502    0  0.00000000000E+00  0.00000000000E+00  0.84396208809E+03  0.84396208809E+03  0.00000000000E+00 0. -1.
          1   -1    0    0  501    0 -0.00000000000E+00 -0.00000000000E+00 -0.35606202868E+02  0.35606202868E+02  0.00000000000E+00 0. -1.
         25    2    1    2    0    0 -0.49212914167E+01 -0.45657932294E+02  0.41403620549E+03  0.43492201370E+03  0.12498925015E+03 0.  0.
          2    1    1    2  501    0  0.76627765074E+02  0.27570257757E+02  0.57217765663E+02  0.99527916689E+02  0.00000000000E+00 0. -1.
          1    1    1    2  502    0 -0.71706473657E+02  0.18087674537E+02  0.33710191406E+03  0.34511836057E+03  0.00000000000E+00 0. -1.
         22    1    3    3    0    0 -0.80798152971E+01 -0.64270292906E+02  0.41066816167E+03  0.41574546657E+03  0.00000000000E+00 0.  1.
         22    1    3    3    0    0  0.31585238804E+01  0.18612360612E+02  0.33680438245E+01  0.19176547131E+02  0.00000000000E+00 0.  1.
</event>
<event>
 7    1  0.6444902E-006  0.3308709E+02  0.7818608E-02  0.1568354E+00
          2   -1    0    0  502    0  0.00000000000E+00  0.00000000000E+00  0.33846456131E+03  0.33846456131E+03  0.00000000000E+00 0. -1.
          1   -1    0    0  501    0 -0.00000000000E+00 -0.00000000000E+00 -0.70571142064E+03  0.70571142064E+03  0.00000000000E+00 0. -1.
         25    2    1    2    0    0 -0.50503600937E+01  0.44702186807E+02  0.68217576255E+02  0.14933733114E+03  0.12499683644E+03 0.  0.
          2    1    1    2  501    0 -0.21365573325E+02 -0.24699437271E+02 -0.66355285235E+03  0.66435603241E+03  0.00000000000E+00 0. -1.
          1    1    1    2  502    0  0.26415933418E+02 -0.20002749535E+02  0.22808841677E+03  0.23048261842E+03  0.00000000000E+00 0. -1.
         22    1    3    3    0    0  0.16895869272E+02  0.69694817431E+02  0.85712424022E+02  0.11175624191E+03  0.00000000000E+00 0. -1.
         22    1    3    3    0    0 -0.21946229365E+02 -0.24992630624E+02 -0.17494847767E+02  0.37581089224E+02  0.00000000000E+00 0. -1.
</event>
<event>
 7    1  0.6444902E-006  0.4549374E+02  0.7818608E-02  0.1579122E+00
          2   -1    0    0  502    0  0.00000000000E+00  0.00000000000E+00  0.89540231188E+03  0.89540231188E+03  0.00000000000E+00 0. -1.
          1   -1    0    0  501    0 -0.00000000000E+00 -0.00000000000E+00 -0.79626099800E+03  0.79626099800E+03  0.00000000000E+00 0. -1.
         25    2    1    2    0    0  0.38532202817E+02 -0.55186003015E+02  0.16022841663E+03  0.21407868890E+03  0.12500525574E+03 0.  0.
          2    1    1    2  501    0 -0.23406606888E+02  0.38919896547E+02 -0.76849113123E+03  0.76983195982E+03  0.00000000000E+00 0. -1.
          1    1    1    2  502    0 -0.15125595929E+02  0.16266106467E+02  0.70740402847E+03  0.70775266116E+03  0.00000000000E+00 0. -1.
         22    1    3    3    0    0  0.31066211593E+02  0.30212955827E+01 -0.10983401210E+02  0.33088862656E+02  0.00000000000E+00 0. -1.
         22    1    3    3    0    0  0.74659912247E+01 -0.58207298597E+02  0.17121181784E+03  0.18098982624E+03  0.00000000000E+00 0. -1.
</event>
<event>
 7    1  0.6444902E-006  0.2931682E+03  0.7818608E-02  0.1232335E+00
          2   -1    0    0  502    0  0.00000000000E+00  0.00000000000E+00  0.19896301706E+03  0.19896301706E+03  0.00000000000E+00 0. -1.
          1   -1    0    0  501    0 -0.00000000000E+00 -0.00000000000E+00 -0.12445822109E+04  0.12445822109E+04  0.00000000000E+00 0. -1.
         25    2    1    2    0    0  0.18101067995E+03  0.22359215395E+03 -0.30567059890E+00  0.31366184579E+03  0.12500137000E+03 0.  0.
          2    1    1    2  501    0  0.53946294885E+02 -0.97105641276E+01 -0.46555459407E+03  0.46877028260E+03  0.00000000000E+00 0. -1.
          1    1    1    2  502    0 -0.23495697483E+03 -0.21388158983E+03 -0.57975892918E+03  0.66111309959E+03  0.00000000000E+00 0. -1.
         22    1    3    3    0    0  0.17356592970E+03  0.23886665049E+03  0.65486471503E+01  0.29533928531E+03  0.00000000000E+00 0.  1.
         22    1    3    3    0    0  0.74447502494E+01 -0.15274496534E+02 -0.68543177492E+01  0.18322560477E+02  0.00000000000E+00 0.  1.
</event>
<event>
 7    1  0.6444902E-006  0.1718801E+03  0.7818608E-02  0.1319040E+00
          2   -1    0    0  502    0  0.00000000000E+00  0.00000000000E+00  0.48031996428E+03  0.48031996428E+03  0.00000000000E+00 0. -1.
          1   -1    0    0  501    0 -0.00000000000E+00 -0.00000000000E+00 -0.19311057690E+03  0.19311057690E+03  0.00000000000E+00 0. -1.
         25    2    1    2    0    0  0.29393968119E+02 -0.16090467475E+03  0.85325314131E+02  0.22283819711E+03  0.12498853205E+03 0.  0.
          2    1    1    2  501    0 -0.37908641178E+02 -0.14802723263E+02 -0.96209799657E+02  0.10446296589E+03  0.00000000000E+00 0. -1.
          1    1    1    2  502    0  0.85146730597E+01  0.17570739802E+03  0.29809387291E+03  0.34612937818E+03  0.00000000000E+00 0. -1.
         22    1    3    3    0    0 -0.44778152849E+02 -0.99750384879E+02  0.38610677612E+02  0.11595691735E+03  0.00000000000E+00 0.  1.
         22    1    3    3    0    0  0.74172120967E+02 -0.61154289874E+02  0.46714636518E+02  0.10688127976E+03  0.00000000000E+00 0.  1.
</event>
<event>
 7    1  0.6444902E-006  0.7558605E+02  0.7818608E-02  0.1349704E+00
          2   -1    0    0  502    0  0.00000000000E+00  0.00000000000E+00  0.12211612036E+04  0.12211612036E+04  0.00000000000E+00 0. -1.
          1   -1    0    0  501    0 -0.00000000000E+00 -0.00000000000E+00 -0.43839320539E+03  0.43839320539E+03  0.00000000000E+00 0. -1.
         25    2    1    2    0    0  0.38796124521E+02 -0.53049383380E+02  0.75019243489E+03  0.76336996623E+03  0.12500255847E+03 0.  0.
          2    1    1    2  501    0 -0.69916459131E+02 -0.28721765846E+02 -0.42431361831E+03  0.43099338484E+03  0.00000000000E+00 0. -1.
          1    1    1    2  502    0  0.31120334610E+02  0.81771149225E+02  0.45688918161E+03  0.46519105789E+03  0.00000000000E+00 0. -1.
         22    1    3    3    0    0  0.30883736481E+02 -0.51232842858E+02  0.75254406268E+03  0.75491799266E+03  0.00000000000E+00 0. -1.
         22    1    3    3    0    0  0.79123880406E+01 -0.18165405215E+01 -0.23516277911E+01  0.84519735706E+01  0.00000000000E+00 0. -1.
</event>
<event>
 7    1  0.6444902E-006  0.1059630E+03  0.7818608E-02  0.1286018E+00
          2   -1    0    0  502    0  0.00000000000E+00  0.00000000000E+00  0.73328970848E+03  0.73328970848E+03  0.00000000000E+00 0. -1.
          1   -1    0    0  501    0 -0.00000000000E+00 -0.00000000000E+00 -0.14231423249E+03  0.14231423249E+03  0.00000000000E+00 0. -1.
         25    2    1    2    0    0  0.16818676794E+03  0.18690845443E+02  0.32135103158E+03  0.38409345255E+03  0.12500063273E+03 0.  0.
          2    1    1    2  501    0 -0.84986295704E+02  0.27729321489E+02 -0.85576793704E+02  0.12375368014E+03  0.00000000000E+00 0. -1.
          1    1    1    2  502    0 -0.83200472231E+02 -0.46420166932E+02  0.35520123811E+03  0.36775680827E+03  0.00000000000E+00 0. -1.
         22    1    3    3    0    0  0.12393675931E+03 -0.36635911752E+02  0.26010991435E+03  0.29044737541E+03  0.00000000000E+00 0. -1.
         22    1    3    3    0    0  0.44250008621E+02  0.55326757195E+02  0.61241117233E+02  0.93646077145E+02  0.00000000000E+00 0. -1.
</event>
<event>
 7    1  0.6444902E-006  0.1180210E+03  0.7818608E-02  0.1253561E+00
          2   -1    0    0  502    0  0.00000000000E+00  0.00000000000E+00  0.18824497114E+04  0.18824497114E+04  0.00000000000E+00 0. -1.
          1   -1    0    0  501    0 -0.00000000000E+00 -0.00000000000E+00 -0.34072565519E+02  0.34072565519E+02  0.00000000000E+00 0. -1.
         25    2    1    2    0    0  0.56229006730E+02 -0.11148706656E+03  0.58925332681E+03  0.61517277737E+03  0.12500798235E+03 0.  0.
          2    1    1    2  501    0 -0.11935018815E+03  0.11764042916E+02  0.18314717902E+03  0.21891950416E+03  0.00000000000E+00 0. -1.
          1    1    1    2  502    0  0.63121181419E+02  0.99723023646E+02  0.10759766400E+04  0.10824299954E+04  0.00000000000E+00 0. -1.
         22    1    3    3    0    0 -0.25285203176E+02  0.64841311218E+01  0.42049951181E+02  0.49493270759E+02  0.00000000000E+00 0.  1.
         22    1    3    3    0    0  0.81514209906E+02 -0.11797119768E+03  0.54720337563E+03  0.56567950661E+03  0.00000000000E+00 0.  1.
</event>
<event>
 7    1  0.6444902E-006  0.5276970E+02  0.7818608E-02  0.1440228E+00
          2   -1    0    0  502    0  0.00000000000E+00  0.00000000000E+00  0.51117622067E+03  0.51117622067E+03  0.00000000000E+00 0. -1.
          1   -1    0    0  501    0 -0.00000000000E+00 -0.00000000000E+00 -0.27790497914E+03  0.27790497914E+03  0.00000000000E+00 0. -1.
         25    2    1    2    0    0 -0.10931938828E+02 -0.80835434090E+01  0.19047179262E+01  0.12575233098E+03  0.12500067934E+03 0.  0.
          2    1    1    2  501    0 -0.37609873650E+02  0.31740929240E+02 -0.21151630092E+03  0.21716614547E+03  0.00000000000E+00 0. -1.
          1    1    1    2  502    0  0.48541812479E+02 -0.23657385831E+02  0.44288282452E+03  0.44616272336E+03  0.00000000000E+00 0. -1.
         22    1    3    3    0    0  0.34616999240E+02  0.60620846785E+01 -0.46175781033E+02  0.58028340154E+02  0.00000000000E+00 0.  1.
         22    1    3    3    0    0 -0.45548938068E+02 -0.14145628088E+02  0.48080498959E+02  0.67723990825E+02  0.00000000000E+00 0.  1.
</event>
<event>
 7    1  0.6444902E-006  0.7098497E+02  0.7818608E-02  0.1415725E+00
          2   -1    0    0  502    0  0.00000000000E+00  0.00000000000E+00  0.23352146931E+03  0.23352146931E+03  0.00000000000E+00 0. -1.
          1   -1    0    0  501    0 -0.00000000000E+00 -0.00000000000E+00 -0.45443484385E+03  0.45443484385E+03  0.00000000000E+00 0. -1.
         25    2    1    2    0    0 -0.70131866749E+01  0.87412747624E+02  0.18560224118E+03  0.24034099787E+03  0.12500172036E+03 0.  0.
          2    1    1    2  501    0  0.22821407931E+02 -0.37708932191E+02 -0.39060689957E+03  0.39308590692E+03  0.00000000000E+00 0. -1.
          1    1    1    2  502    0 -0.15808221256E+02 -0.49703815433E+02 -0.15908716157E+02  0.54529408375E+02  0.00000000000E+00 0. -1.
         22    1    3    3    0    0  0.24426890350E+02  0.46174732148E+02  0.18087808621E+03  0.18827018067E+03  0.00000000000E+00 0.  1.
         22    1    3    3    0    0 -0.31440077025E+02  0.41238015476E+02  0.47241549746E+01  0.52070817200E+02  0.00000000000E+00 0.  1.
</event>
<event>
 7    1  0.6444902E-006  0.4633111E+02  0.7818608E-02  0.1543905E+00
          2   -1    0    0  502    0  0.00000000000E+00  0.00000000000E+00  0.13424624269E+04  0.13424624269E+04  0.00000000000E+00 0. -1.
          1   -1    0    0  501    0 -0.00000000000E+00 -0.00000000000E+00 -0.73973061275E+03  0.73973061275E+03  0.00000000000E+00 0. -1.
         25    2    1    2    0    0 -0.40699803224E+02  0.32491382901E+02  0.45251321328E+01  0.13548959718E+03  0.12499916071E+03 0.  0.
          2    1    1    2  501    0  0.24901641577E+02  0.11075814234E+02 -0.67355075489E+03  0.67410190982E+03  0.00000000000E+00 0. -1.
          1    1    1    2  502    0  0.15798161647E+02 -0.43567197134E+02  0.12717574369E+04  0.12726015326E+04  0.00000000000E+00 0. -1.
         22    1    3    3    0    0 -0.26042087953E+02 -0.25632477400E+02  0.48802472861E+02  0.60966348094E+02  0.00000000000E+00 0. -1.
         22    1    3    3    0    0 -0.14657715271E+02  0.58123860300E+02 -0.44277340728E+02  0.74523249091E+02  0.00000000000E+00 0. -1.
</event>
<event>
 7    1  0.6444902E-006  0.1359784E+03  0.7818608E-02  0.1411713E+00
          2   -1    0    0  502    0  0.00000000000E+00  0.00000000000E+00  0.10465940380E+04  0.10465940380E+04  0.00000000000E+00 0. -1.
          1   -1    0    0  501    0 -0.00000000000E+00 -0.00000000000E+00 -0.33867227950E+03  0.33867227950E+03  0.00000000000E+00 0. -1.
         25    2    1    2    0    0  0.43343195005E+02  0.10828428936E+03  0.69565891860E+02  0.18457618820E+03  0.12499934426E+03 0.  0.
          2    1    1    2  501    0 -0.32761661831E+01  0.23510031694E+02 -0.27549494572E+03  0.27651567762E+03  0.00000000000E+00 0. -1.
          1    1    1    2  502    0 -0.40067028822E+02 -0.13179432106E+03  0.91385081239E+03  0.92417445169E+03  0.00000000000E+00 0. -1.
         22    1    3    3    0    0  0.36563401202E+01  0.55833175785E+01  0.74081226778E+02  0.74381250454E+02  0.00000000000E+00 0. -1.
         22    1    3    3    0    0  0.39686854885E+02  0.10270097178E+03 -0.45153349172E+01  0.11019493775E+03  0.00000000000E+00 0. -1.
</event>
<event>
 7    1  0.6444902E-006  0.7823421E+02  0.7818608E-02  0.1366376E+00
          2   -1    0    0  502    0  0.00000000000E+00  0.00000000000E+00  0.97202658365E+02  0.97202658365E+02  0.00000000000E+00 0. -1.
          1   -1    0    0  501    0 -0.00000000000E+00 -0.00000000000E+00 -0.17128670767E+04  0.17128670767E+04  0.00000000000E+00 0. -1.
         25    2    1    2    0    0  0.84508512880E+02  0.10588499747E+03 -0.46270628067E+03  0.49807031217E+03  0.12499444888E+03 0.  0.
          2    1    1    2  501    0 -0.37177820964E+02 -0.46361262429E+02 -0.12134021433E+04  0.12148565012E+04  0.00000000000E+00 0. -1.
          1    1    1    2  502    0 -0.47330691916E+02 -0.59523735045E+02  0.60444005626E+02  0.97142921755E+02  0.00000000000E+00 0. -1.
         22    1    3    3    0    0  0.74309596918E+01  0.12166854733E+01 -0.24063859014E+03  0.24075637178E+03  0.00000000000E+00 0. -1.
         22    1    3    3    0    0  0.77077553188E+02  0.10466831200E+03 -0.22206769053E+03  0.25731394039E+03  0.00000000000E+00 0. -1.
</event>
<event>
 7    1  0.6444902E-006  0.1578313E+03  0.7818608E-02  0.1342362E+00
          2   -1    0    0  502    0  0.00000000000E+00  0.00000000000E+00  0.33194673309E+03  0.33194673309E+03  0.00000000000E+00 0. -1.
          1   -1    0    0  501    0 -0.00000000000E+00 -0.00000000000E+00 -0.19087932582E+03  0.19087932582E+03  0.00000000000E+00 0. -1.
         25    2    1    2    0    0 -0.13279146448E+03  0.17156441559E+02  0.16127513521E+03  0.24405439526E+03  0.12499984833E+03 0.  0.
          2    1    1    2  501    0  0.15765504650E+03 -0.43337299153E+02 -0.99672768610E+02  0.19148863148E+03  0.00000000000E+00 0. -1.
          1    1    1    2  502    0 -0.24863582016E+02  0.26180857594E+02  0.79465040669E+02  0.87283032163E+02  0.00000000000E+00 0. -1.
         22    1    3    3    0    0 -0.59690963670E+02 -0.52017333841E+02  0.94456519870E+02  0.12325115947E+03  0.00000000000E+00 0. -1.
         22    1    3    3    0    0 -0.73100500815E+02  0.69173775400E+02  0.66818615344E+02  0.12080323580E+03  0.00000000000E+00 0. -1.
</event>
<event>
 7    1  0.1005467E-005  0.8316439E+02  0.7818608E-02  0.1344271E+00
          2   -1    0    0  502    0  0.00000000000E+00  0.00000000000E+00  0.18266753999E+04  0.18266753999E+04  0.00000000000E+00 0. -1.
          1   -1    0    0  501    0 -0.00000000000E+00 -0.00000000000E+00 -0.13430197736E+04  0.13430197736E+04  0.00000000000E+00 0. -1.
         25    2    1    2    0    0 -0.11201542516E+02 -0.15717303678E+02 -0.11206261226E+03  0.16898581561E+03  0.12500267445E+03 0.  0.
          2    1    1    2  501    0  0.53884027788E+02  0.67886286811E+02 -0.12003007748E+04  0.12034259373E+04  0.00000000000E+00 0. -1.
          1    1    1    2  502    0 -0.42682485272E+02 -0.52168983134E+02  0.17960190134E+04  0.17972834206E+04  0.00000000000E+00 0. -1.
         22    1    3    3    0    0 -0.23615057654E+02 -0.63522605385E+02 -0.95072938116E+02  0.11675468258E+03  0.00000000000E+00 0.  1.
         22    1    3    3    0    0  0.12413515138E+02  0.47805301707E+02 -0.16989674147E+02  0.52231133025E+02  0.00000000000E+00 0.  1.
</event>
<event>
 7    1  0.6444902E-006  0.7275732E+02  0.7818608E-02  0.1355444E+00
          2   -1    0    0  502    0  0.00000000000E+00  0.00000000000E+00  0.14488641745E+04  0.14488641745E+04  0.00000000000E+00 0. -1.
          1   -1    0    0  501    0 -0.00000000000E+00 -0.00000000000E+00 -0.49498538199E+03  0.49498538199E+03  0.00000000000E+00 0. -1.
         25    2    1    2    0    0  0.60934479753E+02  0.17700615371E+02 -0.55102755147E+02  0.15062316238E+03  0.12499880325E+03 0.  0.
          2    1    1    2  501    0 -0.44981086914E+02  0.53686480733E+02 -0.38803036096E+03  0.39430077025E+03  0.00000000000E+00 0. -1.
          1    1    1    2  502    0 -0.15953392839E+02 -0.71387096104E+02  0.13970119086E+04  0.13989256238E+04  0.00000000000E+00 0. -1.
         22    1    3    3    0    0 -0.35492256224E+02  0.12066836800E+02  0.34905096968E+01  0.37649601063E+02  0.00000000000E+00 0.  1.
         22    1    3    3    0    0  0.96426735978E+02  0.56337785709E+01 -0.58593264844E+02  0.11297356132E+03  0.00000000000E+00 0.  1.
</event>
<event>
 7    1  0.6444902E-006  0.1408834E+03  0.7818608E-02  0.1377822E+00
          2   -1    0    0  502    0  0.00000000000E+00  0.00000000000E+00  0.10763985663E+04  0.10763985663E+04  0.00000000000E+00 0. -1.
          1   -1    0    0  501    0 -0.00000000000E+00 -0.00000000000E+00 -0.15663814959E+04  0.15663814959E+04  0.00000000000E+00 0. -1.
         25    2    1    2    0    0  0.16386638782E+03 -0.74991531374E+01 -0.23617457690E+03  0.31354860489E+03  0.12500346594E+03 0.  0.
          2    1    1    2  501    0 -0.13847255731E+03 -0.85232587934E+01 -0.12875755869E+04  0.12950282573E+04  0.00000000000E+00 0. -1.
          1    1    1    2  502    0 -0.25393830514E+02  0.16022411931E+02  0.10337672343E+04  0.10342032001E+04  0.00000000000E+00 0. -1.
         22    1    3    3    0    0  0.15665604674E+03  0.33127252306E+02 -0.15689980053E+03  0.22417867702E+03  0.00000000000E+00 0.  1.
         22    1    3    3    0    0  0.72103410830E+01 -0.40626405443E+02 -0.79274776369E+02  0.89369927863E+02  0.00000000000E+00 0.  1.
</event>
<event>
 7    1  0.6444902E-006  0.8134272E+02  0.7818608E-02  0.1365972E+00
          2   -1    0    0  502    0  0.00000000000E+00  0.00000000000E+00  0.69018070776E+03  0.69018070776E+03  0.00000000000E+00 0. -1.
          1   -1    0    0  501    0 -0.00000000000E+00 -0.00000000000E+00 -0.20561122980E+03  0.20561122980E+03  0.00000000000E+00 0. -1.
         25    2    1    2    0    0  0.31922259677E+02 -0.83060074447E+02  0.21351527176E+03  0.26292960461E+03  0.12500079629E+03 0.  0.
          2    1    1    2  501    0 -0.70818886874E+02  0.40919259718E+02 -0.16970574830E+03  0.18838721177E+03  0.00000000000E+00 0. -1.
          1    1    1    2  502    0  0.38896627197E+02  0.42140814728E+02  0.44075995449E+03  0.44447512119E+03  0.00000000000E+00 0. -1.
         22    1    3    3    0    0  0.18162280236E+02  0.14157348720E+02  0.13571844823E+03  0.13765825851E+03  0.00000000000E+00 0. -1.
         22    1    3    3    0    0  0.13759979441E+02 -0.97217423167E+02  0.77796823536E+02  0.12527134610E+03  0.00000000000E+00 0. -1.
</event>
<event>
 7    1  0.6444902E-006  0.1071177E+03  0.7818608E-02  0.1282097E+00
          2   -1    0    0  502    0  0.00000000000E+00  0.00000000000E+00  0.10502950620E+04  0.10502950620E+04  0.00000000000E+00 0. -1.
          1   -1    0    0  501    0 -0.00000000000E+00 -0.00000000000E+00 -0.15383619511E+03  0.15383619511E+03  0.00000000000E+00 0. -1.
         25    2    1    2    0    0  0.72813614755E+02 -0.10261780654E+03  0.14139627724E+03  0.22682824985E+03  0.12500364395E+03 0.  0.
          2    1    1    2  501    0 -0.10771361993E+03  0.17741319948E+02 -0.81179238632E+02  0.13604060841E+03  0.00000000000E+00 0. -1.
          1    1    1    2  502    0  0.34900005177E+02  0.84876486589E+02  0.83624182832E+03  0.84126239888E+03  0.00000000000E+00 0. -1.
         22    1    3    3    0    0  0.14590761369E+02  0.27065694745E+02  0.47080199059E+02  0.56231550688E+02  0.00000000000E+00 0. -1.
         22    1    3    3    0    0  0.58222853386E+02 -0.12968350128E+03  0.94316078181E+02  0.17059669916E+03  0.00000000000E+00 0. -1.
</event>
<event>
 7    1  0.6444902E-006  0.7487205E+02  0.7818608E-02  0.1436042E+00
          2   -1    0    0  502    0  0.00000000000E+00  0.00000000000E+00  0.26128177905E+03  0.26128177905E+03  0.00000000000E+00 0. -1.
          1   -1    0    0  501    0 -0.00000000000E+00 -0.00000000000E+00 -0.14534456819E+04  0.14534456819E+04  0.00000000000E+00 0. -1.
         25    2    1    2    0    0  0.74020246539E+02  0.42107156151E+02 -0.24416027694E+03  0.28720924628E+03  0.12499160298E+03 0.  0.
          2    1    1    2  501    0 -0.30491990071E+02  0.18740821357E+02 -0.11816470598E+04  0.11821889671E+04  0.00000000000E+00 0. -1.
          1    1    1    2  502    0 -0.43528256468E+02 -0.60847977508E+02  0.23364343396E+03  0.24532924757E+03  0.00000000000E+00 0. -1.
         22    1    3    3    0    0  0.19996751334E+02  0.46294702290E+02 -0.16304318054E+02  0.52999059531E+02  0.00000000000E+00 0.  1.
         22    1    3    3    0    0  0.54023495205E+02 -0.41875461389E+01 -0.22785595889E+03  0.23421018675E+03  0.00000000000E+00 0.  1.
</event>
<event>
 7    1  0.6444902E-006  0.4779686E+02  0.7818608E-02  0.1465867E+00
          2   -1    0    0  502    0  0.00000000000E+00  0.00000000000E+00  0.65305701364E+02  0.65305701364E+02  0.00000000000E+00 0. -1.
          1   -1    0    0  501    0 -0.00000000000E+00 -0.00000000000E+00 -0.69354517004E+03  0.69354517004E+03  0.00000000000E+00 0. -1.
         25    2    1    2    0    0 -0.41939262115E+02 -0.15052831728E+02 -0.42192607093E+03  0.44230220786E+03  0.12499657715E+03 0.  0.
          2    1    1    2  501    0  0.31460603209E+02 -0.32199854210E+02 -0.24837720521E+03  0.25242392168E+03  0.00000000000E+00 0. -1.
          1    1    1    2  502    0  0.10478658906E+02  0.47252685938E+02  0.42063807466E+02  0.64124741866E+02  0.00000000000E+00 0. -1.
         22    1    3    3    0    0 -0.14754906500E+02  0.55301532433E+02 -0.17657397363E+03  0.18561878924E+03  0.00000000000E+00 0.  1.
         22    1    3    3    0    0 -0.27184355615E+02 -0.70354364161E+02 -0.24535209731E+03  0.25668341863E+03  0.00000000000E+00 0.  1.
</event>
<event>
 7    1  0.6444902E-006  0.3521213E+02  0.7818608E-02  0.1583373E+00
          2   -1    0    0  502    0  0.00000000000E+00  0.00000000000E+00  0.79452442676E+03  0.79452442676E+03  0.00000000000E+00 0. -1.
          1   -1    0    0  501    0 -0.00000000000E+00 -0.00000000000E+00 -0.18853532995E+03  0.18853532995E+03  0.00000000000E+00 0. -1.
         25    2    1    2    0    0  0.34831569235E+02 -0.14829614358E+01  0.62510498567E+02  0.14403361300E+03  0.12499072707E+03 0.  0.
          2    1    1    2  501    0 -0.11818738477E+02 -0.25334105456E+02 -0.14599509806E+03  0.14864746260E+03  0.00000000000E+00 0. -1.
          1    1    1    2  502    0 -0.23012830758E+02  0.26817066891E+02  0.68947369630E+03  0.69037868112E+03  0.00000000000E+00 0. -1.
         22    1    3    3    0    0  0.66750096096E+02 -0.38769684506E+02  0.21655012804E+02  0.80172335285E+02  0.00000000000E+00 0. -1.
         22    1    3    3    0    0 -0.31918526861E+02  0.37286723070E+02  0.40855485763E+02  0.63861277714E+02  0.00000000000E+00 0. -1.
</event>
<event>
 7    1  0.6444902E-006  0.1052971E+03  0.7818608E-02  0.1461455E+00
          2   -1    0    0  502    0  0.00000000000E+00  0.00000000000E+00  0.23348334783E+03  0.23348334783E+03  0.00000000000E+00 0. -1.
          1   -1    0    0  501    0 -0.00000000000E+00 -0.00000000000E+00 -0.45098795967E+03  0.45098795967E+03  0.00000000000E+00 0. -1.
         25    2    1    2    0    0  0.41638592425E+02  0.74436548478E+02 -0.29873370372E+03  0.33486564399E+03  0.12497440399E+03 0.  0.
          2    1    1    2  501    0  0.13352570218E+02  0.16333263770E+02 -0.12014182690E+03  0.12198001971E+03  0.00000000000E+00 0. -1.
          1    1    1    2  502    0 -0.54991162643E+02 -0.90769812248E+02  0.20137091879E+03  0.22762564381E+03  0.00000000000E+00 0. -1.
         22    1    3    3    0    0  0.38711527290E+02  0.77509827770E+02 -0.31049806747E+03  0.32235912528E+03  0.00000000000E+00 0. -1.
         22    1    3    3    0    0  0.29270651349E+01 -0.30732792924E+01  0.11764363746E+02  0.12506518711E+02  0.00000000000E+00 0. -1.
</event>
<event>
 7    1  0.6444902E-006  0.1117408E+03  0.7818608E-02  0.1278679E+00
          2   -1    0    0  502    0  0.00000000000E+00  0.00000000000E+00  0.29203241266E+04  0.29203241266E+04  0.00000000000E+00 0. -1.
          1   -1    0    0  501    0 -0.00000000000E+00 -0.00000000000E+00 -0.44123562552E+02  0.44123562552E+02  0.00000000000E+00 0. -1.
         25    2    1    2    0    0  0.17450118851E+02 -0.43077985807E+02  0.50117176061E+03  0.51861180657E+03  0.12499941109E+03 0.  0.
          2    1    1    2  501    0  0.16913173223E+02  0.12721219497E+03  0.84830349506E+02  0.15383493158E+03  0.00000000000E+00 0. -1.
          1    1    1    2  502    0 -0.34363292073E+02 -0.84134209162E+02  0.22901984539E+04  0.22920009510E+04  0.00000000000E+00 0. -1.
         22    1    3    3    0    0 -0.60311450863E+01  0.51440077008E+01 -0.51527420994E+01  0.94544316286E+01  0.00000000000E+00 0. -1.
         22    1    3    3    0    0  0.23481263937E+02 -0.48221993508E+02  0.50632450271E+03  0.50915737495E+03  0.00000000000E+00 0. -1.
</event>
<event>
 7    1  0.6444902E-006  0.4998092E+02  0.7818608E-02  0.1447181E+00
          2   -1    0    0  502    0  0.00000000000E+00  0.00000000000E+00  0.17591555420E+04  0.17591555420E+04  0.00000000000E+00 0. -1.
          1   -1    0    0  501    0 -0.00000000000E+00 -0.00000000000E+00 -0.46451659063E+03  0.46451659063E+03  0.00000000000E+00 0. -1.
         25    2    1    2    0    0  0.46579116212E+02  0.34956268751E+02  0.21418872441E+03  0.25474628866E+03  0.12500922818E+03 0.  0.
          2    1    1    2  501    0  0.16125437991E+01 -0.49315784394E+02 -0.44245141362E+03  0.44519422762E+03  0.00000000000E+00 0. -1.
          1    1    1    2  502    0 -0.48191660011E+02  0.14359515644E+02  0.15229016405E+04  0.15237316163E+04  0.00000000000E+00 0. -1.
         22    1    3    3    0    0  0.65414965277E+02  0.58715260576E+02  0.20502258713E+03  0.22307142520E+03  0.00000000000E+00 0. -1.
         22    1    3    3    0    0 -0.18835849066E+02 -0.23758991825E+02  0.91661372747E+01  0.31674863459E+02  0.00000000000E+00 0. -1.
</event>
<event>
 7    1  0.6444902E-006  0.3687788E+02  0.7818608E-02  0.1535287E+00
          2   -1    0    0  502    0  0.00000000000E+00  0.00000000000E+00  0.13883922935E+04  0.13883922935E+04  0.00000000000E+00 0. -1.
          1   -1    0    0  501    0 -0.00000000000E+00 -0.00000000000E+00 -0.41032445036E+03  0.41032445036E+03  0.00000000000E+00 0. -1.
         25    2    1    2    0    0 -0.29155979173E+01  0.52178635368E+01  0.12794036271E+03  0.17896764449E+03  0.12499981821E+03 0.  0.
          2    1    1    2  501    0 -0.27495147594E+02 -0.24885917692E+02 -0.38365098524E+03  0.38543919172E+03  0.00000000000E+00 0. -1.
          1    1    1    2  502    0  0.30410745511E+02  0.19668054155E+02  0.12337784656E+04  0.12343099076E+04  0.00000000000E+00 0. -1.
         22    1    3    3    0    0  0.54546749836E+02  0.21825381667E+02  0.34827769671E+02  0.68298380236E+02  0.00000000000E+00 0.  1.
         22    1    3    3    0    0 -0.57462347753E+02 -0.16607518130E+02  0.93112593038E+02  0.11066926425E+03  0.00000000000E+00 0.  1.
</event>
<event>
 7    1  0.6444902E-006  0.3184455E+02  0.7818608E-02  0.1603367E+00
          2   -1    0    0  502    0  0.00000000000E+00  0.00000000000E+00  0.10898225104E+04  0.10898225104E+04  0.00000000000E+00 0. -1.
          1   -1    0    0  501    0 -0.00000000000E+00 -0.00000000000E+00 -0.54137714597E+03  0.54137714597E+03  0.00000000000E+00 0. -1.
         25    2    1    2    0    0  0.21148807132E+02 -0.53434696782E+01  0.51483045670E+03  0.53023659995E+03  0.12499851226E+03 0.  0.
          2    1    1    2  501    0 -0.23079159862E+02 -0.21968165228E+02 -0.53286754266E+03  0.53381931955E+03  0.00000000000E+00 0. -1.
          1    1    1    2  502    0  0.19303527304E+01  0.27311634907E+02  0.56648245037E+03  0.56714373685E+03  0.00000000000E+00 0. -1.
         22    1    3    3    0    0  0.61907271272E+02  0.12769508830E+02  0.42778067699E+03  0.43242557532E+03  0.00000000000E+00 0.  1.
         22    1    3    3    0    0 -0.40758464140E+02 -0.18112978508E+02  0.87049779716E+02  0.97811024625E+02  0.00000000000E+00 0.  1.
</event>
<event>
 7    1  0.6444902E-006  0.3372827E+02  0.7818608E-02  0.1560556E+00
          2   -1    0    0  502    0  0.00000000000E+00  0.00000000000E+00  0.31921631103E+02  0.31921631103E+02  0.00000000000E+00 0. -1.
          1   -1    0    0  501    0 -0.00000000000E+00 -0.00000000000E+00 -0.85158586534E+03  0.85158586534E+03  0.00000000000E+00 0. -1.
         25    2    1    2    0    0 -0.24903728138E+02  0.10126057089E+02 -0.19569016369E+03  0.23375656603E+03  0.12499903715E+03 0.  0.
          2    1    1    2  501    0  0.21437681449E+02  0.25938416420E+02 -0.60998641759E+03  0.61091390987E+03  0.00000000000E+00 0. -1.
          1    1    1    2  502    0  0.34660466888E+01 -0.36064473509E+02 -0.13987652953E+02  0.38837020538E+02  0.00000000000E+00 0. -1.
         22    1    3    3    0    0  0.27000604669E+02 -0.44608512338E+02 -0.72432890887E+02  0.89249513768E+02  0.00000000000E+00 0. -1.
         22    1    3    3    0    0 -0.51904332807E+02  0.54734569427E+02 -0.12325727280E+03  0.14450705226E+03  0.00000000000E+00 0. -1.
</event>
<event>
 7    1  0.6444902E-006  0.7410500E+02  0.7818608E-02  0.1471270E+00
          2   -1    0    0  502    0  0.00000000000E+00  0.00000000000E+00  0.21588200474E+03  0.21588200474E+03  0.00000000000E+00 0. -1.
          1   -1    0    0  501    0 -0.00000000000E+00 -0.00000000000E+00 -0.18979189609E+04  0.18979189609E+04  0.00000000000E+00 0. -1.
         25    2    1    2    0    0 -0.46770962093E+02  0.71883245098E+02 -0.53444269581E+03  0.55552580053E+03  0.12500078451E+03 0.  0.
          2    1    1    2  501    0 -0.11034893229E+02 -0.25659272152E+02 -0.13461155053E+04  0.13464052587E+04  0.00000000000E+00 0. -1.
          1    1    1    2  502    0  0.57805855322E+02 -0.46223972946E+02  0.19852124489E+03  0.21186990644E+03  0.00000000000E+00 0. -1.
         22    1    3    3    0    0 -0.34031922661E+02  0.17017608568E+02 -0.46294912451E+03  0.46451013191E+03  0.00000000000E+00 0.  1.
         22    1    3    3    0    0 -0.12739039432E+02  0.54865636530E+02 -0.71493571303E+02  0.91015668624E+02  0.00000000000E+00 0.  1.
</event>
<event>
 7    1  0.6444902E-006  0.6831949E+02  0.7818608E-02  0.1511427E+00
          2   -1    0    0  502    0  0.00000000000E+00  0.00000000000E+00  0.12589875989E+04  0.12589875989E+04  0.00000000000E+00 0. -1.
          1   -1    0    0  501    0 -0.00000000000E+00 -0.00000000000E+00 -0.68577755505E+03  0.68577755505E+03  0.00000000000E+00 0. -1.
         25    2    1    2    0    0 -0.74716890448E+02  0.47940639507E+02 -0.58816247266E+03  0.60781631070E+03  0.12499861870E+03 0.  0.
          2    1    1    2  501    0  0.22593472328E+02 -0.38214799463E+01 -0.85342376957E+02  0.88365094949E+02  0.00000000000E+00 0. -1.
          1    1    1    2  502    0  0.52123418121E+02 -0.44119159561E+02  0.12467148935E+04  0.12485837483E+04  0.00000000000E+00 0. -1.
         22    1    3    3    0    0 -0.22522676876E+02  0.38166676155E+02 -0.49089614817E+02  0.66134381567E+02  0.00000000000E+00 0.  1.
         22    1    3    3    0    0 -0.52194213572E+02  0.97739633523E+01 -0.53907285784E+03  0.54168192913E+03  0.00000000000E+00 0.  1.
</event>
<event>
 7    1  0.6444902E-006  0.9644479E+02  0.7818608E-02  0.1353197E+00
          2   -1    0    0  502    0  0.00000000000E+00  0.00000000000E+00  0.16013587181E+04  0.16013587181E+04  0.00000000000E+00 0. -1.
          1   -1    0    0  501    0 -0.00000000000E+00 -0.00000000000E+00 -0.93791003815E+02  0.93791003815E+02  0.00000000000E+00 0. -1.
         25    2    1    2    0    0  0.98282525291E+02  0.45897355959E+02  0.66359496742E+03  0.68392289846E+03  0.12500491265E+03 0.  0.
          2    1    1    2  501    0 -0.96188793889E+02  0.79151860230E+01 -0.54703290645E+02  0.11093865083E+03  0.00000000000E+00 0. -1.
          1    1    1    2  502    0 -0.20937314018E+01 -0.53812541982E+02  0.89867603750E+03  0.90028817262E+03  0.00000000000E+00 0. -1.
         22    1    3    3    0    0  0.66932045451E+02 -0.37280849417E+02  0.30863382855E+03  0.31800094429E+03  0.00000000000E+00 0. -1.
         22    1    3    3    0    0  0.31350479840E+02  0.83178205376E+02  0.35496113887E+03  0.36592195417E+03  0.00000000000E+00 0. -1.
</event>
<event>
 7    1  0.1230562E-005  0.1090969E+03  0.7818608E-02  0.1360605E+00
          2   -1    0    0  502    0  0.00000000000E+00  0.00000000000E+00  0.20154390941E+04  0.20154390941E+04  0.00000000000E+00 0. -1.
          1   -1    0    0  501    0 -0.00000000000E+00 -0.00000000000E+00 -0.17702727730E+04  0.17702727730E+04  0.00000000000E+00 0. -1.
         25    2    1    2    0    0 -0.29117170155E+01 -0.14985735548E+03 -0.86036797153E+03  0.88222668980E+03  0.12500072267E+03 0.  0.
          2    1    1    2  501    0 -0.14656019587E+02  0.42251886193E+02 -0.89693531434E+03  0.89804954146E+03  0.00000000000E+00 0. -1.
          1    1    1    2  502    0  0.17567736603E+02  0.10760546928E+03  0.20024696070E+04  0.20054356358E+04  0.00000000000E+00 0. -1.
         22    1    3    3    0    0  0.61131318948E+00 -0.14710629193E+03 -0.86402049781E+03  0.87645425178E+03  0.00000000000E+00 0. -1.
         22    1    3    3    0    0 -0.35230302050E+01 -0.27510635466E+01  0.36525262776E+01  0.57724380179E+01  0.00000000000E+00 0. -1.
</event>
<event>
 7    1  0.6444902E-006  0.8891930E+02  0.7818608E-02  0.1467438E+00
          2   -1    0    0  502    0  0.00000000000E+00  0.00000000000E+00  0.51729329638E+03  0.51729329638E+03  0.00000000000E+00 0. -1.
          1   -1    0    0  501    0 -0.00000000000E+00 -0.00000000000E+00 -0.20817448606E+03  0.20817448606E+03  0.00000000000E+00 0. -1.
         25    2    1    2    0    0  0.21183976930E+02  0.94329753467E+02 -0.50895870290E+02  0.16601629458E+03  0.12499662870E+03 0.  0.
          2    1    1    2  501    0  0.15935803904E+01 -0.87004993049E+02 -0.80347133281E+02  0.11844015426E+03  0.00000000000E+00 0. -1.
          1    1    1    2  502    0 -0.22777557321E+02 -0.73247604178E+01  0.44036181389E+03  0.44101133360E+03  0.00000000000E+00 0. -1.
         22    1    3    3    0    0 -0.33528716348E+02  0.97024188861E+02 -0.39953322919E+02  0.11015505461E+03  0.00000000000E+00 0.  1.
         22    1    3    3    0    0  0.54712693278E+02 -0.26944353941E+01 -0.10942547371E+02  0.55861239969E+02  0.00000000000E+00 0.  1.
</event>
<event>
 7    1  0.6444902E-006  0.8759473E+02  0.7818608E-02  0.1347763E+00
          2   -1    0    0  502    0  0.00000000000E+00  0.00000000000E+00  0.21321668957E+03  0.21321668957E+03  0.00000000000E+00 0. -1.
          1   -1    0    0  501    0 -0.00000000000E+00 -0.00000000000E+00 -0.69517177232E+03  0.69517177232E+03  0.00000000000E+00 0. -1.
         25    2    1    2    0    0 -0.33688798866E+02  0.25317326590E+02 -0.25725284279E+03  0.28910654361E+03  0.12501066452E+03 0.  0.
          2    1    1    2  501    0 -0.55936530220E+02 -0.26985814566E+02 -0.40934513825E+03  0.41402967504E+03  0.00000000000E+00 0. -1.
          1    1    1    2  502    0  0.89625329087E+02  0.16684879759E+01  0.18464289829E+03  0.20525224324E+03  0.00000000000E+00 0. -1.
         22    1    3    3    0    0  0.11737629352E+02 -0.45798197138E+02 -0.83840621617E+02  0.96252255231E+02  0.00000000000E+00 0. -1.
         22    1    3    3    0    0 -0.45426428219E+02  0.71115523729E+02 -0.17341222117E+03  0.19285428838E+03  0.00000000000E+00 0. -1.
</event>
<event>
 7    1  0.6444902E-006  0.1304108E+03  0.7818608E-02  0.1404973E+00
          2   -1    0    0  502    0  0.00000000000E+00  0.00000000000E+00  0.17645488091E+03  0.17645488091E+03  0.00000000000E+00 0. -1.
          1   -1    0    0  501    0 -0.00000000000E+00 -0.00000000000E+00 -0.21625888911E+03  0.21625888911E+03  0.00000000000E+00 0. -1.
         25    2    1    2    0    0  0.37075561124E+02 -0.13479833995E+03  0.74244493975E+01  0.18768191283E+03  0.12499675303E+03 0.  0.
          2    1    1    2  501    0  0.15809266736E+02  0.20755368660E+02 -0.72286003850E+02  0.76850404004E+02  0.00000000000E+00 0. -1.
          1    1    1    2  502    0 -0.52884827860E+02  0.11404297129E+03  0.25057546253E+02  0.12818145319E+03  0.00000000000E+00 0. -1.
         22    1    3    3    0    0 -0.14889866013E+02 -0.13227223668E+03 -0.81989114481E+01  0.13335994472E+03  0.00000000000E+00 0. -1.
         22    1    3    3    0    0  0.51965427137E+02 -0.25261032704E+01  0.15623360846E+02  0.54321968110E+02  0.00000000000E+00 0. -1.
</event>
<event>
 7    1  0.6444902E-006  0.6050637E+02  0.7818608E-02  0.1534215E+00
          2   -1    0    0  502    0  0.00000000000E+00  0.00000000000E+00  0.76440211401E+03  0.76440211401E+03  0.00000000000E+00 0. -1.
          1   -1    0    0  501    0 -0.00000000000E+00 -0.00000000000E+00 -0.18649091852E+03  0.18649091852E+03  0.00000000000E+00 0. -1.
         25    2    1    2    0    0  0.99560525015E+01 -0.39345344091E+02  0.24195187698E+03  0.27533930621E+03  0.12499537466E+03 0.  0.
          2    1    1    2  501    0 -0.25274983963E+02  0.55453389117E+02 -0.16407416389E+03  0.17502638211E+03  0.00000000000E+00 0. -1.
          1    1    1    2  502    0  0.15318931462E+02 -0.16108045026E+02  0.50003348240E+03  0.50052734421E+03  0.00000000000E+00 0. -1.
         22    1    3    3    0    0 -0.11460539827E+02 -0.63891330615E+02  0.53570214749E+02  0.84161832259E+02  0.00000000000E+00 0.  1.
         22    1    3    3    0    0  0.21416592328E+02  0.24545986524E+02  0.18838166223E+03  0.19117747395E+03  0.00000000000E+00 0.  1.
</event>
<event>
 7    1  0.6444902E-006  0.5808052E+02  0.7818608E-02  0.1458734E+00
          2   -1    0    0  502    0  0.00000000000E+00  0.00000000000E+00  0.25608189185E+03  0.25608189185E+03  0.00000000000E+00 0. -1.
          1   -1    0    0  501    0 -0.00000000000E+00 -0.00000000000E+00 -0.42047236235E+03  0.42047236235E+03  0.00000000000E+00 0. -1.
         25    2    1    2    0    0 -0.16403889773E+01  0.19862728668E+02  0.70833420790E+02  0.14505032753E+03  0.12500002060E+03 0.  0.
          2    1    1    2  501    0  0.12887047201E+01 -0.58871863913E+02 -0.37847882141E+03  0.38303234246E+03  0.00000000000E+00 0. -1.
          1    1    1    2  502    0  0.35168425722E+00  0.39009135245E+02  0.14325493012E+03  0.14847158421E+03  0.00000000000E+00 0. -1.
         22    1    3    3    0    0 -0.43860308889E+02  0.35062606429E+01  0.86574813462E+02  0.97114462803E+02  0.00000000000E+00 0.  1.
         22    1    3    3    0    0  0.42219919912E+02  0.16356468025E+02 -0.15741392672E+02  0.47935864724E+02  0.00000000000E+00 0.  1.
</event>
<event>
 7    1  0.6444902E-006  0.7801448E+02  0.7818608E-02  0.1504650E+00
          2   -1    0    0  502    0  0.00000000000E+00  0.00000000000E+00  0.16025001883E+04  0.16025001883E+04  0.00000000000E+00 0. -1.
          1   -1    0    0  501    0 -0.00000000000E+00 -0.00000000000E+00 -0.77713791119E+03  0.77713791119E+03  0.00000000000E+00 0. -1.
         25    2    1    2    0    0 -0.38486954942E-02 -0.86447111453E+02 -0.26704515504E+03  0.30726330992E+03  0.12499809478E+03 0.  0.
          2    1    1    2  501    0  0.18147359692E+02  0.10592623124E+02 -0.48879676085E+03  0.48924820260E+03  0.00000000000E+00 0. -1.
          1    1    1    2  502    0 -0.18143510997E+02  0.75854488328E+02  0.15812041930E+04  0.15831265869E+04  0.00000000000E+00 0. -1.
         22    1    3    3    0    0  0.53460218613E+02 -0.82515278875E+02 -0.16899214244E+03  0.19551243037E+03  0.00000000000E+00 0. -1.
         22    1    3    3    0    0 -0.53464067308E+02 -0.39318325777E+01 -0.98053012602E+02  0.11175087955E+03  0.00000000000E+00 0. -1.
</event>
<event>
 7    1  0.6444902E-006  0.5996888E+02  0.7818608E-02  0.1528976E+00
          2   -1    0    0  502    0  0.00000000000E+00  0.00000000000E+00  0.18864172059E+04  0.18864172059E+04  0.00000000000E+00 0. -1.
          1   -1    0    0  501    0 -0.00000000000E+00 -0.00000000000E+00 -0.25773463938E+03  0.25773463938E+03  0.00000000000E+00 0. -1.
         25    2    1    2    0    0  0.26550628052E+02  0.68841046271E+02  0.14627703170E+04  0.14699544307E+04  0.12500001004E+03 0.  0.
          2    1    1    2  501    0 -0.52035117168E+01 -0.59716231248E+02 -0.25028004726E+03  0.25735812959E+03  0.00000000000E+00 0. -1.
          1    1    1    2  502    0 -0.21347116335E+02 -0.91248150225E+01  0.41619229677E+03  0.41683928499E+03  0.00000000000E+00 0. -1.
         22    1    3    3    0    0  0.30927379291E+02  0.10129227430E+03  0.89573053627E+03  0.90196996692E+03  0.00000000000E+00 0.  1.
         22    1    3    3    0    0 -0.43767512397E+01 -0.32451228034E+02  0.56703978072E+03  0.56798446376E+03  0.00000000000E+00 0.  1.
</event>
<event>
 7    1  0.6444902E-006  0.7330818E+02  0.7818608E-02  0.1361156E+00
          2   -1    0    0  502    0  0.00000000000E+00  0.00000000000E+00  0.72069391212E+02  0.72069391212E+02  0.00000000000E+00 0. -1.
          1   -1    0    0  501    0 -0.00000000000E+00 -0.00000000000E+00 -0.14044720231E+04  0.14044720231E+04  0.00000000000E+00 0. -1.
         25    2    1    2    0    0  0.76911775119E+02 -0.19837245363E+02 -0.10078590226E+03  0.17914325549E+03  0.12500228173E+03 0.  0.
          2    1    1    2  501    0 -0.42495440990E+02 -0.50821713897E+02 -0.12153289757E+04  0.12171332007E+04  0.00000000000E+00 0. -1.
          1    1    1    2  502    0 -0.34416334129E+02  0.70658959260E+02 -0.16287753977E+02  0.80264958159E+02  0.00000000000E+00 0. -1.
         22    1    3    3    0    0  0.92513853478E+02 -0.38412533339E+01 -0.11867220659E+03  0.15052129726E+03  0.00000000000E+00 0. -1.
         22    1    3    3    0    0 -0.15602078359E+02 -0.15995992029E+02  0.17886304329E+02  0.28621958226E+02  0.00000000000E+00 0. -1.
</event>
<event>
 7    1  0.6444902E-006  0.1035056E+03  0.7818608E-02  0.1401601E+00
          2   -1    0    0  502    0  0.00000000000E+00  0.00000000000E+00  0.17953128020E+04  0.17953128020E+04  0.00000000000E+00 0. -1.
          1   -1    0    0  501    0 -0.00000000000E+00 -0.00000000000E+00 -0.33043868838E+03  0.33043868838E+03  0.00000000000E+00 0. -1.
         25    2    1    2    0    0 -0.92264948088E+02  0.49203907899E+02  0.73962510413E+02  0.17896735407E+03  0.12500006272E+03 0.  0.
          2    1    1    2  501    0 -0.99755312035E+01 -0.32250012320E+02 -0.27529529068E+03  0.27735729950E+03  0.00000000000E+00 0. -1.
          1    1    1    2  502    0  0.10224047929E+03 -0.16953895579E+02  0.16662068938E+04  0.16694268368E+04  0.00000000000E+00 0. -1.
         22    1    3    3    0    0 -0.28010481498E+02 -0.42244375437E+02  0.29767130309E+02  0.58781428841E+02  0.00000000000E+00 0. -1.
         22    1    3    3    0    0 -0.64254466589E+02  0.91448283335E+02  0.44195380104E+02  0.12018592523E+03  0.00000000000E+00 0. -1.
</event>
<event>
 7    1  0.6444902E-006  0.6677265E+02  0.7818608E-02  0.1441352E+00
          2   -1    0    0  502    0  0.00000000000E+00  0.00000000000E+00  0.37751413157E+03  0.37751413157E+03  0.00000000000E+00 0. -1.
          1   -1    0    0  501    0 -0.00000000000E+00 -0.00000000000E+00 -0.58419690386E+03  0.58419690386E+03  0.00000000000E+00 0. -1.
         25    2    1    2    0    0 -0.11752154133E+02  0.48733997190E+02  0.82086055084E+02  0.15772047512E+03  0.12499804888E+03 0.  0.
          2    1    1    2  501    0 -0.24196221193E+02 -0.62705910470E+02 -0.54285190298E+03  0.54699696242E+03  0.00000000000E+00 0. -1.
          1    1    1    2  502    0  0.35948375326E+02  0.13971913280E+02  0.25408307561E+03  0.25699359790E+03  0.00000000000E+00 0. -1.
         22    1    3    3    0    0  0.35220223041E+02  0.46779402914E+02  0.92586339974E+02  0.10954910770E+03  0.00000000000E+00 0.  1.
         22    1    3    3    0    0 -0.46972377174E+02  0.19545942755E+01 -0.10500284890E+02  0.48171367418E+02  0.00000000000E+00 0.  1.
</event>
<event>
 7    1  0.6444902E-006  0.7516109E+02  0.7818608E-02  0.1393946E+00
          2   -1    0    0  502    0  0.00000000000E+00  0.00000000000E+00  0.74382060336E+02  0.74382060336E+02  0.00000000000E+00 0. -1.
          1   -1    0    0  501    0 -0.00000000000E+00 -0.00000000000E+00 -0.58605932363E+03  0.58605932363E+03  0.00000000000E+00 0. -1.
         25    2    1    2    0    0 -0.75063090090E+02  0.66013856177E+02 -0.31724183982E+03  0.35533043919E+03  0.12500015751E+03 0.  0.
          2    1    1    2  501    0  0.25660815721E+02 -0.65743709501E+02 -0.23235272459E+03  0.24283430858E+03  0.00000000000E+00 0. -1.
          1    1    1    2  502    0  0.49402274369E+02 -0.27014667609E+00  0.37917301115E+02  0.62276636196E+02  0.00000000000E+00 0. -1.
         22    1    3    3    0    0 -0.78460786738E+01  0.67714448554E+02 -0.64673673857E+02  0.93965374387E+02  0.00000000000E+00 0. -1.
         22    1    3    3    0    0 -0.67217011416E+02 -0.17005923765E+01 -0.25256816597E+03  0.26136506480E+03  0.00000000000E+00 0. -1.
</event>
<event>
 7    1  0.6444902E-006  0.1660949E+03  0.7818608E-02  0.1183931E+00
          2   -1    0    0  502    0  0.00000000000E+00  0.00000000000E+00  0.16808424894E+04  0.16808424894E+04  0.00000000000E+00 0. -1.
          1   -1    0    0  501    0 -0.00000000000E+00 -0.00000000000E+00 -0.79104579603E+03  0.79104579603E+03  0.00000000000E+00 0. -1.
         25    2    1    2    0    0 -0.26509623859E+03  0.18843974460E+03 -0.36541035631E+03  0.50491222740E+03  0.12500430323E+03 0.  0.
          2    1    1    2  501    0  0.12171473217E+03 -0.10768826807E+03 -0.33285541695E+03  0.37041053941E+03  0.00000000000E+00 0. -1.
          1    1    1    2  502    0  0.14338150642E+03 -0.80751476524E+02  0.15880624666E+04  0.15965655186E+04  0.00000000000E+00 0. -1.
         22    1    3    3    0    0 -0.56178307246E+02  0.10917642282E+03 -0.15743719586E+03  0.19965461213E+03  0.00000000000E+00 0. -1.
         22    1    3    3    0    0 -0.20891793134E+03  0.79263321782E+02 -0.20797316045E+03  0.30525761527E+03  0.00000000000E+00 0. -1.
</event>
<event>
 7    1  0.6444902E-006  0.4439635E+02  0.7818608E-02  0.1490336E+00
          2   -1    0    0  502    0  0.00000000000E+00  0.00000000000E+00  0.39631200721E+03  0.39631200721E+03  0.00000000000E+00 0. -1.
          1   -1    0    0  501    0 -0.00000000000E+00 -0.00000000000E+00 -0.12532990709E+03  0.12532990709E+03  0.00000000000E+00 0. -1.
         25    2    1    2    0    0 -0.33141287074E+02 -0.38303905980E+02  0.61806446665E+02  0.14836044203E+03  0.12500099914E+03 0.  0.
          2    1    1    2  501    0  0.45042615082E+02 -0.67349852307E+00 -0.74300994213E+02  0.86890324633E+02  0.00000000000E+00 0. -1.
          1    1    1    2  502    0 -0.11901328008E+02  0.38977404503E+02  0.28347664767E+03  0.28639114763E+03  0.00000000000E+00 0. -1.
         22    1    3    3    0    0 -0.47696109564E+02  0.34029256337E+02  0.13363193651E+02  0.60095624624E+02  0.00000000000E+00 0. -1.
         22    1    3    3    0    0  0.14554822490E+02 -0.72333162317E+02  0.48443253014E+02  0.88264817402E+02  0.00000000000E+00 0. -1.
</event>
<event>
 7    1  0.6444902E-006  0.8225806E+02  0.7818608E-02  0.1400699E+00
          2   -1    0    0  502    0  0.00000000000E+00  0.00000000000E+00  0.98149347588E+03  0.98149347588E+03  0.00000000000E+00 0. -1.
          1   -1    0    0  501    0 -0.00000000000E+00 -0.00000000000E+00 -0.10510033256E+04  0.10510033256E+04  0.00000000000E+00 0. -1.
         25    2    1    2    0    0  0.22227628208E+02  0.60187528618E+02  0.52449211603E+02  0.14997708534E+03  0.12500240106E+03 0.  0.
          2    1    1    2  501    0  0.42157567562E+02 -0.72786420754E+01 -0.99980859791E+03  0.10007234741E+04  0.00000000000E+00 0. -1.
          1    1    1    2  502    0 -0.64385195770E+02 -0.52908886543E+02  0.87784953656E+03  0.88179624208E+03  0.00000000000E+00 0. -1.
         22    1    3    3    0    0 -0.25612807169E+01  0.54894535833E+02  0.89536066314E+02  0.10505559192E+03  0.00000000000E+00 0.  1.
         22    1    3    3    0    0  0.24788908925E+02  0.52929927848E+01 -0.37086854711E+02  0.44921493416E+02  0.00000000000E+00 0.  1.
</event>
<event>
 7    1  0.6444902E-006  0.2804031E+03  0.7818608E-02  0.1258253E+00
          2   -1    0    0  502    0  0.00000000000E+00  0.00000000000E+00  0.13235183974E+04  0.13235183974E+04  0.00000000000E+00 0. -1.
          1   -1    0    0  501    0 -0.00000000000E+00 -0.00000000000E+00 -0.63311357150E+03  0.63311357150E+03  0.00000000000E+00 0. -1.
         25    2    1    2    0    0 -0.25545148673E+03 -0.16780844834E+03 -0.12629600158E+03  0.35353993420E+03  0.12499867060E+03 0.  0.
          2    1    1    2  501    0  0.21131465537E+03  0.16875872475E+03 -0.34622782425E+03  0.43932573000E+03  0.00000000000E+00 0. -1.
          1    1    1    2  502    0  0.44136831357E+02 -0.95027640893E+00  0.11629286518E+04  0.11637663047E+04  0.00000000000E+00 0. -1.
         22    1    3    3    0    0 -0.45628995070E+02 -0.57820136540E+02  0.18431599925E+02  0.75926920499E+02  0.00000000000E+00 0.  1.
         22    1    3    3    0    0 -0.20982249166E+03 -0.10998831180E+03 -0.14472760151E+03  0.27761301370E+03  0.00000000000E+00 0.  1.
</event>
<event>
 7    1  0.6444902E-006  0.1450051E+03  0.7818608E-02  0.1264746E+00
          2   -1    0    0  502    0  0.00000000000E+00  0.00000000000E+00  0.53333410669E+03  0.53333410669E+03  0.00000000000E+00 0. -1.
          1   -1    0    0  501    0 -0.00000000000E+00 -0.00000000000E+00 -0.12428680513E+04  0.12428680513E+04  0.00000000000E+00 0. -1.
         25    2    1    2    0    0  0.79006372316E+02 -0.19248214835E+03  0.10207206547E+03  0.26331518562E+03  0.12499918452E+03 0.  0.
          2    1    1    2  501    0 -0.16222808940E+02  0.14273394810E+03 -0.11531560189E+04  0.11620692593E+04  0.00000000000E+00 0. -1.
          1    1    1    2  502    0 -0.62783563376E+02  0.49748200252E+02  0.34155000883E+03  0.35081771305E+03  0.00000000000E+00 0. -1.
         22    1    3    3    0    0  0.30254807688E+02 -0.86466857470E+02 -0.20721494473E+02  0.93921515970E+02  0.00000000000E+00 0. -1.
         22    1    3    3    0    0  0.48751564628E+02 -0.10601529088E+03  0.12279355995E+03  0.16939366965E+03  0.00000000000E+00 0. -1.
</event>
<event>
 7    1  0.6444902E-006  0.7284330E+02  0.7818608E-02  0.1466794E+00
          2   -1    0    0  502    0  0.00000000000E+00  0.00000000000E+00  0.23548077826E+04  0.23548077826E+04  0.00000000000E+00 0. -1.
          1   -1    0    0  501    0 -0.00000000000E+00 -0.00000000000E+00 -0.11048621592E+04  0.11048621592E+04  0.00000000000E+00 0. -1.
         25    2    1    2    0    0 -0.76791716847E+02  0.15986281797E+02  0.69606232342E+03  0.71153416143E+03  0.12500230323E+03 0.  0.
          2    1    1    2  501    0  0.60583202318E+02 -0.40445566440E+02 -0.10957865241E+04  0.10982050239E+04  0.00000000000E+00 0. -1.
          1    1    1    2  502    0  0.16208514529E+02  0.24459284643E+02  0.16496698241E+04  0.16499307565E+04  0.00000000000E+00 0. -1.
         22    1    3    3    0    0 -0.22658594298E+01  0.45847643547E+02  0.45807677660E+03  0.46037101754E+03  0.00000000000E+00 0. -1.
         22    1    3    3    0    0 -0.74525857417E+02 -0.29861361750E+02  0.23798554682E+03  0.25116314389E+03  0.00000000000E+00 0. -1.
</event>
<event>
 7    1  0.6444902E-006  0.6347709E+02  0.7818608E-02  0.1436711E+00
          2   -1    0    0  502    0  0.00000000000E+00  0.00000000000E+00  0.20878737020E+04  0.20878737020E+04  0.00000000000E+00 0. -1.
          1   -1    0    0  501    0 -0.00000000000E+00 -0.00000000000E+00 -0.12276186795E+04  0.12276186795E+04  0.00000000000E+00 0. -1.
         25    2    1    2    0    0 -0.16868376444E+02 -0.40530059935E+02  0.20719462849E+03  0.24592738106E+03  0.12499373904E+03 0.  0.
          2    1    1    2  501    0 -0.20193647712E+02  0.60297721428E+02 -0.12071783925E+04  0.12088520464E+04  0.00000000000E+00 0. -1.
          1    1    1    2  502    0  0.37062024157E+02 -0.19767661493E+02  0.18602387866E+04  0.18607129541E+04  0.00000000000E+00 0. -1.
         22    1    3    3    0    0  0.42070042684E+02 -0.16397178450E+02  0.22275755195E+02  0.50348438130E+02  0.00000000000E+00 0.  1.
         22    1    3    3    0    0 -0.58938419128E+02 -0.24132881485E+02  0.18491887330E+03  0.19557894293E+03  0.00000000000E+00 0.  1.
</event>
<event>
 7    1  0.6444902E-006  0.3122886E+03  0.7818608E-02  0.1186823E+00
          2   -1    0    0  502    0  0.00000000000E+00  0.00000000000E+00  0.10811764100E+04  0.10811764100E+04  0.00000000000E+00 0. -1.
          1   -1    0    0  501    0 -0.00000000000E+00 -0.00000000000E+00 -0.38293634185E+03  0.38293634185E+03  0.00000000000E+00 0. -1.
         25    2    1    2    0    0 -0.23749539942E+03 -0.55265907337E+02 -0.66593269023E+02  0.28199220896E+03  0.12500622854E+03 0.  0.
          2    1    1    2  501    0 -0.68698761934E+02 -0.47807416053E+02 -0.17192448807E+03  0.19121479681E+03  0.00000000000E+00 0. -1.
          1    1    1    2  502    0  0.30619416135E+03  0.10307332339E+03  0.93675782529E+03  0.99090574611E+03  0.00000000000E+00 0. -1.
         22    1    3    3    0    0 -0.18873710675E+03  0.35586478115E+01 -0.78911867201E+02  0.20460068970E+03  0.00000000000E+00 0. -1.
         22    1    3    3    0    0 -0.48758292670E+02 -0.58824555148E+02  0.12318598178E+02  0.77391519261E+02  0.00000000000E+00 0. -1.
</event>
<event>
 7    1  0.6444902E-006  0.6856007E+02  0.7818608E-02  0.1507177E+00
          2   -1    0    0  502    0  0.00000000000E+00  0.00000000000E+00  0.87601321074E+03  0.87601321074E+03  0.00000000000E+00 0. -1.
          1   -1    0    0  501    0 -0.00000000000E+00 -0.00000000000E+00 -0.24059416853E+03  0.24059416853E+03  0.00000000000E+00 0. -1.
         25    2    1    2    0    0  0.38829524030E+02 -0.32443706001E+02  0.18831791188E+03  0.23161709378E+03  0.12499006441E+03 0.  0.
          2    1    1    2  501    0 -0.62205032773E+02  0.30009425600E+02 -0.21328372086E+03  0.22418737099E+03  0.00000000000E+00 0. -1.
          1    1    1    2  502    0  0.23375508743E+02  0.24342804006E+01  0.66038485120E+03  0.66080291450E+03  0.00000000000E+00 0. -1.
         22    1    3    3    0    0 -0.17327916779E+02  0.82250985484E+00 -0.11894654198E+02  0.21033687761E+02  0.00000000000E+00 0.  1.
         22    1    3    3    0    0  0.56157440809E+02 -0.33266215856E+02  0.20021256607E+03  0.21058340602E+03  0.00000000000E+00 0.  1.
</event>
<event>
 7    1  0.6444902E-006  0.7105123E+02  0.7818608E-02  0.1407693E+00
          2   -1    0    0  502    0  0.00000000000E+00  0.00000000000E+00  0.11930940383E+04  0.11930940383E+04  0.00000000000E+00 0. -1.
          1   -1    0    0  501    0 -0.00000000000E+00 -0.00000000000E+00 -0.30907493118E+04  0.30907493118E+04  0.00000000000E+00 0. -1.
         25    2    1    2    0    0  0.48553735925E+02  0.28168264129E+02 -0.18722912269E+03  0.23202037745E+03  0.12501117866E+03 0.  0.
          2    1    1    2  501    0  0.21340803796E+02 -0.41737452251E+02 -0.28798510853E+04  0.28802325805E+04  0.00000000000E+00 0. -1.
          1    1    1    2  502    0 -0.69894539720E+02  0.13569188123E+02  0.11694249344E+04  0.11715903921E+04  0.00000000000E+00 0. -1.
         22    1    3    3    0    0 -0.13401484188E+02 -0.19446319307E+02  0.53303408604E+01  0.24210981945E+02  0.00000000000E+00 0. -1.
         22    1    3    3    0    0  0.61955220113E+02  0.47614583436E+02 -0.19255946355E+03  0.20780939550E+03  0.00000000000E+00 0. -1.
</event>
<event>
 7    1  0.6444902E-006  0.4035060E+02  0.7818608E-02  0.1541552E+00
          2   -1    0    0  502    0  0.00000000000E+00  0.00000000000E+00  0.64028817322E+02  0.64028817322E+02  0.00000000000E+00 0. -1.
          1   -1    0    0  501    0 -0.00000000000E+00 -0.00000000000E+00 -0.43410368666E+03  0.43410368666E+03  0.00000000000E+00 0. -1.
         25    2    1    2    0    0  0.15740933748E+02  0.68928565133E+02 -0.88481729086E+02  0.16868080336E+03  0.12500109181E+03 0.  0.
          2    1    1    2  501    0 -0.12533906517E+02 -0.37316548704E+02 -0.29304464881E+03  0.29567683342E+03  0.00000000000E+00 0. -1.
          1    1    1    2  502    0 -0.32070272306E+01 -0.31612016429E+02  0.11451508563E+02  0.33774867206E+02  0.00000000000E+00 0. -1.
         22    1    3    3    0    0 -0.14664725048E+02 -0.17700687674E+02 -0.71771012825E+02  0.75362104448E+02  0.00000000000E+00 0. -1.
         22    1    3    3    0    0  0.30405658796E+02  0.86629252808E+02 -0.16710716261E+02  0.93318698913E+02  0.00000000000E+00 0. -1.
</event>
<event>
 7    1  0.6444902E-006  0.1124016E+03  0.7818608E-02  0.1372401E+00
          2   -1    0    0  502    0  0.00000000000E+00  0.00000000000E+00  0.74869159591E+02  0.74869159591E+02  0.00000000000E+00 0. -1.
          1   -1    0    0  501    0 -0.00000000000E+00 -0.00000000000E+00 -0.12380689513E+04  0.12380689513E+04  0.00000000000E+00 0. -1.
         25    2    1    2    0    0  0.49300857567E+02  0.65168958852E+02 -0.42165445832E+03  0.44732045510E+03  0.12500215830E+03 0.  0.
          2    1    1    2  501    0  0.37204094351E+02  0.12811853746E+02 -0.74794269457E+03  0.74897701073E+03  0.00000000000E+00 0. -1.
          1    1    1    2  502    0 -0.86504951918E+02 -0.77980812597E+02  0.63973612222E+01  0.11664064502E+03  0.00000000000E+00 0. -1.
         22    1    3    3    0    0  0.15200146044E+01  0.92841217340E+02 -0.29170800848E+03  0.30612965275E+03  0.00000000000E+00 0.  1.
         22    1    3    3    0    0  0.47780842962E+02 -0.27672258488E+02 -0.12994644984E+03  0.14119080236E+03  0.00000000000E+00 0.  1.
</event>
<event>
 7    1  0.6444902E-006  0.3960999E+02  0.7818608E-02  0.1528587E+00
          2   -1    0    0  502    0  0.00000000000E+00  0.00000000000E+00  0.28248533464E+03  0.28248533464E+03  0.00000000000E+00 0. -1.
          1   -1    0    0  501    0 -0.00000000000E+00 -0.00000000000E+00 -0.52438086969E+03  0.52438086969E+03  0.00000000000E+00 0. -1.
         25    2    1    2    0    0  0.32574766971E+02  0.52424989640E+02 -0.24569523178E+03  0.28248988773E+03  0.12499957908E+03 0.  0.
          2    1    1    2  501    0 -0.32797238720E+02 -0.12887161500E+02 -0.25760215601E+03  0.26000117034E+03  0.00000000000E+00 0. -1.
          1    1    1    2  502    0  0.22247174936E+00 -0.39537828139E+02  0.26140185273E+03  0.26437514626E+03  0.00000000000E+00 0. -1.
         22    1    3    3    0    0 -0.43522504561E+02  0.26353007032E+02 -0.14464332011E+03  0.15333094742E+03  0.00000000000E+00 0. -1.
         22    1    3    3    0    0  0.76097271532E+02  0.26071982608E+02 -0.10105191167E+03  0.12915894032E+03  0.00000000000E+00 0. -1.
</event>
<event>
 7    1  0.6444902E-006  0.1230767E+03  0.7818608E-02  0.1294237E+00
          2   -1    0    0  502    0  0.00000000000E+00  0.00000000000E+00  0.62132928035E+03  0.62132928035E+03  0.00000000000E+00 0. -1.
          1   -1    0    0  501    0 -0.00000000000E+00 -0.00000000000E+00 -0.12058809023E+04  0.12058809023E+04  0.00000000000E+00 0. -1.
         25    2    1    2    0    0  0.58979955463E+02 -0.73352160248E+02  0.21869970262E+03  0.26891245012E+03  0.12500068538E+03 0.  0.
          2    1    1    2  501    0 -0.82567183862E+01  0.12341096472E+03 -0.11741337463E+04  0.11806305492E+04  0.00000000000E+00 0. -1.
          1    1    1    2  502    0 -0.50723237077E+02 -0.50058804476E+02  0.37088242166E+03  0.37766718335E+03  0.00000000000E+00 0. -1.
         22    1    3    3    0    0  0.60854236943E+02 -0.93206072082E+02  0.22233349785E+03  0.24864189971E+03  0.00000000000E+00 0.  1.
         22    1    3    3    0    0 -0.18742814794E+01  0.19853911834E+02 -0.36337952310E+01  0.20270550411E+02  0.00000000000E+00 0.  1.
</event>
<event>
 7    1  0.6444902E-006  0.1073135E+03  0.7818608E-02  0.1332393E+00
          2   -1    0    0  502    0  0.00000000000E+00  0.00000000000E+00  0.58416699819E+03  0.58416699819E+03  0.00000000000E+00 0. -1.
          1   -1    0    0  501    0 -0.00000000000E+00 -0.00000000000E+00 -0.18334462907E+03  0.18334462907E+03  0.00000000000E+00 0. -1.
         25    2    1    2    0    0  0.33338416810E+02 -0.10521504041E+03  0.61232754166E+02  0.17764181153E+03  0.12500203302E+03 0.  0.
          2    1    1    2  501    0  0.24559739533E+02  0.10650695962E+03 -0.99000913589E+02  0.14747235044E+03  0.00000000000E+00 0. -1.
          1    1    1    2  502    0 -0.57898156343E+02 -0.12919192067E+01  0.43859052855E+03  0.44239746529E+03  0.00000000000E+00 0. -1.
         22    1    3    3    0    0  0.47465935944E+00 -0.17172464426E+02  0.79988341953E+02  0.81812307658E+02  0.00000000000E+00 0.  1.
         22    1    3    3    0    0  0.32863757451E+02 -0.88042575985E+02 -0.18755587787E+02  0.95829503876E+02  0.00000000000E+00 0.  1.
</event>
<event>
 7    1  0.6444902E-006  0.6859948E+02  0.7818608E-02  0.1466686E+00
          2   -1    0    0  502    0  0.00000000000E+00  0.00000000000E+00  0.19091209880E+04  0.19091209880E+04  0.00000000000E+00 0. -1.
          1   -1    0    0  501    0 -0.00000000000E+00 -0.00000000000E+00 -0.14983145829E+04  0.14983145829E+04  0.00000000000E+00 0. -1.
         25    2    1    2    0    0  0.79336376125E+02  0.48778508453E+02  0.11971778228E+04  0.12072835035E+04  0.12500045984E+03 0.  0.
          2    1    1    2  501    0 -0.27300265863E+02 -0.15066702437E+02 -0.14917389366E+04  0.14920647992E+04  0.00000000000E+00 0. -1.
          1    1    1    2  502    0 -0.52036110262E+02 -0.33711806016E+02  0.70536751894E+03  0.70808726821E+03  0.00000000000E+00 0. -1.
         22    1    3    3    0    0  0.19515856806E+02 -0.40606960281E+02  0.47631030878E+03  0.47843631148E+03  0.00000000000E+00 0. -1.
         22    1    3    3    0    0  0.59820519319E+02  0.89385468734E+02  0.72086751403E+03  0.72884719204E+03  0.00000000000E+00 0. -1.
</event>
<event>
 7    1  0.6444902E-006  0.1909615E+03  0.7818608E-02  0.1231097E+00
          2   -1    0    0  502    0  0.00000000000E+00  0.00000000000E+00  0.12643998213E+04  0.12643998213E+04  0.00000000000E+00 0. -1.
          1   -1    0    0  501    0 -0.00000000000E+00 -0.00000000000E+00 -0.25260106737E+04  0.25260106737E+04  0.00000000000E+00 0. -1.
         25    2    1    2    0    0  0.83560187304E+02 -0.24394828215E+03 -0.66955522420E+03  0.72830098790E+03  0.12500024586E+03 0.  0.
          2    1    1    2  501    0  0.18389557290E+02  0.83222617233E+02 -0.18187455322E+04  0.18207414673E+04  0.00000000000E+00 0. -1.
          1    1    1    2  502    0 -0.10194974459E+03  0.16072566492E+03  0.12266899039E+04  0.12413680398E+04  0.00000000000E+00 0. -1.
         22    1    3    3    0    0  0.26108508280E+02 -0.22282237370E+03 -0.54972053797E+03  0.59373742875E+03  0.00000000000E+00 0.  1.
         22    1    3    3    0    0  0.57451679024E+02 -0.21125908456E+02 -0.11983468623E+03  0.13456355916E+03  0.00000000000E+00 0.  1.
</event>
<event>
 7    1  0.6444902E-006  0.7149612E+02  0.7818608E-02  0.1355314E+00
          2   -1    0    0  502    0  0.00000000000E+00  0.00000000000E+00  0.28465073357E+02  0.28465073357E+02  0.00000000000E+00 0. -1.
          1   -1    0    0  501    0 -0.00000000000E+00 -0.00000000000E+00 -0.21861366016E+04  0.21861366016E+04  0.00000000000E+00 0. -1.
         25    2    1    2    0    0 -0.69663182854E+02 -0.65184447652E+01 -0.35610992258E+03  0.38384170560E+03  0.12499891533E+03 0.  0.
          2    1    1    2  501    0  0.19723450386E+02  0.68721758511E+02 -0.17005335618E+04  0.17020358660E+04  0.00000000000E+00 0. -1.
          1    1    1    2  502    0  0.49939732468E+02 -0.62203313746E+02 -0.10102804389E+03  0.12872410330E+03  0.00000000000E+00 0. -1.
         22    1    3    3    0    0 -0.70994964203E+01 -0.48681999586E+02 -0.56678741050E+02  0.75052112696E+02  0.00000000000E+00 0. -1.
         22    1    3    3    0    0 -0.62563686434E+02  0.42163554821E+02 -0.29943118153E+03  0.30878959291E+03  0.00000000000E+00 0. -1.
</event>
<event>
 7    1  0.6444902E-006  0.7975370E+02  0.7818608E-02  0.1337838E+00
          2   -1    0    0  502    0  0.00000000000E+00  0.00000000000E+00  0.12545641114E+04  0.12545641114E+04  0.00000000000E+00 0. -1.
          1   -1    0    0  501    0 -0.00000000000E+00 -0.00000000000E+00 -0.73491831443E+02  0.73491831443E+02  0.00000000000E+00 0. -1.
         25    2    1    2    0    0 -0.16650150955E+02  0.34837127200E+01  0.26221150604E+03  0.29097879048E+03  0.12499767528E+03 0.  0.
          2    1    1    2  501    0  0.92530680171E+01  0.79215103654E+02 -0.29540209126E+02  0.85048667655E+02  0.00000000000E+00 0. -1.
          1    1    1    2  502    0  0.73970829383E+01 -0.82698816375E+02  0.94840098307E+03  0.95202848474E+03  0.00000000000E+00 0. -1.
         22    1    3    3    0    0  0.94170015773E+01  0.49383090337E+02  0.45084262855E+02  0.67527478015E+02  0.00000000000E+00 0. -1.
         22    1    3    3    0    0 -0.26067152533E+02 -0.45899377617E+02  0.21712724319E+03  0.22345131246E+03  0.00000000000E+00 0. -1.
</event>
<event>
 7    1  0.6444902E-006  0.5633841E+02  0.7818608E-02  0.1448178E+00
          2   -1    0    0  502    0  0.00000000000E+00  0.00000000000E+00  0.13388015853E+04  0.13388015853E+04  0.00000000000E+00 0. -1.
          1   -1    0    0  501    0 -0.00000000000E+00 -0.00000000000E+00 -0.11321440493E+04  0.11321440493E+04  0.00000000000E+00 0. -1.
         25    2    1    2    0    0 -0.82084780087E+02  0.34497240082E+02  0.10696540026E+03  0.18706789834E+03  0.12499932416E+03 0.  0.
          2    1    1    2  501    0  0.43093174685E+02  0.55805220190E+01 -0.10910042079E+04  0.10918691980E+04  0.00000000000E+00 0. -1.
          1    1    1    2  502    0  0.38991605402E+02 -0.40077762101E+02  0.11906963437E+04  0.11920085383E+04  0.00000000000E+00 0. -1.
         22    1    3    3    0    0 -0.88435650837E+02  0.67458770845E+02  0.10575459263E+03  0.15347828500E+03  0.00000000000E+00 0. -1.
         22    1    3    3    0    0  0.63508707494E+01 -0.32961530762E+02  0.12108076320E+01  0.33589613344E+02  0.00000000000E+00 0. -1.
</event>
<event>
 7    1  0.6444902E-006  0.1464923E+03  0.7818608E-02  0.1222940E+00
          2   -1    0    0  502    0  0.00000000000E+00  0.00000000000E+00  0.10324245042E+04  0.10324245042E+04  0.00000000000E+00 0. -1.
          1   -1    0    0  501    0 -0.00000000000E+00 -0.00000000000E+00 -0.14945581433E+04  0.14945581433E+04  0.00000000000E+00 0. -1.
         25    2    1    2    0    0 -0.58714884206E+02  0.15299333211E+03 -0.11799457929E+02  0.20642831267E+03  0.12497609278E+03 0.  0.
          2    1    1    2  501    0 -0.76800500500E+02 -0.93393127982E+02 -0.13769187575E+04  0.13822177317E+04  0.00000000000E+00 0. -1.
          1    1    1    2  502    0  0.13551538471E+03 -0.59600204129E+02  0.92658457629E+03  0.93833660317E+03  0.00000000000E+00 0. -1.
         22    1    3    3    0    0  0.31910973546E+02  0.46442537307E+01 -0.22655094827E+01  0.32326643169E+02  0.00000000000E+00 0.  1.
         22    1    3    3    0    0 -0.90625857752E+02  0.14834907838E+03 -0.95339484458E+01  0.17410166950E+03  0.00000000000E+00 0.  1.
</event>
<event>
 7    1  0.6444902E-006  0.1321901E+03  0.7818608E-02  0.1285820E+00
          2   -1    0    0  502    0  0.00000000000E+00  0.00000000000E+00  0.19829332453E+04  0.19829332453E+04  0.00000000000E+00 0. -1.
          1   -1    0    0  501    0 -0.00000000000E+00 -0.00000000000E+00 -0.91831157413E+03  0.91831157413E+03  0.00000000000E+00 0. -1.
         25    2    1    2    0    0 -0.89033611790E+02  0.65842952333E+01 -0.10483803934E+03  0.18597288233E+03  0.12499824598E+03 0.  0.
          2    1    1    2  501    0  0.12100868480E+03 -0.70863835954E+02 -0.76587438511E+03  0.77860667786E+03  0.00000000000E+00 0. -1.
          1    1    1    2  502    0 -0.31975073012E+02  0.64279540720E+02  0.19353340957E+04  0.19366652593E+04  0.00000000000E+00 0. -1.
         22    1    3    3    0    0 -0.49149923265E+02  0.64084157068E+02 -0.38195333474E+02  0.89338556309E+02  0.00000000000E+00 0. -1.
         22    1    3    3    0    0 -0.39883688525E+02 -0.57499861835E+02 -0.66642705865E+02  0.96634326025E+02  0.00000000000E+00 0. -1.
</event>
<event>
 7    1  0.6444902E-006  0.1407504E+03  0.7818608E-02  0.1217571E+00
          2   -1    0    0  502    0  0.00000000000E+00  0.00000000000E+00  0.16354224938E+04  0.16354224938E+04  0.00000000000E+00 0. -1.
          1   -1    0    0  501    0 -0.00000000000E+00 -0.00000000000E+00 -0.17323148187E+03  0.17323148187E+03  0.00000000000E+00 0. -1.
         25    2    1    2    0    0 -0.94714599320E+02 -0.12165974517E+02  0.59059467541E+03  0.61118005320E+03  0.12498048067E+03 0.  0.
          2    1    1    2  501    0  0.82737446599E+02 -0.12043687998E+03 -0.12483726354E+03  0.19218446737E+03  0.00000000000E+00 0. -1.
          1    1    1    2  502    0  0.11977152720E+02  0.13260285449E+03  0.99643360003E+03  0.10052894551E+04  0.00000000000E+00 0. -1.
         22    1    3    3    0    0 -0.74593757965E+02  0.33840203418E+02  0.18289193025E+03  0.20039672214E+03  0.00000000000E+00 0.  1.
         22    1    3    3    0    0 -0.20120841355E+02 -0.46006177935E+02  0.40770274517E+03  0.41078333107E+03  0.00000000000E+00 0.  1.
</event>
<event>
 7    1  0.6444902E-006  0.1454404E+03  0.7818608E-02  0.1420765E+00
          2   -1    0    0  502    0  0.00000000000E+00  0.00000000000E+00  0.78158783929E+03  0.78158783929E+03  0.00000000000E+00 0. -1.
          1   -1    0    0  501    0 -0.00000000000E+00 -0.00000000000E+00 -0.50630312224E+03  0.50630312224E+03  0.00000000000E+00 0. -1.
         25    2    1    2    0    0  0.76161897524E+02  0.11639243571E+03  0.54328254081E+03  0.57456952587E+03  0.12500554865E+03 0.  0.
          2    1    1    2  501    0 -0.62176593924E+02 -0.13164357109E+03 -0.47934347885E+03  0.50096519775E+03  0.00000000000E+00 0. -1.
          1    1    1    2  502    0 -0.13985303600E+02  0.15251135378E+02  0.21134565509E+03  0.21235623790E+03  0.00000000000E+00 0. -1.
         22    1    3    3    0    0  0.10388568294E+01 -0.25962119591E+02  0.81118577697E+02  0.85178251477E+02  0.00000000000E+00 0. -1.
         22    1    3    3    0    0  0.75123040694E+02  0.14235455530E+03  0.46216396311E+03  0.48939127440E+03  0.00000000000E+00 0. -1.
</event>
<event>
 7    1  0.6444902E-006  0.1753364E+03  0.7818608E-02  0.1244994E+00
          2   -1    0    0  502    0  0.00000000000E+00  0.00000000000E+00  0.72877885034E+02  0.72877885034E+02  0.00000000000E+00 0. -1.
          1   -1    0    0  501    0 -0.00000000000E+00 -0.00000000000E+00 -0.12909630855E+04  0.12909630855E+04  0.00000000000E+00 0. -1.
         25    2    1    2    0    0 -0.33613766884E+02  0.16872261221E+03 -0.19208553491E+03  0.28656494628E+03  0.12500164208E+03 0.  0.
          2    1    1    2  501    0 -0.79338120766E+02 -0.14041984205E+02 -0.65322859410E+03  0.65817878336E+03  0.00000000000E+00 0. -1.
          1    1    1    2  502    0  0.11295188765E+03 -0.15468062800E+03 -0.37277107150E+03  0.41909724093E+03  0.00000000000E+00 0. -1.
         22    1    3    3    0    0 -0.37543142831E+02  0.16560045083E+03 -0.10565737713E+03  0.19999119539E+03  0.00000000000E+00 0.  1.
         22    1    3    3    0    0  0.39293759462E+01  0.31221613748E+01 -0.86428157780E+02  0.86573750896E+02  0.00000000000E+00 0.  1.
</event>
<event>
 7    1  0.6444902E-006  0.7223041E+02  0.7818608E-02  0.1375628E+00
          2   -1    0    0  502    0  0.00000000000E+00  0.00000000000E+00  0.67878305998E+03  0.67878305998E+03  0.00000000000E+00 0. -1.
          1   -1    0    0  501    0 -0.00000000000E+00 -0.00000000000E+00 -0.38480959131E+03  0.38480959131E+03  0.00000000000E+00 0. -1.
         25    2    1    2    0    0 -0.14585245569E+01  0.11504620789E+03  0.30426309675E+03  0.34848539807E+03  0.12501313284E+03 0.  0.
          2    1    1    2  501    0 -0.30850338880E+02 -0.64930641736E+02 -0.35656306143E+03  0.36373747184E+03  0.00000000000E+00 0. -1.
          1    1    1    2  502    0  0.32308863437E+02 -0.50115566159E+02  0.34627343335E+03  0.35136978138E+03  0.00000000000E+00 0. -1.
         22    1    3    3    0    0  0.91107026397E+01 -0.52151939500E+01  0.16012450311E+03  0.16046825122E+03  0.00000000000E+00 0.  1.
         22    1    3    3    0    0 -0.10569227197E+02  0.12026140184E+03  0.14413859363E+03  0.18801714686E+03  0.00000000000E+00 0.  1.
</event>
<event>
 7    1  0.6444902E-006  0.6549794E+02  0.7818608E-02  0.1468815E+00
          2   -1    0    0  502    0  0.00000000000E+00  0.00000000000E+00  0.10546884776E+04  0.10546884776E+04  0.00000000000E+00 0. -1.
          1   -1    0    0  501    0 -0.00000000000E+00 -0.00000000000E+00 -0.20011334628E+04  0.20011334628E+04  0.00000000000E+00 0. -1.
         25    2    1    2    0    0  0.50351852882E+02 -0.99708458935E+00  0.44658190253E+03  0.46647192366E+03  0.12499742651E+03 0.  0.
          2    1    1    2  501    0 -0.58144610153E+02 -0.30207217038E+02 -0.19902165717E+04  0.19912948737E+04  0.00000000000E+00 0. -1.
          1    1    1    2  502    0  0.77927572716E+01  0.31204301628E+02  0.59718968401E+03  0.59805514310E+03  0.00000000000E+00 0. -1.
         22    1    3    3    0    0  0.14977227529E+02 -0.50528850302E+02  0.33721580737E+03  0.34130921874E+03  0.00000000000E+00 0. -1.
         22    1    3    3    0    0  0.35374625353E+02  0.49531765713E+02  0.10936609516E+03  0.12516270493E+03  0.00000000000E+00 0. -1.
</event>
<event>
 7    1  0.6444902E-006  0.4193841E+02  0.7818608E-02  0.1494922E+00
          2   -1    0    0  502    0  0.00000000000E+00  0.00000000000E+00  0.84948877195E+03  0.84948877195E+03  0.00000000000E+00 0. -1.
          1   -1    0    0  501    0 -0.00000000000E+00 -0.00000000000E+00 -0.25600879987E+03  0.25600879987E+03  0.00000000000E+00 0. -1.
         25    2    1    2    0    0  0.49866973907E+01 -0.28190524833E+01 -0.62900624282E+02  0.14005287728E+03  0.12500202274E+03 0.  0.
          2    1    1    2  501    0  0.18591532272E+02  0.37592351097E+02 -0.15113044667E+03  0.15684145448E+03  0.00000000000E+00 0. -1.
          1    1    1    2  502    0 -0.23578229663E+02 -0.34773298613E+02  0.80751104304E+03  0.80860324006E+03  0.00000000000E+00 0. -1.
         22    1    3    3    0    0 -0.16029899921E+02 -0.22835770285E+02 -0.93680671077E+02  0.97747113663E+02  0.00000000000E+00 0. -1.
         22    1    3    3    0    0  0.21016597312E+02  0.20016717802E+02  0.30780046795E+02  0.42305763613E+02  0.00000000000E+00 0. -1.
</event>
<event>
 7    1  0.6444902E-006  0.7980473E+02  0.7818608E-02  0.1356939E+00
          2   -1    0    0  502    0  0.00000000000E+00  0.00000000000E+00  0.78091827015E+03  0.78091827015E+03  0.00000000000E+00 0. -1.
          1   -1    0    0  501    0 -0.00000000000E+00 -0.00000000000E+00 -0.47108511548E+03  0.47108511548E+03  0.00000000000E+00 0. -1.
         25    2    1    2    0    0  0.19109551968E+02 -0.37458010804E+02  0.19985704719E+02  0.13338820064E+03  0.12499882450E+03 0.  0.
          2    1    1    2  501    0 -0.49900398899E+02 -0.38543341537E+02 -0.40957609288E+03  0.41440103143E+03  0.00000000000E+00 0. -1.
          1    1    1    2  502    0  0.30790846931E+02  0.76001352341E+02  0.69942354283E+03  0.70421415356E+03  0.00000000000E+00 0. -1.
         22    1    3    3    0    0  0.51837901174E+02  0.17608647360E+01 -0.31644909776E+02  0.60759105964E+02  0.00000000000E+00 0. -1.
         22    1    3    3    0    0 -0.32728349206E+02 -0.39218875540E+02  0.51630614495E+02  0.72629094676E+02  0.00000000000E+00 0. -1.
</event>
<event>
 7    1  0.6444902E-006  0.4425720E+02  0.7818608E-02  0.1541590E+00
          2   -1    0    0  502    0  0.00000000000E+00  0.00000000000E+00  0.89023612918E+03  0.89023612918E+03  0.00000000000E+00 0. -1.
          1   -1    0    0  501    0 -0.00000000000E+00 -0.00000000000E+00 -0.93290136648E+03  0.93290136648E+03  0.00000000000E+00 0. -1.
         25    2    1    2    0    0 -0.28436892567E+02  0.38872059441E+02 -0.73223920359E+02  0.15266502245E+03  0.12500069081E+03 0.  0.
          2    1    1    2  501    0  0.42256854135E+02 -0.13419474419E+02 -0.81911063934E+03  0.82030967536E+03  0.00000000000E+00 0. -1.
          1    1    1    2  502    0 -0.13819961567E+02 -0.25452585022E+02  0.84966932239E+03  0.85016279785E+03  0.00000000000E+00 0. -1.
         22    1    3    3    0    0 -0.36176423339E+01 -0.29356537229E+02  0.19103122499E+02  0.35211119030E+02  0.00000000000E+00 0.  1.
         22    1    3    3    0    0 -0.24819250234E+02  0.68228596671E+02 -0.92327042858E+02  0.11745390342E+03  0.00000000000E+00 0.  1.
</event>
<event>
 7    1  0.6444902E-006  0.1796981E+03  0.7818608E-02  0.1293449E+00
          2   -1    0    0  502    0  0.00000000000E+00  0.00000000000E+00  0.71499374665E+03  0.71499374665E+03  0.00000000000E+00 0. -1.
          1   -1    0    0  501    0 -0.00000000000E+00 -0.00000000000E+00 -0.22839375532E+04  0.22839375532E+04  0.00000000000E+00 0. -1.
         25    2    1    2    0    0 -0.16856016988E+03 -0.82935505810E+02 -0.12534688086E+03  0.25812318433E+03  0.12499963503E+03 0.  0.
          2    1    1    2  501    0  0.33785361553E+02 -0.35723142621E+02 -0.20794780935E+04  0.20800593105E+04  0.00000000000E+00 0. -1.
          1    1    1    2  502    0  0.13477480832E+03  0.11865864843E+03  0.63588116782E+03  0.66074880507E+03  0.00000000000E+00 0. -1.
         22    1    3    3    0    0 -0.84605533012E+02 -0.51891844396E+02 -0.13558400353E+03  0.16802940738E+03  0.00000000000E+00 0.  1.
         22    1    3    3    0    0 -0.83954636864E+02 -0.31043661413E+02  0.10237122675E+02  0.90093776952E+02  0.00000000000E+00 0.  1.
</event>
<event>
 7    1  0.6444902E-006  0.1951657E+03  0.7818608E-02  0.1271847E+00
          2   -1    0    0  502    0  0.00000000000E+00  0.00000000000E+00  0.39720170143E+03  0.39720170143E+03  0.00000000000E+00 0. -1.
          1   -1    0    0  501    0 -0.00000000000E+00 -0.00000000000E+00 -0.19986593636E+04  0.19986593636E+04  0.00000000000E+00 0. -1.
         25    2    1    2    0    0  0.92238327151E+02  0.10895050413E+03 -0.50920077890E+03  0.54340437388E+03  0.12499903587E+03 0.  0.
          2    1    1    2  501    0  0.42516352768E+02  0.35761232349E+02 -0.14460701139E+04  0.14471369252E+04  0.00000000000E+00 0. -1.
          1    1    1    2  502    0 -0.13475467992E+03 -0.14471173648E+03  0.35381323067E+03  0.40531976591E+03  0.00000000000E+00 0. -1.
         22    1    3    3    0    0  0.10568858295E+03  0.77403614005E+02 -0.48242449063E+03  0.49989477411E+03  0.00000000000E+00 0.  1.
         22    1    3    3    0    0 -0.13450255803E+02  0.31546890127E+02 -0.26776288273E+02  0.43509599763E+02  0.00000000000E+00 0.  1.
</event>
<event>
 7    1  0.8041287E-006  0.1019286E+03  0.7818608E-02  0.1342889E+00
          2   -1    0    0  502    0  0.00000000000E+00  0.00000000000E+00  0.14807058739E+04  0.14807058739E+04  0.00000000000E+00 0. -1.
          1   -1    0    0  501    0 -0.00000000000E+00 -0.00000000000E+00 -0.15919638707E+04  0.15919638707E+04  0.00000000000E+00 0. -1.
         25    2    1    2    0    0 -0.41656014310E+02 -0.68213187909E+02 -0.88042700605E+03  0.89284113804E+03  0.12500128902E+03 0.  0.
          2    1    1    2  501    0  0.25019960801E+02  0.12132320023E+03 -0.69935956062E+03  0.71024581124E+03  0.00000000000E+00 0. -1.
          1    1    1    2  502    0  0.16636053508E+02 -0.53110012322E+02  0.14685285699E+04  0.14695827954E+04  0.00000000000E+00 0. -1.
         22    1    3    3    0    0  0.25069543147E+02 -0.45138249780E+02 -0.64479649925E+03  0.64686047107E+03  0.00000000000E+00 0. -1.
         22    1    3    3    0    0 -0.66725557456E+02 -0.23074938129E+02 -0.23563050680E+03  0.24598066697E+03  0.00000000000E+00 0. -1.
</event>
<event>
 7    1  0.6444902E-006  0.7282544E+02  0.7818608E-02  0.1444450E+00
          2   -1    0    0  502    0  0.00000000000E+00  0.00000000000E+00  0.12000455665E+04  0.12000455665E+04  0.00000000000E+00 0. -1.
          1   -1    0    0  501    0 -0.00000000000E+00 -0.00000000000E+00 -0.53992888617E+02  0.53992888617E+02  0.00000000000E+00 0. -1.
         25    2    1    2    0    0 -0.29797210907E+02  0.30969646499E+02  0.25661423634E+03  0.28865697926E+03  0.12499997042E+03 0.  0.
          2    1    1    2  501    0  0.58077514277E+02 -0.50828519454E+02  0.19322496033E+01  0.77202782612E+02  0.00000000000E+00 0. -1.
          1    1    1    2  502    0 -0.28280303370E+02  0.19858872955E+02  0.88750619198E+03  0.88817869328E+03  0.00000000000E+00 0. -1.
         22    1    3    3    0    0 -0.23306504784E+02  0.79133044975E+02  0.14306719408E+03  0.16514676501E+03  0.00000000000E+00 0.  1.
         22    1    3    3    0    0 -0.64907061230E+01 -0.48163398476E+02  0.11354704226E+03  0.12351021425E+03  0.00000000000E+00 0.  1.
</event>
<event>
 7    1  0.6444902E-006  0.6129784E+02  0.7818608E-02  0.1428998E+00
          2   -1    0    0  502    0  0.00000000000E+00  0.00000000000E+00  0.14601434525E+04  0.14601434525E+04  0.00000000000E+00 0. -1.
          1   -1    0    0  501    0 -0.00000000000E+00 -0.00000000000E+00 -0.16581724876E+04  0.16581724876E+04  0.00000000000E+00 0. -1.
         25    2    1    2    0    0 -0.22390141469E+02  0.64635763201E+02  0.64560766676E+03  0.66114539582E+03  0.12499949887E+03 0.  0.
          2    1    1    2  501    0 -0.23046131639E+02 -0.56809760254E+02 -0.16491748940E+04  0.16503140017E+04  0.00000000000E+00 0. -1.
          1    1    1    2  502    0  0.45436273108E+02 -0.78260029462E+01  0.80553819223E+03  0.80685654263E+03  0.00000000000E+00 0. -1.
         22    1    3    3    0    0  0.46646353736E+02  0.14113218117E+01  0.27287930266E+03  0.27684108793E+03  0.00000000000E+00 0.  1.
         22    1    3    3    0    0 -0.69036495205E+02  0.63224441389E+02  0.37272836410E+03  0.38430430789E+03  0.00000000000E+00 0.  1.
</event>
<event>
 7    1  0.6444902E-006  0.1633523E+03  0.7818608E-02  0.1192442E+00
          2   -1    0    0  502    0  0.00000000000E+00  0.00000000000E+00  0.32260073285E+03  0.32260073285E+03  0.00000000000E+00 0. -1.
          1   -1    0    0  501    0 -0.00000000000E+00 -0.00000000000E+00 -0.11071657707E+04  0.11071657707E+04  0.00000000000E+00 0. -1.
         25    2    1    2    0    0 -0.89948504324E+02  0.37694830269E+02 -0.30121473644E+02  0.16137801304E+03  0.12499570497E+03 0.  0.
          2    1    1    2  501    0  0.14353306700E+03  0.10280491223E+03 -0.98084048675E+03  0.99660355797E+03  0.00000000000E+00 0. -1.
          1    1    1    2  502    0 -0.53584562679E+02 -0.14049974250E+03  0.22639692256E+03  0.27178493252E+03  0.00000000000E+00 0. -1.
         22    1    3    3    0    0 -0.85008697697E+02 -0.18881105450E+02 -0.50946913975E+02  0.10088886396E+03  0.00000000000E+00 0.  1.
         22    1    3    3    0    0 -0.49398066267E+01  0.56575935719E+02  0.20825440331E+02  0.60489149085E+02  0.00000000000E+00 0.  1.
</event>
<event>
 7    1  0.6444902E-006  0.4158354E+02  0.7818608E-02  0.1527225E+00
          2   -1    0    0  502    0  0.00000000000E+00  0.00000000000E+00  0.44182995077E+04  0.44182995077E+04  0.00000000000E+00 0. -1.
          1   -1    0    0  501    0 -0.00000000000E+00 -0.00000000000E+00 -0.81363854059E+03  0.81363854059E+03  0.00000000000E+00 0. -1.
         25    2    1    2    0    0  0.51843200618E+02 -0.43933588617E+02  0.18999025804E+04  0.19052224598E+04  0.12499971577E+03 0.  0.
          2    1    1    2  501    0 -0.13746363843E+02  0.30954627818E+02 -0.81046390717E+03  0.81117131133E+03  0.00000000000E+00 0. -1.
          1    1    1    2  502    0 -0.38096836774E+02  0.12978960799E+02  0.25152222939E+04  0.25155442772E+04  0.00000000000E+00 0. -1.
         22    1    3    3    0    0 -0.34850172951E+02 -0.27241182763E+02  0.10056668332E+04  0.10066391588E+04  0.00000000000E+00 0. -1.
         22    1    3    3    0    0  0.86693373569E+02 -0.16692405853E+02  0.89423574719E+03  0.89858330109E+03  0.00000000000E+00 0. -1.
</event>
<event>
 7    1  0.6444902E-006  0.7968120E+02  0.7818608E-02  0.1505261E+00
          2   -1    0    0  502    0  0.00000000000E+00  0.00000000000E+00  0.10707668175E+04  0.10707668175E+04  0.00000000000E+00 0. -1.
          1   -1    0    0  501    0 -0.00000000000E+00 -0.00000000000E+00 -0.19530022373E+02  0.19530022373E+02  0.00000000000E+00 0. -1.
         25    2    1    2    0    0 -0.90530228794E+02  0.19132992544E+02  0.69126572859E+03  0.70854414151E+03  0.12499879689E+03 0.  0.
          2    1    1    2  501    0  0.16801028452E+02 -0.11724344724E+02  0.78832713045E+01  0.21951783132E+02  0.00000000000E+00 0. -1.
          1    1    1    2  502    0  0.73729200342E+02 -0.74086478204E+01  0.35208779526E+03  0.35980091525E+03  0.00000000000E+00 0. -1.
         22    1    3    3    0    0 -0.11319653383E+03  0.24643680808E+02  0.65672400901E+03  0.66686369693E+03  0.00000000000E+00 0.  1.
         22    1    3    3    0    0  0.22666305037E+02 -0.55106882637E+01  0.34541719580E+02  0.41680444584E+02  0.00000000000E+00 0.  1.
</event>
<event>
 7    1  0.6444902E-006  0.4993895E+02  0.7818608E-02  0.1453597E+00
          2   -1    0    0  502    0  0.00000000000E+00  0.00000000000E+00  0.77595618715E+03  0.77595618715E+03  0.00000000000E+00 0. -1.
          1   -1    0    0  501    0 -0.00000000000E+00 -0.00000000000E+00 -0.33259752560E+03  0.33259752560E+03  0.00000000000E+00 0. -1.
         25    2    1    2    0    0 -0.73133272357E+02 -0.35729853311E+02 -0.35182728993E+02  0.15326084380E+03  0.12500385546E+03 0.  0.
          2    1    1    2  501    0  0.46666961930E+02 -0.64087915385E+01 -0.23517388413E+03  0.23984502021E+03  0.00000000000E+00 0. -1.
          1    1    1    2  502    0  0.26466310427E+02  0.42138644849E+02  0.71371527467E+03  0.71544784875E+03  0.00000000000E+00 0. -1.
         22    1    3    3    0    0 -0.29849746676E+02 -0.76036536492E+02 -0.45071412244E+02  0.93295200627E+02  0.00000000000E+00 0.  1.
         22    1    3    3    0    0 -0.43283525682E+02  0.40306683181E+02  0.98886832512E+01  0.59965643171E+02  0.00000000000E+00 0.  1.
</event>
<event>
 7    1  0.6444902E-006  0.7490547E+02  0.7818608E-02  0.1427735E+00
          2   -1    0    0  502    0  0.00000000000E+00  0.00000000000E+00  0.64587295580E+03  0.64587295580E+03  0.00000000000E+00 0. -1.
          1   -1    0    0  501    0 -0.00000000000E+00 -0.00000000000E+00 -0.13395636094E+04  0.13395636094E+04  0.00000000000E+00 0. -1.
         25    2    1    2    0    0 -0.20032529132E+02  0.32160350191E+02 -0.37543611116E+02  0.13590279363E+03  0.12499782491E+03 0.  0.
          2    1    1    2  501    0  0.44762118652E+02 -0.61135428891E+02 -0.12510850664E+04  0.12533774497E+04  0.00000000000E+00 0. -1.
          1    1    1    2  502    0 -0.24729589520E+02  0.28975078700E+02  0.59493802394E+03  0.59615632188E+03  0.00000000000E+00 0. -1.
         22    1    3    3    0    0 -0.38790410918E+00  0.39545507463E+02  0.39593841288E+02  0.55961325020E+02  0.00000000000E+00 0. -1.
         22    1    3    3    0    0 -0.19644625023E+02 -0.73851572723E+01 -0.77137452404E+02  0.79941468610E+02  0.00000000000E+00 0. -1.
</event>
<event>
 7    1  0.6444902E-006  0.1166104E+03  0.7818608E-02  0.1268771E+00
          2   -1    0    0  502    0  0.00000000000E+00  0.00000000000E+00  0.99022786726E+03  0.99022786726E+03  0.00000000000E+00 0. -1.
          1   -1    0    0  501    0 -0.00000000000E+00 -0.00000000000E+00 -0.74478675032E+03  0.74478675032E+03  0.00000000000E+00 0. -1.
         25    2    1    2    0    0 -0.15091383733E+03 -0.79256146648E+02  0.10471792173E+03  0.23590861578E+03  0.12502203322E+03 0.  0.
          2    1    1    2  501    0  0.57511727690E+02  0.10049880258E+03 -0.67142110871E+03  0.68133245436E+03  0.00000000000E+00 0. -1.
          1    1    1    2  502    0  0.93402109645E+02 -0.21242655931E+02  0.81214430391E+03  0.81777354744E+03  0.00000000000E+00 0. -1.
         22    1    3    3    0    0 -0.85859286029E+02 -0.15366105518E+02 -0.11730887317E+02  0.88008794523E+02  0.00000000000E+00 0. -1.
         22    1    3    3    0    0 -0.65054551306E+02 -0.63890041130E+02  0.11644880904E+03  0.14789982126E+03  0.00000000000E+00 0. -1.
</event>
<event>
 7    1  0.6444902E-006  0.5869707E+02  0.7818608E-02  0.1477858E+00
          2   -1    0    0  502    0  0.00000000000E+00  0.00000000000E+00  0.22193892867E+03  0.22193892867E+03  0.00000000000E+00 0. -1.
          1   -1    0    0  501    0 -0.00000000000E+00 -0.00000000000E+00 -0.75295154893E+03  0.75295154893E+03  0.00000000000E+00 0. -1.
         25    2    1    2    0    0  0.29166466190E+02  0.78319322180E+02  0.62594527674E+02  0.16287243986E+03  0.12499903118E+03 0.  0.
          2    1    1    2  501    0 -0.20194405986E+01 -0.58438607526E+02 -0.69897058734E+03  0.70141216909E+03  0.00000000000E+00 0. -1.
          1    1    1    2  502    0 -0.27147025591E+02 -0.19880714654E+02  0.10536343941E+03  0.11060586864E+03  0.00000000000E+00 0. -1.
         22    1    3    3    0    0  0.34108041839E+02  0.10815353180E+03  0.67888545021E+02  0.13217185594E+03  0.00000000000E+00 0. -1.
         22    1    3    3    0    0 -0.49415756492E+01 -0.29834209616E+02 -0.52940173471E+01  0.30700583920E+02  0.00000000000E+00 0. -1.
</event>
<event>
 7    1  0.6444902E-006  0.9155616E+02  0.7818608E-02  0.1388536E+00
          2   -1    0    0  502    0  0.00000000000E+00  0.00000000000E+00  0.19745413209E+04  0.19745413209E+04  0.00000000000E+00 0. -1.
          1   -1    0    0  501    0 -0.00000000000E+00 -0.00000000000E+00 -0.16050867034E+02  0.16050867034E+02  0.00000000000E+00 0. -1.
         25    2    1    2    0    0 -0.23837345061E+02  0.80332954198E+02  0.10052545894E+04  0.10164578323E+04  0.12501253092E+03 0.  0.
          2    1    1    2  501    0 -0.41810572727E+02  0.67671160494E+01  0.65856929108E+03  0.65992986673E+03  0.00000000000E+00 0. -1.
          1    1    1    2  502    0  0.65647917788E+02 -0.87100070247E+02  0.29466657348E+03  0.31420448894E+03  0.00000000000E+00 0. -1.
         22    1    3    3    0    0  0.33404930441E+02  0.24450358008E+02  0.10828851147E+03  0.11593149314E+03  0.00000000000E+00 0. -1.
         22    1    3    3    0    0 -0.57242275502E+02  0.55882596190E+02  0.89696607789E+03  0.90052633918E+03  0.00000000000E+00 0. -1.
</event>
<event>
 7    1  0.6444902E-006  0.6210413E+02  0.7818608E-02  0.1448098E+00
          2   -1    0    0  502    0  0.00000000000E+00  0.00000000000E+00  0.10830927844E+04  0.10830927844E+04  0.00000000000E+00 0. -1.
          1   -1    0    0  501    0 -0.00000000000E+00 -0.00000000000E+00 -0.50972768330E+03  0.50972768330E+03  0.00000000000E+00 0. -1.
         25    2    1    2    0    0  0.47279646826E+02 -0.42468658796E+02 -0.21774216932E+03  0.25899037155E+03  0.12500163308E+03 0.  0.
          2    1    1    2  501    0 -0.34873263179E+02 -0.18426545395E+02 -0.26901337250E+03  0.27188945667E+03  0.00000000000E+00 0. -1.
          1    1    1    2  502    0 -0.12406383647E+02  0.60895204191E+02  0.10601206429E+04  0.10619406395E+04  0.00000000000E+00 0. -1.
         22    1    3    3    0    0  0.46420322511E+01 -0.30794904827E+02  0.53164856357E+01  0.31593348133E+02  0.00000000000E+00 0. -1.
         22    1    3    3    0    0  0.42637614575E+02 -0.11673753968E+02 -0.22305865495E+03  0.22739702342E+03  0.00000000000E+00 0. -1.
</event>
<event>
 7    1  0.6444902E-006  0.3469503E+02  0.7818608E-02  0.1589866E+00
          2   -1    0    0  502    0  0.00000000000E+00  0.00000000000E+00  0.32270024746E+04  0.32270024746E+04  0.00000000000E+00 0. -1.
          1   -1    0    0  501    0 -0.00000000000E+00 -0.00000000000E+00 -0.31602459778E+02  0.31602459778E+02  0.00000000000E+00 0. -1.
         25    2    1    2    0    0 -0.27296142911E+02 -0.26751500434E+02  0.12266019093E+04  0.12335468783E+04  0.12499973984E+03 0.  0.
          2    1    1    2  501    0 -0.76829789433E+01  0.26161501031E+02 -0.21332638640E+02  0.34619846519E+02  0.00000000000E+00 0. -1.
          1    1    1    2  502    0  0.34979121854E+02  0.58999940229E+00  0.19901307442E+04  0.19904382095E+04  0.00000000000E+00 0. -1.
         22    1    3    3    0    0 -0.65488312033E+02 -0.42242351796E+02  0.52686596494E+03  0.53259823537E+03  0.00000000000E+00 0.  1.
         22    1    3    3    0    0  0.38192169122E+02  0.15490851363E+02  0.69973594436E+03  0.70094864297E+03  0.00000000000E+00 0.  1.
</event>
<event>
 7    1  0.6444902E-006  0.1675622E+03  0.7818608E-02  0.1207553E+00
          2   -1    0    0  502    0  0.00000000000E+00  0.00000000000E+00  0.61486372979E+03  0.61486372979E+03  0.00000000000E+00 0. -1.
          1   -1    0    0  501    0 -0.00000000000E+00 -0.00000000000E+00 -0.31479245887E+03  0.31479245887E+03  0.00000000000E+00 0. -1.
         25    2    1    2    0    0  0.12670151920E+03 -0.16583796898E+03  0.15053628246E+03  0.28607987999E+03  0.12500007390E+03 0.  0.
          2    1    1    2  501    0  0.31863708566E+02  0.12025688863E+03 -0.21220748495E+03  0.24598583669E+03  0.00000000000E+00 0. -1.
          1    1    1    2  502    0 -0.15856522777E+03  0.45581080350E+02  0.36174247341E+03  0.39759047198E+03  0.00000000000E+00 0. -1.
         22    1    3    3    0    0  0.96558503414E+02 -0.17048726838E+03  0.84571029808E+02  0.21340504292E+03  0.00000000000E+00 0. -1.
         22    1    3    3    0    0  0.30143015789E+02  0.46492993978E+01  0.65965252656E+02  0.72674837074E+02  0.00000000000E+00 0. -1.
</event>
<event>
 7    1  0.6444902E-006  0.7212706E+02  0.7818608E-02  0.1422533E+00
          2   -1    0    0  502    0  0.00000000000E+00  0.00000000000E+00  0.16251696372E+03  0.16251696372E+03  0.00000000000E+00 0. -1.
          1   -1    0    0  501    0 -0.00000000000E+00 -0.00000000000E+00 -0.12229702786E+04  0.12229702786E+04  0.00000000000E+00 0. -1.
         25    2    1    2    0    0  0.10783489562E+03  0.74262527939E+01 -0.63445256677E+02  0.17701308893E+03  0.12499927645E+03 0.  0.
          2    1    1    2  501    0 -0.40539622634E+02  0.71394620555E+01 -0.10911023140E+04  0.10918785155E+04  0.00000000000E+00 0. -1.
          1    1    1    2  502    0 -0.67295272989E+02 -0.14565714849E+02  0.94094255783E+02  0.11659563794E+03  0.00000000000E+00 0. -1.
         22    1    3    3    0    0  0.96430704521E+01 -0.49157878715E+02 -0.31849976445E+02  0.59362503713E+02  0.00000000000E+00 0. -1.
         22    1    3    3    0    0  0.98191825171E+02  0.56584131509E+02 -0.31595280232E+02  0.11765058522E+03  0.00000000000E+00 0. -1.
</event>
<event>
 7    1  0.6444902E-006  0.1373315E+03  0.7818608E-02  0.1296488E+00
          2   -1    0    0  502    0  0.00000000000E+00  0.00000000000E+00  0.70121744943E+02  0.70121744943E+02  0.00000000000E+00 0. -1.
          1   -1    0    0  501    0 -0.00000000000E+00 -0.00000000000E+00 -0.16731069512E+04  0.16731069512E+04  0.00000000000E+00 0. -1.
         25    2    1    2    0    0 -0.21450078872E+02 -0.93294193167E+02 -0.77167166484E+02  0.17533937246E+03  0.12500084635E+03 0.  0.
          2    1    1    2  501    0 -0.21297807913E+02  0.13895266264E+03 -0.14883602152E+04  0.14949841367E+04  0.00000000000E+00 0. -1.
          1    1    1    2  502    0  0.42747886786E+02 -0.45658469471E+02 -0.37457824651E+02  0.72905186967E+02  0.00000000000E+00 0. -1.
         22    1    3    3    0    0  0.28391028767E+02 -0.92144262761E+02 -0.80169849091E+02  0.12539465849E+03  0.00000000000E+00 0. -1.
         22    1    3    3    0    0 -0.49841107640E+02 -0.11499304058E+01  0.30026826078E+01  0.49944713970E+02  0.00000000000E+00 0. -1.
</event>
<event>
 7    1  0.6444902E-006  0.1036381E+03  0.7818608E-02  0.1324871E+00
          2   -1    0    0  502    0  0.00000000000E+00  0.00000000000E+00  0.13011623320E+03  0.13011623320E+03  0.00000000000E+00 0. -1.
          1   -1    0    0  501    0 -0.00000000000E+00 -0.00000000000E+00 -0.22514508893E+04  0.22514508893E+04  0.00000000000E+00 0. -1.
         25    2    1    2    0    0 -0.23943269192E+02  0.14736907920E+03 -0.67106795299E+02  0.20595387738E+03  0.12499100763E+03 0.  0.
          2    1    1    2  501    0 -0.13463655019E+02 -0.62647145185E+02 -0.20788071881E+04  0.20797945236E+04  0.00000000000E+00 0. -1.
          1    1    1    2  502    0  0.37406924211E+02 -0.84721934013E+02  0.24579327282E+02  0.95818721613E+02  0.00000000000E+00 0. -1.
         22    1    3    3    0    0  0.45205871156E+02  0.92849312078E+02 -0.55197357620E+02  0.11709531941E+03  0.00000000000E+00 0. -1.
         22    1    3    3    0    0 -0.69149140348E+02  0.54519767120E+02 -0.11909437679E+02  0.88858557965E+02  0.00000000000E+00 0. -1.
</event>
<event>
 7    1  0.6444902E-006  0.1130749E+03  0.7818608E-02  0.1377599E+00
          2   -1    0    0  502    0  0.00000000000E+00  0.00000000000E+00  0.46733662543E+03  0.46733662543E+03  0.00000000000E+00 0. -1.
          1   -1    0    0  501    0 -0.00000000000E+00 -0.00000000000E+00 -0.16888428249E+03  0.16888428249E+03  0.00000000000E+00 0. -1.
         25    2    1    2    0    0  0.12005579916E+03  0.14368290982E+02  0.30879270554E+03  0.35439949542E+03  0.12500489856E+03 0.  0.
          2    1    1    2  501    0 -0.10246257420E+03 -0.47461031493E+02 -0.12069102401E+03  0.16527991983E+03  0.00000000000E+00 0. -1.
          1    1    1    2  502    0 -0.17593224966E+02  0.33092740511E+02  0.11035066141E+03  0.11654149267E+03  0.00000000000E+00 0. -1.
         22    1    3    3    0    0  0.14598439172E+03  0.12572238922E+02  0.24437609912E+03  0.28493715384E+03  0.00000000000E+00 0. -1.
         22    1    3    3    0    0 -0.25928592561E+02  0.17960520601E+01  0.64416606425E+02  0.69462341586E+02  0.00000000000E+00 0. -1.
</event>
<event>
 7    1  0.6444902E-006  0.2745705E+03  0.7818608E-02  0.1158249E+00
          2   -1    0    0  502    0  0.00000000000E+00  0.00000000000E+00  0.29961321970E+04  0.29961321970E+04  0.00000000000E+00 0. -1.
          1   -1    0    0  501    0 -0.00000000000E+00 -0.00000000000E+00 -0.49719908382E+03  0.49719908382E+03  0.00000000000E+00 0. -1.
         25    2    1    2    0    0  0.55189689494E+02 -0.21628983019E+03  0.15667175461E+03  0.29999637429E+03  0.12499837367E+03 0.  0.
          2    1    1    2  501    0 -0.11802663859E+03 -0.58667732547E+02 -0.40794238402E+03  0.42870640179E+03  0.00000000000E+00 0. -1.
          1    1    1    2  502    0  0.62836949098E+02  0.27495756274E+03  0.27502037426E+04  0.27646285047E+04  0.00000000000E+00 0. -1.
         22    1    3    3    0    0  0.45179462624E+02 -0.18773133765E+03  0.17828291967E+03  0.26280989027E+03  0.00000000000E+00 0. -1.
         22    1    3    3    0    0  0.10010226870E+02 -0.28558492544E+02 -0.21611165056E+02  0.37186484015E+02  0.00000000000E+00 0. -1.
</event>
<event>
 7    1  0.6444902E-006  0.4834709E+02  0.7818608E-02  0.1520474E+00
          2   -1    0    0  502    0  0.00000000000E+00  0.00000000000E+00  0.22823084961E+03  0.22823084961E+03  0.00000000000E+00 0. -1.
          1   -1    0    0  501    0 -0.00000000000E+00 -0.00000000000E+00 -0.38476249714E+03  0.38476249714E+03  0.00000000000E+00 0. -1.
         25    2    1    2    0    0  0.52907829218E+02 -0.60886064665E+01  0.29983380297E+02  0.13914167241E+03  0.12500036954E+03 0.  0.
          2    1    1    2  501    0 -0.36543762853E+02  0.31790837685E+02 -0.32676231078E+03  0.33033272879E+03  0.00000000000E+00 0. -1.
          1    1    1    2  502    0 -0.16364066365E+02 -0.25702231218E+02  0.14024728295E+03  0.14351894555E+03  0.00000000000E+00 0. -1.
         22    1    3    3    0    0  0.34806551579E+01  0.38199612850E+01 -0.46911762645E+02  0.47195556348E+02  0.00000000000E+00 0.  1.
         22    1    3    3    0    0  0.49427174060E+02 -0.99085677515E+01  0.76895142941E+02  0.91946116059E+02  0.00000000000E+00 0.  1.
</event>
<event>
 7    1  0.6444902E-006  0.7720758E+02  0.7818608E-02  0.1371731E+00
          2   -1    0    0  502    0  0.00000000000E+00  0.00000000000E+00  0.84267152005E+03  0.84267152005E+03  0.00000000000E+00 0. -1.
          1   -1    0    0  501    0 -0.00000000000E+00 -0.00000000000E+00 -0.11540394354E+03  0.11540394354E+03  0.00000000000E+00 0. -1.
         25    2    1    2    0    0  0.84095455039E+02  0.74420530778E+02  0.55680707135E+03  0.58160980370E+03  0.12500155238E+03 0.  0.
          2    1    1    2  501    0 -0.26548801514E+02 -0.71888157548E+02 -0.85085003124E+02  0.11450853162E+03  0.00000000000E+00 0. -1.
          1    1    1    2  502    0 -0.57546653525E+02 -0.25323732297E+01  0.25554550829E+03  0.26195712827E+03  0.00000000000E+00 0. -1.
         22    1    3    3    0    0  0.25033957098E+02 -0.17645872443E+02  0.31172818795E+03  0.31322921157E+03  0.00000000000E+00 0.  1.
         22    1    3    3    0    0  0.59061497941E+02  0.92066403221E+02  0.24507888340E+03  0.26838059212E+03  0.00000000000E+00 0.  1.
</event>
<event>
 7    1  0.6444902E-006  0.1282170E+03  0.7818608E-02  0.1232976E+00
          2   -1    0    0  502    0  0.00000000000E+00  0.00000000000E+00  0.24881323390E+04  0.24881323390E+04  0.00000000000E+00 0. -1.
          1   -1    0    0  501    0 -0.00000000000E+00 -0.00000000000E+00 -0.16383120977E+04  0.16383120977E+04  0.00000000000E+00 0. -1.
         25    2    1    2    0    0 -0.10138194657E+01  0.81510687951E+02 -0.20306376695E+03  0.25200214245E+03  0.12500066509E+03 0.  0.
          2    1    1    2  501    0 -0.12462554747E+03 -0.55930348122E+02 -0.14057981353E+04  0.14124192466E+04  0.00000000000E+00 0. -1.
          1    1    1    2  502    0  0.12563936694E+03 -0.25580339830E+02  0.24586821436E+04  0.24620230477E+04  0.00000000000E+00 0. -1.
         22    1    3    3    0    0  0.43160860883E+02 -0.82106137500E+01 -0.33919254249E+02  0.55504863743E+02  0.00000000000E+00 0.  1.
         22    1    3    3    0    0 -0.44174680349E+02  0.89721301701E+02 -0.16914451270E+03  0.19649727871E+03  0.00000000000E+00 0.  1.
</event>
<event>
 7    1  0.6444902E-006  0.4404210E+03  0.7818608E-02  0.1169582E+00
          2   -1    0    0  502    0  0.00000000000E+00  0.00000000000E+00  0.15966447146E+04  0.15966447146E+04  0.00000000000E+00 0. -1.
          1   -1    0    0  501    0 -0.00000000000E+00 -0.00000000000E+00 -0.82956492933E+03  0.82956492933E+03  0.00000000000E+00 0. -1.
         25    2    1    2    0    0  0.31329316497E+03  0.29649323510E+03  0.95674901687E+02  0.45917168768E+03  0.12499642506E+03 0.  0.
          2    1    1    2  501    0  0.53767039104E+02 -0.48007508437E+02 -0.60839509371E+03  0.61265014928E+03  0.00000000000E+00 0. -1.
          1    1    1    2  502    0 -0.36706020408E+03 -0.24848572666E+03  0.12797999773E+04  0.13543878069E+04  0.00000000000E+00 0. -1.
         22    1    3    3    0    0  0.75534496233E+02  0.53392574620E+02 -0.29088664889E+02  0.96965857758E+02  0.00000000000E+00 0. -1.
         22    1    3    3    0    0  0.23775866874E+03  0.24310066048E+03  0.12476356658E+03  0.36220582993E+03  0.00000000000E+00 0. -1.
</event>
<event>
 7    1  0.6444902E-006  0.9468226E+02  0.7818608E-02  0.1414067E+00
          2   -1    0    0  502    0  0.00000000000E+00  0.00000000000E+00  0.12010773183E+04  0.12010773183E+04  0.00000000000E+00 0. -1.
          1   -1    0    0  501    0 -0.00000000000E+00 -0.00000000000E+00 -0.63686520525E+03  0.63686520525E+03  0.00000000000E+00 0. -1.
         25    2    1    2    0    0  0.10229242645E+03 -0.68268007719E+01  0.11646656623E+03  0.19924815342E+03  0.12500007949E+03 0.  0.
          2    1    1    2  501    0 -0.15145110145E+02 -0.29850163574E+02 -0.59285898805E+03  0.59380315454E+03  0.00000000000E+00 0. -1.
          1    1    1    2  502    0 -0.87147316309E+02  0.36676964345E+02  0.10406045349E+04  0.10448912156E+04  0.00000000000E+00 0. -1.
         22    1    3    3    0    0  0.87983986049E+02  0.51258110851E+02  0.71973260883E+02  0.12469453080E+03  0.00000000000E+00 0.  1.
         22    1    3    3    0    0  0.14308440405E+02 -0.58084911623E+02  0.44493305345E+02  0.74553622619E+02  0.00000000000E+00 0.  1.
</event>
<event>
 7    1  0.6444902E-006  0.5707587E+02  0.7818608E-02  0.1445433E+00
          2   -1    0    0  502    0  0.00000000000E+00  0.00000000000E+00  0.48718088998E+02  0.48718088998E+02  0.00000000000E+00 0. -1.
          1   -1    0    0  501    0 -0.00000000000E+00 -0.00000000000E+00 -0.10377662065E+04  0.10377662065E+04  0.00000000000E+00 0. -1.
         25    2    1    2    0    0 -0.16625510677E+02 -0.81240991248E+02 -0.30027401104E+03  0.33565778831E+03  0.12500065153E+03 0.  0.
          2    1    1    2  501    0  0.33549737113E+02  0.28113778169E+02 -0.69348965495E+03  0.69486967908E+03  0.00000000000E+00 0. -1.
          1    1    1    2  502    0 -0.16924226436E+02  0.53127213078E+02  0.47155485236E+01  0.55956828071E+02  0.00000000000E+00 0. -1.
         22    1    3    3    0    0 -0.40954872725E+02 -0.33404090287E+02 -0.26772280815E+03  0.27288942238E+03  0.00000000000E+00 0. -1.
         22    1    3    3    0    0  0.24329362047E+02 -0.47836900960E+02 -0.32551202892E+02  0.62768365925E+02  0.00000000000E+00 0. -1.
</event>
<event>
 7    1  0.6444902E-006  0.8007900E+02  0.7818608E-02  0.1434100E+00
          2   -1    0    0  502    0  0.00000000000E+00  0.00000000000E+00  0.19123254437E+02  0.19123254437E+02  0.00000000000E+00 0. -1.
          1   -1    0    0  501    0 -0.00000000000E+00 -0.00000000000E+00 -0.15823335945E+04  0.15823335945E+04  0.00000000000E+00 0. -1.
         25    2    1    2    0    0 -0.78207255219E+02  0.20421731622E+02 -0.10743187136E+04  0.10845827764E+04  0.12500271454E+03 0.  0.
          2    1    1    2  501    0  0.15381939626E+02  0.30272482025E+02 -0.37899724324E+03  0.38051535793E+03  0.00000000000E+00 0. -1.
          1    1    1    2  502    0  0.62825315593E+02 -0.50694213647E+02 -0.10989438319E+03  0.13635871455E+03  0.00000000000E+00 0. -1.
         22    1    3    3    0    0 -0.41830365933E+02  0.63055178849E+02 -0.34934240879E+03  0.35744349717E+03  0.00000000000E+00 0. -1.
         22    1    3    3    0    0 -0.36376889286E+02 -0.42633447227E+02 -0.72497630480E+03  0.72713927924E+03  0.00000000000E+00 0. -1.
</event>
<event>
 7    1  0.6444902E-006  0.1115636E+03  0.7818608E-02  0.1360301E+00
          2   -1    0    0  502    0  0.00000000000E+00  0.00000000000E+00  0.14772162401E+04  0.14772162401E+04  0.00000000000E+00 0. -1.
          1   -1    0    0  501    0 -0.00000000000E+00 -0.00000000000E+00 -0.25288728144E+04  0.25288728144E+04  0.00000000000E+00 0. -1.
         25    2    1    2    0    0  0.82217752303E+02 -0.11092651564E+03 -0.10947836206E+03  0.21604607724E+03  0.12500378021E+03 0.  0.
          2    1    1    2  501    0 -0.88179863770E+02  0.67489246195E+02 -0.23644697712E+04  0.23670757879E+04  0.00000000000E+00 0. -1.
          1    1    1    2  502    0  0.59621114673E+01  0.43437269449E+02  0.14222915590E+04  0.14229671893E+04  0.00000000000E+00 0. -1.
         22    1    3    3    0    0  0.53706602524E+02 -0.10046434601E+03 -0.13481079638E+03  0.17649769062E+03  0.00000000000E+00 0.  1.
         22    1    3    3    0    0  0.28511149779E+02 -0.10462169633E+02  0.25332434328E+02  0.39548386619E+02  0.00000000000E+00 0.  1.
</event>
<event>
 7    1  0.6444902E-006  0.1429400E+03  0.7818608E-02  0.1397936E+00
          2   -1    0    0  502    0  0.00000000000E+00  0.00000000000E+00  0.11582089314E+04  0.11582089314E+04  0.00000000000E+00 0. -1.
          1   -1    0    0  501    0 -0.00000000000E+00 -0.00000000000E+00 -0.13135826814E+04  0.13135826814E+04  0.00000000000E+00 0. -1.
         25    2    1    2    0    0 -0.11950229830E+03  0.21942558515E+02 -0.48350555614E+02  0.18089971625E+03  0.12499862375E+03 0.  0.
          2    1    1    2  501    0  0.13948458582E+03 -0.37238400216E+02 -0.11944654599E+04  0.12031585029E+04  0.00000000000E+00 0. -1.
          1    1    1    2  502    0 -0.19982287517E+02  0.15295841701E+02  0.10874422656E+04  0.10877333936E+04  0.00000000000E+00 0. -1.
         22    1    3    3    0    0 -0.54504135618E+02 -0.29699638949E+02  0.28016632675E+02  0.68100668569E+02  0.00000000000E+00 0. -1.
         22    1    3    3    0    0 -0.64998162682E+02  0.51642197464E+02 -0.76367188289E+02  0.11279904768E+03  0.00000000000E+00 0. -1.
</event>
<event>
 7    1  0.6444902E-006  0.9546813E+02  0.7818608E-02  0.1304925E+00
          2   -1    0    0  502    0  0.00000000000E+00  0.00000000000E+00  0.34954316526E+03  0.34954316526E+03  0.00000000000E+00 0. -1.
          1   -1    0    0  501    0 -0.00000000000E+00 -0.00000000000E+00 -0.34260197274E+04  0.34260197274E+04  0.00000000000E+00 0. -1.
         25    2    1    2    0    0  0.14332981905E+03 -0.91609728921E+02  0.52168756037E+02  0.21744722196E+03  0.12500374301E+03 0.  0.
          2    1    1    2  501    0 -0.91332992830E+02  0.26597186513E+02 -0.33346082136E+04  0.33359647876E+04  0.00000000000E+00 0. -1.
          1    1    1    2  502    0 -0.51996826222E+02  0.65012542408E+02  0.20596289538E+03  0.22215088314E+03  0.00000000000E+00 0. -1.
         22    1    3    3    0    0  0.14434513710E+03 -0.10768053069E+03  0.19642413868E+02  0.18115308365E+03  0.00000000000E+00 0.  1.
         22    1    3    3    0    0 -0.10153180431E+01  0.16070801773E+02  0.32526342169E+02  0.36294138305E+02  0.00000000000E+00 0.  1.
</event>
<event>
 7    1  0.6444902E-006  0.4096498E+02  0.7818608E-02  0.1503185E+00
          2   -1    0    0  502    0  0.00000000000E+00  0.00000000000E+00  0.50384349363E+03  0.50384349363E+03  0.00000000000E+00 0. -1.
          1   -1    0    0  501    0 -0.00000000000E+00 -0.00000000000E+00 -0.16653413672E+04  0.16653413672E+04  0.00000000000E+00 0. -1.
         25    2    1    2    0    0 -0.64769710271E+02  0.10886892608E+02  0.16908173525E+03  0.22028696497E+03  0.12499629571E+03 0.  0.
          2    1    1    2  501    0  0.28727476174E+02 -0.29181198575E+02 -0.16381606968E+04  0.16386724135E+04  0.00000000000E+00 0. -1.
          1    1    1    2  502    0  0.36042234097E+02  0.18294305968E+02  0.30758108794E+03  0.31022548240E+03  0.00000000000E+00 0. -1.
         22    1    3    3    0    0 -0.75850019837E+01 -0.34898030476E+01  0.16048184708E+03  0.16069889304E+03  0.00000000000E+00 0. -1.
         22    1    3    3    0    0 -0.57184708287E+02  0.14376695655E+02  0.85998881669E+01  0.59588071930E+02  0.00000000000E+00 0. -1.
</event>
<event>
 7    1  0.6444902E-006  0.4706655E+02  0.7818608E-02  0.1541733E+00
          2   -1    0    0  502    0  0.00000000000E+00  0.00000000000E+00  0.69466278544E+03  0.69466278544E+03  0.00000000000E+00 0. -1.
          1   -1    0    0  501    0 -0.00000000000E+00 -0.00000000000E+00 -0.14045698654E+04  0.14045698654E+04  0.00000000000E+00 0. -1.
         25    2    1    2    0    0 -0.41237935135E+02  0.10606326956E+02 -0.25909565656E+03  0.29080654111E+03  0.12499929456E+03 0.  0.
          2    1    1    2  501    0  0.31073801430E+02 -0.35845051635E+02 -0.11288477427E+04  0.11298440932E+04  0.00000000000E+00 0. -1.
          1    1    1    2  502    0  0.10164133705E+02  0.25238724678E+02  0.67803631928E+03  0.67858201649E+03  0.00000000000E+00 0. -1.
         22    1    3    3    0    0 -0.71217180693E-01 -0.50555655286E+02 -0.59773121353E+02  0.78286048499E+02  0.00000000000E+00 0.  1.
         22    1    3    3    0    0 -0.41166717954E+02  0.61161982242E+02 -0.19932253521E+03  0.21252049262E+03  0.00000000000E+00 0.  1.
</event>
<event>
 7    1  0.6444902E-006  0.9838290E+02  0.7818608E-02  0.1308713E+00
          2   -1    0    0  502    0  0.00000000000E+00  0.00000000000E+00  0.10949710164E+04  0.10949710164E+04  0.00000000000E+00 0. -1.
          1   -1    0    0  501    0 -0.00000000000E+00 -0.00000000000E+00 -0.13047288551E+03  0.13047288551E+03  0.00000000000E+00 0. -1.
         25    2    1    2    0    0 -0.42215647761E+02  0.33107042106E+02  0.17613920035E+03  0.22255086606E+03  0.12500253169E+03 0.  0.
          2    1    1    2  501    0  0.28541872536E+02  0.72632786142E+02 -0.89407162733E+02  0.11867519058E+03  0.00000000000E+00 0. -1.
          1    1    1    2  502    0  0.13673775224E+02 -0.10573982825E+03  0.87776609328E+03  0.88421784529E+03  0.00000000000E+00 0. -1.
         22    1    3    3    0    0 -0.94714341701E+01 -0.46993811082E+02  0.79454466668E+02  0.92796220929E+02  0.00000000000E+00 0.  1.
         22    1    3    3    0    0 -0.32744213590E+02  0.80100853188E+02  0.96684733683E+02  0.12975464513E+03  0.00000000000E+00 0.  1.
</event>
<event>
 7    1  0.6444902E-006  0.9045177E+02  0.7818608E-02  0.1412031E+00
          2   -1    0    0  502    0  0.00000000000E+00  0.00000000000E+00  0.12739950177E+04  0.12739950177E+04  0.00000000000E+00 0. -1.
          1   -1    0    0  501    0 -0.00000000000E+00 -0.00000000000E+00 -0.30325644564E+03  0.30325644564E+03  0.00000000000E+00 0. -1.
         25    2    1    2    0    0  0.23340116642E+02  0.11865425580E+03 -0.59988253037E+02  0.18397433288E+03  0.12499748475E+03 0.  0.
          2    1    1    2  501    0 -0.13657500652E+02 -0.84399828994E+02 -0.17091574504E+03  0.19110743146E+03  0.00000000000E+00 0. -1.
          1    1    1    2  502    0 -0.96826159907E+01 -0.34254426803E+02  0.12016425701E+04  0.12021696990E+04  0.00000000000E+00 0. -1.
         22    1    3    3    0    0 -0.51142735039E+02  0.60590212792E+02 -0.23110220828E+02  0.82588349906E+02  0.00000000000E+00 0. -1.
         22    1    3    3    0    0  0.74482851681E+02  0.58064043004E+02 -0.36878032209E+02  0.10138598298E+03  0.00000000000E+00 0. -1.
</event>
<event>
 7    1  0.6444902E-006  0.7261006E+02  0.7818608E-02  0.1458237E+00
          2   -1    0    0  502    0  0.00000000000E+00  0.00000000000E+00  0.18853632092E+03  0.18853632092E+03  0.00000000000E+00 0. -1.
          1   -1    0    0  501    0 -0.00000000000E+00 -0.00000000000E+00 -0.28427020618E+04  0.28427020618E+04  0.00000000000E+00 0. -1.
         25    2    1    2    0    0  0.43141143538E+02 -0.71299202040E+02 -0.22700040387E+03  0.27221292164E+03  0.12500382743E+03 0.  0.
          2    1    1    2  501    0 -0.57875965766E+02  0.43664584698E+02 -0.25911061165E+04  0.25921201998E+04  0.00000000000E+00 0. -1.
          1    1    1    2  502    0  0.14734822229E+02  0.27634617342E+02  0.16394077948E+03  0.16690526127E+03  0.00000000000E+00 0. -1.
         22    1    3    3    0    0  0.31492855345E+02 -0.87020527831E+01  0.37050508087E+01  0.32882412653E+02  0.00000000000E+00 0. -1.
         22    1    3    3    0    0  0.11648288193E+02 -0.62597149257E+02 -0.23070545468E+03  0.23933050899E+03  0.00000000000E+00 0. -1.
</event>
<event>
 7    1  0.6444902E-006  0.8029150E+02  0.7818608E-02  0.1390211E+00
          2   -1    0    0  502    0  0.00000000000E+00  0.00000000000E+00  0.15714110918E+04  0.15714110918E+04  0.00000000000E+00 0. -1.
          1   -1    0    0  501    0 -0.00000000000E+00 -0.00000000000E+00 -0.34014773289E+02  0.34014773289E+02  0.00000000000E+00 0. -1.
         25    2    1    2    0    0 -0.27309555448E+02  0.75010603290E+02  0.55116860399E+03  0.57077523412E+03  0.12500054178E+03 0.  0.
          2    1    1    2  501    0  0.47391034555E+02  0.49666816281E+01  0.27583431944E+01  0.47730352395E+02  0.00000000000E+00 0. -1.
          1    1    1    2  502    0 -0.20081479107E+02 -0.79977284918E+02  0.98346937129E+03  0.98692027853E+03  0.00000000000E+00 0. -1.
         22    1    3    3    0    0 -0.77419865699E+02  0.47342975854E+02  0.31926574089E+03  0.33191234727E+03  0.00000000000E+00 0.  1.
         22    1    3    3    0    0  0.50110310252E+02  0.27667627436E+02  0.23190286310E+03  0.23886288685E+03  0.00000000000E+00 0.  1.
</event>
<event>
 7    1  0.6444902E-006  0.1179489E+03  0.7818608E-02  0.1260183E+00
          2   -1    0    0  502    0  0.00000000000E+00  0.00000000000E+00  0.51233895553E+02  0.51233895553E+02  0.00000000000E+00 0. -1.
          1   -1    0    0  501    0 -0.00000000000E+00 -0.00000000000E+00 -0.27462200377E+04  0.27462200377E+04  0.00000000000E+00 0. -1.
         25    2    1    2    0    0  0.10570708475E+03 -0.10982662875E+03 -0.10765299095E+04  0.10944362137E+04  0.12505240407E+03 0.  0.
          2    1    1    2  501    0 -0.29885522937E+01  0.11711904765E+03 -0.15925213569E+04  0.15968249982E+04  0.00000000000E+00 0. -1.
          1    1    1    2  502    0 -0.10271853246E+03 -0.72924189008E+01 -0.25934875814E+02  0.10619272135E+03  0.00000000000E+00 0. -1.
         22    1    3    3    0    0 -0.16800441629E+02  0.13020339496E+02 -0.73461764351E+02  0.76474929887E+02  0.00000000000E+00 0. -1.
         22    1    3    3    0    0  0.12250752638E+03 -0.12284696824E+03 -0.10030681451E+04  0.10179612838E+04  0.00000000000E+00 0. -1.
</event>
<event>
 7    1  0.6444902E-006  0.8233877E+02  0.7818608E-02  0.1342002E+00
          2   -1    0    0  502    0  0.00000000000E+00  0.00000000000E+00  0.28068602117E+03  0.28068602117E+03  0.00000000000E+00 0. -1.
          1   -1    0    0  501    0 -0.00000000000E+00 -0.00000000000E+00 -0.13814624534E+04  0.13814624534E+04  0.00000000000E+00 0. -1.
         25    2    1    2    0    0 -0.11296102145E+03 -0.58670685358E+02  0.55623107056E+02  0.18686855663E+03  0.12499394278E+03 0.  0.
          2    1    1    2  501    0  0.44314262946E+02  0.69040250975E+02 -0.13069345666E+04  0.13095068810E+04  0.00000000000E+00 0. -1.
          1    1    1    2  502    0  0.68646758507E+02 -0.10369565617E+02  0.15053502726E+03  0.16577303694E+03  0.00000000000E+00 0. -1.
         22    1    3    3    0    0 -0.92744047786E+02 -0.86338069748E+02  0.75257697475E+02  0.14737517334E+03  0.00000000000E+00 0. -1.
         22    1    3    3    0    0 -0.20216973667E+02  0.27667384389E+02 -0.19634590419E+02  0.39493383296E+02  0.00000000000E+00 0. -1.
</event>
<event>
 7    1  0.6444902E-006  0.3851873E+02  0.7818608E-02  0.1523788E+00
          2   -1    0    0  502    0  0.00000000000E+00  0.00000000000E+00  0.73397620620E+01  0.73397620620E+01  0.00000000000E+00 0. -1.
          1   -1    0    0  501    0 -0.00000000000E+00 -0.00000000000E+00 -0.17690873476E+04  0.17690873476E+04  0.00000000000E+00 0. -1.
         25    2    1    2    0    0 -0.73067933053E+01  0.15914589847E+02 -0.11151106544E+04  0.11222314510E+04  0.12499997895E+03 0.  0.
          2    1    1    2  501    0 -0.24513973276E+02 -0.37620154849E+02 -0.51729136129E+03  0.51923651971E+03  0.00000000000E+00 0. -1.
          1    1    1    2  502    0  0.31820766581E+02  0.21705565002E+02 -0.12934556989E+03  0.13495913896E+03  0.00000000000E+00 0. -1.
         22    1    3    3    0    0 -0.56017329357E+02 -0.25818113672E+02 -0.59116361230E+03  0.59437272203E+03  0.00000000000E+00 0. -1.
         22    1    3    3    0    0  0.48710536052E+02  0.41732703519E+02 -0.52394704206E+03  0.52785872897E+03  0.00000000000E+00 0. -1.
</event>
<event>
 7    1  0.6444902E-006  0.2718206E+02  0.7818608E-02  0.1633911E+00
          2   -1    0    0  502    0  0.00000000000E+00  0.00000000000E+00  0.52885463394E+03  0.52885463394E+03  0.00000000000E+00 0. -1.
          1   -1    0    0  501    0 -0.00000000000E+00 -0.00000000000E+00 -0.13318048567E+03  0.13318048567E+03  0.00000000000E+00 0. -1.
         25    2    1    2    0    0  0.28556142966E+01 -0.26599732902E+01  0.20529423615E+02  0.12673363340E+03  0.12499890644E+03 0.  0.
          2    1    1    2  501    0 -0.25469306879E+02 -0.11735709599E+02 -0.77214220622E+02  0.82148939975E+02  0.00000000000E+00 0. -1.
          1    1    1    2  502    0  0.22613692583E+02  0.14395682889E+02  0.45235894528E+03  0.45315254623E+03  0.00000000000E+00 0. -1.
         22    1    3    3    0    0  0.63520617936E+02  0.52007698549E+01  0.13622572421E+02  0.65172781047E+02  0.00000000000E+00 0. -1.
         22    1    3    3    0    0 -0.60665003640E+02 -0.78607431451E+01  0.69068511939E+01  0.61560852356E+02  0.00000000000E+00 0. -1.
</event>
<event>
 7    1  0.6444902E-006  0.3282434E+02  0.7818608E-02  0.1583778E+00
          2   -1    0    0  502    0  0.00000000000E+00  0.00000000000E+00  0.63824300325E+03  0.63824300325E+03  0.00000000000E+00 0. -1.
          1   -1    0    0  501    0 -0.00000000000E+00 -0.00000000000E+00 -0.11724703233E+03  0.11724703233E+03  0.00000000000E+00 0. -1.
         25    2    1    2    0    0 -0.50203181239E+02  0.28091052085E+02  0.22936051182E+03  0.26747229153E+03  0.12500286293E+03 0.  0.
          2    1    1    2  501    0  0.18434764871E+02 -0.23559056279E+02 -0.95232923544E+02  0.99820736400E+02  0.00000000000E+00 0. -1.
          1    1    1    2  502    0  0.31768416369E+02 -0.45319958052E+01  0.38686838264E+03  0.38819700765E+03  0.00000000000E+00 0. -1.
         22    1    3    3    0    0 -0.61392134610E+00  0.54276047537E+02  0.33598858720E+02  0.63836897974E+02  0.00000000000E+00 0.  1.
         22    1    3    3    0    0 -0.49589259893E+02 -0.26184995453E+02  0.19576165310E+03  0.20363539355E+03  0.00000000000E+00 0.  1.
</event>
<event>
 7    1  0.6444902E-006  0.4549866E+02  0.7818608E-02  0.1492188E+00
          2   -1    0    0  502    0  0.00000000000E+00  0.00000000000E+00  0.15411445060E+03  0.15411445060E+03  0.00000000000E+00 0. -1.
          1   -1    0    0  501    0 -0.00000000000E+00 -0.00000000000E+00 -0.92767250980E+03  0.92767250980E+03  0.00000000000E+00 0. -1.
         25    2    1    2    0    0  0.53402259240E+02 -0.93531360843E+01 -0.52682868361E+02  0.14608239100E+03  0.12500119158E+03 0.  0.
          2    1    1    2  501    0 -0.16012565916E+02  0.35843625080E+02 -0.82291357561E+03  0.82384945266E+03  0.00000000000E+00 0. -1.
          1    1    1    2  502    0 -0.37389693323E+02 -0.26490488996E+02  0.10203838477E+03  0.11185511674E+03  0.00000000000E+00 0. -1.
         22    1    3    3    0    0 -0.28742064074E+02 -0.36692269034E+02 -0.40536437661E+01  0.46785263512E+02  0.00000000000E+00 0.  1.
         22    1    3    3    0    0  0.82144323313E+02  0.27339132950E+02 -0.48629224594E+02  0.99297127490E+02  0.00000000000E+00 0.  1.
</event>
<event>
 7    1  0.6444902E-006  0.8170415E+02  0.7818608E-02  0.1339805E+00
          2   -1    0    0  502    0  0.00000000000E+00  0.00000000000E+00  0.92312033676E+02  0.92312033676E+02  0.00000000000E+00 0. -1.
          1   -1    0    0  501    0 -0.00000000000E+00 -0.00000000000E+00 -0.11991184548E+04  0.11991184548E+04  0.00000000000E+00 0. -1.
         25    2    1    2    0    0 -0.23794521642E+02 -0.21717189418E+01 -0.44815526233E+03  0.46587340777E+03  0.12499598910E+03 0.  0.
          2    1    1    2  501    0  0.35002968707E+02  0.83103413499E+02 -0.71858937796E+03  0.72422515785E+03  0.00000000000E+00 0. -1.
          1    1    1    2  502    0 -0.11208447065E+02 -0.80931694557E+02  0.59938219173E+02  0.10133192284E+03  0.00000000000E+00 0. -1.
         22    1    3    3    0    0  0.44910754530E+02 -0.90058628424E+01 -0.28579285915E+03  0.28944021797E+03  0.00000000000E+00 0.  1.
         22    1    3    3    0    0 -0.68705276172E+02  0.68341439006E+01 -0.16236240318E+03  0.17643318980E+03  0.00000000000E+00 0.  1.
</event>
<event>
 7    1  0.6444902E-006  0.5264714E+02  0.7818608E-02  0.1494777E+00
          2   -1    0    0  502    0  0.00000000000E+00  0.00000000000E+00  0.30027701494E+04  0.30027701494E+04  0.00000000000E+00 0. -1.
          1   -1    0    0  501    0 -0.00000000000E+00 -0.00000000000E+00 -0.11817974247E+03  0.11817974247E+03  0.00000000000E+00 0. -1.
         25    2    1    2    0    0 -0.18013119883E+02 -0.25233741607E+02  0.14632356653E+04  0.14688931535E+04  0.12500907980E+03 0.  0.
          2    1    1    2  501    0 -0.77595552952E+00  0.52755474262E+02 -0.10912692643E+03  0.12121232712E+03  0.00000000000E+00 0. -1.
          1    1    1    2  502    0  0.18789075412E+02 -0.27521732655E+02  0.15304816681E+04  0.15308444113E+04  0.00000000000E+00 0. -1.
         22    1    3    3    0    0 -0.16962963765E+02  0.49424716733E+02  0.72915298255E+03  0.73102299330E+03  0.00000000000E+00 0.  1.
         22    1    3    3    0    0 -0.10501561181E+01 -0.74658458341E+02  0.73408268274E+03  0.73787016021E+03  0.00000000000E+00 0.  1.
</event>
<event>
 7    1  0.6444902E-006  0.1139350E+03  0.7818608E-02  0.1305530E+00
          2   -1    0    0  502    0  0.00000000000E+00  0.00000000000E+00  0.74741600362E+03  0.74741600362E+03  0.00000000000E+00 0. -1.
          1   -1    0    0  501    0 -0.00000000000E+00 -0.00000000000E+00 -0.12055685471E+04  0.12055685471E+04  0.00000000000E+00 0. -1.
         25    2    1    2    0    0  0.14562303649E+02  0.14927199080E+03 -0.57261846497E+03  0.60498884004E+03  0.12500160888E+03 0.  0.
          2    1    1    2  501    0  0.34878303587E+02 -0.10061080022E+03 -0.61050064755E+03  0.61971773401E+03  0.00000000000E+00 0. -1.
          1    1    1    2  502    0 -0.49440607236E+02 -0.48661190586E+02  0.72496656903E+03  0.72827797668E+03  0.00000000000E+00 0. -1.
         22    1    3    3    0    0 -0.55567102140E+02  0.66845440659E+02 -0.26441202544E+03  0.27833385525E+03  0.00000000000E+00 0. -1.
         22    1    3    3    0    0  0.70129405789E+02  0.82426550144E+02 -0.30820643952E+03  0.32665498479E+03  0.00000000000E+00 0. -1.
</event>
<event>
 7    1  0.6444902E-006  0.4947323E+02  0.7818608E-02  0.1519681E+00
          2   -1    0    0  502    0  0.00000000000E+00  0.00000000000E+00  0.35768718825E+04  0.35768718825E+04  0.00000000000E+00 0. -1.
          1   -1    0    0  501    0 -0.00000000000E+00 -0.00000000000E+00 -0.95350181241E+02  0.95350181241E+02  0.00000000000E+00 0. -1.
         25    2    1    2    0    0  0.29453233461E+02  0.66245195154E+01  0.41109517141E+03  0.43073799482E+03  0.12499841201E+03 0.  0.
          2    1    1    2  501    0  0.50575046203E+01  0.29503930368E+02 -0.82705610668E+02  0.87956115740E+02  0.00000000000E+00 0. -1.
          1    1    1    2  502    0 -0.34510738081E+02 -0.36128449883E+02  0.31531321405E+04  0.31535279532E+04  0.00000000000E+00 0. -1.
         22    1    3    3    0    0  0.21003739427E+02  0.53777981515E+02  0.96009267764E+02  0.11203128073E+03  0.00000000000E+00 0. -1.
         22    1    3    3    0    0  0.84494940337E+01 -0.47153461999E+02  0.31508590365E+03  0.31870671409E+03  0.00000000000E+00 0. -1.
</event>
<event>
 7    1  0.6444902E-006  0.5885573E+02  0.7818608E-02  0.1423109E+00
          2   -1    0    0  502    0  0.00000000000E+00  0.00000000000E+00  0.13513747576E+04  0.13513747576E+04  0.00000000000E+00 0. -1.
          1   -1    0    0  501    0 -0.00000000000E+00 -0.00000000000E+00 -0.34662332645E+03  0.34662332645E+03  0.00000000000E+00 0. -1.
         25    2    1    2    0    0 -0.66601135222E+02 -0.23759002106E+01  0.10317488958E+03  0.17524751116E+03  0.12500110485E+03 0.  0.
          2    1    1    2  501    0  0.39056173903E+02  0.44371927512E+02 -0.30724822899E+03  0.31288292841E+03  0.00000000000E+00 0. -1.
          1    1    1    2  502    0  0.27544961319E+02 -0.41996027301E+02  0.12088247706E+04  0.12098676445E+04  0.00000000000E+00 0. -1.
         22    1    3    3    0    0 -0.52419998429E+02 -0.57389683107E+02  0.31695304018E+02  0.83940599588E+02  0.00000000000E+00 0.  1.
         22    1    3    3    0    0 -0.14181136793E+02  0.55013782896E+02  0.71479585562E+02  0.91306911575E+02  0.00000000000E+00 0.  1.
</event>
<event>
 7    1  0.6444902E-006  0.2248399E+03  0.7818608E-02  0.1321110E+00
          2   -1    0    0  502    0  0.00000000000E+00  0.00000000000E+00  0.18929915017E+04  0.18929915017E+04  0.00000000000E+00 0. -1.
          1   -1    0    0  501    0 -0.00000000000E+00 -0.00000000000E+00 -0.70168989370E+03  0.70168989370E+03  0.00000000000E+00 0. -1.
         25    2    1    2    0    0  0.21640145713E+03 -0.18852060734E+02  0.16724455599E+02  0.25116437437E+03  0.12497537636E+03 0.  0.
          2    1    1    2  501    0 -0.22097417337E+03  0.49048379254E+02 -0.56241536869E+03  0.60625603151E+03  0.00000000000E+00 0. -1.
          1    1    1    2  502    0  0.45727162415E+01 -0.30196318521E+02  0.17369925211E+04  0.17372609895E+04  0.00000000000E+00 0. -1.
         22    1    3    3    0    0  0.14550595597E+03  0.43621436294E+02 -0.12064288434E+02  0.15238228238E+03  0.00000000000E+00 0.  1.
         22    1    3    3    0    0  0.70895501157E+02 -0.62473497028E+02  0.28788744033E+02  0.98782091991E+02  0.00000000000E+00 0.  1.
</event>
<event>
 7    1  0.6444902E-006  0.1524630E+03  0.7818608E-02  0.1258107E+00
          2   -1    0    0  502    0  0.00000000000E+00  0.00000000000E+00  0.18844343924E+04  0.18844343924E+04  0.00000000000E+00 0. -1.
          1   -1    0    0  501    0 -0.00000000000E+00 -0.00000000000E+00 -0.72962399653E+03  0.72962399653E+03  0.00000000000E+00 0. -1.
         25    2    1    2    0    0 -0.19460891287E+03  0.11632672826E+03  0.36543931540E+03  0.44785666362E+03  0.12500064493E+03 0.  0.
          2    1    1    2  501    0  0.65544846445E+02 -0.48116910947E+02 -0.68239075570E+03  0.68721794758E+03  0.00000000000E+00 0. -1.
          1    1    1    2  502    0  0.12906406642E+03 -0.68209817310E+02  0.14717618361E+04  0.14789837777E+04  0.00000000000E+00 0. -1.
         22    1    3    3    0    0 -0.18740873813E+03  0.11143694349E+03  0.37571002792E+03  0.43439412125E+03  0.00000000000E+00 0. -1.
         22    1    3    3    0    0 -0.72001747386E+01  0.48897847699E+01 -0.10270712517E+02  0.13462542366E+02  0.00000000000E+00 0. -1.
</event>
<event>
 7    1  0.6444902E-006  0.1270523E+03  0.7818608E-02  0.1429458E+00
          2   -1    0    0  502    0  0.00000000000E+00  0.00000000000E+00  0.60943557071E+03  0.60943557071E+03  0.00000000000E+00 0. -1.
          1   -1    0    0  501    0 -0.00000000000E+00 -0.00000000000E+00 -0.32899775155E+03  0.32899775155E+03  0.00000000000E+00 0. -1.
         25    2    1    2    0    0  0.24663414525E+02 -0.12606477601E+03  0.31276612758E+03  0.36048447790E+03  0.12500318587E+03 0.  0.
          2    1    1    2  501    0 -0.22151083736E+02 -0.82865713807E+00 -0.28993117379E+03  0.29077730777E+03  0.00000000000E+00 0. -1.
          1    1    1    2  502    0 -0.25123307893E+01  0.12689343315E+03  0.25760286536E+03  0.28717153658E+03  0.00000000000E+00 0. -1.
         22    1    3    3    0    0  0.10493712721E+02 -0.50211798839E+02  0.26458703978E+03  0.26951371833E+03  0.00000000000E+00 0. -1.
         22    1    3    3    0    0  0.14169701804E+02 -0.75852977175E+02  0.48179087801E+02  0.90970759570E+02  0.00000000000E+00 0. -1.
</event>
<event>
 7    1  0.6444902E-006  0.1187008E+03  0.7818608E-02  0.1345530E+00
          2   -1    0    0  502    0  0.00000000000E+00  0.00000000000E+00  0.11249328636E+04  0.11249328636E+04  0.00000000000E+00 0. -1.
          1   -1    0    0  501    0 -0.00000000000E+00 -0.00000000000E+00 -0.39101244165E+03  0.39101244165E+03  0.00000000000E+00 0. -1.
         25    2    1    2    0    0 -0.10731930080E+03 -0.10914364204E+03  0.28120306536E+03  0.34370032735E+03  0.12499993653E+03 0.  0.
          2    1    1    2  501    0  0.61414201831E+02  0.10047394672E+03 -0.34942997446E+03  0.36873842383E+03  0.00000000000E+00 0. -1.
          1    1    1    2  502    0  0.45905098969E+02  0.86696953228E+01  0.80214733109E+03  0.80350655412E+03  0.00000000000E+00 0. -1.
         22    1    3    3    0    0  0.26276143335E+02 -0.59090435396E+01  0.24238357889E+02  0.36233278864E+02  0.00000000000E+00 0. -1.
         22    1    3    3    0    0 -0.13359544413E+03 -0.10323459850E+03  0.25696470747E+03  0.30746704848E+03  0.00000000000E+00 0. -1.
</event>
<event>
 7    1  0.6444902E-006  0.1029131E+03  0.7818608E-02  0.1324451E+00
          2   -1    0    0  502    0  0.00000000000E+00  0.00000000000E+00  0.12311017887E+04  0.12311017887E+04  0.00000000000E+00 0. -1.
          1   -1    0    0  501    0 -0.00000000000E+00 -0.00000000000E+00 -0.16478793451E+03  0.16478793451E+03  0.00000000000E+00 0. -1.
         25    2    1    2    0    0 -0.66355774978E+02 -0.76190118134E+02  0.24185165023E+03  0.29038791054E+03  0.12499957959E+03 0.  0.
          2    1    1    2  501    0  0.58034063526E+02 -0.28760145534E+02 -0.13000494122E+03  0.14524594054E+03  0.00000000000E+00 0. -1.
          1    1    1    2  502    0  0.83217114523E+01  0.10495026367E+03  0.95446714523E+03  0.96025587218E+03  0.00000000000E+00 0. -1.
         22    1    3    3    0    0 -0.76666897006E+02 -0.95603945637E+02  0.23851299788E+03  0.26815364565E+03  0.00000000000E+00 0.  1.
         22    1    3    3    0    0  0.10311122028E+02  0.19413827503E+02  0.33386523451E+01  0.22234264892E+02  0.00000000000E+00 0.  1.
</event>
<event>
 7    1  0.6444902E-006  0.1112842E+03  0.7818608E-02  0.1412896E+00
          2   -1    0    0  502    0  0.00000000000E+00  0.00000000000E+00  0.96064779009E+03  0.96064779009E+03  0.00000000000E+00 0. -1.
          1   -1    0    0  501    0 -0.00000000000E+00 -0.00000000000E+00 -0.39416004260E+03  0.39416004260E+03  0.00000000000E+00 0. -1.
         25    2    1    2    0    0 -0.57262600276E+02 -0.63812442278E+02  0.28808543938E+02  0.15429459285E+03  0.12500342395E+03 0.  0.
          2    1    1    2  501    0  0.71749702175E+02  0.88632927666E+02 -0.32136034815E+03  0.34099309230E+03  0.00000000000E+00 0. -1.
          1    1    1    2  502    0 -0.14487101899E+02 -0.24820485387E+02  0.85903955171E+03  0.85952014754E+03  0.00000000000E+00 0. -1.
         22    1    3    3    0    0 -0.10093341642E+02 -0.59153120727E+02  0.69502412591E+02  0.91823486065E+02  0.00000000000E+00 0.  1.
         22    1    3    3    0    0 -0.47169258634E+02 -0.46593215511E+01 -0.40693868652E+02  0.62471106788E+02  0.00000000000E+00 0.  1.
</event>
<event>
 7    1  0.6444902E-006  0.6377038E+02  0.7818608E-02  0.1406355E+00
          2   -1    0    0  502    0  0.00000000000E+00  0.00000000000E+00  0.22576101021E+04  0.22576101021E+04  0.00000000000E+00 0. -1.
          1   -1    0    0  501    0 -0.00000000000E+00 -0.00000000000E+00 -0.50847994109E+03  0.50847994109E+03  0.00000000000E+00 0. -1.
         25    2    1    2    0    0 -0.87734978077E+02  0.22261847571E+02  0.20391657705E+03  0.25573401646E+03  0.12499960218E+03 0.  0.
          2    1    1    2  501    0  0.59603641084E+02  0.22395876476E+02 -0.48012563248E+03  0.48432921890E+03  0.00000000000E+00 0. -1.
          1    1    1    2  502    0  0.28131336993E+02 -0.44657724047E+02  0.20253392164E+04  0.20260268078E+04  0.00000000000E+00 0. -1.
         22    1    3    3    0    0 -0.15289788955E+02 -0.32020542464E+02  0.14123840552E+03  0.14562753854E+03  0.00000000000E+00 0. -1.
         22    1    3    3    0    0 -0.72445189121E+02  0.54282390035E+02  0.62678171525E+02  0.11010647792E+03  0.00000000000E+00 0. -1.
</event>
<event>
 7    1  0.6444902E-006  0.1282978E+03  0.7818608E-02  0.1257045E+00
          2   -1    0    0  502    0  0.00000000000E+00  0.00000000000E+00  0.11701250753E+03  0.11701250753E+03  0.00000000000E+00 0. -1.
          1   -1    0    0  501    0 -0.00000000000E+00 -0.00000000000E+00 -0.15981845984E+04  0.15981845984E+04  0.00000000000E+00 0. -1.
         25    2    1    2    0    0  0.59301901480E+02 -0.25144091935E+02 -0.40710665797E+03  0.43070874169E+03  0.12500099331E+03 0.  0.
          2    1    1    2  501    0 -0.15691760948E+03  0.22844259199E+02 -0.11499459992E+04  0.11608276347E+04  0.00000000000E+00 0. -1.
          1    1    1    2  502    0  0.97615707999E+02  0.22998327367E+01  0.75880566334E+02  0.12366072952E+03  0.00000000000E+00 0. -1.
         22    1    3    3    0    0  0.91580707754E+01  0.41297898383E+02 -0.24346621812E+03  0.24711371074E+03  0.00000000000E+00 0. -1.
         22    1    3    3    0    0  0.50143830705E+02 -0.66441990319E+02 -0.16364043985E+03  0.18359503095E+03  0.00000000000E+00 0. -1.
</event>
<event>
 7    1  0.6444902E-006  0.1280727E+03  0.7818608E-02  0.1288471E+00
          2   -1    0    0  502    0  0.00000000000E+00  0.00000000000E+00  0.74760479198E+03  0.74760479198E+03  0.00000000000E+00 0. -1.
          1   -1    0    0  501    0 -0.00000000000E+00 -0.00000000000E+00 -0.14237317851E+04  0.14237317851E+04  0.00000000000E+00 0. -1.
         25    2    1    2    0    0  0.16422000400E+03 -0.42930827400E+02 -0.10290884800E+03  0.23457401042E+03  0.12499387869E+03 0.  0.
          2    1    1    2  501    0 -0.10051180344E+03  0.77064412964E+02 -0.12498653257E+04  0.12562662452E+04  0.00000000000E+00 0. -1.
          1    1    1    2  502    0 -0.63708200565E+02 -0.34133585563E+02  0.67664718061E+03  0.68049632146E+03  0.00000000000E+00 0. -1.
         22    1    3    3    0    0 -0.21191428308E+01 -0.25212954612E+02 -0.55043911473E+02  0.60580657283E+02  0.00000000000E+00 0. -1.
         22    1    3    3    0    0  0.16633914684E+03 -0.17717872789E+02 -0.47864936523E+02  0.17399335313E+03  0.00000000000E+00 0. -1.
</event>
<event>
 7    1  0.6444902E-006  0.2403757E+03  0.7818608E-02  0.1253314E+00
          2   -1    0    0  502    0  0.00000000000E+00  0.00000000000E+00  0.16350348494E+04  0.16350348494E+04  0.00000000000E+00 0. -1.
          1   -1    0    0  501    0 -0.00000000000E+00 -0.00000000000E+00 -0.96074623615E+03  0.96074623615E+03  0.00000000000E+00 0. -1.
         25    2    1    2    0    0  0.24896815724E+03  0.66434343151E+02  0.14534873047E+03  0.32116731833E+03  0.12499411044E+03 0.  0.
          2    1    1    2  501    0 -0.10416761592E+02 -0.53065083784E+02 -0.86180235571E+03  0.86349737252E+03  0.00000000000E+00 0. -1.
          1    1    1    2  502    0 -0.23855139565E+03 -0.13369259367E+02  0.13907422385E+04  0.14111163947E+04  0.00000000000E+00 0. -1.
         22    1    3    3    0    0  0.73111811697E+02  0.81233522631E+02  0.65990855844E+02  0.12766759677E+03  0.00000000000E+00 0. -1.
         22    1    3    3    0    0  0.17585634554E+03 -0.14799179480E+02  0.79357874628E+02  0.19349972157E+03  0.00000000000E+00 0. -1.
</event>
<event>
 7    1  0.6444902E-006  0.2354477E+03  0.7818608E-02  0.1258272E+00
          2   -1    0    0  502    0  0.00000000000E+00  0.00000000000E+00  0.42952203258E+03  0.42952203258E+03  0.00000000000E+00 0. -1.
          1   -1    0    0  501    0 -0.00000000000E+00 -0.00000000000E+00 -0.13262775694E+04  0.13262775694E+04  0.00000000000E+00 0. -1.
         25    2    1    2    0    0  0.22533007006E+03 -0.72658832728E+02 -0.17303517217E+03  0.31877177603E+03  0.12498531089E+03 0.  0.
          2    1    1    2  501    0 -0.22236541523E+02 -0.47631325059E+02 -0.10405826924E+04  0.10419095674E+04  0.00000000000E+00 0. -1.
          1    1    1    2  502    0 -0.20309352854E+03  0.12029015779E+03  0.31686232783E+03  0.39511825849E+03  0.00000000000E+00 0. -1.
         22    1    3    3    0    0  0.12189660345E+03  0.24617812111E+02 -0.96932915594E+02  0.15767310719E+03  0.00000000000E+00 0.  1.
         22    1    3    3    0    0  0.10343346661E+03 -0.97276644838E+02 -0.76102256579E+02  0.16109866884E+03  0.00000000000E+00 0.  1.
</event>
<event>
 7    1  0.6444902E-006  0.3581145E+02  0.7818608E-02  0.1565888E+00
          2   -1    0    0  502    0  0.00000000000E+00  0.00000000000E+00  0.16189485152E+04  0.16189485152E+04  0.00000000000E+00 0. -1.
          1   -1    0    0  501    0 -0.00000000000E+00 -0.00000000000E+00 -0.32816040956E+03  0.32816040956E+03  0.00000000000E+00 0. -1.
         25    2    1    2    0    0 -0.25133466884E+01  0.13650934434E+02  0.28116339468E+03  0.30801066329E+03  0.12500019708E+03 0.  0.
          2    1    1    2  501    0 -0.26072680364E+02 -0.24692555128E+02 -0.31353451615E+03  0.31558421975E+03  0.00000000000E+00 0. -1.
          1    1    1    2  502    0  0.28586027052E+02  0.11041620694E+02  0.13231592271E+04  0.13235140417E+04  0.00000000000E+00 0. -1.
         22    1    3    3    0    0 -0.15023144377E+02 -0.48027901988E+01 -0.82090924568E+01  0.17780631587E+02  0.00000000000E+00 0. -1.
         22    1    3    3    0    0  0.12509797688E+02  0.18453724633E+02  0.28937248714E+03  0.29023003171E+03  0.00000000000E+00 0. -1.
</event>
<event>
 7    1  0.6444902E-006  0.1342597E+03  0.7818608E-02  0.1306834E+00
          2   -1    0    0  502    0  0.00000000000E+00  0.00000000000E+00  0.18734131886E+04  0.18734131886E+04  0.00000000000E+00 0. -1.
          1   -1    0    0  501    0 -0.00000000000E+00 -0.00000000000E+00 -0.35654622892E+02  0.35654622892E+02  0.00000000000E+00 0. -1.
         25    2    1    2    0    0  0.40351631001E+02 -0.14402813299E+03  0.86837919782E+03  0.88998848194E+03  0.12499883824E+03 0.  0.
          2    1    1    2  501    0  0.41078109135E+02  0.41189981273E+02  0.21270187510E+02  0.61939054595E+02  0.00000000000E+00 0. -1.
          1    1    1    2  502    0 -0.81429740136E+02  0.10283815172E+03  0.94810918041E+03  0.95714027499E+03  0.00000000000E+00 0. -1.
         22    1    3    3    0    0 -0.22102844475E+02 -0.91432976699E+02  0.65136412678E+03  0.65812137985E+03  0.00000000000E+00 0. -1.
         22    1    3    3    0    0  0.62454475476E+02 -0.52595156295E+02  0.21701507104E+03  0.23186710209E+03  0.00000000000E+00 0. -1.
</event>
<event>
 7    1  0.6444902E-006  0.4597772E+02  0.7818608E-02  0.1583872E+00
          2   -1    0    0  502    0  0.00000000000E+00  0.00000000000E+00  0.30878356142E+03  0.30878356142E+03  0.00000000000E+00 0. -1.
          1   -1    0    0  501    0 -0.00000000000E+00 -0.00000000000E+00 -0.95758251525E+02  0.95758251525E+02  0.00000000000E+00 0. -1.
         25    2    1    2    0    0  0.18644357488E+02  0.39283898787E+02  0.41795766203E+02  0.13879042628E+03  0.12500023834E+03 0.  0.
          2    1    1    2  501    0  0.18191573806E+02 -0.11164156940E+02 -0.42230961826E+02  0.47318346278E+02  0.00000000000E+00 0. -1.
          1    1    1    2  502    0 -0.36835931294E+02 -0.28119741847E+02  0.21346050552E+03  0.21843304039E+03  0.00000000000E+00 0. -1.
         22    1    3    3    0    0 -0.22129278128E+02  0.14328742604E+02 -0.37714839333E+02  0.46015507397E+02  0.00000000000E+00 0.  1.
         22    1    3    3    0    0  0.40773635616E+02  0.24955156183E+02  0.79510605536E+02  0.92774918885E+02  0.00000000000E+00 0.  1.
</event>
<event>
 7    1  0.6444902E-006  0.6856057E+02  0.7818608E-02  0.1404402E+00
          2   -1    0    0  502    0  0.00000000000E+00  0.00000000000E+00  0.43068254561E+03  0.43068254561E+03  0.00000000000E+00 0. -1.
          1   -1    0    0  501    0 -0.00000000000E+00 -0.00000000000E+00 -0.27162337874E+04  0.27162337874E+04  0.00000000000E+00 0. -1.
         25    2    1    2    0    0 -0.82037340747E+02  0.69151489436E+02 -0.87703207407E+03  0.89236464612E+03  0.12496939200E+03 0.  0.
          2    1    1    2  501    0  0.61558823022E+02 -0.23701221956E+02 -0.18294702737E+04  0.18306590942E+04  0.00000000000E+00 0. -1.
          1    1    1    2  502    0  0.20478517725E+02 -0.45450267480E+02  0.42095110602E+03  0.42389259271E+03  0.00000000000E+00 0. -1.
         22    1    3    3    0    0 -0.67562790222E+02  0.71884272562E+02 -0.31383347994E+03  0.32897345242E+03  0.00000000000E+00 0.  1.
         22    1    3    3    0    0 -0.14474550525E+02 -0.27327831257E+01 -0.56319859412E+03  0.56339119370E+03  0.00000000000E+00 0.  1.
</event>
<event>
 7    1  0.7417143E-006  0.3406513E+02  0.7818608E-02  0.1566059E+00
          2   -1    0    0  502    0  0.00000000000E+00  0.00000000000E+00  0.10554681433E+04  0.10554681433E+04  0.00000000000E+00 0. -1.
          1   -1    0    0  501    0 -0.00000000000E+00 -0.00000000000E+00 -0.13959617484E+04  0.13959617484E+04  0.00000000000E+00 0. -1.
         25    2    1    2    0    0 -0.45291729821E+02 -0.96981257290E+01 -0.31463557924E+03  0.34171180123E+03  0.12500405171E+03 0.  0.
          2    1    1    2  501    0  0.28925367410E+02 -0.18010100759E+02 -0.10672676149E+04  0.10678114077E+04  0.00000000000E+00 0. -1.
          1    1    1    2  502    0  0.16366362411E+02  0.27708226488E+02  0.10414095890E+04  0.10419066828E+04  0.00000000000E+00 0. -1.
         22    1    3    3    0    0 -0.28416409097E+02 -0.33219243415E+02 -0.30917812618E+03  0.31225330126E+03  0.00000000000E+00 0. -1.
         22    1    3    3    0    0 -0.16875320724E+02  0.23521117686E+02 -0.54574530602E+01  0.29458499973E+02  0.00000000000E+00 0. -1.
</event>
<event>
 7    1  0.6444902E-006  0.4372532E+02  0.7818608E-02  0.1585940E+00
          2   -1    0    0  502    0  0.00000000000E+00  0.00000000000E+00  0.11331366665E+04  0.11331366665E+04  0.00000000000E+00 0. -1.
          1   -1    0    0  501    0 -0.00000000000E+00 -0.00000000000E+00 -0.12102350785E+04  0.12102350785E+04  0.00000000000E+00 0. -1.
         25    2    1    2    0    0 -0.62354500098E+01  0.20866295189E+02  0.10697967916E+03  0.16596647300E+03  0.12500374112E+03 0.  0.
          2    1    1    2  501    0  0.15963350945E+02 -0.40777562806E+02 -0.11802123813E+04  0.11810245142E+04  0.00000000000E+00 0. -1.
          1    1    1    2  502    0 -0.97279009350E+01  0.19911267616E+02  0.99613429008E+03  0.99638075779E+03  0.00000000000E+00 0. -1.
         22    1    3    3    0    0  0.54475899942E+02 -0.44642749501E+01  0.23029007319E+02  0.59311791437E+02  0.00000000000E+00 0. -1.
         22    1    3    3    0    0 -0.60711349952E+02  0.25330570140E+02  0.83950671839E+02  0.10665468156E+03  0.00000000000E+00 0. -1.
</event>
<event>
 7    1  0.6444902E-006  0.8422343E+02  0.7818608E-02  0.1429780E+00
          2   -1    0    0  502    0  0.00000000000E+00  0.00000000000E+00  0.30578615749E+03  0.30578615749E+03  0.00000000000E+00 0. -1.
          1   -1    0    0  501    0 -0.00000000000E+00 -0.00000000000E+00 -0.76501740100E+03  0.76501740100E+03  0.00000000000E+00 0. -1.
         25    2    1    2    0    0 -0.48555604582E+01  0.68391154107E+02  0.22026210004E+02  0.14426593052E+03  0.12500631326E+03 0.  0.
          2    1    1    2  501    0  0.37278584018E+02 -0.76229119142E+02 -0.70007157953E+03  0.70519556713E+03  0.00000000000E+00 0. -1.
          1    1    1    2  502    0 -0.32423023559E+02  0.78379650350E+01  0.21881412602E+03  0.22134206084E+03  0.00000000000E+00 0. -1.
         22    1    3    3    0    0 -0.35254465030E+02  0.33659929819E+02  0.64970273353E+02  0.81221946539E+02  0.00000000000E+00 0.  1.
         22    1    3    3    0    0  0.30398904572E+02  0.34731224287E+02 -0.42944063348E+02  0.63043983984E+02  0.00000000000E+00 0.  1.
</event>
<event>
 7    1  0.6444902E-006  0.8667285E+02  0.7818608E-02  0.1489128E+00
          2   -1    0    0  502    0  0.00000000000E+00  0.00000000000E+00  0.33457336192E+03  0.33457336192E+03  0.00000000000E+00 0. -1.
          1   -1    0    0  501    0 -0.00000000000E+00 -0.00000000000E+00 -0.20257544580E+03  0.20257544580E+03  0.00000000000E+00 0. -1.
         25    2    1    2    0    0  0.98968772148E+02 -0.62652926529E+01 -0.31407718585E+02  0.16262660843E+03  0.12500758869E+03 0.  0.
          2    1    1    2  501    0 -0.81708607349E+02  0.18317954793E+02 -0.88443173562E+02  0.12179506941E+03  0.00000000000E+00 0. -1.
          1    1    1    2  502    0 -0.17260164799E+02 -0.12052662140E+02  0.25184880827E+03  0.25272712989E+03  0.00000000000E+00 0. -1.
         22    1    3    3    0    0  0.61871584228E+01 -0.30801070456E+02  0.34149183224E+02  0.46402086003E+02  0.00000000000E+00 0. -1.
         22    1    3    3    0    0  0.92781613726E+02  0.24535777803E+02 -0.65556901809E+02  0.11622452242E+03  0.00000000000E+00 0. -1.
</event>
<event>
 7    1  0.6444902E-006  0.4115536E+02  0.7818608E-02  0.1593698E+00
          2   -1    0    0  502    0  0.00000000000E+00  0.00000000000E+00  0.17312558952E+03  0.17312558952E+03  0.00000000000E+00 0. -1.
          1   -1    0    0  501    0 -0.00000000000E+00 -0.00000000000E+00 -0.15781672523E+03  0.15781672523E+03  0.00000000000E+00 0. -1.
         25    2    1    2    0    0 -0.13615557468E+02 -0.40464325663E+02 -0.63099928925E+02  0.14639260738E+03  0.12500579750E+03 0.  0.
          2    1    1    2  501    0 -0.17810786741E+02  0.13677999057E+02 -0.47231078059E+02  0.52298054621E+02  0.00000000000E+00 0. -1.
          1    1    1    2  502    0  0.31426344208E+02  0.26786326607E+02  0.12563987128E+03  0.13225165276E+03  0.00000000000E+00 0. -1.
         22    1    3    3    0    0 -0.36725946735E+02  0.10860351231E+02 -0.79092516113E+02  0.87877007787E+02  0.00000000000E+00 0. -1.
         22    1    3    3    0    0  0.23110389267E+02 -0.51324676895E+02  0.15992587188E+02  0.58515599590E+02  0.00000000000E+00 0. -1.
</event>
<event>
 7    1  0.6444902E-006  0.1333192E+03  0.7818608E-02  0.1372366E+00
          2   -1    0    0  502    0  0.00000000000E+00  0.00000000000E+00  0.18752088583E+04  0.18752088583E+04  0.00000000000E+00 0. -1.
          1   -1    0    0  501    0 -0.00000000000E+00 -0.00000000000E+00 -0.30305238395E+03  0.30305238395E+03  0.00000000000E+00 0. -1.
         25    2    1    2    0    0  0.14875187499E+03  0.70921245804E+02 -0.59511555509E+02  0.21524407177E+03  0.12502576443E+03 0.  0.
          2    1    1    2  501    0 -0.25772194516E+02 -0.20903905095E+02 -0.16153398687E+03  0.16490727144E+03  0.00000000000E+00 0. -1.
          1    1    1    2  502    0 -0.12297968048E+03 -0.50017340709E+02  0.17932020167E+04  0.17981098990E+04  0.00000000000E+00 0. -1.
         22    1    3    3    0    0  0.15944769091E+03  0.90611893799E+02 -0.59595115533E+02  0.19283583492E+03  0.00000000000E+00 0.  1.
         22    1    3    3    0    0 -0.10695815911E+02 -0.19690647995E+02  0.83560024069E-01  0.22408236851E+02  0.00000000000E+00 0.  1.
</event>
<event>
 7    1  0.6444902E-006  0.1333792E+03  0.7818608E-02  0.1353118E+00
          2   -1    0    0  502    0  0.00000000000E+00  0.00000000000E+00  0.31040370652E+03  0.31040370652E+03  0.00000000000E+00 0. -1.
          1   -1    0    0  501    0 -0.00000000000E+00 -0.00000000000E+00 -0.22230682922E+04  0.22230682922E+04  0.00000000000E+00 0. -1.
         25    2    1    2    0    0  0.60697133069E+02 -0.74912288003E+02 -0.17819411648E+04  0.17889201266E+04  0.12499964701E+03 0.  0.
          2    1    1    2  501    0  0.12646328593E+02 -0.36857692978E+02 -0.42213998360E+03  0.42393464698E+03  0.00000000000E+00 0. -1.
          1    1    1    2  502    0 -0.73343461663E+02  0.11176998098E+03  0.29141656272E+03  0.32061722512E+03  0.00000000000E+00 0. -1.
         22    1    3    3    0    0 -0.21358911337E+02 -0.66538584938E+02 -0.10556084359E+04  0.10579190689E+04  0.00000000000E+00 0. -1.
         22    1    3    3    0    0  0.82056044406E+02 -0.83737030655E+01 -0.72633272889E+03  0.73100105771E+03  0.00000000000E+00 0. -1.
</event>
<event>
 7    1  0.6444902E-006  0.7052202E+02  0.7818608E-02  0.1511808E+00
          2   -1    0    0  502    0  0.00000000000E+00  0.00000000000E+00  0.13064017801E+04  0.13064017801E+04  0.00000000000E+00 0. -1.
          1   -1    0    0  501    0 -0.00000000000E+00 -0.00000000000E+00 -0.16639814141E+03  0.16639814141E+03  0.00000000000E+00 0. -1.
         25    2    1    2    0    0 -0.41728308111E+02 -0.42497605769E+02  0.69449329276E+03  0.70816170182E+03  0.12499905618E+03 0.  0.
          2    1    1    2  501    0  0.62079734845E+02  0.33775898504E+02 -0.15152309076E+03  0.16719435347E+03  0.00000000000E+00 0. -1.
          1    1    1    2  502    0 -0.20351426733E+02  0.87217072649E+01  0.59703343668E+03  0.59744386620E+03  0.00000000000E+00 0. -1.
         22    1    3    3    0    0  0.37405803717E+02 -0.43305936207E+02  0.35379480134E+03  0.35839274507E+03  0.00000000000E+00 0.  1.
         22    1    3    3    0    0 -0.79134111828E+02  0.80833043798E+00  0.34069849142E+03  0.34976895675E+03  0.00000000000E+00 0.  1.
</event>
<event>
 7    1  0.6444902E-006  0.1063451E+03  0.7818608E-02  0.1302251E+00
          2   -1    0    0  502    0  0.00000000000E+00  0.00000000000E+00  0.27213600221E+04  0.27213600221E+04  0.00000000000E+00 0. -1.
          1   -1    0    0  501    0 -0.00000000000E+00 -0.00000000000E+00 -0.23067677798E+03  0.23067677798E+03  0.00000000000E+00 0. -1.
         25    2    1    2    0    0 -0.76411597188E+02  0.10992648210E+03  0.20844860741E+03  0.27748412123E+03  0.12499620774E+03 0.  0.
          2    1    1    2  501    0  0.99426830494E+02 -0.36877909154E+02 -0.18118791443E+03  0.20993983695E+03  0.00000000000E+00 0. -1.
          1    1    1    2  502    0 -0.23015233305E+02 -0.73048572949E+02  0.24634225511E+04  0.24646128419E+04  0.00000000000E+00 0. -1.
         22    1    3    3    0    0 -0.87929522449E+02  0.54322896864E+02  0.19251763932E+03  0.21850771037E+03  0.00000000000E+00 0. -1.
         22    1    3    3    0    0  0.11517925261E+02  0.55603585239E+02  0.15930968096E+02  0.58976410863E+02  0.00000000000E+00 0. -1.
</event>
<event>
 7    1  0.6444902E-006  0.8769367E+02  0.7818608E-02  0.1434647E+00
          2   -1    0    0  502    0  0.00000000000E+00  0.00000000000E+00  0.20932872128E+03  0.20932872128E+03  0.00000000000E+00 0. -1.
          1   -1    0    0  501    0 -0.00000000000E+00 -0.00000000000E+00 -0.76396355729E+03  0.76396355729E+03  0.00000000000E+00 0. -1.
         25    2    1    2    0    0  0.62604478155E+02 -0.25436371831E+02 -0.22675902208E+03  0.26760065991E+03  0.12499651751E+03 0.  0.
          2    1    1    2  501    0 -0.74692758106E+02  0.53852116746E+02 -0.51138156319E+03  0.51960577534E+03  0.00000000000E+00 0. -1.
          1    1    1    2  502    0  0.12088279951E+02 -0.28415744914E+02  0.18350574927E+03  0.18608584332E+03  0.00000000000E+00 0. -1.
         22    1    3    3    0    0  0.64940764521E+02  0.25087048078E+02 -0.19695053430E+03  0.20889273764E+03  0.00000000000E+00 0. -1.
         22    1    3    3    0    0 -0.23362863664E+01 -0.50523419909E+02 -0.29808487786E+02  0.58707922271E+02  0.00000000000E+00 0. -1.
</event>
<event>
 7    1  0.6444902E-006  0.4492143E+02  0.7818608E-02  0.1492637E+00
          2   -1    0    0  502    0  0.00000000000E+00  0.00000000000E+00  0.14641358745E+03  0.14641358745E+03  0.00000000000E+00 0. -1.
          1   -1    0    0  501    0 -0.00000000000E+00 -0.00000000000E+00 -0.14654740752E+03  0.14654740752E+03  0.00000000000E+00 0. -1.
         25    2    1    2    0    0 -0.10924584744E+02  0.76817585784E+02 -0.39996066337E+01  0.14718172149E+03  0.12500469692E+03 0.  0.
          2    1    1    2  501    0  0.18424165794E+02 -0.35096489079E+02 -0.58322691487E+02  0.70517726659E+02  0.00000000000E+00 0. -1.
          1    1    1    2  502    0 -0.74995810495E+01 -0.41721096705E+02  0.62188478054E+02  0.75261546814E+02  0.00000000000E+00 0. -1.
         22    1    3    3    0    0 -0.36979210758E+02  0.41051575964E+02  0.51956813954E+02  0.75843288653E+02  0.00000000000E+00 0. -1.
         22    1    3    3    0    0  0.26054626014E+02  0.35766009820E+02 -0.55956420588E+02  0.71338432841E+02  0.00000000000E+00 0. -1.
</event>
<event>
 7    1  0.6444902E-006  0.1587763E+03  0.7818608E-02  0.1345689E+00
          2   -1    0    0  502    0  0.00000000000E+00  0.00000000000E+00  0.19710185927E+04  0.19710185927E+04  0.00000000000E+00 0. -1.
          1   -1    0    0  501    0 -0.00000000000E+00 -0.00000000000E+00 -0.69626032754E+02  0.69626032754E+02  0.00000000000E+00 0. -1.
         25    2    1    2    0    0 -0.18560163114E+03  0.22012480952E+02  0.50510945309E+03  0.55289521494E+03  0.12500017720E+03 0.  0.
          2    1    1    2  501    0  0.15096407725E+03 -0.17928224442E+02  0.81479484585E+02  0.17248327531E+03  0.00000000000E+00 0. -1.
          1    1    1    2  502    0  0.34637553888E+02 -0.40842565094E+01  0.13148036223E+04  0.13152661352E+04  0.00000000000E+00 0. -1.
         22    1    3    3    0    0 -0.13127045999E+03  0.41335757516E+00  0.46190747585E+03  0.48019852225E+03  0.00000000000E+00 0. -1.
         22    1    3    3    0    0 -0.54331171156E+02  0.21599123376E+02  0.43201977245E+02  0.72696692687E+02  0.00000000000E+00 0. -1.
</event>
<event>
 7    1  0.6444902E-006  0.2239788E+02  0.7818608E-02  0.1715818E+00
          2   -1    0    0  502    0  0.00000000000E+00  0.00000000000E+00  0.32737057494E+03  0.32737057494E+03  0.00000000000E+00 0. -1.
          1   -1    0    0  501    0 -0.00000000000E+00 -0.00000000000E+00 -0.64767175218E+03  0.64767175218E+03  0.00000000000E+00 0. -1.
         25    2    1    2    0    0 -0.26192873270E+01 -0.29084654119E+01 -0.19511418075E+03  0.23175577508E+03  0.12500350360E+03 0.  0.
          2    1    1    2  501    0  0.96197357525E+01 -0.18408423937E+02 -0.43358061194E+03  0.43407782302E+03  0.00000000000E+00 0. -1.
          1    1    1    2  502    0 -0.70004484254E+01  0.21316889349E+02  0.30839361546E+03  0.30920872902E+03  0.00000000000E+00 0. -1.
         22    1    3    3    0    0  0.43389785059E+02 -0.37830569457E+02 -0.14224420803E+03  0.15345110019E+03  0.00000000000E+00 0.  1.
         22    1    3    3    0    0 -0.46009072386E+02  0.34922104045E+02 -0.52869972724E+02  0.78304674883E+02  0.00000000000E+00 0.  1.
</event>
<event>
 7    1  0.6444902E-006  0.3181352E+03  0.7818608E-02  0.1232133E+00
          2   -1    0    0  502    0  0.00000000000E+00  0.00000000000E+00  0.23663850324E+03  0.23663850324E+03  0.00000000000E+00 0. -1.
          1   -1    0    0  501    0 -0.00000000000E+00 -0.00000000000E+00 -0.18580492241E+04  0.18580492241E+04  0.00000000000E+00 0. -1.
         25    2    1    2    0    0 -0.23856213110E+03 -0.18463367519E+03 -0.66834444243E+03  0.74384866328E+03  0.12500022292E+03 0.  0.
          2    1    1    2  501    0  0.23128685677E+03  0.23472503839E+03 -0.11246562832E+04  0.11719390808E+04  0.00000000000E+00 0. -1.
          1    1    1    2  502    0  0.72752743349E+01 -0.50091363198E+02  0.17159000475E+03  0.17889998327E+03  0.00000000000E+00 0. -1.
         22    1    3    3    0    0 -0.24933497810E+02  0.12668332841E+02 -0.11944721175E+03  0.12267763596E+03  0.00000000000E+00 0.  1.
         22    1    3    3    0    0 -0.21362863329E+03 -0.19730200803E+03 -0.54889723068E+03  0.62117102732E+03  0.00000000000E+00 0.  1.
</event>
<event>
 7    1  0.6444902E-006  0.2520885E+03  0.7818608E-02  0.1331184E+00
          2   -1    0    0  502    0  0.00000000000E+00  0.00000000000E+00  0.33666778604E+03  0.33666778604E+03  0.00000000000E+00 0. -1.
          1   -1    0    0  501    0 -0.00000000000E+00 -0.00000000000E+00 -0.19785930504E+04  0.19785930504E+04  0.00000000000E+00 0. -1.
         25    2    1    2    0    0 -0.12920021909E+03 -0.20110318836E+03 -0.55363963614E+03  0.61585536331E+03  0.12500317129E+03 0.  0.
          2    1    1    2  501    0  0.15355301169E+03  0.20637158524E+03 -0.13814447417E+04  0.14051894296E+04  0.00000000000E+00 0. -1.
          1    1    1    2  502    0 -0.24352792608E+02 -0.52683968804E+01  0.29315911345E+03  0.29421604360E+03  0.00000000000E+00 0. -1.
         22    1    3    3    0    0  0.23272821212E+02 -0.38538480555E+02 -0.68528859129E+02  0.81994165793E+02  0.00000000000E+00 0.  1.
         22    1    3    3    0    0 -0.15247304030E+03 -0.16256470781E+03 -0.48511077701E+03  0.53386119752E+03  0.00000000000E+00 0.  1.
</event>
<event>
 7    1  0.6444902E-006  0.8651939E+02  0.7818608E-02  0.1326814E+00
          2   -1    0    0  502    0  0.00000000000E+00  0.00000000000E+00  0.16223381015E+03  0.16223381015E+03  0.00000000000E+00 0. -1.
          1   -1    0    0  501    0 -0.00000000000E+00 -0.00000000000E+00 -0.74481619044E+03  0.74481619044E+03  0.00000000000E+00 0. -1.
         25    2    1    2    0    0 -0.14171705589E+03  0.20886387684E+01 -0.20844574719E+03  0.28135845026E+03  0.12499944667E+03 0.  0.
          2    1    1    2  501    0  0.74186693720E+02 -0.35731939249E+02 -0.48480727266E+03  0.49175047395E+03  0.00000000000E+00 0. -1.
          1    1    1    2  502    0  0.67530362168E+02  0.33643300481E+02  0.11067063957E+03  0.13394107639E+03  0.00000000000E+00 0. -1.
         22    1    3    3    0    0 -0.21825634996E+02  0.52587966680E+02 -0.45713942557E+02  0.73017923324E+02  0.00000000000E+00 0.  1.
         22    1    3    3    0    0 -0.11989142089E+03 -0.50499327912E+02 -0.16273180463E+03  0.20834052693E+03  0.00000000000E+00 0.  1.
</event>
<event>
 7    1  0.6444902E-006  0.1800246E+03  0.7818608E-02  0.1285650E+00
          2   -1    0    0  502    0  0.00000000000E+00  0.00000000000E+00  0.72743416489E+03  0.72743416489E+03  0.00000000000E+00 0. -1.
          1   -1    0    0  501    0 -0.00000000000E+00 -0.00000000000E+00 -0.39653211315E+03  0.39653211315E+03  0.00000000000E+00 0. -1.
         25    2    1    2    0    0  0.22443419859E+03  0.17220208241E+02  0.12539063585E+03  0.28638162392E+03  0.12499751154E+03 0.  0.
          2    1    1    2  501    0 -0.17262425058E+03 -0.27405988471E+02 -0.29036062960E+03  0.33890930249E+03  0.00000000000E+00 0. -1.
          1    1    1    2  502    0 -0.51809948002E+02  0.10185780230E+02  0.49587204549E+03  0.49867535164E+03  0.00000000000E+00 0. -1.
         22    1    3    3    0    0  0.17303926288E+03  0.60170147997E+02  0.12038578952E+03  0.21921626657E+03  0.00000000000E+00 0. -1.
         22    1    3    3    0    0  0.51394935703E+02 -0.42949939756E+02  0.50048463274E+01  0.67165357348E+02  0.00000000000E+00 0. -1.
</event>
<event>
 7    1  0.6444902E-006  0.1145795E+03  0.7818608E-02  0.1298040E+00
          2   -1    0    0  502    0  0.00000000000E+00  0.00000000000E+00  0.58774118288E+03  0.58774118288E+03  0.00000000000E+00 0. -1.
          1   -1    0    0  501    0 -0.00000000000E+00 -0.00000000000E+00 -0.28650408859E+03  0.28650408859E+03  0.00000000000E+00 0. -1.
         25    2    1    2    0    0 -0.52574268445E+02 -0.69921457425E+02 -0.72345674411E+02  0.16885145377E+03  0.12499541160E+03 0.  0.
          2    1    1    2  501    0 -0.61011668851E+02  0.41693932275E+02 -0.15089355425E+03  0.16801688141E+03  0.00000000000E+00 0. -1.
          1    1    1    2  502    0  0.11358593730E+03  0.28227525150E+02  0.52447632295E+03  0.53737693630E+03  0.00000000000E+00 0. -1.
         22    1    3    3    0    0 -0.64760553165E+02  0.14068309030E+02 -0.43240678077E+02  0.79130290065E+02  0.00000000000E+00 0. -1.
         22    1    3    3    0    0  0.12186284720E+02 -0.83989766455E+02 -0.29104996334E+02  0.89721163702E+02  0.00000000000E+00 0. -1.
</event>
<event>
 7    1  0.6444902E-006  0.2520414E+03  0.7818608E-02  0.1173983E+00
          2   -1    0    0  502    0  0.00000000000E+00  0.00000000000E+00  0.17830278407E+04  0.17830278407E+04  0.00000000000E+00 0. -1.
          1   -1    0    0  501    0 -0.00000000000E+00 -0.00000000000E+00 -0.12389697929E+04  0.12389697929E+04  0.00000000000E+00 0. -1.
         25    2    1    2    0    0 -0.14252184370E+03 -0.79902195945E+02  0.13512269930E+03  0.24613115858E+03  0.12500226602E+03 0.  0.
          2    1    1    2  501    0 -0.11946821334E+03  0.87900380734E+01 -0.11688120494E+04  0.11749346899E+04  0.00000000000E+00 0. -1.
          1    1    1    2  502    0  0.26199005705E+03  0.71112157872E+02  0.15777473979E+04  0.16009317851E+04  0.00000000000E+00 0. -1.
         22    1    3    3    0    0  0.31902813777E+01 -0.55880605684E+02  0.22146069347E+02  0.60193590808E+02  0.00000000000E+00 0.  1.
         22    1    3    3    0    0 -0.14571212508E+03 -0.24021590261E+02  0.11297662995E+03  0.18593756777E+03  0.00000000000E+00 0.  1.
</event>
<event>
 7    1  0.6444902E-006  0.1618606E+03  0.7818608E-02  0.1245159E+00
          2   -1    0    0  502    0  0.00000000000E+00  0.00000000000E+00  0.15695240190E+04  0.15695240190E+04  0.00000000000E+00 0. -1.
          1   -1    0    0  501    0 -0.00000000000E+00 -0.00000000000E+00 -0.31668365739E+03  0.31668365739E+03  0.00000000000E+00 0. -1.
         25    2    1    2    0    0  0.16320896612E+03  0.91557951182E+02 -0.24071456389E+02  0.22632759229E+03  0.12499887588E+03 0.  0.
          2    1    1    2  501    0 -0.15742576395E+01 -0.87120539668E+02 -0.17685152339E+03  0.19715204296E+03  0.00000000000E+00 0. -1.
          1    1    1    2  502    0 -0.16163470848E+03 -0.44374115140E+01  0.14537633414E+04  0.14627280412E+04  0.00000000000E+00 0. -1.
         22    1    3    3    0    0  0.17866492927E+03  0.83359464064E+02 -0.72879570634E+00  0.19715600002E+03  0.00000000000E+00 0. -1.
         22    1    3    3    0    0 -0.15455963150E+02  0.81984871180E+01 -0.23342660683E+02  0.29171592271E+02  0.00000000000E+00 0. -1.
</event>
<event>
 7    1  0.6444902E-006  0.9170546E+02  0.7818608E-02  0.1407736E+00
          2   -1    0    0  502    0  0.00000000000E+00  0.00000000000E+00  0.51276218777E+02  0.51276218777E+02  0.00000000000E+00 0. -1.
          1   -1    0    0  501    0 -0.00000000000E+00 -0.00000000000E+00 -0.13192626852E+04  0.13192626852E+04  0.00000000000E+00 0. -1.
         25    2    1    2    0    0 -0.94235480038E+02 -0.56732497496E+02 -0.35183551944E+03  0.38925208314E+03  0.12502019645E+03 0.  0.
          2    1    1    2  501    0  0.59590982148E+02  0.67592196912E+02 -0.93571549528E+03  0.94004429594E+03  0.00000000000E+00 0. -1.
          1    1    1    2  502    0  0.34644497891E+02 -0.10859699416E+02  0.19564548326E+02  0.41242524858E+02  0.00000000000E+00 0. -1.
         22    1    3    3    0    0 -0.22730392957E+02 -0.82915073615E+02 -0.23038148443E+03  0.24590081042E+03  0.00000000000E+00 0.  1.
         22    1    3    3    0    0 -0.71505087082E+02  0.26182576120E+02 -0.12145403501E+03  0.14335127272E+03  0.00000000000E+00 0.  1.
</event>
<event>
 7    1  0.6444902E-006  0.5942272E+02  0.7818608E-02  0.1483950E+00
          2   -1    0    0  502    0  0.00000000000E+00  0.00000000000E+00  0.33777636510E+03  0.33777636510E+03  0.00000000000E+00 0. -1.
          1   -1    0    0  501    0 -0.00000000000E+00 -0.00000000000E+00 -0.18569107448E+03  0.18569107448E+03  0.00000000000E+00 0. -1.
         25    2    1    2    0    0 -0.88194341272E+02  0.82845703013E+01  0.70086148575E+01  0.15336140324E+03  0.12499489343E+03 0.  0.
          2    1    1    2  501    0  0.56392139073E+02 -0.67520499707E+01 -0.10427013217E+03  0.11873467897E+03  0.00000000000E+00 0. -1.
          1    1    1    2  502    0  0.31802202199E+02 -0.15325203306E+01  0.24934680793E+03  0.25137135738E+03  0.00000000000E+00 0. -1.
         22    1    3    3    0    0  0.42590871568E+01 -0.87612942040E+01  0.49315790434E+02  0.50268750588E+02  0.00000000000E+00 0.  1.
         22    1    3    3    0    0 -0.92453428429E+02  0.17045864505E+02 -0.42307175577E+02  0.10309265265E+03  0.00000000000E+00 0.  1.
</event>
<event>
 7    1  0.6444902E-006  0.5737182E+02  0.7818608E-02  0.1444814E+00
          2   -1    0    0  502    0  0.00000000000E+00  0.00000000000E+00  0.10894627693E+04  0.10894627693E+04  0.00000000000E+00 0. -1.
          1   -1    0    0  501    0 -0.00000000000E+00 -0.00000000000E+00 -0.47945778906E+03  0.47945778906E+03  0.00000000000E+00 0. -1.
         25    2    1    2    0    0 -0.55105812202E+02  0.79218253434E+01  0.18787554488E+03  0.23242426058E+03  0.12499764272E+03 0.  0.
          2    1    1    2  501    0  0.86625928327E+01 -0.42879905433E+02 -0.45517289664E+03  0.45727026215E+03  0.00000000000E+00 0. -1.
          1    1    1    2  502    0  0.46443219369E+02  0.34958080090E+02  0.87730233196E+03  0.87922603559E+03  0.00000000000E+00 0. -1.
         22    1    3    3    0    0  0.11878941856E+01  0.55676464993E+02  0.44974130275E+02  0.71581787074E+02  0.00000000000E+00 0. -1.
         22    1    3    3    0    0 -0.56293706387E+02 -0.47754639650E+02  0.14290141461E+03  0.16084247350E+03  0.00000000000E+00 0. -1.
</event>
<event>
 7    1  0.6444902E-006  0.1181403E+03  0.7818608E-02  0.1360395E+00
          2   -1    0    0  502    0  0.00000000000E+00  0.00000000000E+00  0.46758535450E+03  0.46758535450E+03  0.00000000000E+00 0. -1.
          1   -1    0    0  501    0 -0.00000000000E+00 -0.00000000000E+00 -0.60537981052E+03  0.60537981052E+03  0.00000000000E+00 0. -1.
         25    2    1    2    0    0 -0.30190761911E+02 -0.11944218549E+03  0.19866623576E+03  0.26508743176E+03  0.12500062186E+03 0.  0.
          2    1    1    2  501    0 -0.35461047276E+02  0.21308890999E+02 -0.55656762425E+03  0.55810310434E+03  0.00000000000E+00 0. -1.
          1    1    1    2  502    0  0.65651809186E+02  0.98133294486E+02  0.22010693247E+03  0.24977462893E+03  0.00000000000E+00 0. -1.
         22    1    3    3    0    0 -0.42527304938E+02 -0.12629084212E+03  0.10310244501E+03  0.16848757413E+03  0.00000000000E+00 0. -1.
         22    1    3    3    0    0  0.12336543027E+02  0.68486566339E+01  0.95563790748E+02  0.96599857628E+02  0.00000000000E+00 0. -1.
</event>
<event>
 7    1  0.6444902E-006  0.1031356E+03  0.7818608E-02  0.1454116E+00
          2   -1    0    0  502    0  0.00000000000E+00  0.00000000000E+00  0.57576181808E+03  0.57576181808E+03  0.00000000000E+00 0. -1.
          1   -1    0    0  501    0 -0.00000000000E+00 -0.00000000000E+00 -0.76284337457E+02  0.76284337457E+02  0.00000000000E+00 0. -1.
         25    2    1    2    0    0 -0.53781801274E+02 -0.80387717431E+02  0.37463328585E+03  0.40660797991E+03  0.12500113279E+03 0.  0.
          2    1    1    2  501    0 -0.22718396259E+02  0.40244266990E+00 -0.40518043302E+02  0.46454271297E+02  0.00000000000E+00 0. -1.
          1    1    1    2  502    0  0.76500197533E+02  0.79985274761E+02  0.16536223808E+03  0.19898390433E+03  0.00000000000E+00 0. -1.
         22    1    3    3    0    0 -0.61897862951E+02 -0.10485158171E+03  0.35143845870E+03  0.37193304489E+03  0.00000000000E+00 0. -1.
         22    1    3    3    0    0  0.81160616765E+01  0.24463864276E+02  0.23194827147E+02  0.34674935022E+02  0.00000000000E+00 0. -1.
</event>
<event>
 7    1  0.7048096E-006  0.1061541E+03  0.7818608E-02  0.1300736E+00
          2   -1    0    0  502    0  0.00000000000E+00  0.00000000000E+00  0.11976289090E+04  0.11976289090E+04  0.00000000000E+00 0. -1.
          1   -1    0    0  501    0 -0.00000000000E+00 -0.00000000000E+00 -0.14183546600E+04  0.14183546600E+04  0.00000000000E+00 0. -1.
         25    2    1    2    0    0  0.10957678696E+03  0.56518242596E+02 -0.16830871875E+03  0.24321767625E+03  0.12500251696E+03 0.  0.
          2    1    1    2  501    0 -0.54232302545E+01 -0.77613379076E+02 -0.12089048628E+04  0.12114058838E+04  0.00000000000E+00 0. -1.
          1    1    1    2  502    0 -0.10415355671E+03  0.21095136480E+02  0.11564878305E+04  0.11613600089E+04  0.00000000000E+00 0. -1.
         22    1    3    3    0    0  0.90565300943E+02  0.27548395689E+02 -0.28033713722E+02  0.98726272820E+02  0.00000000000E+00 0. -1.
         22    1    3    3    0    0  0.19011486021E+02  0.28969846907E+02 -0.14027500503E+03  0.14449140343E+03  0.00000000000E+00 0. -1.
</event>
<event>
 7    1  0.6444902E-006  0.1097112E+03  0.7818608E-02  0.1415550E+00
          2   -1    0    0  502    0  0.00000000000E+00  0.00000000000E+00  0.35538144055E+03  0.35538144055E+03  0.00000000000E+00 0. -1.
          1   -1    0    0  501    0 -0.00000000000E+00 -0.00000000000E+00 -0.92563403239E+03  0.92563403239E+03  0.00000000000E+00 0. -1.
         25    2    1    2    0    0 -0.68658206051E+02  0.49704473009E+02  0.58980560654E+01  0.15114331613E+03  0.12500012420E+03 0.  0.
          2    1    1    2  501    0  0.81456808549E+02 -0.75233007246E+02 -0.84865866413E+03  0.85587192105E+03  0.00000000000E+00 0. -1.
          1    1    1    2  502    0 -0.12798602498E+02  0.25528534236E+02  0.27250801623E+03  0.27400023576E+03  0.00000000000E+00 0. -1.
         22    1    3    3    0    0  0.25639905355E+02  0.50471453340E+02  0.50844206375E+01  0.56838575651E+02  0.00000000000E+00 0.  1.
         22    1    3    3    0    0 -0.94298111406E+02 -0.76698033048E+00  0.81363542790E+00  0.94304740476E+02  0.00000000000E+00 0.  1.
</event>
<event>
 7    1  0.6444902E-006  0.5652514E+02  0.7818608E-02  0.1443429E+00
          2   -1    0    0  502    0  0.00000000000E+00  0.00000000000E+00  0.12959759036E+04  0.12959759036E+04  0.00000000000E+00 0. -1.
          1   -1    0    0  501    0 -0.00000000000E+00 -0.00000000000E+00 -0.47231449331E+02  0.47231449331E+02  0.00000000000E+00 0. -1.
         25    2    1    2    0    0 -0.87969499419E+02 -0.22173789213E+02  0.25064191408E+03  0.29440925494E+03  0.12500052219E+03 0.  0.
          2    1    1    2  501    0  0.43887393731E+02  0.30494960810E+02  0.39001446163E+01  0.53584112303E+02  0.00000000000E+00 0. -1.
          1    1    1    2  502    0  0.44082105688E+02 -0.83211715967E+01  0.99420239554E+03  0.99521398565E+03  0.00000000000E+00 0. -1.
         22    1    3    3    0    0  0.23327573036E+02 -0.39418447660E+01  0.50951437598E+01  0.24200708540E+02  0.00000000000E+00 0.  1.
         22    1    3    3    0    0 -0.11129707245E+03 -0.18231944447E+02  0.24554677032E+03  0.27020854641E+03  0.00000000000E+00 0.  1.
</event>
<event>
 7    1  0.6444902E-006  0.8288444E+02  0.7818608E-02  0.1368101E+00
          2   -1    0    0  502    0  0.00000000000E+00  0.00000000000E+00  0.10236130605E+03  0.10236130605E+03  0.00000000000E+00 0. -1.
          1   -1    0    0  501    0 -0.00000000000E+00 -0.00000000000E+00 -0.27126432300E+04  0.27126432300E+04  0.00000000000E+00 0. -1.
         25    2    1    2    0    0  0.22581029477E+02  0.48707846682E+02 -0.74434700220E+03  0.75667754014E+03  0.12500433133E+03 0.  0.
          2    1    1    2  501    0 -0.77668259284E+02 -0.43929849481E+02 -0.19530814283E+04  0.19551187319E+04  0.00000000000E+00 0. -1.
          1    1    1    2  502    0  0.55087229807E+02 -0.47779972015E+01  0.87146506590E+02  0.10320826399E+03  0.00000000000E+00 0. -1.
         22    1    3    3    0    0  0.50399791478E+02 -0.20008388168E+02 -0.44480627104E+03  0.44809942350E+03  0.00000000000E+00 0.  1.
         22    1    3    3    0    0 -0.27818762000E+02  0.68716234850E+02 -0.29954073116E+03  0.30857811665E+03  0.00000000000E+00 0.  1.
</event>
<event>
 7    1  0.6444902E-006  0.1256000E+03  0.7818608E-02  0.1437244E+00
          2   -1    0    0  502    0  0.00000000000E+00  0.00000000000E+00  0.70773851284E+03  0.70773851284E+03  0.00000000000E+00 0. -1.
          1   -1    0    0  501    0 -0.00000000000E+00 -0.00000000000E+00 -0.15083759905E+03  0.15083759905E+03  0.00000000000E+00 0. -1.
         25    2    1    2    0    0 -0.12458550053E+03 -0.41052529366E+02  0.27143813788E+03  0.32635984454E+03  0.12500091330E+03 0.  0.
          2    1    1    2  501    0  0.14213034392E+02 -0.15653947458E+02 -0.11295769102E+03  0.11491952131E+03  0.00000000000E+00 0. -1.
          1    1    1    2  502    0  0.11037246614E+03  0.56706476824E+02  0.39842046692E+03  0.41729674604E+03  0.00000000000E+00 0. -1.
         22    1    3    3    0    0 -0.71490347813E+02 -0.78473700604E+01  0.25004608645E+03  0.26018358210E+03  0.00000000000E+00 0. -1.
         22    1    3    3    0    0 -0.53095152715E+02 -0.33205159306E+02  0.21392051429E+02  0.66176262441E+02  0.00000000000E+00 0. -1.
</event>
<event>
 7    1  0.6444902E-006  0.4743299E+02  0.7818608E-02  0.1567586E+00
          2   -1    0    0  502    0  0.00000000000E+00  0.00000000000E+00  0.13098169614E+04  0.13098169614E+04  0.00000000000E+00 0. -1.
          1   -1    0    0  501    0 -0.00000000000E+00 -0.00000000000E+00 -0.82550671182E+03  0.82550671182E+03  0.00000000000E+00 0. -1.
         25    2    1    2    0    0  0.32470316497E+02 -0.51561836518E+02 -0.24932753510E+02  0.14126240000E+03  0.12498191476E+03 0.  0.
          2    1    1    2  501    0 -0.22270298341E+02  0.52934359294E+01 -0.74178414865E+03  0.74213725809E+03  0.00000000000E+00 0. -1.
          1    1    1    2  502    0 -0.10200018156E+02  0.46268400589E+02  0.12510271517E+04  0.12519240151E+04  0.00000000000E+00 0. -1.
         22    1    3    3    0    0  0.78327965959E+02 -0.16200357900E+02 -0.54762454088E+01  0.80173007372E+02  0.00000000000E+00 0.  1.
         22    1    3    3    0    0 -0.45857649462E+02 -0.35361478619E+02 -0.19456508101E+02  0.61089392629E+02  0.00000000000E+00 0.  1.
</event>
<event>
 7    1  0.6444902E-006  0.6848550E+02  0.7818608E-02  0.1386843E+00
          2   -1    0    0  502    0  0.00000000000E+00  0.00000000000E+00  0.99335008798E+03  0.99335008798E+03  0.00000000000E+00 0. -1.
          1   -1    0    0  501    0 -0.00000000000E+00 -0.00000000000E+00 -0.46368338480E+02  0.46368338480E+02  0.00000000000E+00 0. -1.
         25    2    1    2    0    0  0.91812574498E+02  0.16312047061E+02  0.36112724885E+03  0.39337280573E+03  0.12503456606E+03 0.  0.
          2    1    1    2  501    0 -0.46447390147E+02  0.33727371105E+02  0.80149560371E+00  0.57406776676E+02  0.00000000000E+00 0. -1.
          1    1    1    2  502    0 -0.45365184351E+02 -0.50039418166E+02  0.58505300504E+03  0.58893884405E+03  0.00000000000E+00 0. -1.
         22    1    3    3    0    0 -0.58460596054E+01  0.48904512799E+02  0.16026643931E+03  0.16766382840E+03  0.00000000000E+00 0. -1.
         22    1    3    3    0    0  0.97658634104E+02 -0.32592465738E+02  0.20086080954E+03  0.22570897733E+03  0.00000000000E+00 0. -1.
</event>
<event>
 7    1  0.6444902E-006  0.1362126E+03  0.7818608E-02  0.1271808E+00
          2   -1    0    0  502    0  0.00000000000E+00  0.00000000000E+00  0.39329075851E+03  0.39329075851E+03  0.00000000000E+00 0. -1.
          1   -1    0    0  501    0 -0.00000000000E+00 -0.00000000000E+00 -0.29384779456E+04  0.29384779456E+04  0.00000000000E+00 0. -1.
         25    2    1    2    0    0  0.14034878362E+03  0.10200631429E+03 -0.21811585452E+03  0.30545546004E+03  0.12500177141E+03 0.  0.
          2    1    1    2  501    0 -0.13351388096E+03 -0.22668864007E+02 -0.26704197838E+04  0.26738514648E+04  0.00000000000E+00 0. -1.
          1    1    1    2  502    0 -0.68349026576E+01 -0.79337450285E+02  0.34334845124E+03  0.35246177932E+03  0.00000000000E+00 0. -1.
         22    1    3    3    0    0  0.10035845239E+03  0.13016621449E+03 -0.15840516567E+03  0.22827014450E+03  0.00000000000E+00 0.  1.
         22    1    3    3    0    0  0.39990331232E+02 -0.28159900198E+02 -0.59710688852E+02  0.77185315535E+02  0.00000000000E+00 0.  1.
</event>
<event>
 7    1  0.6444902E-006  0.9301037E+02  0.7818608E-02  0.1356358E+00
          2   -1    0    0  502    0  0.00000000000E+00  0.00000000000E+00  0.85689307957E+03  0.85689307957E+03  0.00000000000E+00 0. -1.
          1   -1    0    0  501    0 -0.00000000000E+00 -0.00000000000E+00 -0.82383033813E+02  0.82383033813E+02  0.00000000000E+00 0. -1.
         25    2    1    2    0    0 -0.12083092843E+03 -0.54340149836E+02  0.23492098497E+03  0.29726428456E+03  0.12500088219E+03 0.  0.
          2    1    1    2  501    0  0.54143666260E+02 -0.49160191682E+01 -0.32279264996E+02  0.63227009966E+02  0.00000000000E+00 0. -1.
          1    1    1    2  502    0  0.66687262171E+02  0.59256169004E+02  0.57186832578E+03  0.57878481885E+03  0.00000000000E+00 0. -1.
         22    1    3    3    0    0 -0.10217114765E+03 -0.39086452333E+02  0.68417980790E+02  0.12902602165E+03  0.00000000000E+00 0.  1.
         22    1    3    3    0    0 -0.18659780781E+02 -0.15253697503E+02  0.16650300418E+03  0.16823826291E+03  0.00000000000E+00 0.  1.
</event>
<event>
 7    1  0.6444902E-006  0.8491911E+02  0.7818608E-02  0.1432385E+00
          2   -1    0    0  502    0  0.00000000000E+00  0.00000000000E+00  0.29591325765E+02  0.29591325765E+02  0.00000000000E+00 0. -1.
          1   -1    0    0  501    0 -0.00000000000E+00 -0.00000000000E+00 -0.15245567268E+04  0.15245567268E+04  0.00000000000E+00 0. -1.
         25    2    1    2    0    0  0.30021009101E+02 -0.63135369514E+02 -0.88332367645E+03  0.89485933227E+03  0.12500068525E+03 0.  0.
          2    1    1    2  501    0 -0.22666493867E+02 -0.23204388146E+02 -0.55459757813E+03  0.55554539621E+03  0.00000000000E+00 0. -1.
          1    1    1    2  502    0 -0.73545152336E+01  0.86339757660E+02 -0.57044146445E+02  0.10374332408E+03  0.00000000000E+00 0. -1.
         22    1    3    3    0    0  0.49405257724E+02 -0.52670508315E+02 -0.22795099299E+03  0.23911653464E+03  0.00000000000E+00 0. -1.
         22    1    3    3    0    0 -0.19384248623E+02 -0.10464861200E+02 -0.65537268346E+03  0.65574279763E+03  0.00000000000E+00 0. -1.
</event>
<event>
 7    1  0.6444902E-006  0.4161227E+02  0.7818608E-02  0.1539283E+00
          2   -1    0    0  502    0  0.00000000000E+00  0.00000000000E+00  0.94436265196E+02  0.94436265196E+02  0.00000000000E+00 0. -1.
          1   -1    0    0  501    0 -0.00000000000E+00 -0.00000000000E+00 -0.51697232451E+03  0.51697232451E+03  0.00000000000E+00 0. -1.
         25    2    1    2    0    0 -0.45906121519E+00  0.51802442654E+02 -0.25616700051E+03  0.28970744003E+03  0.12500065942E+03 0.  0.
          2    1    1    2  501    0 -0.24768878061E+02 -0.33327978059E+02 -0.23902352279E+03  0.24260357765E+03  0.00000000000E+00 0. -1.
          1    1    1    2  502    0  0.25227939276E+02 -0.18474464596E+02  0.72654463991E+02  0.79097572024E+02  0.00000000000E+00 0. -1.
         22    1    3    3    0    0 -0.60587355542E+02  0.39306780267E+02 -0.11552867558E+03  0.13624509352E+03  0.00000000000E+00 0. -1.
         22    1    3    3    0    0  0.60128294326E+02  0.12495662387E+02 -0.14063832493E+03  0.15346234651E+03  0.00000000000E+00 0. -1.
</event>
<event>
 7    1  0.6444902E-006  0.7840015E+02  0.7818608E-02  0.1367715E+00
          2   -1    0    0  502    0  0.00000000000E+00  0.00000000000E+00  0.18429365209E+04  0.18429365209E+04  0.00000000000E+00 0. -1.
          1   -1    0    0  501    0 -0.00000000000E+00 -0.00000000000E+00 -0.37654340499E+02  0.37654340499E+02  0.00000000000E+00 0. -1.
         25    2    1    2    0    0  0.67427017304E+02 -0.76820534777E+02  0.11676768478E+04  0.11787883122E+04  0.12499946783E+03 0.  0.
          2    1    1    2  501    0 -0.58538939848E+02  0.35178050031E+01 -0.12857419028E+01  0.58658635876E+02  0.00000000000E+00 0. -1.
          1    1    1    2  502    0 -0.88880774562E+01  0.73302729773E+02  0.63889107453E+03  0.64314391331E+03  0.00000000000E+00 0. -1.
         22    1    3    3    0    0 -0.35916110118E+02 -0.77508001950E+01  0.23207399341E+03  0.23496463625E+03  0.00000000000E+00 0.  1.
         22    1    3    3    0    0  0.10334312742E+03 -0.69069734582E+02  0.93560285437E+03  0.94382367597E+03  0.00000000000E+00 0.  1.
</event>
<event>
 7    1  0.6444902E-006  0.2155178E+03  0.7818608E-02  0.1272945E+00
          2   -1    0    0  502    0  0.00000000000E+00  0.00000000000E+00  0.98659615955E+03  0.98659615955E+03  0.00000000000E+00 0. -1.
          1   -1    0    0  501    0 -0.00000000000E+00 -0.00000000000E+00 -0.15883333325E+04  0.15883333325E+04  0.00000000000E+00 0. -1.
         25    2    1    2    0    0  0.14349331104E+03  0.20795899271E+03 -0.17407375369E+03  0.33130520956E+03  0.12499678875E+03 0.  0.
          2    1    1    2  501    0 -0.14065536350E+03 -0.15825955733E+03 -0.13265597592E+04  0.13433505921E+04  0.00000000000E+00 0. -1.
          1    1    1    2  502    0 -0.28379475380E+01 -0.49699435381E+02  0.89889633985E+03  0.90027369040E+03  0.00000000000E+00 0. -1.
         22    1    3    3    0    0  0.78728781559E+02  0.14346960446E+03 -0.39031327052E+02  0.16824147212E+03  0.00000000000E+00 0. -1.
         22    1    3    3    0    0  0.64764529482E+02  0.64489388245E+02 -0.13504242664E+03  0.16306373744E+03  0.00000000000E+00 0. -1.
</event>
<event>
 7    1  0.6444902E-006  0.2166149E+03  0.7818608E-02  0.1324971E+00
          2   -1    0    0  502    0  0.00000000000E+00  0.00000000000E+00  0.22811794152E+04  0.22811794152E+04  0.00000000000E+00 0. -1.
          1   -1    0    0  501    0 -0.00000000000E+00 -0.00000000000E+00 -0.12907927900E+04  0.12907927900E+04  0.00000000000E+00 0. -1.
         25    2    1    2    0    0 -0.63411321224E+02 -0.23382735424E+03  0.12490568214E+04  0.12784604373E+04  0.12498767767E+03 0.  0.
          2    1    1    2  501    0  0.71495666492E+02  0.20428317872E+03 -0.12666795745E+04  0.12850371169E+04  0.00000000000E+00 0. -1.
          1    1    1    2  502    0 -0.80843452680E+01  0.29544175520E+02  0.10080093783E+04  0.10084746510E+04  0.00000000000E+00 0. -1.
         22    1    3    3    0    0 -0.43634233950E+02 -0.23621099156E+03  0.12187295272E+04  0.12421760099E+04  0.00000000000E+00 0.  1.
         22    1    3    3    0    0 -0.19777087275E+02  0.23836373164E+01  0.30327294128E+02  0.36284427473E+02  0.00000000000E+00 0.  1.
</event>
<event>
 7    1  0.6444902E-006  0.7893767E+02  0.7818608E-02  0.1470239E+00
          2   -1    0    0  502    0  0.00000000000E+00  0.00000000000E+00  0.19107564072E+04  0.19107564072E+04  0.00000000000E+00 0. -1.
          1   -1    0    0  501    0 -0.00000000000E+00 -0.00000000000E+00 -0.24866865547E+04  0.24866865547E+04  0.00000000000E+00 0. -1.
         25    2    1    2    0    0 -0.49267694218E+02  0.27119877570E+02  0.95114691605E+03  0.96097210279E+03  0.12499653186E+03 0.  0.
          2    1    1    2  501    0  0.75415670248E+02 -0.23368916791E+02 -0.24809631293E+04  0.24822191036E+04  0.00000000000E+00 0. -1.
          1    1    1    2  502    0 -0.26147976030E+02 -0.37509607792E+01  0.95388606571E+03  0.95425175541E+03  0.00000000000E+00 0. -1.
         22    1    3    3    0    0 -0.82308556574E+01 -0.36997081995E+02  0.62128989526E+03  0.62244490922E+03  0.00000000000E+00 0. -1.
         22    1    3    3    0    0 -0.41036838561E+02  0.64116959565E+02  0.32985702080E+03  0.33852719358E+03  0.00000000000E+00 0. -1.
</event>
<event>
 7    1  0.6444902E-006  0.1236351E+03  0.7818608E-02  0.1299238E+00
          2   -1    0    0  502    0  0.00000000000E+00  0.00000000000E+00  0.10136389331E+04  0.10136389331E+04  0.00000000000E+00 0. -1.
          1   -1    0    0  501    0 -0.00000000000E+00 -0.00000000000E+00 -0.95028130019E+03  0.95028130019E+03  0.00000000000E+00 0. -1.
         25    2    1    2    0    0  0.14588946197E+03 -0.72762811279E+02  0.18313132292E+03  0.27520907338E+03  0.12499916327E+03 0.  0.
          2    1    1    2  501    0 -0.81135003846E+02  0.92619612943E+02 -0.89857407042E+03  0.90697113603E+03  0.00000000000E+00 0. -1.
          1    1    1    2  502    0 -0.64754458125E+02 -0.19856801664E+02  0.77880038038E+03  0.78174002385E+03  0.00000000000E+00 0. -1.
         22    1    3    3    0    0  0.12208498884E+03 -0.44461761044E+01  0.69641327934E+02  0.14062157565E+03  0.00000000000E+00 0. -1.
         22    1    3    3    0    0  0.23804473126E+02 -0.68316635174E+02  0.11348999498E+03  0.13458749773E+03  0.00000000000E+00 0. -1.
</event>
<event>
 7    1  0.6444902E-006  0.6281479E+02  0.7818608E-02  0.1515151E+00
          2   -1    0    0  502    0  0.00000000000E+00  0.00000000000E+00  0.15767457821E+04  0.15767457821E+04  0.00000000000E+00 0. -1.
          1   -1    0    0  501    0 -0.00000000000E+00 -0.00000000000E+00 -0.31421197324E+03  0.31421197324E+03  0.00000000000E+00 0. -1.
         25    2    1    2    0    0 -0.68005210647E+02 -0.51716818717E+02  0.22929006418E+03  0.27477181783E+03  0.12500512120E+03 0.  0.
          2    1    1    2  501    0  0.53645824442E+02  0.32108429834E+02 -0.28800538415E+03  0.29471329635E+03  0.00000000000E+00 0. -1.
          1    1    1    2  502    0  0.14359386206E+02  0.19608388883E+02  0.13212491288E+04  0.13214726412E+04  0.00000000000E+00 0. -1.
         22    1    3    3    0    0 -0.90123047355E+02 -0.32375473800E+02  0.22569559059E+03  0.24517103128E+03  0.00000000000E+00 0.  1.
         22    1    3    3    0    0  0.22117836707E+02 -0.19341344917E+02  0.35944735965E+01  0.29600786548E+02  0.00000000000E+00 0.  1.
</event>
<event>
 7    1  0.6444902E-006  0.2358648E+03  0.7818608E-02  0.1237624E+00
          2   -1    0    0  502    0  0.00000000000E+00  0.00000000000E+00  0.10042730087E+04  0.10042730087E+04  0.00000000000E+00 0. -1.
          1   -1    0    0  501    0 -0.00000000000E+00 -0.00000000000E+00 -0.29147557020E+03  0.29147557020E+03  0.00000000000E+00 0. -1.
         25    2    1    2    0    0  0.97395548421E+02 -0.16941742541E+03  0.47316235002E+02  0.23674794857E+03  0.12499043232E+03 0.  0.
          2    1    1    2  501    0 -0.19255246219E+02 -0.61599753749E+02 -0.17359404956E+03  0.18520309990E+03  0.00000000000E+00 0. -1.
          1    1    1    2  502    0 -0.78140302202E+02  0.23101717916E+03  0.83907525301E+03  0.87379753039E+03  0.00000000000E+00 0. -1.
         22    1    3    3    0    0 -0.29390148118E+02 -0.39397331569E+02  0.20157361562E+02  0.53124850742E+02  0.00000000000E+00 0.  1.
         22    1    3    3    0    0  0.12678569654E+03 -0.13002009384E+03  0.27158873440E+02  0.18362309783E+03  0.00000000000E+00 0.  1.
</event>
<event>
 7    1  0.6444902E-006  0.6003071E+02  0.7818608E-02  0.1457378E+00
          2   -1    0    0  502    0  0.00000000000E+00  0.00000000000E+00  0.11661931947E+04  0.11661931947E+04  0.00000000000E+00 0. -1.
          1   -1    0    0  501    0 -0.00000000000E+00 -0.00000000000E+00 -0.25579623690E+03  0.25579623690E+03  0.00000000000E+00 0. -1.
         25    2    1    2    0    0 -0.16836403841E+01  0.86392446214E+02 -0.13590518737E+03  0.20386451544E+03  0.12499612512E+03 0.  0.
          2    1    1    2  501    0  0.16803630565E+02 -0.51401600685E+02 -0.77045794592E+02  0.94130446814E+02  0.00000000000E+00 0. -1.
          1    1    1    2  502    0 -0.15119990180E+02 -0.34990845529E+02  0.11233479397E+04  0.11239944693E+04  0.00000000000E+00 0. -1.
         22    1    3    3    0    0  0.26026602667E+02 -0.20963109934E+02 -0.62558709381E+02  0.70925511235E+02  0.00000000000E+00 0. -1.
         22    1    3    3    0    0 -0.27710243051E+02  0.10735555615E+03 -0.73346477988E+02  0.13293900421E+03  0.00000000000E+00 0. -1.
</event>
<event>
 7    1  0.6444902E-006  0.1223746E+03  0.7818608E-02  0.1402170E+00
          2   -1    0    0  502    0  0.00000000000E+00  0.00000000000E+00  0.25340298827E+04  0.25340298827E+04  0.00000000000E+00 0. -1.
          1   -1    0    0  501    0 -0.00000000000E+00 -0.00000000000E+00 -0.80261610287E+03  0.80261610287E+03  0.00000000000E+00 0. -1.
         25    2    1    2    0    0  0.55480496465E+02 -0.13518580011E+03  0.20033241314E+03  0.27770519963E+03  0.12503525946E+03 0.  0.
          2    1    1    2  501    0  0.21980057562E+01  0.28339361006E+02 -0.76205858064E+03  0.76258850696E+03  0.00000000000E+00 0. -1.
          1    1    1    2  502    0 -0.57678502221E+02  0.10684643910E+03  0.22931399473E+04  0.22963522790E+04  0.00000000000E+00 0. -1.
         22    1    3    3    0    0 -0.86146414292E+01  0.15648978503E+02 -0.12505777503E+01  0.17907163925E+02  0.00000000000E+00 0. -1.
         22    1    3    3    0    0  0.64095137894E+02 -0.15083477861E+03  0.20158299089E+03  0.25979803570E+03  0.00000000000E+00 0. -1.
</event>
<event>
 7    1  0.6444902E-006  0.6736453E+02  0.7818608E-02  0.1531931E+00
          2   -1    0    0  502    0  0.00000000000E+00  0.00000000000E+00  0.15949884005E+04  0.15949884005E+04  0.00000000000E+00 0. -1.
          1   -1    0    0  501    0 -0.00000000000E+00 -0.00000000000E+00 -0.28023840161E+02  0.28023840161E+02  0.00000000000E+00 0. -1.
         25    2    1    2    0    0  0.44353174426E+02  0.24142077982E+02  0.65630139011E+03  0.67000475159E+03  0.12499923390E+03 0.  0.
          2    1    1    2  501    0  0.18716227613E+02  0.77778122425E+01 -0.14643682612E+02  0.25004579176E+02  0.00000000000E+00 0. -1.
          1    1    1    2  502    0 -0.63069402039E+02 -0.31919890224E+02  0.92530685280E+03  0.92800290986E+03  0.00000000000E+00 0. -1.
         22    1    3    3    0    0  0.47032354875E+02 -0.16237913453E+02  0.94955042820E+02  0.10720155034E+03  0.00000000000E+00 0. -1.
         22    1    3    3    0    0 -0.26791804496E+01  0.40379991434E+02  0.56134634730E+03  0.56280320125E+03  0.00000000000E+00 0. -1.
</event>
<event>
 7    1  0.6444902E-006  0.9716757E+02  0.7818608E-02  0.1416308E+00
          2   -1    0    0  502    0  0.00000000000E+00  0.00000000000E+00  0.25921092671E+04  0.25921092671E+04  0.00000000000E+00 0. -1.
          1   -1    0    0  501    0 -0.00000000000E+00 -0.00000000000E+00 -0.31567004144E+02  0.31567004144E+02  0.00000000000E+00 0. -1.
         25    2    1    2    0    0  0.82168619909E+02  0.72258630007E+02  0.12001960787E+04  0.12116390512E+04  0.12500228555E+03 0.  0.
          2    1    1    2  501    0 -0.87574708123E+02 -0.40662626198E+02  0.65228005379E+02  0.11652240711E+03  0.00000000000E+00 0. -1.
          1    1    1    2  502    0  0.54060882145E+01 -0.31596003809E+02  0.12951181788E+04  0.12955148129E+04  0.00000000000E+00 0. -1.
         22    1    3    3    0    0  0.77936790874E+02  0.79327406081E+02  0.11979486723E+04  0.12030993318E+04  0.00000000000E+00 0. -1.
         22    1    3    3    0    0  0.42318290347E+01 -0.70687760746E+01  0.22474064106E+01  0.85397194185E+01  0.00000000000E+00 0. -1.
</event>
<event>
 7    1  0.6444902E-006  0.2539892E+02  0.7818608E-02  0.1683167E+00
          2   -1    0    0  502    0  0.00000000000E+00  0.00000000000E+00  0.19832318441E+03  0.19832318441E+03  0.00000000000E+00 0. -1.
          1   -1    0    0  501    0 -0.00000000000E+00 -0.00000000000E+00 -0.30064856351E+03  0.30064856351E+03  0.00000000000E+00 0. -1.
         25    2    1    2    0    0 -0.31631492246E+02  0.15919774775E+02 -0.16674314374E+03  0.21140336781E+03  0.12503646431E+03 0.  0.
          2    1    1    2  501    0  0.67052687946E+01 -0.20728445801E+02 -0.10958193767E+03  0.11172658663E+03  0.00000000000E+00 0. -1.
          1    1    1    2  502    0  0.24926223451E+02  0.48086710264E+01  0.17399970231E+03  0.17584179348E+03  0.00000000000E+00 0. -1.
         22    1    3    3    0    0  0.30515915318E+02  0.13278596477E+02  0.16580620298E+00  0.33280169828E+02  0.00000000000E+00 0.  1.
         22    1    3    3    0    0 -0.62147407564E+02  0.26411782979E+01 -0.16690894994E+03  0.17812319798E+03  0.00000000000E+00 0.  1.
</event>
<event>
 7    1  0.6444902E-006  0.1990558E+03  0.7818608E-02  0.1183086E+00
          2   -1    0    0  502    0  0.00000000000E+00  0.00000000000E+00  0.90231252154E+03  0.90231252154E+03  0.00000000000E+00 0. -1.
          1   -1    0    0  501    0 -0.00000000000E+00 -0.00000000000E+00 -0.17533047235E+04  0.17533047235E+04  0.00000000000E+00 0. -1.
         25    2    1    2    0    0 -0.15559402666E+03  0.28267076134E+02 -0.36319046242E+03  0.41537887099E+03  0.12499506291E+03 0.  0.
          2    1    1    2  501    0  0.19801017761E+03  0.10188693225E+03 -0.13494922811E+04  0.13677420788E+04  0.00000000000E+00 0. -1.
          1    1    1    2  502    0 -0.42416150955E+02 -0.13015400838E+03  0.86169054157E+03  0.87249629523E+03  0.00000000000E+00 0. -1.
         22    1    3    3    0    0 -0.49318622586E+02  0.68568022059E+01 -0.26329264079E+03  0.26795961816E+03  0.00000000000E+00 0. -1.
         22    1    3    3    0    0 -0.10627540407E+03  0.21410273928E+02 -0.99897821631E+02  0.14741925284E+03  0.00000000000E+00 0. -1.
</event>
<event>
 7    1  0.6444902E-006  0.5160590E+02  0.7818608E-02  0.1462108E+00
          2   -1    0    0  502    0  0.00000000000E+00  0.00000000000E+00  0.18797735097E+03  0.18797735097E+03  0.00000000000E+00 0. -1.
          1   -1    0    0  501    0 -0.00000000000E+00 -0.00000000000E+00 -0.51568020717E+03  0.51568020717E+03  0.00000000000E+00 0. -1.
         25    2    1    2    0    0 -0.10546733600E+02 -0.71295341778E+02 -0.15408710161E+03  0.21109791063E+03  0.12500093457E+03 0.  0.
          2    1    1    2  501    0  0.34302803456E+02  0.25667147988E+02 -0.32750742007E+03  0.33029773692E+03  0.00000000000E+00 0. -1.
          1    1    1    2  502    0 -0.23756069856E+02  0.45628193790E+02  0.15389166548E+03  0.16226191059E+03  0.00000000000E+00 0. -1.
         22    1    3    3    0    0  0.12082052270E+02 -0.10292727976E+03 -0.96489544926E+02  0.14159884599E+03  0.00000000000E+00 0. -1.
         22    1    3    3    0    0 -0.22628785871E+02  0.31631937980E+02 -0.57597556683E+02  0.69499064643E+02  0.00000000000E+00 0. -1.
</event>
<event>
 7    1  0.6444902E-006  0.3264028E+02  0.7818608E-02  0.1616691E+00
          2   -1    0    0  502    0  0.00000000000E+00  0.00000000000E+00  0.10063559276E+03  0.10063559276E+03  0.00000000000E+00 0. -1.
          1   -1    0    0  501    0 -0.00000000000E+00 -0.00000000000E+00 -0.85544757932E+03  0.85544757932E+03  0.00000000000E+00 0. -1.
         25    2    1    2    0    0 -0.51981461782E+02  0.23014177159E+02 -0.16261461392E+03  0.21283872845E+03  0.12500034779E+03 0.  0.
          2    1    1    2  501    0  0.22912500953E+02 -0.91711057183E+01 -0.66404973373E+03  0.66450819464E+03  0.00000000000E+00 0. -1.
          1    1    1    2  502    0  0.29068960829E+02 -0.13843071441E+02  0.71852361089E+02  0.78736248987E+02  0.00000000000E+00 0. -1.
         22    1    3    3    0    0 -0.15239039981E+02  0.73395603291E+02 -0.89468573837E+02  0.11672090055E+03  0.00000000000E+00 0.  1.
         22    1    3    3    0    0 -0.36742421802E+02 -0.50381426132E+02 -0.73146040083E+02  0.96117827892E+02  0.00000000000E+00 0.  1.
</event>
<event>
 7    1  0.6444902E-006  0.4514961E+02  0.7818608E-02  0.1531522E+00
          2   -1    0    0  502    0  0.00000000000E+00  0.00000000000E+00  0.48194212575E+03  0.48194212575E+03  0.00000000000E+00 0. -1.
          1   -1    0    0  501    0 -0.00000000000E+00 -0.00000000000E+00 -0.86167289351E+03  0.86167289351E+03  0.00000000000E+00 0. -1.
         25    2    1    2    0    0  0.12971433802E+02 -0.17628287442E+02  0.29500142473E+03  0.32113993456E+03  0.12500400940E+03 0.  0.
          2    1    1    2  501    0  0.20605664405E+02 -0.22244655218E+02 -0.84441838294E+03  0.84496261665E+03  0.00000000000E+00 0. -1.
          1    1    1    2  502    0 -0.33577098207E+02  0.39872942660E+02  0.16968619045E+03  0.17751246804E+03  0.00000000000E+00 0. -1.
         22    1    3    3    0    0  0.15827847904E+02  0.49122074897E+02  0.73700985730E+02  0.89974075761E+02  0.00000000000E+00 0. -1.
         22    1    3    3    0    0 -0.28564141018E+01 -0.66750362338E+02  0.22130043900E+03  0.23116585880E+03  0.00000000000E+00 0. -1.
</event>
<event>
 7    1  0.6444902E-006  0.1489676E+03  0.7818608E-02  0.1233749E+00
          2   -1    0    0  502    0  0.00000000000E+00  0.00000000000E+00  0.20241916216E+04  0.20241916216E+04  0.00000000000E+00 0. -1.
          1   -1    0    0  501    0 -0.00000000000E+00 -0.00000000000E+00 -0.16842854030E+03  0.16842854030E+03  0.00000000000E+00 0. -1.
         25    2    1    2    0    0 -0.68092709951E+02  0.52710367878E+02  0.13056396419E+03  0.20021847450E+03  0.12500195501E+03 0.  0.
          2    1    1    2  501    0 -0.88647166016E+02 -0.58694610718E+02 -0.10855818169E+03  0.15194820230E+03  0.00000000000E+00 0. -1.
          1    1    1    2  502    0  0.15673987597E+03  0.59842428393E+01  0.18337572988E+04  0.18404534850E+04  0.00000000000E+00 0. -1.
         22    1    3    3    0    0 -0.19028515779E+02  0.67837457197E+02  0.13114444681E+03  0.14887199516E+03  0.00000000000E+00 0. -1.
         22    1    3    3    0    0 -0.49064194172E+02 -0.15127089318E+02 -0.58048262273E+00  0.51346479344E+02  0.00000000000E+00 0. -1.
</event>
<event>
 7    1  0.6444902E-006  0.1646134E+03  0.7818608E-02  0.1235617E+00
          2   -1    0    0  502    0  0.00000000000E+00  0.00000000000E+00  0.31839624739E+04  0.31839624739E+04  0.00000000000E+00 0. -1.
          1   -1    0    0  501    0 -0.00000000000E+00 -0.00000000000E+00 -0.14787235779E+04  0.14787235779E+04  0.00000000000E+00 0. -1.
         25    2    1    2    0    0 -0.92757931693E+02 -0.85856508773E+02  0.16449682687E+03  0.24219614853E+03  0.12499757725E+03 0.  0.
          2    1    1    2  501    0  0.36827553330E+02  0.16188940525E+03 -0.14343370497E+04  0.14439138549E+04  0.00000000000E+00 0. -1.
          1    1    1    2  502    0  0.55930378364E+02 -0.76032896473E+02  0.29750791188E+04  0.29765760483E+04  0.00000000000E+00 0. -1.
         22    1    3    3    0    0 -0.52930652608E+02  0.21582363003E+02  0.27011011964E+02  0.63222204530E+02  0.00000000000E+00 0.  1.
         22    1    3    3    0    0 -0.39827279085E+02 -0.10743887178E+03  0.13748581491E+03  0.17897394400E+03  0.00000000000E+00 0.  1.
</event>
<event>
 7    1  0.6444902E-006  0.9717968E+02  0.7818608E-02  0.1404764E+00
          2   -1    0    0  502    0  0.00000000000E+00  0.00000000000E+00  0.23284923393E+04  0.23284923393E+04  0.00000000000E+00 0. -1.
          1   -1    0    0  501    0 -0.00000000000E+00 -0.00000000000E+00 -0.18436569915E+03  0.18436569915E+03  0.00000000000E+00 0. -1.
         25    2    1    2    0    0 -0.86891047400E+02  0.70722529415E+02  0.12359373816E+04  0.12472842862E+04  0.12500059560E+03 0.  0.
          2    1    1    2  501    0  0.90229113123E+02 -0.35811809129E+02 -0.16520033755E+03  0.19161140377E+03  0.00000000000E+00 0. -1.
          1    1    1    2  502    0 -0.33380657235E+01 -0.34910720286E+02  0.10733895961E+04  0.10739623485E+04  0.00000000000E+00 0. -1.
         22    1    3    3    0    0  0.25695963994E+02  0.50018978050E+00  0.40540692080E+03  0.40622075795E+03  0.00000000000E+00 0. -1.
         22    1    3    3    0    0 -0.11258701139E+03  0.70222339634E+02  0.83053046084E+03  0.84106352822E+03  0.00000000000E+00 0. -1.
</event>
<event>
 7    1  0.6444902E-006  0.6413352E+02  0.7818608E-02  0.1482331E+00
          2   -1    0    0  502    0  0.00000000000E+00  0.00000000000E+00  0.11970115581E+04  0.11970115581E+04  0.00000000000E+00 0. -1.
          1   -1    0    0  501    0 -0.00000000000E+00 -0.00000000000E+00 -0.53287644806E+03  0.53287644806E+03  0.00000000000E+00 0. -1.
         25    2    1    2    0    0  0.76847094434E+02  0.33682938440E+02  0.14427593845E+03  0.20852017305E+03  0.12500039956E+03 0.  0.
          2    1    1    2  501    0 -0.63568382736E+02 -0.69620481545E+01 -0.49849329051E+03  0.50257832234E+03  0.00000000000E+00 0. -1.
          1    1    1    2  502    0 -0.13278711698E+02 -0.26720890285E+02  0.10183524622E+04  0.10187895108E+04  0.00000000000E+00 0. -1.
         22    1    3    3    0    0  0.54308166247E+02 -0.36580472124E+02  0.28917267803E+02  0.71580138580E+02  0.00000000000E+00 0. -1.
         22    1    3    3    0    0  0.22538928187E+02  0.70263410563E+02  0.11535867064E+03  0.13694003447E+03  0.00000000000E+00 0. -1.
</event>
<event>
 7    1  0.6444902E-006  0.6680618E+02  0.7818608E-02  0.1463249E+00
          2   -1    0    0  502    0  0.00000000000E+00  0.00000000000E+00  0.18130048503E+04  0.18130048503E+04  0.00000000000E+00 0. -1.
          1   -1    0    0  501    0 -0.00000000000E+00 -0.00000000000E+00 -0.85805420063E+02  0.85805420063E+02  0.00000000000E+00 0. -1.
         25    2    1    2    0    0  0.42429633326E+02  0.54143487312E+02  0.25976029293E+03  0.29636439890E+03  0.12499862457E+03 0.  0.
          2    1    1    2  501    0 -0.30611723263E+02  0.11842570649E+02 -0.62735776028E+02  0.70803260338E+02  0.00000000000E+00 0. -1.
          1    1    1    2  502    0 -0.11817910063E+02 -0.65986057961E+02  0.15301749133E+04  0.15316426111E+04  0.00000000000E+00 0. -1.
         22    1    3    3    0    0  0.68622540226E+02 -0.10037114824E+02  0.95051961795E+02  0.11766338488E+03  0.00000000000E+00 0.  1.
         22    1    3    3    0    0 -0.26192906900E+02  0.64180602136E+02  0.16470833114E+03  0.17870101401E+03  0.00000000000E+00 0.  1.
</event>
<event>
 7    1  0.6444902E-006  0.6493553E+02  0.7818608E-02  0.1424281E+00
          2   -1    0    0  502    0  0.00000000000E+00  0.00000000000E+00  0.83099539139E+03  0.83099539139E+03  0.00000000000E+00 0. -1.
          1   -1    0    0  501    0 -0.00000000000E+00 -0.00000000000E+00 -0.46273529574E+03  0.46273529574E+03  0.00000000000E+00 0. -1.
         25    2    1    2    0    0  0.72946347399E+02 -0.40158714474E+02 -0.19082434286E+03  0.24284331480E+03  0.12500021507E+03 0.  0.
          2    1    1    2  501    0 -0.30662096567E+02  0.55886823795E+02 -0.24112416492E+03  0.24940802743E+03  0.00000000000E+00 0. -1.
          1    1    1    2  502    0 -0.42284250832E+02 -0.15728109320E+02  0.80020860343E+03  0.80147934490E+03  0.00000000000E+00 0. -1.
         22    1    3    3    0    0  0.44352886323E+02  0.19834741914E+02 -0.92101859744E+01  0.49451218768E+02  0.00000000000E+00 0.  1.
         22    1    3    3    0    0  0.28593461075E+02 -0.59993456389E+02 -0.18161415689E+03  0.19339209603E+03  0.00000000000E+00 0.  1.
</event>
<event>
 7    1  0.6444902E-006  0.1095978E+03  0.7818608E-02  0.1325507E+00
          2   -1    0    0  502    0  0.00000000000E+00  0.00000000000E+00  0.61511024236E+03  0.61511024236E+03  0.00000000000E+00 0. -1.
          1   -1    0    0  501    0 -0.00000000000E+00 -0.00000000000E+00 -0.28984279672E+03  0.28984279672E+03  0.00000000000E+00 0. -1.
         25    2    1    2    0    0 -0.93693236136E+02 -0.15803991519E+01  0.30136445456E+03  0.33945003950E+03  0.12499949873E+03 0.  0.
          2    1    1    2  501    0  0.91829187448E+02  0.61803948829E+02 -0.25614921219E+03  0.27904255350E+03  0.00000000000E+00 0. -1.
          1    1    1    2  502    0  0.18640486879E+01 -0.60223549677E+02  0.28005220327E+03  0.28646044609E+03  0.00000000000E+00 0. -1.
         22    1    3    3    0    0  0.19175612523E+02  0.31425116781E+02  0.51594894441E+02  0.63381978612E+02  0.00000000000E+00 0. -1.
         22    1    3    3    0    0 -0.11286884866E+03 -0.33005515933E+02  0.24976956012E+03  0.27606806089E+03  0.00000000000E+00 0. -1.
</event>
<event>
 7    1  0.6444902E-006  0.1079929E+03  0.7818608E-02  0.1339631E+00
          2   -1    0    0  502    0  0.00000000000E+00  0.00000000000E+00  0.23330755358E+04  0.23330755358E+04  0.00000000000E+00 0. -1.
          1   -1    0    0  501    0 -0.00000000000E+00 -0.00000000000E+00 -0.40898392936E+03  0.40898392936E+03  0.00000000000E+00 0. -1.
         25    2    1    2    0    0 -0.55055445558E+02 -0.24452401717E+02  0.84199243547E+01  0.13901552392E+03  0.12500159491E+03 0.  0.
          2    1    1    2  501    0  0.10627805852E+03  0.41642196234E+02 -0.33387532819E+03  0.35284817274E+03  0.00000000000E+00 0. -1.
          1    1    1    2  502    0 -0.51222612958E+02 -0.17189794517E+02  0.22495470103E+04  0.22501957685E+04  0.00000000000E+00 0. -1.
         22    1    3    3    0    0 -0.59730112467E+02  0.35879527414E+02  0.28466563367E+02  0.75268665809E+02  0.00000000000E+00 0.  1.
         22    1    3    3    0    0  0.46746669087E+01 -0.60331929131E+02 -0.20046639012E+02  0.63746858111E+02  0.00000000000E+00 0.  1.
</event>
<event>
 7    1  0.6444902E-006  0.1328001E+03  0.7818608E-02  0.1412395E+00
          2   -1    0    0  502    0  0.00000000000E+00  0.00000000000E+00  0.36629379610E+04  0.36629379610E+04  0.00000000000E+00 0. -1.
          1   -1    0    0  501    0 -0.00000000000E+00 -0.00000000000E+00 -0.34450197868E+03  0.34450197868E+03  0.00000000000E+00 0. -1.
         25    2    1    2    0    0 -0.21827140052E+02  0.12962617950E+03  0.76398391991E+03  0.78522312156E+03  0.12499820117E+03 0.  0.
          2    1    1    2  501    0 -0.23773255296E+02 -0.43983275976E+01 -0.33190511491E+03  0.33278449221E+03  0.00000000000E+00 0. -1.
          1    1    1    2  502    0  0.45600395348E+02 -0.12522785190E+03  0.28863571774E+04  0.28894323260E+04  0.00000000000E+00 0. -1.
         22    1    3    3    0    0 -0.51800677246E+02  0.83409615820E+02  0.25471800834E+03  0.27298669921E+03  0.00000000000E+00 0.  1.
         22    1    3    3    0    0  0.29973537194E+02  0.46216563682E+02  0.50926591158E+03  0.51223642235E+03  0.00000000000E+00 0.  1.
</event>
<event>
 7    1  0.6444902E-006  0.8086526E+02  0.7818608E-02  0.1328367E+00
          2   -1    0    0  502    0  0.00000000000E+00  0.00000000000E+00  0.52980967267E+04  0.52980967267E+04  0.00000000000E+00 0. -1.
          1   -1    0    0  501    0 -0.00000000000E+00 -0.00000000000E+00 -0.32285726528E+02  0.32285726528E+02  0.00000000000E+00 0. -1.
         25    2    1    2    0    0  0.73526368026E+02 -0.94280733801E+02  0.80970889631E+03  0.82797939312E+03  0.12500558032E+03 0.  0.
          2    1    1    2  501    0 -0.78386713891E+02  0.13975971743E+02  0.46782118118E+02  0.92349181244E+02  0.00000000000E+00 0. -1.
          1    1    1    2  502    0  0.48603458651E+01  0.80304762058E+02  0.44093199858E+04  0.44100538789E+04  0.00000000000E+00 0. -1.
         22    1    3    3    0    0  0.55510720544E+02  0.18461510317E+02  0.25150783482E+03  0.25822172339E+03  0.00000000000E+00 0. -1.
         22    1    3    3    0    0  0.18015647483E+02 -0.11274224412E+03  0.55820106149E+03  0.56975766973E+03  0.00000000000E+00 0. -1.
</event>
<event>
 7    1  0.6444902E-006  0.2741953E+02  0.7818608E-02  0.1682978E+00
          2   -1    0    0  502    0  0.00000000000E+00  0.00000000000E+00  0.22619011801E+03  0.22619011801E+03  0.00000000000E+00 0. -1.
          1   -1    0    0  501    0 -0.00000000000E+00 -0.00000000000E+00 -0.69347594879E+03  0.69347594879E+03  0.00000000000E+00 0. -1.
         25    2    1    2    0    0  0.20279793258E+02  0.35822945082E+02 -0.14802361350E+03  0.19806880346E+03  0.12500282934E+03 0.  0.
          2    1    1    2  501    0 -0.20094605929E+01 -0.27204144485E+02 -0.51956389035E+03  0.52027948217E+03  0.00000000000E+00 0. -1.
          1    1    1    2  502    0 -0.18270332665E+02 -0.86188005975E+01  0.20030167307E+03  0.20131778117E+03  0.00000000000E+00 0. -1.
         22    1    3    3    0    0 -0.15828971569E+02  0.63075247319E+02 -0.29893604069E+02  0.71572835137E+02  0.00000000000E+00 0.  1.
         22    1    3    3    0    0  0.36108764827E+02 -0.27252302237E+02 -0.11813000943E+03  0.12649596832E+03  0.00000000000E+00 0.  1.
</event>
<event>
 7    1  0.6444902E-006  0.5535116E+02  0.7818608E-02  0.1430704E+00
          2   -1    0    0  502    0  0.00000000000E+00  0.00000000000E+00  0.59079870747E+02  0.59079870747E+02  0.00000000000E+00 0. -1.
          1   -1    0    0  501    0 -0.00000000000E+00 -0.00000000000E+00 -0.38438193166E+03  0.38438193166E+03  0.00000000000E+00 0. -1.
         25    2    1    2    0    0 -0.61265287923E+02  0.81951640928E+01 -0.20957710515E+03  0.25173033530E+03  0.12500000996E+03 0.  0.
          2    1    1    2  501    0  0.43627823194E+02  0.39020641715E+02 -0.12721624534E+03  0.14003560445E+03  0.00000000000E+00 0. -1.
          1    1    1    2  502    0  0.17637464729E+02 -0.47215805808E+02  0.11491289569E+02  0.51695862660E+02  0.00000000000E+00 0. -1.
         22    1    3    3    0    0 -0.46974822023E+02 -0.35841528371E+02 -0.29971514464E+02  0.66253609256E+02  0.00000000000E+00 0. -1.
         22    1    3    3    0    0 -0.14290465900E+02  0.44036692464E+02 -0.17960559069E+03  0.18547672605E+03  0.00000000000E+00 0. -1.
</event>
<event>
 7    1  0.6444902E-006  0.5009647E+02  0.7818608E-02  0.1447491E+00
          2   -1    0    0  502    0  0.00000000000E+00  0.00000000000E+00  0.45038421718E+03  0.45038421718E+03  0.00000000000E+00 0. -1.
          1   -1    0    0  501    0 -0.00000000000E+00 -0.00000000000E+00 -0.70740283808E+03  0.70740283808E+03  0.00000000000E+00 0. -1.
         25    2    1    2    0    0  0.17754792809E+02 -0.38426807682E+02  0.15471948006E+03  0.20335928854E+03  0.12500012204E+03 0.  0.
          2    1    1    2  501    0  0.35187001173E+02  0.34266858654E+02 -0.67958985150E+03  0.68136239177E+03  0.00000000000E+00 0. -1.
          1    1    1    2  502    0 -0.52941793983E+02  0.41599490281E+01  0.26785175055E+03  0.27306537495E+03  0.00000000000E+00 0. -1.
         22    1    3    3    0    0  0.29472722513E+02 -0.32038014699E+02 -0.43332285659E+01  0.43747601397E+02  0.00000000000E+00 0. -1.
         22    1    3    3    0    0 -0.11717929703E+02 -0.63887929833E+01  0.15905270862E+03  0.15961168714E+03  0.00000000000E+00 0. -1.
</event>
<event>
 7    1  0.6444902E-006  0.7219867E+02  0.7818608E-02  0.1383241E+00
          2   -1    0    0  502    0  0.00000000000E+00  0.00000000000E+00  0.61636558327E+03  0.61636558327E+03  0.00000000000E+00 0. -1.
          1   -1    0    0  501    0 -0.00000000000E+00 -0.00000000000E+00 -0.27082413508E+03  0.27082413508E+03  0.00000000000E+00 0. -1.
         25    2    1    2    0    0 -0.15710768407E+02 -0.26415641866E+02  0.47133297463E+03  0.48858057004E+03  0.12494633279E+03 0.  0.
          2    1    1    2  501    0 -0.19412771963E+02  0.70108213034E+02 -0.25105034438E+03  0.26137768203E+03  0.00000000000E+00 0. -1.
          1    1    1    2  502    0  0.35123540371E+02 -0.43692571168E+02  0.12525881794E+03  0.13723146627E+03  0.00000000000E+00 0. -1.
         22    1    3    3    0    0  0.15836984679E+02 -0.31403597379E+02  0.30388134755E+02  0.46480477042E+02  0.00000000000E+00 0. -1.
         22    1    3    3    0    0 -0.31547753087E+02  0.49879555138E+01  0.44094483987E+03  0.44210009300E+03  0.00000000000E+00 0. -1.
</event>
<event>
 7    1  0.6444902E-006  0.8833727E+02  0.7818608E-02  0.1388322E+00
          2   -1    0    0  502    0  0.00000000000E+00  0.00000000000E+00  0.16771095730E+03  0.16771095730E+03  0.00000000000E+00 0. -1.
          1   -1    0    0  501    0 -0.00000000000E+00 -0.00000000000E+00 -0.19080290618E+04  0.19080290618E+04  0.00000000000E+00 0. -1.
         25    2    1    2    0    0 -0.11992770240E+03 -0.35456548668E+02 -0.70172420138E+03  0.72365763599E+03  0.12499479464E+03 0.  0.
          2    1    1    2  501    0  0.32356775108E+02  0.29778080836E+02 -0.11826147962E+04  0.11834320645E+04  0.00000000000E+00 0. -1.
          1    1    1    2  502    0  0.87570927296E+02  0.56784678326E+01  0.14402089313E+03  0.16865031859E+03  0.00000000000E+00 0. -1.
         22    1    3    3    0    0 -0.22402917745E+01  0.32620300736E+02 -0.24360269541E+03  0.24578725788E+03  0.00000000000E+00 0.  1.
         22    1    3    3    0    0 -0.11768741063E+03 -0.68076849404E+02 -0.45812150597E+03  0.47787037811E+03  0.00000000000E+00 0.  1.
</event>
<event>
 7    1  0.6444902E-006  0.1236255E+03  0.7818608E-02  0.1256026E+00
          2   -1    0    0  502    0  0.00000000000E+00  0.00000000000E+00  0.67909479074E+03  0.67909479074E+03  0.00000000000E+00 0. -1.
          1   -1    0    0  501    0 -0.00000000000E+00 -0.00000000000E+00 -0.28700203550E+03  0.28700203550E+03  0.00000000000E+00 0. -1.
         25    2    1    2    0    0  0.85635247781E+02  0.24626904338E+02 -0.20296979789E+02  0.15484486587E+03  0.12500034007E+03 0.  0.
          2    1    1    2  501    0 -0.73175869699E+02 -0.12622470171E+03 -0.16765143128E+03  0.22224847725E+03  0.00000000000E+00 0. -1.
          1    1    1    2  502    0 -0.12459378082E+02  0.10159779738E+03  0.58004116630E+03  0.58900348312E+03  0.00000000000E+00 0. -1.
         22    1    3    3    0    0  0.10520628206E+03  0.53785067951E+02 -0.12035467780E+02  0.11876888399E+03  0.00000000000E+00 0. -1.
         22    1    3    3    0    0 -0.19571034278E+02 -0.29158163613E+02 -0.82615120082E+01  0.36075981881E+02  0.00000000000E+00 0. -1.
</event>
<event>
 7    1  0.6444902E-006  0.2285947E+03  0.7818608E-02  0.1221439E+00
          2   -1    0    0  502    0  0.00000000000E+00  0.00000000000E+00  0.11378608133E+04  0.11378608133E+04  0.00000000000E+00 0. -1.
          1   -1    0    0  501    0 -0.00000000000E+00 -0.00000000000E+00 -0.25332217461E+03  0.25332217461E+03  0.00000000000E+00 0. -1.
         25    2    1    2    0    0  0.13226694949E+03 -0.14741516723E+03 -0.13972081364E+01  0.23420590092E+03  0.12499869750E+03 0.  0.
          2    1    1    2  501    0 -0.20958156261E+03  0.16218781659E+03 -0.25409812641E+01  0.26502033096E+03  0.00000000000E+00 0. -1.
          1    1    1    2  502    0  0.77314613120E+02 -0.14772649356E+02  0.88847682814E+03  0.89195675608E+03  0.00000000000E+00 0. -1.
         22    1    3    3    0    0  0.10344751293E+03 -0.15886581399E+03 -0.30097540679E+02  0.19195206887E+03  0.00000000000E+00 0. -1.
         22    1    3    3    0    0  0.28819436563E+02  0.11450646760E+02  0.28700332543E+02  0.42253832052E+02  0.00000000000E+00 0. -1.
</event>
<event>
 7    1  0.6444902E-006  0.1189183E+03  0.7818608E-02  0.1336632E+00
          2   -1    0    0  502    0  0.00000000000E+00  0.00000000000E+00  0.21654869735E+03  0.21654869735E+03  0.00000000000E+00 0. -1.
          1   -1    0    0  501    0 -0.00000000000E+00 -0.00000000000E+00 -0.10923936295E+04  0.10923936295E+04  0.00000000000E+00 0. -1.
         25    2    1    2    0    0  0.67996633321E+02 -0.39950669845E+02 -0.87074674130E+02  0.17156155675E+03  0.12502707994E+03 0.  0.
          2    1    1    2  501    0 -0.11802241501E+03  0.34147040536E+02 -0.95542013410E+03  0.96328757050E+03  0.00000000000E+00 0. -1.
          1    1    1    2  502    0  0.50025781693E+02  0.58036293098E+01  0.16664987608E+03  0.17409319960E+03  0.00000000000E+00 0. -1.
         22    1    3    3    0    0  0.41477132235E+02 -0.78933955983E+02 -0.86760752135E+02  0.12441201717E+03  0.00000000000E+00 0. -1.
         22    1    3    3    0    0  0.26519501086E+02  0.38983286138E+02 -0.31392199529E+00  0.47149539584E+02  0.00000000000E+00 0. -1.
</event>
<event>
 7    1  0.6444902E-006  0.1090053E+03  0.7818608E-02  0.1423619E+00
          2   -1    0    0  502    0  0.00000000000E+00  0.00000000000E+00  0.18131583290E+04  0.18131583290E+04  0.00000000000E+00 0. -1.
          1   -1    0    0  501    0 -0.00000000000E+00 -0.00000000000E+00 -0.90423186001E+02  0.90423186001E+02  0.00000000000E+00 0. -1.
         25    2    1    2    0    0 -0.92024134217E+02 -0.27956204548E+01  0.12218646540E+03  0.19756305761E+03  0.12500149052E+03 0.  0.
          2    1    1    2  501    0 -0.14940026806E+02 -0.22504030744E+02 -0.47320653072E+02  0.54487429815E+02  0.00000000000E+00 0. -1.
          1    1    1    2  502    0  0.10696416102E+03  0.25299651199E+02  0.16478693306E+04  0.16515310275E+04  0.00000000000E+00 0. -1.
         22    1    3    3    0    0 -0.54544274464E+02 -0.22556742828E+00 -0.13981151588E+02  0.56308093177E+02  0.00000000000E+00 0.  1.
         22    1    3    3    0    0 -0.37479859753E+02 -0.25700530266E+01  0.13616761699E+03  0.14125496443E+03  0.00000000000E+00 0.  1.
</event>
<event>
 7    1  0.6444902E-006  0.9219791E+02  0.7818608E-02  0.1432126E+00
          2   -1    0    0  502    0  0.00000000000E+00  0.00000000000E+00  0.76498696733E+03  0.76498696733E+03  0.00000000000E+00 0. -1.
          1   -1    0    0  501    0 -0.00000000000E+00 -0.00000000000E+00 -0.23659334830E+03  0.23659334830E+03  0.00000000000E+00 0. -1.
         25    2    1    2    0    0  0.75442785558E+02 -0.10259441377E+02 -0.79236208382E+01  0.14654846973E+03  0.12496719642E+03 0.  0.
          2    1    1    2  501    0  0.16341996721E+02  0.25081263833E+02 -0.15481064241E+03  0.15767836141E+03  0.00000000000E+00 0. -1.
          1    1    1    2  502    0 -0.91784782279E+02 -0.14821822456E+02  0.69112788228E+03  0.69735348450E+03  0.00000000000E+00 0. -1.
         22    1    3    3    0    0  0.21461892690E+02  0.54596780081E+02 -0.18488254290E+02  0.61508022076E+02  0.00000000000E+00 0.  1.
         22    1    3    3    0    0  0.53980892867E+02 -0.64856221458E+02  0.10564633451E+02  0.85040447650E+02  0.00000000000E+00 0.  1.
</event>
<event>
 7    1  0.1091099E-005  0.8829438E+02  0.7818608E-02  0.1310692E+00
          2   -1    0    0  502    0  0.00000000000E+00  0.00000000000E+00  0.18791419363E+04  0.18791419363E+04  0.00000000000E+00 0. -1.
          1   -1    0    0  501    0 -0.00000000000E+00 -0.00000000000E+00 -0.12586498211E+04  0.12586498211E+04  0.00000000000E+00 0. -1.
         25    2    1    2    0    0  0.25157400468E+02  0.22514716291E+02 -0.16059581385E+03  0.20628758761E+03  0.12499498441E+03 0.  0.
          2    1    1    2  501    0  0.25023490046E+02 -0.91626239843E+02 -0.10721250572E+04  0.10763241525E+04  0.00000000000E+00 0. -1.
          1    1    1    2  502    0 -0.50180890513E+02  0.69111523552E+02  0.18532129862E+04  0.18551800173E+04  0.00000000000E+00 0. -1.
         22    1    3    3    0    0 -0.11447090748E+02 -0.20272978197E+02  0.10956256670E+02  0.25730703290E+02  0.00000000000E+00 0.  1.
         22    1    3    3    0    0  0.36604491216E+02  0.42787694488E+02 -0.17155207052E+03  0.18055688432E+03  0.00000000000E+00 0.  1.
</event>
<event>
 7    1  0.6444902E-006  0.5469133E+02  0.7818608E-02  0.1525589E+00
          2   -1    0    0  502    0  0.00000000000E+00  0.00000000000E+00  0.30657476459E+03  0.30657476459E+03  0.00000000000E+00 0. -1.
          1   -1    0    0  501    0 -0.00000000000E+00 -0.00000000000E+00 -0.24291737432E+03  0.24291737432E+03  0.00000000000E+00 0. -1.
         25    2    1    2    0    0 -0.24841553837E+02  0.70840641475E+02 -0.10532705583E+03  0.17987224863E+03  0.12499895142E+03 0.  0.
          2    1    1    2  501    0  0.24858508884E+02 -0.44807671044E+02 -0.93087080229E+02  0.10625854015E+03  0.00000000000E+00 0. -1.
          1    1    1    2  502    0 -0.16955046431E-01 -0.26032970431E+02  0.26207152633E+03  0.26336135014E+03  0.00000000000E+00 0. -1.
         22    1    3    3    0    0 -0.55901957170E+02 -0.30219156204E+00 -0.97574765451E+01  0.56747938145E+02  0.00000000000E+00 0.  1.
         22    1    3    3    0    0  0.31060403333E+02  0.71142833037E+02 -0.95569579280E+02  0.12312431048E+03  0.00000000000E+00 0.  1.
</event>
<event>
 7    1  0.6444902E-006  0.5426942E+02  0.7818608E-02  0.1453721E+00
          2   -1    0    0  502    0  0.00000000000E+00  0.00000000000E+00  0.15718522226E+03  0.15718522226E+03  0.00000000000E+00 0. -1.
          1   -1    0    0  501    0 -0.00000000000E+00 -0.00000000000E+00 -0.13997111717E+04  0.13997111717E+04  0.00000000000E+00 0. -1.
         25    2    1    2    0    0  0.28719767061E+02  0.60734774702E+02 -0.13407237612E+03  0.19522838899E+03  0.12500073581E+03 0.  0.
          2    1    1    2  501    0  0.13803854571E+02 -0.52535072944E+02 -0.12307407747E+04  0.12319388519E+04  0.00000000000E+00 0. -1.
          1    1    1    2  502    0 -0.42523621632E+02 -0.81997017580E+01  0.12228720144E+03  0.12972915301E+03  0.00000000000E+00 0. -1.
         22    1    3    3    0    0 -0.18216366485E+02  0.85021716182E+02 -0.66619237551E+02  0.10953835421E+03  0.00000000000E+00 0. -1.
         22    1    3    3    0    0  0.46936133545E+02 -0.24286941480E+02 -0.67453138568E+02  0.85690034784E+02  0.00000000000E+00 0. -1.
</event>
<event>
 7    1  0.6444902E-006  0.8508004E+02  0.7818608E-02  0.1354847E+00
          2   -1    0    0  502    0  0.00000000000E+00  0.00000000000E+00  0.15344528983E+04  0.15344528983E+04  0.00000000000E+00 0. -1.
          1   -1    0    0  501    0 -0.00000000000E+00 -0.00000000000E+00 -0.17640825104E+04  0.17640825104E+04  0.00000000000E+00 0. -1.
         25    2    1    2    0    0  0.14167182399E+03  0.29545877002E+02  0.37685237483E+02  0.19490843112E+03  0.12500101935E+03 0.  0.
          2    1    1    2  501    0 -0.82537734507E+02 -0.18273333739E+02 -0.16837711920E+04  0.16858919951E+04  0.00000000000E+00 0. -1.
          1    1    1    2  502    0 -0.59134089478E+02 -0.11272543263E+02  0.14164563423E+04  0.14177349825E+04  0.00000000000E+00 0. -1.
         22    1    3    3    0    0  0.24176341281E+02  0.47722504450E+02 -0.26603695852E+02  0.59746878928E+02  0.00000000000E+00 0. -1.
         22    1    3    3    0    0  0.11749548270E+03 -0.18176627448E+02  0.64288933335E+02  0.13516155219E+03  0.00000000000E+00 0. -1.
</event>
<event>
 7    1  0.6444902E-006  0.7394307E+02  0.7818608E-02  0.1471624E+00
          2   -1    0    0  502    0  0.00000000000E+00  0.00000000000E+00  0.22627514723E+04  0.22627514723E+04  0.00000000000E+00 0. -1.
          1   -1    0    0  501    0 -0.00000000000E+00 -0.00000000000E+00 -0.17384455493E+04  0.17384455493E+04  0.00000000000E+00 0. -1.
         25    2    1    2    0    0  0.22167359631E+02  0.59079662227E+02  0.12474564537E+04  0.12552925793E+04  0.12502022858E+03 0.  0.
          2    1    1    2  501    0 -0.19380749282E+02  0.20100330568E+02 -0.17328631871E+04  0.17330881287E+04  0.00000000000E+00 0. -1.
          1    1    1    2  502    0 -0.27866103496E+01 -0.79179992795E+02  0.10097126564E+04  0.10128163135E+04  0.00000000000E+00 0. -1.
         22    1    3    3    0    0 -0.31483488657E+02 -0.24891879754E+02  0.39375245349E+03  0.39579263556E+03  0.00000000000E+00 0. -1.
         22    1    3    3    0    0  0.53650848288E+02  0.83971541981E+02  0.85370400019E+03  0.85949994376E+03  0.00000000000E+00 0. -1.
</event>
<event>
 7    1  0.6444902E-006  0.4935952E+02  0.7818608E-02  0.1513265E+00
          2   -1    0    0  502    0  0.00000000000E+00  0.00000000000E+00  0.28645225065E+03  0.28645225065E+03  0.00000000000E+00 0. -1.
          1   -1    0    0  501    0 -0.00000000000E+00 -0.00000000000E+00 -0.25567229516E+03  0.25567229516E+03  0.00000000000E+00 0. -1.
         25    2    1    2    0    0 -0.33480518596E+01 -0.25876119666E+02 -0.88121061451E+02  0.15514803932E+03  0.12499923845E+03 0.  0.
          2    1    1    2  501    0 -0.15015104754E+02  0.51253981923E+02 -0.12768709895E+03  0.13840671686E+03  0.00000000000E+00 0. -1.
          1    1    1    2  502    0  0.18363156613E+02 -0.25377862257E+02  0.24658811589E+03  0.24856978962E+03  0.00000000000E+00 0. -1.
         22    1    3    3    0    0  0.32770168849E+02 -0.62103211441E+02 -0.74142575340E+02  0.10211667012E+03  0.00000000000E+00 0.  1.
         22    1    3    3    0    0 -0.36118220708E+02  0.36227091775E+02 -0.13978486111E+02  0.53031369203E+02  0.00000000000E+00 0.  1.
</event>
<event>
 7    1  0.6444902E-006  0.5902496E+02  0.7818608E-02  0.1420904E+00
          2   -1    0    0  502    0  0.00000000000E+00  0.00000000000E+00  0.16259271908E+03  0.16259271908E+03  0.00000000000E+00 0. -1.
          1   -1    0    0  501    0 -0.00000000000E+00 -0.00000000000E+00 -0.10702687321E+04  0.10702687321E+04  0.00000000000E+00 0. -1.
         25    2    1    2    0    0  0.86463795388E+02  0.35090616273E+02 -0.10683861433E+03  0.18906844990E+03  0.12500019988E+03 0.  0.
          2    1    1    2  501    0 -0.49964664823E+02  0.98858263633E+01 -0.91466149063E+03  0.91607851177E+03  0.00000000000E+00 0. -1.
          1    1    1    2  502    0 -0.36499130566E+02 -0.44976442637E+02  0.11382409194E+03  0.12771448951E+03  0.00000000000E+00 0. -1.
         22    1    3    3    0    0  0.49187409956E+02  0.76898517833E+02 -0.95134463379E+02  0.13184593079E+03  0.00000000000E+00 0. -1.
         22    1    3    3    0    0  0.37276385433E+02 -0.41807901560E+02 -0.11704150954E+02  0.57222519110E+02  0.00000000000E+00 0. -1.
</event>
<event>
 7    1  0.6444902E-006  0.3861157E+02  0.7818608E-02  0.1538686E+00
          2   -1    0    0  502    0  0.00000000000E+00  0.00000000000E+00  0.11608496886E+03  0.11608496886E+03  0.00000000000E+00 0. -1.
          1   -1    0    0  501    0 -0.00000000000E+00 -0.00000000000E+00 -0.73409824720E+03  0.73409824720E+03  0.00000000000E+00 0. -1.
         25    2    1    2    0    0  0.63545910115E+01 -0.49707416995E+01  0.39351330321E+02  0.13130040433E+03  0.12500471943E+03 0.  0.
          2    1    1    2  501    0 -0.37420408109E+01 -0.38429810955E+02 -0.67192270666E+03  0.67303118573E+03  0.00000000000E+00 0. -1.
          1    1    1    2  502    0 -0.26125502006E+01  0.43400552655E+02  0.14558098003E+02  0.45851625999E+02  0.00000000000E+00 0. -1.
         22    1    3    3    0    0  0.78505638910E+01 -0.54095638453E+02  0.57099475649E+02  0.79046312833E+02  0.00000000000E+00 0.  1.
         22    1    3    3    0    0 -0.14959728795E+01  0.49124896754E+02 -0.17748145328E+02  0.52254091500E+02  0.00000000000E+00 0.  1.
</event>
<event>
 7    1  0.6444902E-006  0.1711751E+03  0.7818608E-02  0.1260329E+00
          2   -1    0    0  502    0  0.00000000000E+00  0.00000000000E+00  0.98119227557E+03  0.98119227557E+03  0.00000000000E+00 0. -1.
          1   -1    0    0  501    0 -0.00000000000E+00 -0.00000000000E+00 -0.10404706742E+04  0.10404706742E+04  0.00000000000E+00 0. -1.
         25    2    1    2    0    0  0.80029615323E+01  0.19141535233E+03  0.66229963764E+02  0.23814954002E+03  0.12499964325E+03 0.  0.
          2    1    1    2  501    0 -0.63937446729E+02 -0.30536416825E+02 -0.94442106612E+03  0.94707529795E+03  0.00000000000E+00 0. -1.
          1    1    1    2  502    0  0.55934485197E+02 -0.16087893550E+03  0.81891270374E+03  0.83643811180E+03  0.00000000000E+00 0. -1.
         22    1    3    3    0    0  0.12962648620E+02 -0.12933672072E+02  0.22685462947E+02  0.29153736667E+02  0.00000000000E+00 0. -1.
         22    1    3    3    0    0 -0.49596870878E+01  0.20434902440E+03  0.43544500817E+02  0.20899580336E+03  0.00000000000E+00 0. -1.
</event>
<event>
 7    1  0.6444902E-006  0.1222498E+03  0.7818608E-02  0.1388688E+00
          2   -1    0    0  502    0  0.00000000000E+00  0.00000000000E+00  0.54471542458E+03  0.54471542458E+03  0.00000000000E+00 0. -1.
          1   -1    0    0  501    0 -0.00000000000E+00 -0.00000000000E+00 -0.13939912407E+04  0.13939912407E+04  0.00000000000E+00 0. -1.
         25    2    1    2    0    0 -0.31640489650E+02  0.86124591139E+02  0.11878942751E+01  0.15509984665E+03  0.12504393449E+03 0.  0.
          2    1    1    2  501    0  0.40488336840E+02 -0.11654591910E+03 -0.13136034025E+04  0.13193847641E+04  0.00000000000E+00 0. -1.
          1    1    1    2  502    0 -0.88478471902E+01  0.30421327956E+02  0.46313969206E+03  0.46422205458E+03  0.00000000000E+00 0. -1.
         22    1    3    3    0    0  0.99556083848E+01  0.28974448176E+02 -0.56228791852E+02  0.64033661605E+02  0.00000000000E+00 0.  1.
         22    1    3    3    0    0 -0.41596098034E+02  0.57150142963E+02  0.57416686127E+02  0.91066185042E+02  0.00000000000E+00 0.  1.
</event>
<event>
 7    1  0.6444902E-006  0.5408358E+02  0.7818608E-02  0.1424915E+00
          2   -1    0    0  502    0  0.00000000000E+00  0.00000000000E+00  0.17473457916E+03  0.17473457916E+03  0.00000000000E+00 0. -1.
          1   -1    0    0  501    0 -0.00000000000E+00 -0.00000000000E+00 -0.97799859448E+02  0.97799859448E+02  0.00000000000E+00 0. -1.
         25    2    1    2    0    0  0.46620785415E+02 -0.23820679973E+02  0.79088300256E+01  0.13575179251E+03  0.12500030860E+03 0.  0.
          2    1    1    2  501    0 -0.41740093805E+02 -0.34391832257E+02  0.12530622744E+02  0.55516214417E+02  0.00000000000E+00 0. -1.
          1    1    1    2  502    0 -0.48806916097E+01  0.58212512230E+02  0.56495266945E+02  0.81266431680E+02  0.00000000000E+00 0. -1.
         22    1    3    3    0    0  0.19949316728E+02  0.48058780294E+02 -0.17632317548E+02  0.54941061360E+02  0.00000000000E+00 0.  1.
         22    1    3    3    0    0  0.26671468687E+02 -0.71879460267E+02  0.25541147573E+02  0.80810731154E+02  0.00000000000E+00 0.  1.
</event>
<event>
 7    1  0.6444902E-006  0.8924201E+02  0.7818608E-02  0.1415601E+00
          2   -1    0    0  502    0  0.00000000000E+00  0.00000000000E+00  0.15034025404E+04  0.15034025404E+04  0.00000000000E+00 0. -1.
          1   -1    0    0  501    0 -0.00000000000E+00 -0.00000000000E+00 -0.59601855024E+03  0.59601855024E+03  0.00000000000E+00 0. -1.
         25    2    1    2    0    0  0.54230636195E+02 -0.98650431164E+02  0.27890086107E+03  0.32570523799E+03  0.12500136912E+03 0.  0.
          2    1    1    2  501    0 -0.32371871222E+02  0.13550274651E+02 -0.57046961356E+03  0.57154801022E+03  0.00000000000E+00 0. -1.
          1    1    1    2  502    0 -0.21858764974E+02  0.85100156513E+02  0.11989527426E+04  0.12021678424E+04  0.00000000000E+00 0. -1.
         22    1    3    3    0    0  0.65377430250E+02 -0.11986721444E+03  0.26472008839E+03  0.29785748720E+03  0.00000000000E+00 0.  1.
         22    1    3    3    0    0 -0.11146794055E+02  0.21216783279E+02  0.14180772677E+02  0.27847750791E+02  0.00000000000E+00 0.  1.
</event>
<event>
 7    1  0.6444902E-006  0.1369023E+03  0.7818608E-02  0.1337925E+00
          2   -1    0    0  502    0  0.00000000000E+00  0.00000000000E+00  0.15665939928E+04  0.15665939928E+04  0.00000000000E+00 0. -1.
          1   -1    0    0  501    0 -0.00000000000E+00 -0.00000000000E+00 -0.86114909820E+02  0.86114909820E+02  0.00000000000E+00 0. -1.
         25    2    1    2    0    0 -0.12353713643E+03 -0.83224471146E+02  0.16774526618E+03  0.25681200662E+03  0.12500478289E+03 0.  0.
          2    1    1    2  501    0  0.12659672968E+03  0.40076439959E+02  0.65772025366E+02  0.14818506108E+03  0.00000000000E+00 0. -1.
          1    1    1    2  502    0 -0.30595932558E+01  0.43148031187E+02  0.12469617915E+04  0.12477118350E+04  0.00000000000E+00 0. -1.
         22    1    3    3    0    0 -0.80444957598E+02 -0.94654538793E+02  0.55535494722E+02  0.13607007052E+03  0.00000000000E+00 0. -1.
         22    1    3    3    0    0 -0.43092178829E+02  0.11430067648E+02  0.11220977146E+03  0.12074193610E+03  0.00000000000E+00 0. -1.
</event>
<event>
 7    1  0.6444902E-006  0.5115726E+03  0.7818608E-02  0.1267782E+00
          2   -1    0    0  502    0  0.00000000000E+00  0.00000000000E+00  0.60013598973E+03  0.60013598973E+03  0.00000000000E+00 0. -1.
          1   -1    0    0  501    0 -0.00000000000E+00 -0.00000000000E+00 -0.70262740341E+03  0.70262740341E+03  0.00000000000E+00 0. -1.
         25    2    1    2    0    0  0.16793923387E+02  0.49413090576E+03  0.31846230008E+03  0.60123928006E+03  0.12499218949E+03 0.  0.
          2    1    1    2  501    0 -0.21856798812E+02 -0.51558639347E+03 -0.43538204247E+03  0.67517743719E+03  0.00000000000E+00 0. -1.
          1    1    1    2  502    0  0.50628754250E+01  0.21455487710E+02  0.14428328720E+02  0.26346675883E+02  0.00000000000E+00 0. -1.
         22    1    3    3    0    0 -0.16037092469E+02  0.38702936343E+03  0.19212090465E+03  0.43238797219E+03  0.00000000000E+00 0.  1.
         22    1    3    3    0    0  0.32831015856E+02  0.10710154232E+03  0.12634139543E+03  0.16885130787E+03  0.00000000000E+00 0.  1.
</event>
<event>
 7    1  0.6444902E-006  0.9824144E+02  0.7818608E-02  0.1316387E+00
          2   -1    0    0  502    0  0.00000000000E+00  0.00000000000E+00  0.11641368209E+04  0.11641368209E+04  0.00000000000E+00 0. -1.
          1   -1    0    0  501    0 -0.00000000000E+00 -0.00000000000E+00 -0.19426692900E+03  0.19426692900E+03  0.00000000000E+00 0. -1.
         25    2    1    2    0    0  0.60906433592E+01  0.44168382854E+02  0.30109559239E+03  0.32904794329E+03  0.12500420491E+03 0.  0.
          2    1    1    2  501    0  0.45431853432E+02  0.57030784900E+02 -0.16892743338E+03  0.18399196037E+03  0.00000000000E+00 0. -1.
          1    1    1    2  502    0 -0.51522496791E+02 -0.10119916775E+03  0.83770173291E+03  0.84536384625E+03  0.00000000000E+00 0. -1.
         22    1    3    3    0    0  0.59857931148E+02  0.40124316203E+02  0.22134833834E+03  0.23278320292E+03  0.00000000000E+00 0. -1.
         22    1    3    3    0    0 -0.53767287789E+02  0.40440666508E+01  0.79747254044E+02  0.96264740371E+02  0.00000000000E+00 0. -1.
</event>
<event>
 7    1  0.6444902E-006  0.1383773E+03  0.7818608E-02  0.1233530E+00
          2   -1    0    0  502    0  0.00000000000E+00  0.00000000000E+00  0.18410865759E+03  0.18410865759E+03  0.00000000000E+00 0. -1.
          1   -1    0    0  501    0 -0.00000000000E+00 -0.00000000000E+00 -0.58150711798E+03  0.58150711798E+03  0.00000000000E+00 0. -1.
         25    2    1    2    0    0  0.65853033040E+01 -0.90947561218E+02 -0.67891989506E+02  0.16896511739E+03  0.12500025418E+03 0.  0.
          2    1    1    2  501    0  0.10455961906E+03  0.11932995116E+03 -0.42101058974E+03  0.44991362266E+03  0.00000000000E+00 0. -1.
          1    1    1    2  502    0 -0.11114492237E+03 -0.28382389940E+02  0.91504118850E+02  0.14673703552E+03  0.00000000000E+00 0. -1.
         22    1    3    3    0    0  0.17178402485E+02 -0.10467623799E+03 -0.77342210125E+01  0.10635802972E+03  0.00000000000E+00 0.  1.
         22    1    3    3    0    0 -0.10593099181E+02  0.13728676772E+02 -0.60157768493E+02  0.62607087668E+02  0.00000000000E+00 0.  1.
</event>
<event>
 7    1  0.6444902E-006  0.1058632E+03  0.7818608E-02  0.1292570E+00
          2   -1    0    0  502    0  0.00000000000E+00  0.00000000000E+00  0.72173954677E+03  0.72173954677E+03  0.00000000000E+00 0. -1.
          1   -1    0    0  501    0 -0.00000000000E+00 -0.00000000000E+00 -0.11747038380E+04  0.11747038380E+04  0.00000000000E+00 0. -1.
         25    2    1    2    0    0 -0.82205250787E+02  0.16964510914E+03  0.84082957020E+02  0.24131401061E+03  0.12500136696E+03 0.  0.
          2    1    1    2  501    0  0.41391076440E+02 -0.96056452240E+02 -0.10904049365E+04  0.10954099638E+04  0.00000000000E+00 0. -1.
          1    1    1    2  502    0  0.40814174347E+02 -0.73588656901E+02  0.55335768823E+03  0.55971941039E+03  0.00000000000E+00 0. -1.
         22    1    3    3    0    0 -0.50585066724E+00  0.79145232572E+02 -0.19294060247E+02  0.81464621061E+02  0.00000000000E+00 0. -1.
         22    1    3    3    0    0 -0.81699400119E+02  0.90499876569E+02  0.10337701727E+03  0.15984938955E+03  0.00000000000E+00 0. -1.
</event>
<event>
 7    1  0.6444902E-006  0.7797774E+02  0.7818608E-02  0.1385869E+00
          2   -1    0    0  502    0  0.00000000000E+00  0.00000000000E+00  0.14329919102E+04  0.14329919102E+04  0.00000000000E+00 0. -1.
          1   -1    0    0  501    0 -0.00000000000E+00 -0.00000000000E+00 -0.53015426896E+02  0.53015426896E+02  0.00000000000E+00 0. -1.
         25    2    1    2    0    0  0.13784693435E+02  0.32969880544E+02  0.68359068227E+03  0.69584337678E+03  0.12499901329E+03 0.  0.
          2    1    1    2  501    0 -0.60617949972E+02 -0.52679771795E+02 -0.10907976407E+02  0.81047382218E+02  0.00000000000E+00 0. -1.
          1    1    1    2  502    0  0.46833256537E+02  0.19709891251E+02  0.70729377748E+03  0.70911657814E+03  0.00000000000E+00 0. -1.
         22    1    3    3    0    0  0.76723857486E+01  0.82711374510E+01  0.66304228349E+03  0.66313825626E+03  0.00000000000E+00 0. -1.
         22    1    3    3    0    0  0.61123076864E+01  0.24698743093E+02  0.20548398775E+02  0.32705120514E+02  0.00000000000E+00 0. -1.
</event>
<event>
 7    1  0.6444902E-006  0.2928877E+02  0.7818608E-02  0.1654679E+00
          2   -1    0    0  502    0  0.00000000000E+00  0.00000000000E+00  0.20125486470E+04  0.20125486470E+04  0.00000000000E+00 0. -1.
          1   -1    0    0  501    0 -0.00000000000E+00 -0.00000000000E+00 -0.75141463046E+03  0.75141463046E+03  0.00000000000E+00 0. -1.
         25    2    1    2    0    0 -0.16686003946E+02 -0.17770870097E+02  0.36132774872E+03  0.38311287099E+03  0.12499401337E+03 0.  0.
          2    1    1    2  501    0  0.29296203630E+02 -0.38713231194E+00 -0.74015773893E+03  0.74073740010E+03  0.00000000000E+00 0. -1.
          1    1    1    2  502    0 -0.12610199683E+02  0.18158002409E+02  0.16399640068E+04  0.16401130064E+04  0.00000000000E+00 0. -1.
         22    1    3    3    0    0 -0.17131606298E+02  0.48346429674E+02  0.23495277011E+03  0.24048632680E+03  0.00000000000E+00 0.  1.
         22    1    3    3    0    0  0.44560235148E+00 -0.66117299771E+02  0.12637497861E+03  0.14262654419E+03  0.00000000000E+00 0.  1.
</event>
<event>
 7    1  0.6444902E-006  0.9668143E+02  0.7818608E-02  0.1320044E+00
          2   -1    0    0  502    0  0.00000000000E+00  0.00000000000E+00  0.15621619670E+04  0.15621619670E+04  0.00000000000E+00 0. -1.
          1   -1    0    0  501    0 -0.00000000000E+00 -0.00000000000E+00 -0.85100914470E+02  0.85100914470E+02  0.00000000000E+00 0. -1.
         25    2    1    2    0    0 -0.17935557810E+02  0.59430705391E+02  0.46928320593E+03  0.48959841416E+03  0.12500474712E+03 0.  0.
          2    1    1    2  501    0 -0.71616533581E+02  0.35335812838E+01 -0.54309899691E+02  0.89949870947E+02  0.00000000000E+00 0. -1.
          1    1    1    2  502    0  0.89552091391E+02 -0.62964286675E+02  0.10620877463E+04  0.10677145964E+04  0.00000000000E+00 0. -1.
         22    1    3    3    0    0  0.21467943409E+02  0.28304708201E+02  0.27381322715E+02  0.44852713788E+02  0.00000000000E+00 0.  1.
         22    1    3    3    0    0 -0.39403501220E+02  0.31125997190E+02  0.44190188322E+03  0.44474570037E+03  0.00000000000E+00 0.  1.
</event>
<event>
 7    1  0.6444902E-006  0.9523779E+02  0.7818608E-02  0.1291040E+00
          2   -1    0    0  502    0  0.00000000000E+00  0.00000000000E+00  0.10090897565E+04  0.10090897565E+04  0.00000000000E+00 0. -1.
          1   -1    0    0  501    0 -0.00000000000E+00 -0.00000000000E+00 -0.87760445204E+03  0.87760445204E+03  0.00000000000E+00 0. -1.
         25    2    1    2    0    0 -0.65677192233E+02  0.51107830664E+02  0.32902925165E+03  0.36167752444E+03  0.12499951724E+03 0.  0.
          2    1    1    2  501    0 -0.19076623753E+02 -0.93765194478E+02 -0.85520748268E+03  0.86054382091E+03  0.00000000000E+00 0. -1.
          1    1    1    2  502    0  0.84753815986E+02  0.42657363814E+02  0.65766353544E+03  0.66447286314E+03  0.00000000000E+00 0. -1.
         22    1    3    3    0    0 -0.92705267051E+02  0.25543150418E+02  0.14542518636E+03  0.17434220344E+03  0.00000000000E+00 0. -1.
         22    1    3    3    0    0  0.27028074819E+02  0.25564680245E+02  0.18360406529E+03  0.18733532100E+03  0.00000000000E+00 0. -1.
</event>
<event>
 7    1  0.6444902E-006  0.4471254E+02  0.7818608E-02  0.1559638E+00
          2   -1    0    0  502    0  0.00000000000E+00  0.00000000000E+00  0.64910428508E+03  0.64910428508E+03  0.00000000000E+00 0. -1.
          1   -1    0    0  501    0 -0.00000000000E+00 -0.00000000000E+00 -0.82592040602E+03  0.82592040602E+03  0.00000000000E+00 0. -1.
         25    2    1    2    0    0  0.32269454495E+02 -0.38317355860E+01 -0.78622451891E+02  0.15120325819E+03  0.12499974182E+03 0.  0.
          2    1    1    2  501    0 -0.40149614338E+02 -0.20453908072E+02 -0.71002713198E+03  0.71145546736E+03  0.00000000000E+00 0. -1.
          1    1    1    2  502    0  0.78801598430E+01  0.24285643658E+02  0.61183346293E+03  0.61236596555E+03  0.00000000000E+00 0. -1.
         22    1    3    3    0    0  0.20292663089E+02  0.40676524944E+02 -0.92501493122E+02  0.10306744436E+03  0.00000000000E+00 0.  1.
         22    1    3    3    0    0  0.11976791406E+02 -0.44508260530E+02  0.13879041231E+02  0.48135813832E+02  0.00000000000E+00 0.  1.
</event>
<event>
 7    1  0.6444902E-006  0.6326958E+03  0.7818608E-02  0.1141458E+00
          2   -1    0    0  502    0  0.00000000000E+00  0.00000000000E+00  0.22291668457E+04  0.22291668457E+04  0.00000000000E+00 0. -1.
          1   -1    0    0  501    0 -0.00000000000E+00 -0.00000000000E+00 -0.45009792444E+03  0.45009792444E+03  0.00000000000E+00 0. -1.
         25    2    1    2    0    0 -0.17068416762E+03  0.56946490179E+03  0.52130070475E+03  0.80050182755E+03  0.12500156674E+03 0.  0.
          2    1    1    2  501    0  0.14894063690E+03 -0.63578386645E+03  0.34925134242E+02  0.65392981517E+03  0.00000000000E+00 0. -1.
          1    1    1    2  502    0  0.21743530717E+02  0.66318964666E+02  0.12228430823E+04  0.12248331274E+04  0.00000000000E+00 0. -1.
         22    1    3    3    0    0 -0.34025714843E+02  0.95858737376E+02  0.33707197043E+02  0.10715792987E+03  0.00000000000E+00 0. -1.
         22    1    3    3    0    0 -0.13665845277E+03  0.47360616441E+03  0.48759350771E+03  0.69334389767E+03  0.00000000000E+00 0. -1.
</event>
<event>
 7    1  0.6444902E-006  0.4257136E+02  0.7818608E-02  0.1495564E+00
          2   -1    0    0  502    0  0.00000000000E+00  0.00000000000E+00  0.76634904409E+03  0.76634904409E+03  0.00000000000E+00 0. -1.
          1   -1    0    0  501    0 -0.00000000000E+00 -0.00000000000E+00 -0.14463610287E+04  0.14463610287E+04  0.00000000000E+00 0. -1.
         25    2    1    2    0    0 -0.29786233178E+02 -0.42688825830E+02 -0.84341191174E+03  0.85421204241E+03  0.12500001996E+03 0.  0.
          2    1    1    2  501    0 -0.11196361196E+02  0.42075830861E+02 -0.59620268657E+03  0.59779041270E+03  0.00000000000E+00 0. -1.
          1    1    1    2  502    0  0.40982594373E+02  0.61299496884E+00  0.75960261371E+03  0.76070761766E+03  0.00000000000E+00 0. -1.
         22    1    3    3    0    0 -0.25398035138E+02 -0.17553074343E+02 -0.40651435034E+02  0.51046153411E+02  0.00000000000E+00 0.  1.
         22    1    3    3    0    0 -0.43881980398E+01 -0.25135751487E+02 -0.80276047671E+03  0.80316588900E+03  0.00000000000E+00 0.  1.
</event>
<event>
 7    1  0.6444902E-006  0.6102106E+02  0.7818608E-02  0.1465611E+00
          2   -1    0    0  502    0  0.00000000000E+00  0.00000000000E+00  0.13394034324E+04  0.13394034324E+04  0.00000000000E+00 0. -1.
          1   -1    0    0  501    0 -0.00000000000E+00 -0.00000000000E+00 -0.10238827226E+03  0.10238827226E+03  0.00000000000E+00 0. -1.
         25    2    1    2    0    0 -0.33588513065E+02 -0.86255033316E+02  0.80124306253E+02  0.17496739383E+03  0.12500226185E+03 0.  0.
          2    1    1    2  501    0  0.19087205956E+02  0.54041598625E+02 -0.39694834296E+02  0.69717255274E+02  0.00000000000E+00 0. -1.
          1    1    1    2  502    0  0.14501307109E+02  0.32213434691E+02  0.11965856882E+04  0.11971070555E+04  0.00000000000E+00 0. -1.
         22    1    3    3    0    0 -0.53558570542E+02 -0.59315275685E+02  0.10590027410E+03  0.13267136263E+03  0.00000000000E+00 0.  1.
         22    1    3    3    0    0  0.19970057477E+02 -0.26939757632E+02 -0.25775967844E+02  0.42296031199E+02  0.00000000000E+00 0.  1.
</event>
<event>
 7    1  0.6444902E-006  0.9620390E+02  0.7818608E-02  0.1423476E+00
          2   -1    0    0  502    0  0.00000000000E+00  0.00000000000E+00  0.37323615024E+03  0.37323615024E+03  0.00000000000E+00 0. -1.
          1   -1    0    0  501    0 -0.00000000000E+00 -0.00000000000E+00 -0.17402022954E+04  0.17402022954E+04  0.00000000000E+00 0. -1.
         25    2    1    2    0    0 -0.11275404419E+03 -0.18216454328E+02 -0.58085197876E+03  0.60502878490E+03  0.12500198252E+03 0.  0.
          2    1    1    2  501    0  0.93547615471E+02 -0.56559073551E+01 -0.11446935660E+04  0.11485236200E+04  0.00000000000E+00 0. -1.
          1    1    1    2  502    0  0.19206428716E+02  0.23872361683E+02  0.35857939957E+03  0.35988604078E+03  0.00000000000E+00 0. -1.
         22    1    3    3    0    0 -0.10238703864E+03 -0.96154914277E+01 -0.20897531883E+03  0.23290823780E+03  0.00000000000E+00 0. -1.
         22    1    3    3    0    0 -0.10367005544E+02 -0.86009629000E+01 -0.37187665993E+03  0.37212054709E+03  0.00000000000E+00 0. -1.
</event>
<event>
 7    1  0.6444902E-006  0.9197418E+02  0.7818608E-02  0.1319966E+00
          2   -1    0    0  502    0  0.00000000000E+00  0.00000000000E+00  0.79274472306E+02  0.79274472306E+02  0.00000000000E+00 0. -1.
          1   -1    0    0  501    0 -0.00000000000E+00 -0.00000000000E+00 -0.14750869234E+04  0.14750869234E+04  0.00000000000E+00 0. -1.
         25    2    1    2    0    0  0.14491840741E+03 -0.26040762785E+02 -0.51069293680E+03  0.54599567633E+03  0.12499814695E+03 0.  0.
          2    1    1    2  501    0 -0.84574618904E+02 -0.19210314083E+02 -0.92083577461E+03  0.92491103687E+03  0.00000000000E+00 0. -1.
          1    1    1    2  502    0 -0.60343788504E+02  0.45251076868E+02  0.35716260367E+02  0.83454682453E+02  0.00000000000E+00 0. -1.
         22    1    3    3    0    0 -0.20982423049E+02 -0.16713912202E+02 -0.63733786969E+02  0.69149204908E+02  0.00000000000E+00 0. -1.
         22    1    3    3    0    0  0.16590083046E+03 -0.93268505823E+01 -0.44695914984E+03  0.47684647142E+03  0.00000000000E+00 0. -1.
</event>
<event>
 7    1  0.6444902E-006  0.4726360E+02  0.7818608E-02  0.1479086E+00
          2   -1    0    0  502    0  0.00000000000E+00  0.00000000000E+00  0.28672232052E+04  0.28672232052E+04  0.00000000000E+00 0. -1.
          1   -1    0    0  501    0 -0.00000000000E+00 -0.00000000000E+00 -0.37067498658E+03  0.37067498658E+03  0.00000000000E+00 0. -1.
         25    2    1    2    0    0 -0.34293601231E+02  0.41589941370E+01  0.39128304691E+02  0.13545834169E+03  0.12499835914E+03 0.  0.
          2    1    1    2  501    0  0.20512033178E+02 -0.43225846593E+02 -0.32058015311E+03  0.32413091782E+03  0.00000000000E+00 0. -1.
          1    1    1    2  502    0  0.13781568053E+02  0.39066852456E+02  0.27780000670E+04  0.27783089322E+04  0.00000000000E+00 0. -1.
         22    1    3    3    0    0 -0.68911365613E+02  0.40132009282E+02  0.25031522706E+02  0.83581885649E+02  0.00000000000E+00 0. -1.
         22    1    3    3    0    0  0.34617764382E+02 -0.35973015145E+02  0.14096781985E+02  0.51876456045E+02  0.00000000000E+00 0. -1.
</event>
<event>
 7    1  0.6444902E-006  0.9093062E+02  0.7818608E-02  0.1402496E+00
          2   -1    0    0  502    0  0.00000000000E+00  0.00000000000E+00  0.76078770087E+03  0.76078770087E+03  0.00000000000E+00 0. -1.
          1   -1    0    0  501    0 -0.00000000000E+00 -0.00000000000E+00 -0.15793883234E+03  0.15793883234E+03  0.00000000000E+00 0. -1.
         25    2    1    2    0    0 -0.66500057401E+02 -0.10439852304E+03  0.20467038721E+03  0.26988197860E+03  0.12500002290E+03 0.  0.
          2    1    1    2  501    0  0.58103724668E+02  0.67178356456E+02 -0.10878958499E+03  0.14044268653E+03  0.00000000000E+00 0. -1.
          1    1    1    2  502    0  0.83963327332E+01  0.37220166581E+02  0.50696806632E+03  0.50840186808E+03  0.00000000000E+00 0. -1.
         22    1    3    3    0    0 -0.70047411287E+01 -0.10994273502E+03  0.97193940252E+02  0.14691199203E+03  0.00000000000E+00 0.  1.
         22    1    3    3    0    0 -0.59495316272E+02  0.55442119841E+01  0.10747644696E+03  0.12296998656E+03  0.00000000000E+00 0.  1.
</event>
<event>
 7    1  0.6444902E-006  0.7119396E+02  0.7818608E-02  0.1415926E+00
          2   -1    0    0  502    0  0.00000000000E+00  0.00000000000E+00  0.39570637126E+03  0.39570637126E+03  0.00000000000E+00 0. -1.
          1   -1    0    0  501    0 -0.00000000000E+00 -0.00000000000E+00 -0.22587957457E+03  0.22587957457E+03  0.00000000000E+00 0. -1.
         25    2    1    2    0    0  0.37280841972E+02  0.48484410441E+02  0.41866686250E+02  0.14532127130E+03  0.12499941296E+03 0.  0.
          2    1    1    2  501    0 -0.36364523846E+02  0.24556084423E+02 -0.16685853295E+03  0.17253159101E+03  0.00000000000E+00 0. -1.
          1    1    1    2  502    0 -0.91631812507E+00 -0.73040494864E+02  0.29481864340E+03  0.30373308352E+03  0.00000000000E+00 0. -1.
         22    1    3    3    0    0 -0.10916437318E+02  0.69842914706E+02  0.56628339842E+02  0.90575770554E+02  0.00000000000E+00 0.  1.
         22    1    3    3    0    0  0.48197279290E+02 -0.21358504264E+02 -0.14761653592E+02  0.54745500748E+02  0.00000000000E+00 0.  1.
</event>
<event>
 7    1  0.6444902E-006  0.1206972E+03  0.7818608E-02  0.1386397E+00
          2   -1    0    0  502    0  0.00000000000E+00  0.00000000000E+00  0.29243136538E+03  0.29243136538E+03  0.00000000000E+00 0. -1.
          1   -1    0    0  501    0 -0.00000000000E+00 -0.00000000000E+00 -0.10786605497E+04  0.10786605497E+04  0.00000000000E+00 0. -1.
         25    2    1    2    0    0  0.12453484713E+03  0.86609829553E+02 -0.57038046496E+03  0.60329763215E+03  0.12499586962E+03 0.  0.
          2    1    1    2  501    0 -0.22091629375E+02 -0.24092608611E+02 -0.47818960853E+03  0.47930553469E+03  0.00000000000E+00 0. -1.
          1    1    1    2  502    0 -0.10244321776E+03 -0.62517220942E+02  0.26234088913E+03  0.28848874829E+03  0.00000000000E+00 0. -1.
         22    1    3    3    0    0  0.25940939016E+02 -0.27439931778E+02 -0.58086221050E+02  0.69281247455E+02  0.00000000000E+00 0. -1.
         22    1    3    3    0    0  0.98593908118E+02  0.11404976133E+03 -0.51229424391E+03  0.53401638470E+03  0.00000000000E+00 0. -1.
</event>
<event>
 7    1  0.6444902E-006  0.5515079E+02  0.7818608E-02  0.1438272E+00
          2   -1    0    0  502    0  0.00000000000E+00  0.00000000000E+00  0.12315794961E+04  0.12315794961E+04  0.00000000000E+00 0. -1.
          1   -1    0    0  501    0 -0.00000000000E+00 -0.00000000000E+00 -0.19555364601E+03  0.19555364601E+03  0.00000000000E+00 0. -1.
         25    2    1    2    0    0  0.86271517650E+02 -0.33123373597E+02  0.69833869003E+03  0.71543067381E+03  0.12499676154E+03 0.  0.
          2    1    1    2  501    0 -0.35871995757E+02  0.31565872107E+02 -0.18271677550E+03  0.18886138941E+03  0.00000000000E+00 0. -1.
          1    1    1    2  502    0 -0.50399521892E+02  0.15575014902E+01  0.52040393556E+03  0.52284107888E+03  0.00000000000E+00 0. -1.
         22    1    3    3    0    0  0.33325398914E+02 -0.72782532751E+02  0.25748194529E+03  0.26963833451E+03  0.00000000000E+00 0. -1.
         22    1    3    3    0    0  0.52946118735E+02  0.39659159154E+02  0.44085674474E+03  0.44579233930E+03  0.00000000000E+00 0. -1.
</event>
<event>
 7    1  0.6444902E-006  0.6917270E+02  0.7818608E-02  0.1413959E+00
          2   -1    0    0  502    0  0.00000000000E+00  0.00000000000E+00  0.36254114992E+03  0.36254114992E+03  0.00000000000E+00 0. -1.
          1   -1    0    0  501    0 -0.00000000000E+00 -0.00000000000E+00 -0.53596705157E+03  0.53596705157E+03  0.00000000000E+00 0. -1.
         25    2    1    2    0    0 -0.97904897865E+02  0.45377017510E+02  0.16751623319E+03  0.23522594822E+03  0.12500046236E+03 0.  0.
          2    1    1    2  501    0  0.67931126400E+02 -0.10674827091E+02 -0.49643197505E+03  0.50117192231E+03  0.00000000000E+00 0. -1.
          1    1    1    2  502    0  0.29973771465E+02 -0.34702190420E+02  0.15548984020E+03  0.16211033095E+03  0.00000000000E+00 0. -1.
         22    1    3    3    0    0 -0.11135304577E+03  0.25832040034E+02  0.17614117942E+03  0.20998216634E+03  0.00000000000E+00 0. -1.
         22    1    3    3    0    0  0.13448147903E+02  0.19544977476E+02 -0.86249462232E+01  0.25243781886E+02  0.00000000000E+00 0. -1.
</event>
<event>
 7    1  0.6444902E-006  0.6518095E+02  0.7818608E-02  0.1503919E+00
          2   -1    0    0  502    0  0.00000000000E+00  0.00000000000E+00  0.15657637665E+04  0.15657637665E+04  0.00000000000E+00 0. -1.
          1   -1    0    0  501    0 -0.00000000000E+00 -0.00000000000E+00 -0.72912666089E+03  0.72912666089E+03  0.00000000000E+00 0. -1.
         25    2    1    2    0    0 -0.80167973703E+01 -0.74592752682E+02  0.21985042834E+03  0.26379463528E+03  0.12500020388E+03 0.  0.
          2    1    1    2  501    0 -0.14679871234E+02  0.63469957554E+02 -0.70553317318E+03  0.70853439761E+03  0.00000000000E+00 0. -1.
          1    1    1    2  502    0  0.22696668604E+02  0.11122795128E+02  0.13223198504E+04  0.13225613945E+04  0.00000000000E+00 0. -1.
         22    1    3    3    0    0  0.14784865250E+02 -0.10218442354E+03  0.19358456911E+03  0.21939743402E+03  0.00000000000E+00 0.  1.
         22    1    3    3    0    0 -0.22801662620E+02  0.27591670861E+02  0.26265859227E+02  0.44397201264E+02  0.00000000000E+00 0.  1.
</event>
<event>
 7    1  0.6444902E-006  0.1460732E+03  0.7818608E-02  0.1354173E+00
          2   -1    0    0  502    0  0.00000000000E+00  0.00000000000E+00  0.14437674744E+04  0.14437674744E+04  0.00000000000E+00 0. -1.
          1   -1    0    0  501    0 -0.00000000000E+00 -0.00000000000E+00 -0.18876558103E+04  0.18876558103E+04  0.00000000000E+00 0. -1.
         25    2    1    2    0    0 -0.46087846294E+02  0.10503669061E+03 -0.11287130506E+02  0.17002684603E+03  0.12499973243E+03 0.  0.
          2    1    1    2  501    0 -0.26368619283E+02  0.23413543723E+02 -0.17928397688E+04  0.17931865310E+04  0.00000000000E+00 0. -1.
          1    1    1    2  502    0  0.72456465577E+02 -0.12845023433E+03  0.13602385634E+04  0.13682099077E+04  0.00000000000E+00 0. -1.
         22    1    3    3    0    0 -0.17213667105E+02 -0.22833667903E+02  0.20443484780E+02  0.35151426643E+02  0.00000000000E+00 0.  1.
         22    1    3    3    0    0 -0.28874179189E+02  0.12787035851E+03 -0.31730615285E+02  0.13487541939E+03  0.00000000000E+00 0.  1.
</event>
<event>
 7    1  0.6444902E-006  0.1133199E+03  0.7818608E-02  0.1420290E+00
          2   -1    0    0  502    0  0.00000000000E+00  0.00000000000E+00  0.32169493637E+03  0.32169493637E+03  0.00000000000E+00 0. -1.
          1   -1    0    0  501    0 -0.00000000000E+00 -0.00000000000E+00 -0.12989463812E+04  0.12989463812E+04  0.00000000000E+00 0. -1.
         25    2    1    2    0    0  0.11048924559E+03  0.28240003600E+02  0.89331193318E+01  0.16943955982E+03  0.12499837046E+03 0.  0.
          2    1    1    2  501    0 -0.10030636551E+03 -0.52873354344E+02 -0.12152813262E+04  0.12205595686E+04  0.00000000000E+00 0. -1.
          1    1    1    2  502    0 -0.10182880082E+02  0.24633350744E+02  0.22909676209E+03  0.23064218915E+03  0.00000000000E+00 0. -1.
         22    1    3    3    0    0 -0.74980189936E+01 -0.25373641666E+01  0.42289554504E+02  0.43024004067E+02  0.00000000000E+00 0.  1.
         22    1    3    3    0    0  0.11798726458E+03  0.30777367767E+02 -0.33356435173E+02  0.12641555576E+03  0.00000000000E+00 0.  1.
</event>
<event>
 7    1  0.6444902E-006  0.9624857E+02  0.7818608E-02  0.1358267E+00
          2   -1    0    0  502    0  0.00000000000E+00  0.00000000000E+00  0.25981205684E+03  0.25981205684E+03  0.00000000000E+00 0. -1.
          1   -1    0    0  501    0 -0.00000000000E+00 -0.00000000000E+00 -0.51562073058E+03  0.51562073058E+03  0.00000000000E+00 0. -1.
         25    2    1    2    0    0  0.76913788913E+02 -0.35877922851E+02 -0.12001226286E+02  0.15156588825E+03  0.12500093110E+03 0.  0.
          2    1    1    2  501    0 -0.21354367019E+02 -0.47081441957E+02 -0.41902285655E+03  0.42219998280E+03  0.00000000000E+00 0. -1.
          1    1    1    2  502    0 -0.55559421893E+02  0.82959364808E+02  0.17521540910E+03  0.20166691637E+03  0.00000000000E+00 0. -1.
         22    1    3    3    0    0  0.13659535682E+02 -0.24319574088E+02 -0.63388054820E+02  0.69253664833E+02  0.00000000000E+00 0.  1.
         22    1    3    3    0    0  0.63254253230E+02 -0.11558348763E+02  0.51386828534E+02  0.82312223422E+02  0.00000000000E+00 0.  1.
</event>
<event>
 7    1  0.6444902E-006  0.1112872E+03  0.7818608E-02  0.1380820E+00
          2   -1    0    0  502    0  0.00000000000E+00  0.00000000000E+00  0.76056829399E+02  0.76056829399E+02  0.00000000000E+00 0. -1.
          1   -1    0    0  501    0 -0.00000000000E+00 -0.00000000000E+00 -0.48396729985E+03  0.48396729985E+03  0.00000000000E+00 0. -1.
         25    2    1    2    0    0  0.35539008084E+02 -0.74295369827E+02 -0.25556474188E+03  0.29617793545E+03  0.12500083632E+03 0.  0.
          2    1    1    2  501    0  0.50816331501E+01 -0.36742602358E+02 -0.14016004648E+03  0.14498510424E+03  0.00000000000E+00 0. -1.
          1    1    1    2  502    0 -0.40620641234E+02  0.11103797218E+03 -0.12185682086E+02  0.11886108955E+03  0.00000000000E+00 0. -1.
         22    1    3    3    0    0 -0.29827827234E+02  0.14013277619E+02 -0.27097285555E+02  0.42665373684E+02  0.00000000000E+00 0.  1.
         22    1    3    3    0    0  0.65366835318E+02 -0.88308647446E+02 -0.22846745633E+03  0.25351256177E+03  0.00000000000E+00 0.  1.
</event>
<event>
 7    1  0.6444902E-006  0.1039253E+03  0.7818608E-02  0.1309355E+00
          2   -1    0    0  502    0  0.00000000000E+00  0.00000000000E+00  0.46399765950E+03  0.46399765950E+03  0.00000000000E+00 0. -1.
          1   -1    0    0  501    0 -0.00000000000E+00 -0.00000000000E+00 -0.30582552640E+04  0.30582552640E+04  0.00000000000E+00 0. -1.
         25    2    1    2    0    0  0.11782238331E+03 -0.93461841550E+02 -0.19429476807E+03  0.27566673537E+03  0.12499784900E+03 0.  0.
          2    1    1    2  501    0 -0.44375345303E+02  0.93163595009E+02 -0.28191374671E+04  0.28210254670E+04  0.00000000000E+00 0. -1.
          1    1    1    2  502    0 -0.73447038009E+02  0.29824654046E+00  0.41917463072E+03  0.42556072114E+03  0.00000000000E+00 0. -1.
         22    1    3    3    0    0  0.44980960434E+02 -0.11046265791E+03 -0.10255648197E+03  0.15729945197E+03  0.00000000000E+00 0. -1.
         22    1    3    3    0    0  0.72841422877E+02  0.17000816363E+02 -0.91738286095E+02  0.11836728340E+03  0.00000000000E+00 0. -1.
</event>
<event>
 7    1  0.6444902E-006  0.1974552E+03  0.7818608E-02  0.1210227E+00
          2   -1    0    0  502    0  0.00000000000E+00  0.00000000000E+00  0.10452327537E+04  0.10452327537E+04  0.00000000000E+00 0. -1.
          1   -1    0    0  501    0 -0.00000000000E+00 -0.00000000000E+00 -0.27685735325E+04  0.27685735325E+04  0.00000000000E+00 0. -1.
         25    2    1    2    0    0 -0.16400417415E+03  0.97673325606E+02 -0.14647366956E+04  0.14824020304E+04  0.12499897753E+03 0.  0.
          2    1    1    2  501    0 -0.33660628218E+02 -0.96915951891E+02 -0.12835136829E+04  0.12876075154E+04  0.00000000000E+00 0. -1.
          1    1    1    2  502    0  0.19766480237E+03 -0.75737371476E+00  0.10249095997E+04  0.10437967404E+04  0.00000000000E+00 0. -1.
         22    1    3    3    0    0  0.14298164312E+02  0.20011812253E+02 -0.70508208881E+02  0.74674745744E+02  0.00000000000E+00 0. -1.
         22    1    3    3    0    0 -0.17830233846E+03  0.77661513353E+02 -0.13942284868E+04  0.14077272846E+04  0.00000000000E+00 0. -1.
</event>
<event>
 7    1  0.6444902E-006  0.6237360E+02  0.7818608E-02  0.1474263E+00
          2   -1    0    0  502    0  0.00000000000E+00  0.00000000000E+00  0.91465632912E+03  0.91465632912E+03  0.00000000000E+00 0. -1.
          1   -1    0    0  501    0 -0.00000000000E+00 -0.00000000000E+00 -0.12308266162E+03  0.12308266162E+03  0.00000000000E+00 0. -1.
         25    2    1    2    0    0 -0.69439604838E+02  0.55033229147E+02  0.57369685771E+03  0.59380478232E+03  0.12500207970E+03 0.  0.
          2    1    1    2  501    0  0.37438010680E+02 -0.49456849219E+02 -0.10363803016E+03  0.12078255617E+03  0.00000000000E+00 0. -1.
          1    1    1    2  502    0  0.32001594158E+02 -0.55763799277E+01  0.32151483996E+03  0.32315165225E+03  0.00000000000E+00 0. -1.
         22    1    3    3    0    0 -0.81792274625E+02  0.60022057524E+02  0.57133793588E+03  0.58027550401E+03  0.00000000000E+00 0.  1.
         22    1    3    3    0    0  0.12352669788E+02 -0.49888283774E+01  0.23589218319E+01  0.13529278313E+02  0.00000000000E+00 0.  1.
</event>
<event>
 7    1  0.6444902E-006  0.5318901E+02  0.7818608E-02  0.1539699E+00
          2   -1    0    0  502    0  0.00000000000E+00  0.00000000000E+00  0.14164203397E+04  0.14164203397E+04  0.00000000000E+00 0. -1.
          1   -1    0    0  501    0 -0.00000000000E+00 -0.00000000000E+00 -0.15552721612E+04  0.15552721612E+04  0.00000000000E+00 0. -1.
         25    2    1    2    0    0  0.17210447988E+02  0.52509739132E+02 -0.71010223282E+03  0.72313434215E+03  0.12499849410E+03 0.  0.
          2    1    1    2  501    0 -0.37204586969E+02 -0.38529162646E+02 -0.83769301543E+03  0.83940351784E+03  0.00000000000E+00 0. -1.
          1    1    1    2  502    0  0.19994138981E+02 -0.13980576486E+02  0.14089434268E+04  0.14091546409E+04  0.00000000000E+00 0. -1.
         22    1    3    3    0    0  0.63536986403E+02  0.59940184766E+02 -0.39378878202E+03  0.40336011111E+03  0.00000000000E+00 0.  1.
         22    1    3    3    0    0 -0.46326538415E+02 -0.74304456340E+01 -0.31631345080E+03  0.31977423104E+03  0.00000000000E+00 0.  1.
</event>
<event>
 7    1  0.6444902E-006  0.5939043E+02  0.7818608E-02  0.1527188E+00
          2   -1    0    0  502    0  0.00000000000E+00  0.00000000000E+00  0.87951828274E+03  0.87951828274E+03  0.00000000000E+00 0. -1.
          1   -1    0    0  501    0 -0.00000000000E+00 -0.00000000000E+00 -0.48852770994E+02  0.48852770994E+02  0.00000000000E+00 0. -1.
         25    2    1    2    0    0 -0.73028207288E+02 -0.25430761275E+02  0.12986797198E+03  0.19613945795E+03  0.12500061656E+03 0.  0.
          2    1    1    2  501    0  0.49553374417E+02  0.22025533296E+02  0.31902424778E+02  0.62916021328E+02  0.00000000000E+00 0. -1.
          1    1    1    2  502    0  0.23474832872E+02  0.34052279791E+01  0.66889511499E+03  0.66931557446E+03  0.00000000000E+00 0. -1.
         22    1    3    3    0    0 -0.32527218446E+02  0.16262152251E+02 -0.15537764740E+02  0.39546171354E+02  0.00000000000E+00 0. -1.
         22    1    3    3    0    0 -0.40500988843E+02 -0.41692913526E+02  0.14540573672E+03  0.15659328659E+03  0.00000000000E+00 0. -1.
</event>
<event>
 7    1  0.6444902E-006  0.6648426E+02  0.7818608E-02  0.1389373E+00
          2   -1    0    0  502    0  0.00000000000E+00  0.00000000000E+00  0.71684463743E+03  0.71684463743E+03  0.00000000000E+00 0. -1.
          1   -1    0    0  501    0 -0.00000000000E+00 -0.00000000000E+00 -0.68879915070E+02  0.68879915070E+02  0.00000000000E+00 0. -1.
         25    2    1    2    0    0 -0.45362250473E+02  0.17040131307E+02  0.36537092539E+02  0.13895611814E+03  0.12500297515E+03 0.  0.
          2    1    1    2  501    0  0.81729977585E+02 -0.62139336352E+02  0.15032500165E+03  0.18204035948E+03  0.00000000000E+00 0. -1.
          1    1    1    2  502    0 -0.36367727112E+02  0.45099205045E+02  0.46110262817E+03  0.46472807488E+03  0.00000000000E+00 0. -1.
         22    1    3    3    0    0  0.25018435685E+02  0.26364055602E+02 -0.25723655024E+02  0.44527429520E+02  0.00000000000E+00 0. -1.
         22    1    3    3    0    0 -0.70380686158E+02 -0.93239242954E+01  0.62260747563E+02  0.94428688625E+02  0.00000000000E+00 0. -1.
</event>
<event>
 7    1  0.6444902E-006  0.4871933E+02  0.7818608E-02  0.1493769E+00
          2   -1    0    0  502    0  0.00000000000E+00  0.00000000000E+00  0.14999376768E+04  0.14999376768E+04  0.00000000000E+00 0. -1.
          1   -1    0    0  501    0 -0.00000000000E+00 -0.00000000000E+00 -0.38697347745E+03  0.38697347745E+03  0.00000000000E+00 0. -1.
         25    2    1    2    0    0  0.41941069501E+02  0.60560455602E+02 -0.49881999306E+02  0.15341944550E+03  0.12499076089E+03 0.  0.
          2    1    1    2  501    0  0.20326784287E+00 -0.36261975424E+02 -0.28376005256E+03  0.28606771857E+03  0.00000000000E+00 0. -1.
          1    1    1    2  502    0 -0.42144337344E+02 -0.24298480178E+02  0.14466062512E+04  0.14474239902E+04  0.00000000000E+00 0. -1.
         22    1    3    3    0    0  0.10547079638E+02 -0.36990304783E+02 -0.30580780577E+02  0.49139675187E+02  0.00000000000E+00 0.  1.
         22    1    3    3    0    0  0.31393989863E+02  0.97550760385E+02 -0.19301218729E+02  0.10427977031E+03  0.00000000000E+00 0.  1.
</event>
<event>
 7    1  0.6444902E-006  0.6206988E+02  0.7818608E-02  0.1447119E+00
          2   -1    0    0  502    0  0.00000000000E+00  0.00000000000E+00  0.91467869704E+03  0.91467869704E+03  0.00000000000E+00 0. -1.
          1   -1    0    0  501    0 -0.00000000000E+00 -0.00000000000E+00 -0.58090157249E+03  0.58090157249E+03  0.00000000000E+00 0. -1.
         25    2    1    2    0    0  0.80211394940E+02 -0.32442505882E+02  0.15668537210E+02  0.15282946469E+03  0.12499983261E+03 0.  0.
          2    1    1    2  501    0 -0.42428365516E+02  0.44793197813E+02 -0.50998509978E+03  0.51370360984E+03  0.00000000000E+00 0. -1.
          1    1    1    2  502    0 -0.37783029424E+02 -0.12350691931E+02  0.82809368712E+03  0.82904719501E+03  0.00000000000E+00 0. -1.
         22    1    3    3    0    0  0.82373051034E+02 -0.68856069351E+02  0.33172567415E+02  0.11236946672E+03  0.00000000000E+00 0. -1.
         22    1    3    3    0    0 -0.21616560938E+01  0.36413563469E+02 -0.17504030206E+02  0.40459997961E+02  0.00000000000E+00 0. -1.
</event>
<event>
 7    1  0.6444902E-006  0.1649048E+03  0.7818608E-02  0.1248151E+00
          2   -1    0    0  502    0  0.00000000000E+00  0.00000000000E+00  0.14591731827E+03  0.14591731827E+03  0.00000000000E+00 0. -1.
          1   -1    0    0  501    0 -0.00000000000E+00 -0.00000000000E+00 -0.25501077258E+04  0.25501077258E+04  0.00000000000E+00 0. -1.
         25    2    1    2    0    0 -0.16081656236E+03  0.18300403712E+03 -0.94516180636E+03  0.98402296558E+03  0.12497164579E+03 0.  0.
          2    1    1    2  501    0  0.52618060819E+02 -0.64181523548E+02 -0.15328914519E+04  0.15351365189E+04  0.00000000000E+00 0. -1.
          1    1    1    2  502    0  0.10819850154E+03 -0.11882251357E+03  0.73862850715E+02  0.17686555963E+03  0.00000000000E+00 0. -1.
         22    1    3    3    0    0 -0.11875660537E+03  0.17042425174E+03 -0.57695898281E+03  0.61321221836E+03  0.00000000000E+00 0. -1.
         22    1    3    3    0    0 -0.42059956985E+02  0.12579785377E+02 -0.36820282355E+03  0.37081074721E+03  0.00000000000E+00 0. -1.
</event>
<event>
 7    1  0.6444902E-006  0.3905107E+02  0.7818608E-02  0.1531763E+00
          2   -1    0    0  502    0  0.00000000000E+00  0.00000000000E+00  0.39088781538E+03  0.39088781538E+03  0.00000000000E+00 0. -1.
          1   -1    0    0  501    0 -0.00000000000E+00 -0.00000000000E+00 -0.29454713134E+03  0.29454713134E+03  0.00000000000E+00 0. -1.
         25    2    1    2    0    0  0.38834860640E+02  0.93164208348E+01 -0.11266609828E+03  0.17295396561E+03  0.12499792967E+03 0.  0.
          2    1    1    2  501    0 -0.31584146201E+02  0.24926129157E+02 -0.14819936219E+03  0.15356406207E+03  0.00000000000E+00 0. -1.
          1    1    1    2  502    0 -0.72507144390E+01 -0.34242549991E+02  0.35720614452E+03  0.35891691904E+03  0.00000000000E+00 0. -1.
         22    1    3    3    0    0  0.13030539234E+02 -0.36604969378E+02 -0.11381708430E+03  0.12026656815E+03  0.00000000000E+00 0. -1.
         22    1    3    3    0    0  0.25804321407E+02  0.45921390213E+02  0.11509860215E+01  0.52687397461E+02  0.00000000000E+00 0. -1.
</event>
<event>
 7    1  0.6444902E-006  0.1170710E+03  0.7818608E-02  0.1251805E+00
          2   -1    0    0  502    0  0.00000000000E+00  0.00000000000E+00  0.42471244609E+04  0.42471244609E+04  0.00000000000E+00 0. -1.
          1   -1    0    0  501    0 -0.00000000000E+00 -0.00000000000E+00 -0.21790719967E+02  0.21790719967E+02  0.00000000000E+00 0. -1.
         25    2    1    2    0    0  0.59581639228E+02  0.69351720087E+02  0.64104859835E+03  0.65949054587E+03  0.12499936736E+03 0.  0.
          2    1    1    2  501    0  0.64159419042E+02 -0.92671979467E+02  0.26784684408E+03  0.29059672867E+03  0.00000000000E+00 0. -1.
          1    1    1    2  502    0 -0.12374105827E+03  0.23320259380E+02  0.33164382986E+04  0.33188279064E+04  0.00000000000E+00 0. -1.
         22    1    3    3    0    0  0.22276538086E+02 -0.35396800167E+02  0.22413831899E+03  0.22800693772E+03  0.00000000000E+00 0.  1.
         22    1    3    3    0    0  0.37305101141E+02  0.10474852025E+03  0.41691027936E+03  0.43148360815E+03  0.00000000000E+00 0.  1.
</event>
<event>
 7    1  0.6444902E-006  0.4387265E+02  0.7818608E-02  0.1582135E+00
          2   -1    0    0  502    0  0.00000000000E+00  0.00000000000E+00  0.44275163196E+03  0.44275163196E+03  0.00000000000E+00 0. -1.
          1   -1    0    0  501    0 -0.00000000000E+00 -0.00000000000E+00 -0.16206724316E+04  0.16206724316E+04  0.00000000000E+00 0. -1.
         25    2    1    2    0    0 -0.77187381023E+01 -0.62236818456E+02 -0.86301320415E+03  0.87426914870E+03  0.12498701270E+03 0.  0.
          2    1    1    2  501    0  0.12743671098E+02  0.18674647934E+02 -0.75076090370E+03  0.75110124361E+03  0.00000000000E+00 0. -1.
          1    1    1    2  502    0 -0.50249329954E+01  0.43562170522E+02  0.43585330819E+03  0.43805367126E+03  0.00000000000E+00 0. -1.
         22    1    3    3    0    0  0.93819870808E+01 -0.93175405497E+02 -0.75084778081E+03  0.75666509621E+03  0.00000000000E+00 0. -1.
         22    1    3    3    0    0 -0.17100725183E+02  0.30938587041E+02 -0.11216542334E+03  0.11760405249E+03  0.00000000000E+00 0. -1.
</event>
<event>
 7    1  0.6444902E-006  0.8350062E+02  0.7818608E-02  0.1397571E+00
          2   -1    0    0  502    0  0.00000000000E+00  0.00000000000E+00  0.18190230892E+04  0.18190230892E+04  0.00000000000E+00 0. -1.
          1   -1    0    0  501    0 -0.00000000000E+00 -0.00000000000E+00 -0.55141484837E+02  0.55141484837E+02  0.00000000000E+00 0. -1.
         25    2    1    2    0    0 -0.20444997667E+02 -0.83690228327E+02  0.75758358573E+03  0.77264520144E+03  0.12500266273E+03 0.  0.
          2    1    1    2  501    0 -0.22659072326E+02  0.80769912768E+02 -0.98400996902E+01  0.84463246025E+02  0.00000000000E+00 0. -1.
          1    1    1    2  502    0  0.43104069992E+02  0.29203155590E+01  0.10161381183E+04  0.10170561266E+04  0.00000000000E+00 0. -1.
         22    1    3    3    0    0 -0.29415049400E+02 -0.10821731726E+02  0.37697949834E+02  0.49025405969E+02  0.00000000000E+00 0.  1.
         22    1    3    3    0    0  0.89700517333E+01 -0.72868496601E+02  0.71988563590E+03  0.72361979547E+03  0.00000000000E+00 0.  1.
</event>
<event>
 7    1  0.6444902E-006  0.5612925E+02  0.7818608E-02  0.1445860E+00
          2   -1    0    0  502    0  0.00000000000E+00  0.00000000000E+00  0.69558355260E+03  0.69558355260E+03  0.00000000000E+00 0. -1.
          1   -1    0    0  501    0 -0.00000000000E+00 -0.00000000000E+00 -0.38445415192E+03  0.38445415192E+03  0.00000000000E+00 0. -1.
         25    2    1    2    0    0 -0.75258351277E+02  0.52843400596E+02  0.51654443855E+02  0.16355220795E+03  0.12499959493E+03 0.  0.
          2    1    1    2  501    0  0.43775427853E+02 -0.72344753532E+01 -0.32569186740E+03  0.32870019502E+03  0.00000000000E+00 0. -1.
          1    1    1    2  502    0  0.31482923423E+02 -0.45608925243E+02  0.58516682423E+03  0.58778530154E+03  0.00000000000E+00 0. -1.
         22    1    3    3    0    0 -0.65082197025E+02  0.45756115910E+02 -0.26933067589E+02  0.83992289184E+02  0.00000000000E+00 0. -1.
         22    1    3    3    0    0 -0.10176154252E+02  0.70872846866E+01  0.78587511444E+02  0.79559918769E+02  0.00000000000E+00 0. -1.
</event>
<event>
 7    1  0.6444902E-006  0.8428895E+02  0.7818608E-02  0.1372069E+00
          2   -1    0    0  502    0  0.00000000000E+00  0.00000000000E+00  0.64268672942E+03  0.64268672942E+03  0.00000000000E+00 0. -1.
          1   -1    0    0  501    0 -0.00000000000E+00 -0.00000000000E+00 -0.33082808034E+04  0.33082808034E+04  0.00000000000E+00 0. -1.
         25    2    1    2    0    0  0.93154157094E+02 -0.91831479299E+02 -0.47962351903E+03  0.51261527276E+03  0.12499992116E+03 0.  0.
          2    1    1    2  501    0 -0.45852549349E+02  0.68788564176E+02 -0.28104472648E+04  0.28116628800E+04  0.00000000000E+00 0. -1.
          1    1    1    2  502    0 -0.47301607745E+02  0.23042915123E+02  0.62447670978E+03  0.62668938007E+03  0.00000000000E+00 0. -1.
         22    1    3    3    0    0  0.47285472173E+02 -0.30066955173E+02 -0.39210778813E+03  0.39609147326E+03  0.00000000000E+00 0.  1.
         22    1    3    3    0    0  0.45868684921E+02 -0.61764524126E+02 -0.87515730894E+02  0.11652379950E+03  0.00000000000E+00 0.  1.
</event>
<event>
 7    1  0.6444902E-006  0.1695283E+03  0.7818608E-02  0.1247039E+00
          2   -1    0    0  502    0  0.00000000000E+00  0.00000000000E+00  0.20863971261E+04  0.20863971261E+04  0.00000000000E+00 0. -1.
          1   -1    0    0  501    0 -0.00000000000E+00 -0.00000000000E+00 -0.57166141799E+03  0.57166141799E+03  0.00000000000E+00 0. -1.
         25    2    1    2    0    0 -0.18963637009E+02  0.24400620399E+03  0.34961131460E+03  0.44468933434E+03  0.12498754203E+03 0.  0.
          2    1    1    2  501    0  0.19823696517E+01 -0.81611365043E+02 -0.51696633200E+03  0.52337227011E+03  0.00000000000E+00 0. -1.
          1    1    1    2  502    0  0.16981267357E+02 -0.16239483895E+03  0.16820907256E+04  0.16899969397E+04  0.00000000000E+00 0. -1.
         22    1    3    3    0    0 -0.36663372518E+02  0.39139753058E+02  0.22161444260E+02  0.58028034307E+02  0.00000000000E+00 0. -1.
         22    1    3    3    0    0  0.17699735509E+02  0.20486645094E+03  0.32744987034E+03  0.38666130003E+03  0.00000000000E+00 0. -1.
</event>
<event>
 7    1  0.6444902E-006  0.4866612E+02  0.7818608E-02  0.1532850E+00
          2   -1    0    0  502    0  0.00000000000E+00  0.00000000000E+00  0.12043567089E+04  0.12043567089E+04  0.00000000000E+00 0. -1.
          1   -1    0    0  501    0 -0.00000000000E+00 -0.00000000000E+00 -0.87099367988E+03  0.87099367988E+03  0.00000000000E+00 0. -1.
         25    2    1    2    0    0  0.58166361951E+01 -0.20373119742E+02  0.32045359275E+02  0.13077009116E+03  0.12500005770E+03 0.  0.
          2    1    1    2  501    0  0.11193487196E+02 -0.25541217071E+02 -0.82086068615E+03  0.82133422794E+03  0.00000000000E+00 0. -1.
          1    1    1    2  502    0 -0.17010123391E+02  0.45914336813E+02  0.11221783558E+04  0.11232460696E+04  0.00000000000E+00 0. -1.
         22    1    3    3    0    0  0.12156785780E+02  0.15799820659E+02 -0.42902702366E+02  0.47308177344E+02  0.00000000000E+00 0. -1.
         22    1    3    3    0    0 -0.63401495851E+01 -0.36172940401E+02  0.74948061640E+02  0.83461913815E+02  0.00000000000E+00 0. -1.
</event>
<event>
 7    1  0.6444902E-006  0.1294658E+03  0.7818608E-02  0.1346661E+00
          2   -1    0    0  502    0  0.00000000000E+00  0.00000000000E+00  0.13805440913E+04  0.13805440913E+04  0.00000000000E+00 0. -1.
          1   -1    0    0  501    0 -0.00000000000E+00 -0.00000000000E+00 -0.65709724691E+03  0.65709724691E+03  0.00000000000E+00 0. -1.
         25    2    1    2    0    0 -0.91552204522E+02  0.40323317703E+02  0.64834934017E+03  0.66782432791E+03  0.12499875977E+03 0.  0.
          2    1    1    2  501    0  0.12835813731E+03 -0.19236272055E+02 -0.64021952698E+03  0.65324336070E+03  0.00000000000E+00 0. -1.
          1    1    1    2  502    0 -0.36805932785E+02 -0.21087045648E+02  0.71531703115E+03  0.71657364956E+03  0.00000000000E+00 0. -1.
         22    1    3    3    0    0 -0.39210216024E+02  0.70051245502E+02  0.51878511027E+03  0.52495962576E+03  0.00000000000E+00 0. -1.
         22    1    3    3    0    0 -0.52341988498E+02 -0.29727927799E+02  0.12956422990E+03  0.14286470215E+03  0.00000000000E+00 0. -1.
</event>
<event>
 7    1  0.6444902E-006  0.7783783E+02  0.7818608E-02  0.1385513E+00
          2   -1    0    0  502    0  0.00000000000E+00  0.00000000000E+00  0.25788898518E+03  0.25788898518E+03  0.00000000000E+00 0. -1.
          1   -1    0    0  501    0 -0.00000000000E+00 -0.00000000000E+00 -0.69403317041E+03  0.69403317041E+03  0.00000000000E+00 0. -1.
         25    2    1    2    0    0 -0.63998349718E+02  0.95052031979E+02 -0.35972949468E+03  0.39769513888E+03  0.12500174636E+03 0.  0.
          2    1    1    2  501    0  0.20904020568E+02 -0.67684890353E+02 -0.30853318159E+03  0.31656112617E+03  0.00000000000E+00 0. -1.
          1    1    1    2  502    0  0.43094329150E+02 -0.27367141626E+02  0.23211849104E+03  0.23766589054E+03  0.00000000000E+00 0. -1.
         22    1    3    3    0    0  0.34991199576E+02  0.45154480014E+02 -0.14923137290E+03  0.15979146965E+03  0.00000000000E+00 0.  1.
         22    1    3    3    0    0 -0.98989549294E+02  0.49897551965E+02 -0.21049812178E+03  0.23790366923E+03  0.00000000000E+00 0.  1.
</event>
<event>
 7    1  0.6444902E-006  0.6947556E+02  0.7818608E-02  0.1437953E+00
          2   -1    0    0  502    0  0.00000000000E+00  0.00000000000E+00  0.34392490592E+04  0.34392490592E+04  0.00000000000E+00 0. -1.
          1   -1    0    0  501    0 -0.00000000000E+00 -0.00000000000E+00 -0.24482669492E+02  0.24482669492E+02  0.00000000000E+00 0. -1.
         25    2    1    2    0    0  0.71845342408E+02 -0.65094416059E+02  0.90744149490E+03  0.92112649329E+03  0.12499965503E+03 0.  0.
          2    1    1    2  501    0 -0.10200966409E+02  0.36627551347E+02  0.38569540815E+01  0.38216662964E+02  0.00000000000E+00 0. -1.
          1    1    1    2  502    0 -0.61644375999E+02  0.28466864712E+02  0.25034679407E+04  0.25043885724E+04  0.00000000000E+00 0. -1.
         22    1    3    3    0    0  0.90747284235E+02 -0.29249171981E+02  0.36751006419E+03  0.37967648194E+03  0.00000000000E+00 0. -1.
         22    1    3    3    0    0 -0.18901941827E+02 -0.35845244078E+02  0.53993143071E+03  0.54145001135E+03  0.00000000000E+00 0. -1.
</event>
<event>
 7    1  0.6444902E-006  0.7257933E+02  0.7818608E-02  0.1471441E+00
          2   -1    0    0  502    0  0.00000000000E+00  0.00000000000E+00  0.23863805111E+03  0.23863805111E+03  0.00000000000E+00 0. -1.
          1   -1    0    0  501    0 -0.00000000000E+00 -0.00000000000E+00 -0.29507590525E+03  0.29507590525E+03  0.00000000000E+00 0. -1.
         25    2    1    2    0    0  0.32752716644E+02  0.41484127631E+02  0.96111257404E+02  0.16630411140E+03  0.12500404144E+03 0.  0.
          2    1    1    2  501    0 -0.61223196598E+02 -0.40610379550E+02 -0.25276459048E+03  0.26322503857E+03  0.00000000000E+00 0. -1.
          1    1    1    2  502    0  0.28470479954E+02 -0.87374808187E+00  0.10021547893E+03  0.10418480639E+03  0.00000000000E+00 0. -1.
         22    1    3    3    0    0  0.75191655479E+02  0.48169608545E+02  0.46511307307E+02  0.10068464604E+03  0.00000000000E+00 0.  1.
         22    1    3    3    0    0 -0.42438938836E+02 -0.66854809132E+01  0.49599950097E+02  0.65619465360E+02  0.00000000000E+00 0.  1.
</event>
<event>
 7    1  0.6444902E-006  0.1749893E+03  0.7818608E-02  0.1187782E+00
          2   -1    0    0  502    0  0.00000000000E+00  0.00000000000E+00  0.91598090146E+03  0.91598090146E+03  0.00000000000E+00 0. -1.
          1   -1    0    0  501    0 -0.00000000000E+00 -0.00000000000E+00 -0.29196470573E+03  0.29196470573E+03  0.00000000000E+00 0. -1.
         25    2    1    2    0    0  0.47480259757E+02 -0.15750990429E+03  0.98892890334E+02  0.22906010731E+03  0.12499993594E+03 0.  0.
          2    1    1    2  501    0  0.12278423446E+03  0.82245730744E+02 -0.18955683425E+03  0.24035831974E+03  0.00000000000E+00 0. -1.
          1    1    1    2  502    0 -0.17026449422E+03  0.75264173543E+02  0.71468013964E+03  0.73852718014E+03  0.00000000000E+00 0. -1.
         22    1    3    3    0    0 -0.41847524479E+02 -0.33193888453E+02  0.28985231387E+02  0.60771647782E+02  0.00000000000E+00 0. -1.
         22    1    3    3    0    0  0.89327784236E+02 -0.12431601583E+03  0.69907658947E+02  0.16828845952E+03  0.00000000000E+00 0. -1.
</event>
<event>
 7    1  0.6444902E-006  0.5807949E+02  0.7818608E-02  0.1445185E+00
          2   -1    0    0  502    0  0.00000000000E+00  0.00000000000E+00  0.10171750464E+04  0.10171750464E+04  0.00000000000E+00 0. -1.
          1   -1    0    0  501    0 -0.00000000000E+00 -0.00000000000E+00 -0.29671599499E+03  0.29671599499E+03  0.00000000000E+00 0. -1.
         25    2    1    2    0    0  0.12613284624E+02 -0.95106979256E+02  0.20991749764E+03  0.26247837564E+03  0.12500043764E+03 0.  0.
          2    1    1    2  501    0  0.77185078639E+01  0.57110157875E+02 -0.26676173917E+03  0.27291568475E+03  0.00000000000E+00 0. -1.
          1    1    1    2  502    0 -0.20331792488E+02  0.37996821381E+02  0.77730329297E+03  0.77849698103E+03  0.00000000000E+00 0. -1.
         22    1    3    3    0    0 -0.26083512786E+02 -0.10824095122E+03  0.11991975060E+03  0.16363740326E+03  0.00000000000E+00 0. -1.
         22    1    3    3    0    0  0.38696797410E+02  0.13133971964E+02  0.89997747038E+02  0.98840972382E+02  0.00000000000E+00 0. -1.
</event>
<event>
 7    1  0.6444902E-006  0.1030871E+03  0.7818608E-02  0.1388953E+00
          2   -1    0    0  502    0  0.00000000000E+00  0.00000000000E+00  0.38772707545E+02  0.38772707545E+02  0.00000000000E+00 0. -1.
          1   -1    0    0  501    0 -0.00000000000E+00 -0.00000000000E+00 -0.17831515080E+04  0.17831515080E+04  0.00000000000E+00 0. -1.
         25    2    1    2    0    0  0.11731803566E+01  0.93762161102E+02 -0.23815537066E+03  0.28484022108E+03  0.12499300685E+03 0.  0.
          2    1    1    2  501    0  0.36097912271E+02 -0.97817027469E+02 -0.14940243859E+04  0.14976582040E+04  0.00000000000E+00 0. -1.
          1    1    1    2  502    0 -0.37271092627E+02  0.40548663668E+01 -0.12199043878E+02  0.39425790524E+02  0.00000000000E+00 0. -1.
         22    1    3    3    0    0 -0.41423953897E+02  0.19856100126E+02 -0.16868403836E+03  0.17482709592E+03  0.00000000000E+00 0.  1.
         22    1    3    3    0    0  0.42597134254E+02  0.73906060976E+02 -0.69471332299E+02  0.11001312516E+03  0.00000000000E+00 0.  1.
</event>
<event>
 7    1  0.6444902E-006  0.1357651E+03  0.7818608E-02  0.1232906E+00
          2   -1    0    0  502    0  0.00000000000E+00  0.00000000000E+00  0.13045490654E+04  0.13045490654E+04  0.00000000000E+00 0. -1.
          1   -1    0    0  501    0 -0.00000000000E+00 -0.00000000000E+00 -0.26419432998E+03  0.26419432998E+03  0.00000000000E+00 0. -1.
         25    2    1    2    0    0 -0.18850526860E+03  0.25554362481E+01  0.32955447550E+03  0.39971516070E+03  0.12500116329E+03 0.  0.
          2    1    1    2  501    0  0.82762197311E+02 -0.83646848815E+02 -0.20887994730E+03  0.23974404894E+03  0.00000000000E+00 0. -1.
          1    1    1    2  502    0  0.10574307129E+03  0.81091412567E+02  0.91968020725E+03  0.92928418577E+03  0.00000000000E+00 0. -1.
         22    1    3    3    0    0 -0.11903477367E+02 -0.24140924098E+02  0.24534902883E+01  0.27027700685E+02  0.00000000000E+00 0. -1.
         22    1    3    3    0    0 -0.17660179124E+03  0.26696360346E+02  0.32710098521E+03  0.37268746001E+03  0.00000000000E+00 0. -1.
</event>
<event>
 7    1  0.6444902E-006  0.1081814E+03  0.7818608E-02  0.1276577E+00
          2   -1    0    0  502    0  0.00000000000E+00  0.00000000000E+00  0.30657716840E+04  0.30657716840E+04  0.00000000000E+00 0. -1.
          1   -1    0    0  501    0 -0.00000000000E+00 -0.00000000000E+00 -0.20475860380E+04  0.20475860380E+04  0.00000000000E+00 0. -1.
         25    2    1    2    0    0  0.95123881163E+02  0.17661363963E+03  0.43980689067E+03  0.49929637740E+03  0.12500336368E+03 0.  0.
          2    1    1    2  501    0 -0.47639305014E+02 -0.83087376806E+02 -0.20156443247E+04  0.20179184967E+04  0.00000000000E+00 0. -1.
          1    1    1    2  502    0 -0.47484576149E+02 -0.93526262827E+02  0.25940230801E+04  0.25961428479E+04  0.00000000000E+00 0. -1.
         22    1    3    3    0    0 -0.17413259634E+02  0.88643724329E+02  0.21153027548E+03  0.23001301902E+03  0.00000000000E+00 0.  1.
         22    1    3    3    0    0  0.11253714080E+03  0.87969915304E+02  0.22827661519E+03  0.26928335838E+03  0.00000000000E+00 0.  1.
</event>
<event>
 7    1  0.6444902E-006  0.4693290E+02  0.7818608E-02  0.1580073E+00
          2   -1    0    0  502    0  0.00000000000E+00  0.00000000000E+00  0.16226614729E+04  0.16226614729E+04  0.00000000000E+00 0. -1.
          1   -1    0    0  501    0 -0.00000000000E+00 -0.00000000000E+00 -0.10117140334E+03  0.10117140334E+03  0.00000000000E+00 0. -1.
         25    2    1    2    0    0  0.41352951360E+02 -0.15833790509E+02  0.23505516887E+03  0.26988304568E+03  0.12500060171E+03 0.  0.
          2    1    1    2  501    0 -0.31651601129E+02  0.34913664258E+02 -0.77038183420E+02  0.90308745482E+02  0.00000000000E+00 0. -1.
          1    1    1    2  502    0 -0.97013502317E+01 -0.19079873749E+02  0.13634730841E+04  0.13636410851E+04  0.00000000000E+00 0. -1.
         22    1    3    3    0    0  0.19127947326E+02 -0.43520835487E+02  0.22898053726E+03  0.23386326760E+03  0.00000000000E+00 0.  1.
         22    1    3    3    0    0  0.22225004035E+02  0.27687044978E+02  0.60746316108E+01  0.36019778083E+02  0.00000000000E+00 0.  1.
</event>
<event>
 7    1  0.6444902E-006  0.1031840E+03  0.7818608E-02  0.1293565E+00
          2   -1    0    0  502    0  0.00000000000E+00  0.00000000000E+00  0.52704669654E+03  0.52704669654E+03  0.00000000000E+00 0. -1.
          1   -1    0    0  501    0 -0.00000000000E+00 -0.00000000000E+00 -0.21848871519E+04  0.21848871519E+04  0.00000000000E+00 0. -1.
         25    2    1    2    0    0  0.94506684556E+02 -0.47788106671E+02 -0.91474770579E+02  0.18764371645E+03  0.12500925608E+03 0.  0.
          2    1    1    2  501    0  0.29089182371E+01  0.85488112736E+02 -0.20387252341E+04  0.20405188701E+04  0.00000000000E+00 0. -1.
          1    1    1    2  502    0 -0.97415602793E+02 -0.37700006065E+02  0.47235954923E+03  0.48377126194E+03  0.00000000000E+00 0. -1.
         22    1    3    3    0    0  0.99008653329E+02  0.13045454024E+02 -0.73673360082E+02  0.12409940085E+03  0.00000000000E+00 0.  1.
         22    1    3    3    0    0 -0.45019687725E+01 -0.60833560696E+02 -0.17801410497E+02  0.63544315603E+02  0.00000000000E+00 0.  1.
</event>
<event>
 7    1  0.6444902E-006  0.3534538E+02  0.7818608E-02  0.1613744E+00
          2   -1    0    0  502    0  0.00000000000E+00  0.00000000000E+00  0.25975258885E+03  0.25975258885E+03  0.00000000000E+00 0. -1.
          1   -1    0    0  501    0 -0.00000000000E+00 -0.00000000000E+00 -0.21083150673E+03  0.21083150673E+03  0.00000000000E+00 0. -1.
         25    2    1    2    0    0  0.16499744672E+02 -0.12911847006E+02  0.14784725057E+01  0.12675513275E+03  0.12500288169E+03 0.  0.
          2    1    1    2  501    0 -0.77743761918E+01 -0.21848668088E+02 -0.14562661485E+03  0.14746157525E+03  0.00000000000E+00 0. -1.
          1    1    1    2  502    0 -0.87253684806E+01  0.34760515093E+02  0.19306922447E+03  0.19636738758E+03  0.00000000000E+00 0. -1.
         22    1    3    3    0    0 -0.52921725445E+02  0.18053057356E+01  0.13818592077E+02  0.54725877242E+02  0.00000000000E+00 0. -1.
         22    1    3    3    0    0  0.69421470118E+02 -0.14717152741E+02 -0.12340119571E+02  0.72029255509E+02  0.00000000000E+00 0. -1.
</event>
<event>
 7    1  0.6444902E-006  0.1294071E+03  0.7818608E-02  0.1345747E+00
          2   -1    0    0  502    0  0.00000000000E+00  0.00000000000E+00  0.14008773824E+04  0.14008773824E+04  0.00000000000E+00 0. -1.
          1   -1    0    0  501    0 -0.00000000000E+00 -0.00000000000E+00 -0.72173033409E+03  0.72173033409E+03  0.00000000000E+00 0. -1.
         25    2    1    2    0    0 -0.16568118637E+03 -0.10606739844E+02  0.18779031995E+03  0.28009942421E+03  0.12501089844E+03 0.  0.
          2    1    1    2  501    0  0.12581339649E+03  0.26098174637E+02 -0.66906857266E+03  0.68129500246E+03  0.00000000000E+00 0. -1.
          1    1    1    2  502    0  0.39867789881E+02 -0.15491434793E+02  0.11604253010E+04  0.11612132898E+04  0.00000000000E+00 0. -1.
         22    1    3    3    0    0 -0.11737955553E+03  0.70597946659E+01  0.19545352117E+03  0.22810059117E+03  0.00000000000E+00 0. -1.
         22    1    3    3    0    0 -0.48301630845E+02 -0.17666534510E+02 -0.76632012232E+01  0.51998833034E+02  0.00000000000E+00 0. -1.
</event>
<event>
 7    1  0.6444902E-006  0.3283426E+02  0.7818608E-02  0.1611689E+00
          2   -1    0    0  502    0  0.00000000000E+00  0.00000000000E+00  0.15058374442E+04  0.15058374442E+04  0.00000000000E+00 0. -1.
          1   -1    0    0  501    0 -0.00000000000E+00 -0.00000000000E+00 -0.44544912441E+03  0.44544912441E+03  0.00000000000E+00 0. -1.
         25    2    1    2    0    0 -0.39336741745E+02 -0.29097390064E+02  0.72732873493E+03  0.73961314453E+03  0.12500591005E+03 0.  0.
          2    1    1    2  501    0  0.25269673687E+02  0.92615193566E-01 -0.43860673350E+03  0.43933407750E+03  0.00000000000E+00 0. -1.
          1    1    1    2  502    0  0.14067068058E+02  0.29004774870E+02  0.77166631835E+03  0.77233934656E+03  0.00000000000E+00 0. -1.
         22    1    3    3    0    0 -0.65781097712E+02  0.22145237121E+02  0.27501375979E+03  0.28363732550E+03  0.00000000000E+00 0.  1.
         22    1    3    3    0    0  0.26444355967E+02 -0.51242627185E+02  0.45231497514E+03  0.45597581903E+03  0.00000000000E+00 0.  1.
</event>
<event>
 7    1  0.6444902E-006  0.8831135E+02  0.7818608E-02  0.1418676E+00
          2   -1    0    0  502    0  0.00000000000E+00  0.00000000000E+00  0.16198678826E+04  0.16198678826E+04  0.00000000000E+00 0. -1.
          1   -1    0    0  501    0 -0.00000000000E+00 -0.00000000000E+00 -0.61155012743E+02  0.61155012743E+02  0.00000000000E+00 0. -1.
         25    2    1    2    0    0  0.51478537323E+02 -0.32341531420E+02  0.12775316009E+04  0.12850717200E+04  0.12500527886E+03 0.  0.
          2    1    1    2  501    0 -0.85416913911E+02  0.25449617626E+02 -0.21182852402E+02  0.91610291208E+02  0.00000000000E+00 0. -1.
          1    1    1    2  502    0  0.33938376588E+02  0.68919137934E+01  0.30236412133E+03  0.30434088412E+03  0.00000000000E+00 0. -1.
         22    1    3    3    0    0  0.69961895323E+02 -0.64787785652E+02  0.71930318008E+03  0.72559574754E+03  0.00000000000E+00 0. -1.
         22    1    3    3    0    0 -0.18483358000E+02  0.32446254232E+02  0.55822842081E+03  0.55947597244E+03  0.00000000000E+00 0. -1.
</event>
<event>
 7    1  0.6444902E-006  0.1554029E+03  0.7818608E-02  0.1394543E+00
          2   -1    0    0  502    0  0.00000000000E+00  0.00000000000E+00  0.99939629653E+02  0.99939629653E+02  0.00000000000E+00 0. -1.
          1   -1    0    0  501    0 -0.00000000000E+00 -0.00000000000E+00 -0.86059715599E+03  0.86059715599E+03  0.00000000000E+00 0. -1.
         25    2    1    2    0    0 -0.53583308652E+02 -0.14619652635E+03 -0.47017499921E+03  0.51081727091E+03  0.12500063638E+03 0.  0.
          2    1    1    2  501    0  0.75329361306E+02  0.13657343163E+03 -0.35132739116E+03  0.38439270373E+03  0.00000000000E+00 0. -1.
          1    1    1    2  502    0 -0.21746052654E+02  0.96230947179E+01  0.60844864027E+02  0.65326811008E+02  0.00000000000E+00 0. -1.
         22    1    3    3    0    0 -0.64517573714E+02 -0.13486999687E+02 -0.13748140826E+03  0.15246492743E+03  0.00000000000E+00 0.  1.
         22    1    3    3    0    0  0.10934265062E+02 -0.13270952666E+03 -0.33269359095E+03  0.35835234348E+03  0.00000000000E+00 0.  1.
</event>
<event>
 7    1  0.6444902E-006  0.9797881E+02  0.7818608E-02  0.1436098E+00
          2   -1    0    0  502    0  0.00000000000E+00  0.00000000000E+00  0.17505688841E+04  0.17505688841E+04  0.00000000000E+00 0. -1.
          1   -1    0    0  501    0 -0.00000000000E+00 -0.00000000000E+00 -0.13424571710E+04  0.13424571710E+04  0.00000000000E+00 0. -1.
         25    2    1    2    0    0 -0.90417745991E+02  0.63414723706E+02  0.12715742611E+04  0.12824691929E+04  0.12501733170E+03 0.  0.
          2    1    1    2  501    0  0.91077917748E+02 -0.36084062626E+02 -0.13348185605E+04  0.13384086954E+04  0.00000000000E+00 0. -1.
          1    1    1    2  502    0 -0.66017175667E+00 -0.27330661079E+02  0.47135601250E+03  0.47214816677E+03  0.00000000000E+00 0. -1.
         22    1    3    3    0    0 -0.50459195523E+02 -0.11361510340E+02  0.89391816363E+03  0.89541325521E+03  0.00000000000E+00 0. -1.
         22    1    3    3    0    0 -0.39958550468E+02  0.74776234046E+02  0.37765609744E+03  0.38705593765E+03  0.00000000000E+00 0. -1.
</event>
<event>
 7    1  0.6444902E-006  0.7501284E+02  0.7818608E-02  0.1391043E+00
          2   -1    0    0  502    0  0.00000000000E+00  0.00000000000E+00  0.23652237017E+04  0.23652237017E+04  0.00000000000E+00 0. -1.
          1   -1    0    0  501    0 -0.00000000000E+00 -0.00000000000E+00 -0.78031256621E+03  0.78031256621E+03  0.00000000000E+00 0. -1.
         25    2    1    2    0    0 -0.69648220883E+02  0.52409972581E+02  0.13902731079E+04  0.13985990438E+04  0.12498916350E+03 0.  0.
          2    1    1    2  501    0  0.22716307265E+02 -0.71495925196E+02 -0.77367308519E+03  0.77730157640E+03  0.00000000000E+00 0. -1.
          1    1    1    2  502    0  0.46931913617E+02  0.19085952616E+02  0.96831111278E+03  0.96963564767E+03  0.00000000000E+00 0. -1.
         22    1    3    3    0    0 -0.80962916817E+02  0.40226571884E+02  0.49602427014E+03  0.50419564412E+03  0.00000000000E+00 0. -1.
         22    1    3    3    0    0  0.11314695935E+02  0.12183400696E+02  0.89424883775E+03  0.89440339971E+03  0.00000000000E+00 0. -1.
</event>
<event>
 7    1  0.6444902E-006  0.1229855E+03  0.7818608E-02  0.1298629E+00
          2   -1    0    0  502    0  0.00000000000E+00  0.00000000000E+00  0.99217128689E+03  0.99217128689E+03  0.00000000000E+00 0. -1.
          1   -1    0    0  501    0 -0.00000000000E+00 -0.00000000000E+00 -0.48961603342E+02  0.48961603342E+02  0.00000000000E+00 0. -1.
         25    2    1    2    0    0 -0.20027911233E+01 -0.13724100907E+03  0.55138187184E+03  0.58179512774E+03  0.12499798528E+03 0.  0.
          2    1    1    2  501    0 -0.59746637822E+02  0.33448936620E+02  0.24595230118E+02  0.72755875615E+02  0.00000000000E+00 0. -1.
          1    1    1    2  502    0  0.61749428945E+02  0.10379207245E+03  0.36723258159E+03  0.38658188688E+03  0.00000000000E+00 0. -1.
         22    1    3    3    0    0 -0.21706604299E+02  0.18141308636E+02  0.67256214507E+02  0.72963567203E+02  0.00000000000E+00 0. -1.
         22    1    3    3    0    0  0.19703813175E+02 -0.15538231771E+03  0.48412565733E+03  0.50883156053E+03  0.00000000000E+00 0. -1.
</event>
<event>
 7    1  0.6444902E-006  0.9879689E+02  0.7818608E-02  0.1412484E+00
          2   -1    0    0  502    0  0.00000000000E+00  0.00000000000E+00  0.12460502194E+04  0.12460502194E+04  0.00000000000E+00 0. -1.
          1   -1    0    0  501    0 -0.00000000000E+00 -0.00000000000E+00 -0.19120851097E+03  0.19120851097E+03  0.00000000000E+00 0. -1.
         25    2    1    2    0    0 -0.91552758247E+02  0.19962940110E+02  0.17889030552E+03  0.23750058569E+03  0.12499744107E+03 0.  0.
          2    1    1    2  501    0  0.85000434743E+02 -0.51770416942E+02 -0.14632611877E+03  0.17696492028E+03  0.00000000000E+00 0. -1.
          1    1    1    2  502    0  0.65523235042E+01  0.31807476833E+02  0.10222775217E+04  0.10227932244E+04  0.00000000000E+00 0. -1.
         22    1    3    3    0    0 -0.10606580881E+03  0.49957835135E+02  0.16246358532E+03  0.20035008771E+03  0.00000000000E+00 0.  1.
         22    1    3    3    0    0  0.14513050558E+02 -0.29994895025E+02  0.16426720197E+02  0.37150497984E+02  0.00000000000E+00 0.  1.
</event>
<event>
 7    1  0.6444902E-006  0.4216305E+02  0.7818608E-02  0.1544964E+00
          2   -1    0    0  502    0  0.00000000000E+00  0.00000000000E+00  0.13036979476E+04  0.13036979476E+04  0.00000000000E+00 0. -1.
          1   -1    0    0  501    0 -0.00000000000E+00 -0.00000000000E+00 -0.18923246964E+04  0.18923246964E+04  0.00000000000E+00 0. -1.
         25    2    1    2    0    0 -0.69797818204E+02  0.35919042000E+00 -0.13849420390E+03  0.19919016791E+03  0.12499685611E+03 0.  0.
          2    1    1    2  501    0  0.41203998533E+02  0.78302316257E+01 -0.17230535959E+04  0.17235639752E+04  0.00000000000E+00 0. -1.
          1    1    1    2  502    0  0.28593819671E+02 -0.81894220457E+01  0.12729210511E+04  0.12732685009E+04  0.00000000000E+00 0. -1.
         22    1    3    3    0    0 -0.17328173116E+02 -0.60427375799E+02 -0.61312177038E+02  0.87811823706E+02  0.00000000000E+00 0.  1.
         22    1    3    3    0    0 -0.52469645089E+02  0.60786566219E+02 -0.77182026860E+02  0.11137834421E+03  0.00000000000E+00 0.  1.
</event>
<event>
 7    1  0.1569633E-005  0.1052125E+03  0.7818608E-02  0.1309171E+00
          2   -1    0    0  502    0  0.00000000000E+00  0.00000000000E+00  0.18914452530E+04  0.18914452530E+04  0.00000000000E+00 0. -1.
          1   -1    0    0  501    0 -0.00000000000E+00 -0.00000000000E+00 -0.14293951050E+04  0.14293951050E+04  0.00000000000E+00 0. -1.
         25    2    1    2    0    0  0.58281875225E+01  0.43636006235E+02 -0.34115664916E+03  0.36599717043E+03  0.12501200217E+03 0.  0.
          2    1    1    2  501    0  0.62888847249E+02  0.36413682273E+02 -0.10731075175E+04  0.10755652967E+04  0.00000000000E+00 0. -1.
          1    1    1    2  502    0 -0.68717034772E+02 -0.80049688508E+02  0.18763143147E+04  0.18792778908E+04  0.00000000000E+00 0. -1.
         22    1    3    3    0    0  0.51930131005E+02 -0.18368356855E+02 -0.13244468874E+03  0.14344242962E+03  0.00000000000E+00 0.  1.
         22    1    3    3    0    0 -0.46101943483E+02  0.62004363090E+02 -0.20871196041E+03  0.22255474080E+03  0.00000000000E+00 0.  1.
</event>
<event>
 7    1  0.6444902E-006  0.3641162E+02  0.7818608E-02  0.1629551E+00
          2   -1    0    0  502    0  0.00000000000E+00  0.00000000000E+00  0.42953786202E+03  0.42953786202E+03  0.00000000000E+00 0. -1.
          1   -1    0    0  501    0 -0.00000000000E+00 -0.00000000000E+00 -0.45255706492E+03  0.45255706492E+03  0.00000000000E+00 0. -1.
         25    2    1    2    0    0  0.52451724807E+02 -0.50468721602E+01  0.13774963059E+03  0.19333052951E+03  0.12500031424E+03 0.  0.
          2    1    1    2  501    0 -0.17204551224E+02  0.11188330450E+02 -0.42330466859E+03  0.42380186146E+03  0.00000000000E+00 0. -1.
          1    1    1    2  502    0 -0.35247173583E+02 -0.61414582903E+01  0.26253583510E+03  0.26496253597E+03  0.00000000000E+00 0. -1.
         22    1    3    3    0    0 -0.16273943862E+02  0.19629079564E+01 -0.17150371852E+02  0.23724028139E+02  0.00000000000E+00 0. -1.
         22    1    3    3    0    0  0.68725668668E+02 -0.70097801166E+01  0.15490000244E+03  0.16960650137E+03  0.00000000000E+00 0. -1.
</event>
<event>
 7    1  0.6444902E-006  0.8525393E+02  0.7818608E-02  0.1411934E+00
          2   -1    0    0  502    0  0.00000000000E+00  0.00000000000E+00  0.20082434524E+04  0.20082434524E+04  0.00000000000E+00 0. -1.
          1   -1    0    0  501    0 -0.00000000000E+00 -0.00000000000E+00 -0.10937770090E+03  0.10937770090E+03  0.00000000000E+00 0. -1.
         25    2    1    2    0    0 -0.65436457254E+02  0.46363342146E+02  0.26471909158E+03  0.30353023969E+03  0.12499167783E+03 0.  0.
          2    1    1    2  501    0  0.41434691673E+02 -0.75559513009E+02 -0.69079910164E+02  0.11044504366E+03  0.00000000000E+00 0. -1.
          1    1    1    2  502    0  0.24001765582E+02  0.29196170863E+02  0.17032265701E+04  0.17036458700E+04  0.00000000000E+00 0. -1.
         22    1    3    3    0    0  0.26702075355E+02 -0.32633924999E+01  0.13096646915E+03  0.13370066043E+03  0.00000000000E+00 0.  1.
         22    1    3    3    0    0 -0.92138532609E+02  0.49626734646E+02  0.13375262243E+03  0.16982957925E+03  0.00000000000E+00 0.  1.
</event>
<event>
 7    1  0.6444902E-006  0.7828841E+02  0.7818608E-02  0.1367894E+00
          2   -1    0    0  502    0  0.00000000000E+00  0.00000000000E+00  0.20429549727E+04  0.20429549727E+04  0.00000000000E+00 0. -1.
          1   -1    0    0  501    0 -0.00000000000E+00 -0.00000000000E+00 -0.11366057355E+03  0.11366057355E+03  0.00000000000E+00 0. -1.
         25    2    1    2    0    0 -0.90697440311E+02  0.31662196755E+02  0.86034913412E+03  0.87467368859E+03  0.12499963420E+03 0.  0.
          2    1    1    2  501    0  0.47996769125E+02  0.33690373438E+02 -0.97020620486E+02  0.11336547935E+03  0.00000000000E+00 0. -1.
          1    1    1    2  502    0  0.42700671187E+02 -0.65352570193E+02  0.11659658855E+04  0.11685763783E+04  0.00000000000E+00 0. -1.
         22    1    3    3    0    0 -0.94606674599E+02  0.64924593396E+02  0.76622562934E+03  0.77476921774E+03  0.00000000000E+00 0.  1.
         22    1    3    3    0    0  0.39092342876E+01 -0.33262396641E+02  0.94123504780E+02  0.99904470847E+02  0.00000000000E+00 0.  1.
</event>
<event>
 7    1  0.6444902E-006  0.5141090E+02  0.7818608E-02  0.1471027E+00
          2   -1    0    0  502    0  0.00000000000E+00  0.00000000000E+00  0.25942020845E+04  0.25942020845E+04  0.00000000000E+00 0. -1.
          1   -1    0    0  501    0 -0.00000000000E+00 -0.00000000000E+00 -0.14284482698E+03  0.14284482698E+03  0.00000000000E+00 0. -1.
         25    2    1    2    0    0  0.89762530212E+01 -0.33624899289E+02  0.10196996208E+03  0.16502742532E+03  0.12499988389E+03 0.  0.
          2    1    1    2  501    0  0.30186084228E+02  0.43265188533E+02 -0.10489070656E+03  0.11741012112E+03  0.00000000000E+00 0. -1.
          1    1    1    2  502    0 -0.39162337249E+02 -0.96402892439E+01  0.24542780020E+04  0.24546093650E+04  0.00000000000E+00 0. -1.
         22    1    3    3    0    0  0.61377210649E+02 -0.44762630136E+02  0.55075509203E+02  0.93830521462E+02  0.00000000000E+00 0. -1.
         22    1    3    3    0    0 -0.52400957628E+02  0.11137730846E+02  0.46894452873E+02  0.71196903858E+02  0.00000000000E+00 0. -1.
</event>
<event>
 7    1  0.6444902E-006  0.1356003E+03  0.7818608E-02  0.1239201E+00
          2   -1    0    0  502    0  0.00000000000E+00  0.00000000000E+00  0.11323957249E+04  0.11323957249E+04  0.00000000000E+00 0. -1.
          1   -1    0    0  501    0 -0.00000000000E+00 -0.00000000000E+00 -0.39229808226E+03  0.39229808226E+03  0.00000000000E+00 0. -1.
         25    2    1    2    0    0 -0.13996296262E+03  0.89128408537E+02  0.10464606265E+03  0.23261516336E+03  0.12500204672E+03 0.  0.
          2    1    1    2  501    0  0.54104629135E+01 -0.11033976818E+03 -0.31402029028E+03  0.33288568647E+03  0.00000000000E+00 0. -1.
          1    1    1    2  502    0  0.13455249971E+03  0.21211359646E+02  0.94947187030E+03  0.95919295736E+03  0.00000000000E+00 0. -1.
         22    1    3    3    0    0 -0.83359933408E+02  0.11011884836E+03  0.39178548727E+02  0.14356182620E+03  0.00000000000E+00 0.  1.
         22    1    3    3    0    0 -0.56603029211E+02 -0.20990439822E+02  0.65467513925E+02  0.89053337160E+02  0.00000000000E+00 0.  1.
</event>
<event>
 7    1  0.6444902E-006  0.9841681E+02  0.7818608E-02  0.1477978E+00
          2   -1    0    0  502    0  0.00000000000E+00  0.00000000000E+00  0.15672461214E+02  0.15672461214E+02  0.00000000000E+00 0. -1.
          1   -1    0    0  501    0 -0.00000000000E+00 -0.00000000000E+00 -0.26247464050E+04  0.26247464050E+04  0.00000000000E+00 0. -1.
         25    2    1    2    0    0 -0.95821428274E+02 -0.23482401819E+02 -0.18490466438E+04  0.18558912141E+04  0.12500215378E+03 0.  0.
          2    1    1    2  501    0 -0.27030179382E+01  0.19868219265E+02 -0.57084241077E+03  0.57119445933E+03  0.00000000000E+00 0. -1.
          1    1    1    2  502    0  0.98524446212E+02  0.36141825531E+01 -0.18918488921E+03  0.21333319273E+03  0.00000000000E+00 0. -1.
         22    1    3    3    0    0 -0.10756329236E+03 -0.45669620275E+02 -0.17430455314E+04  0.17469582996E+04  0.00000000000E+00 0.  1.
         22    1    3    3    0    0  0.11741864083E+02  0.22187218457E+02 -0.10600111239E+03  0.10893291451E+03  0.00000000000E+00 0.  1.
</event>
<event>
 7    1  0.6444902E-006  0.9100925E+02  0.7818608E-02  0.1419370E+00
          2   -1    0    0  502    0  0.00000000000E+00  0.00000000000E+00  0.84920184350E+03  0.84920184350E+03  0.00000000000E+00 0. -1.
          1   -1    0    0  501    0 -0.00000000000E+00 -0.00000000000E+00 -0.33690377739E+02  0.33690377739E+02  0.00000000000E+00 0. -1.
         25    2    1    2    0    0  0.86450876580E+02  0.38879316986E+02  0.32498694153E+03  0.36086869022E+03  0.12499737623E+03 0.  0.
          2    1    1    2  501    0 -0.91032483421E+02 -0.57696426328E+01  0.12377777972E+03  0.15375675779E+03  0.00000000000E+00 0. -1.
          1    1    1    2  502    0  0.45816068413E+01 -0.33109674353E+02  0.36674674450E+03  0.36826677323E+03  0.00000000000E+00 0. -1.
         22    1    3    3    0    0  0.41121037416E+02  0.77346484372E+02  0.12799056324E+03  0.15509675252E+03  0.00000000000E+00 0.  1.
         22    1    3    3    0    0  0.45329839164E+02 -0.38467167386E+02  0.19699637830E+03  0.20577193771E+03  0.00000000000E+00 0.  1.
</event>
<event>
 7    1  0.6444902E-006  0.3169067E+02  0.7818608E-02  0.1635715E+00
          2   -1    0    0  502    0  0.00000000000E+00  0.00000000000E+00  0.14381445905E+03  0.14381445905E+03  0.00000000000E+00 0. -1.
          1   -1    0    0  501    0 -0.00000000000E+00 -0.00000000000E+00 -0.35026942588E+03  0.35026942588E+03  0.00000000000E+00 0. -1.
         25    2    1    2    0    0 -0.27883970822E+02  0.45806284053E+02 -0.30740970159E+02  0.13944720181E+03  0.12499913343E+03 0.  0.
          2    1    1    2  501    0  0.13250211280E+02 -0.28379946777E+02 -0.26278310002E+03  0.26464305609E+03  0.00000000000E+00 0. -1.
          1    1    1    2  502    0  0.14633759543E+02 -0.17426337276E+02  0.87069103344E+02  0.89993627032E+02  0.00000000000E+00 0. -1.
         22    1    3    3    0    0  0.15312393407E+02 -0.13184262222E+02 -0.57997693624E+02  0.61416826912E+02  0.00000000000E+00 0. -1.
         22    1    3    3    0    0 -0.43196364230E+02  0.58990546276E+02  0.27256723466E+02  0.78030374898E+02  0.00000000000E+00 0. -1.
</event>
<event>
 7    1  0.6444902E-006  0.9456390E+02  0.7818608E-02  0.1363913E+00
          2   -1    0    0  502    0  0.00000000000E+00  0.00000000000E+00  0.15290267497E+04  0.15290267497E+04  0.00000000000E+00 0. -1.
          1   -1    0    0  501    0 -0.00000000000E+00 -0.00000000000E+00 -0.20472520695E+03  0.20472520695E+03  0.00000000000E+00 0. -1.
         25    2    1    2    0    0 -0.85838760559E+02  0.16222625001E+02  0.10277666548E+03  0.18390345230E+03  0.12500388164E+03 0.  0.
          2    1    1    2  501    0  0.90329576424E+02  0.33760956330E+02 -0.14950132173E+03  0.17790413078E+03  0.00000000000E+00 0. -1.
          1    1    1    2  502    0 -0.44908158657E+01 -0.49983581331E+02  0.13710261990E+04  0.13719443735E+04  0.00000000000E+00 0. -1.
         22    1    3    3    0    0 -0.55970796751E+01  0.39162377909E+02 -0.12589793153E+02  0.41515322906E+02  0.00000000000E+00 0. -1.
         22    1    3    3    0    0 -0.80241680883E+02 -0.22939752908E+02  0.11536645864E+03  0.14238812940E+03  0.00000000000E+00 0. -1.
</event>
<event>
 7    1  0.6444902E-006  0.1169624E+03  0.7818608E-02  0.1358506E+00
          2   -1    0    0  502    0  0.00000000000E+00  0.00000000000E+00  0.30380936297E+03  0.30380936297E+03  0.00000000000E+00 0. -1.
          1   -1    0    0  501    0 -0.00000000000E+00 -0.00000000000E+00 -0.30316303974E+04  0.30316303974E+04  0.00000000000E+00 0. -1.
         25    2    1    2    0    0  0.95230736191E+02 -0.11575189003E+03 -0.18886287909E+03  0.27159050307E+03  0.12499928439E+03 0.  0.
          2    1    1    2  501    0 -0.54982082050E+02  0.10223750657E+03 -0.27984753750E+04  0.28008819971E+04  0.00000000000E+00 0. -1.
          1    1    1    2  502    0 -0.40248654140E+02  0.13514383464E+02  0.25951721959E+03  0.26296726029E+03  0.00000000000E+00 0. -1.
         22    1    3    3    0    0  0.42783437664E+02 -0.93743569071E+02 -0.18836755282E+03  0.21471053592E+03  0.00000000000E+00 0.  1.
         22    1    3    3    0    0  0.52447298527E+02 -0.22008320963E+02 -0.49532626601E+00  0.56879967145E+02  0.00000000000E+00 0.  1.
</event>
<event>
 7    1  0.6444902E-006  0.1738792E+03  0.7818608E-02  0.1336795E+00
          2   -1    0    0  502    0  0.00000000000E+00  0.00000000000E+00  0.19358901808E+03  0.19358901808E+03  0.00000000000E+00 0. -1.
          1   -1    0    0  501    0 -0.00000000000E+00 -0.00000000000E+00 -0.16377952373E+04  0.16377952373E+04  0.00000000000E+00 0. -1.
         25    2    1    2    0    0  0.10091770085E+02  0.15005055864E+03 -0.11647919895E+04  0.11810926814E+04  0.12499011698E+03 0.  0.
          2    1    1    2  501    0 -0.24521570403E+02  0.24117242494E+02 -0.42282277818E+03  0.42421934250E+03  0.00000000000E+00 0. -1.
          1    1    1    2  502    0  0.14429800318E+02 -0.17416780114E+03  0.14340854842E+03  0.22607223149E+03  0.00000000000E+00 0. -1.
         22    1    3    3    0    0  0.17802032261E+02  0.17110445966E+03 -0.10657361379E+04  0.10795309926E+04  0.00000000000E+00 0. -1.
         22    1    3    3    0    0 -0.77102621758E+01 -0.21053901012E+02 -0.99055851578E+02  0.10156168875E+03  0.00000000000E+00 0. -1.
</event>
<event>
 7    1  0.6444902E-006  0.9826479E+02  0.7818608E-02  0.1335902E+00
          2   -1    0    0  502    0  0.00000000000E+00  0.00000000000E+00  0.21353854806E+04  0.21353854806E+04  0.00000000000E+00 0. -1.
          1   -1    0    0  501    0 -0.00000000000E+00 -0.00000000000E+00 -0.18957499583E+03  0.18957499583E+03  0.00000000000E+00 0. -1.
         25    2    1    2    0    0 -0.64103819583E+02 -0.11219994122E+03  0.17933065971E+03  0.25393681629E+03  0.12500517853E+03 0.  0.
          2    1    1    2  501    0  0.81042795523E+02  0.53250000226E+02 -0.13628883845E+03  0.16726668740E+03  0.00000000000E+00 0. -1.
          1    1    1    2  502    0 -0.16938975939E+02  0.58949940990E+02  0.19027686635E+04  0.19037569727E+04  0.00000000000E+00 0. -1.
         22    1    3    3    0    0  0.21517592402E+02 -0.19212518224E+02  0.10144134403E+03  0.10546314009E+03  0.00000000000E+00 0. -1.
         22    1    3    3    0    0 -0.85621411985E+02 -0.92987422993E+02  0.77889315678E+02  0.14847367619E+03  0.00000000000E+00 0. -1.
</event>
<event>
 7    1  0.6444902E-006  0.8791765E+02  0.7818608E-02  0.1450440E+00
          2   -1    0    0  502    0  0.00000000000E+00  0.00000000000E+00  0.69697744671E+03  0.69697744671E+03  0.00000000000E+00 0. -1.
          1   -1    0    0  501    0 -0.00000000000E+00 -0.00000000000E+00 -0.26427075406E+03  0.26427075406E+03  0.00000000000E+00 0. -1.
         25    2    1    2    0    0  0.10495968594E+03  0.18512561259E+02  0.21710705905E+03  0.27224866694E+03  0.12499844385E+03 0.  0.
          2    1    1    2  501    0 -0.87336516514E+02  0.24475425009E+01 -0.22820092954E+03  0.24435490956E+03  0.00000000000E+00 0. -1.
          1    1    1    2  502    0 -0.17623169423E+02 -0.20960103760E+02  0.44380056314E+03  0.44464462428E+03  0.00000000000E+00 0. -1.
         22    1    3    3    0    0 -0.48950555230E+01 -0.34596662080E+02  0.19525967156E+02  0.40026915807E+02  0.00000000000E+00 0.  1.
         22    1    3    3    0    0  0.10985474146E+03  0.53109223339E+02  0.19758109190E+03  0.23222175113E+03  0.00000000000E+00 0.  1.
</event>
<event>
 7    1  0.7887790E-006  0.1125277E+03  0.7818608E-02  0.1290782E+00
          2   -1    0    0  502    0  0.00000000000E+00  0.00000000000E+00  0.18527682228E+04  0.18527682228E+04  0.00000000000E+00 0. -1.
          1   -1    0    0  501    0 -0.00000000000E+00 -0.00000000000E+00 -0.11644239849E+04  0.11644239849E+04  0.00000000000E+00 0. -1.
         25    2    1    2    0    0 -0.74186087518E+02 -0.15419096219E+03 -0.43130749260E+03  0.48055735762E+03  0.12502316741E+03 0.  0.
          2    1    1    2  501    0  0.74188448379E+02  0.73692270559E+02 -0.70374032553E+03  0.71146674018E+03  0.00000000000E+00 0. -1.
          1    1    1    2  502    0 -0.23608610580E-02  0.80498691627E+02  0.18233920560E+04  0.18251681098E+04  0.00000000000E+00 0. -1.
         22    1    3    3    0    0 -0.21294715721E+02 -0.12316987336E+03 -0.16342852586E+03  0.20575025075E+03  0.00000000000E+00 0. -1.
         22    1    3    3    0    0 -0.52891371797E+02 -0.31021088828E+02 -0.26787896674E+03  0.27480710687E+03  0.00000000000E+00 0. -1.
</event>
<event>
 7    1  0.6444902E-006  0.5887755E+02  0.7818608E-02  0.1499096E+00
          2   -1    0    0  502    0  0.00000000000E+00  0.00000000000E+00  0.27434445027E+04  0.27434445027E+04  0.00000000000E+00 0. -1.
          1   -1    0    0  501    0 -0.00000000000E+00 -0.00000000000E+00 -0.17058577024E+03  0.17058577024E+03  0.00000000000E+00 0. -1.
         25    2    1    2    0    0  0.80494411117E+02 -0.13691358911E+02  0.61933365322E+03  0.63707576027E+03  0.12499818712E+03 0.  0.
          2    1    1    2  501    0 -0.27344822350E+02 -0.94220704439E+01 -0.16002108071E+03  0.16261384010E+03  0.00000000000E+00 0. -1.
          1    1    1    2  502    0 -0.53149588767E+02  0.23113429355E+02  0.21135461599E+04  0.21143406726E+04  0.00000000000E+00 0. -1.
         22    1    3    3    0    0  0.30708859661E+02  0.49452438873E+02  0.38392206921E+03  0.38831009902E+03  0.00000000000E+00 0.  1.
         22    1    3    3    0    0  0.49785551456E+02 -0.63143797785E+02  0.23541158401E+03  0.24876566126E+03  0.00000000000E+00 0.  1.
</event>
<event>
 7    1  0.6444902E-006  0.2994962E+03  0.7818608E-02  0.1185762E+00
          2   -1    0    0  502    0  0.00000000000E+00  0.00000000000E+00  0.20974394354E+04  0.20974394354E+04  0.00000000000E+00 0. -1.
          1   -1    0    0  501    0 -0.00000000000E+00 -0.00000000000E+00 -0.18116359322E+04  0.18116359322E+04  0.00000000000E+00 0. -1.
         25    2    1    2    0    0  0.35235544813E+03  0.13337945934E+03 -0.68653809857E+03  0.79303457522E+03  0.12499933885E+03 0.  0.
          2    1    1    2  501    0 -0.88147490106E+02  0.53130854779E+01 -0.10591126729E+04  0.10627877788E+04  0.00000000000E+00 0. -1.
          1    1    1    2  502    0 -0.26420795802E+03 -0.13869254481E+03  0.20314542747E+04  0.20532530135E+04  0.00000000000E+00 0. -1.
         22    1    3    3    0    0  0.17472778550E+03  0.10960525025E+02 -0.37783037482E+03  0.41642012952E+03  0.00000000000E+00 0.  1.
         22    1    3    3    0    0  0.17762766262E+03  0.12241893431E+03 -0.30870772375E+03  0.37661444570E+03  0.00000000000E+00 0.  1.
</event>
<event>
 7    1  0.6444902E-006  0.7243580E+02  0.7818608E-02  0.1415170E+00
          2   -1    0    0  502    0  0.00000000000E+00  0.00000000000E+00  0.29741717969E+04  0.29741717969E+04  0.00000000000E+00 0. -1.
          1   -1    0    0  501    0 -0.00000000000E+00 -0.00000000000E+00 -0.33220796406E+04  0.33220796406E+04  0.00000000000E+00 0. -1.
         25    2    1    2    0    0 -0.29280347152E+02  0.37236177642E+02  0.19705793268E+03  0.23811205010E+03  0.12498659094E+03 0.  0.
          2    1    1    2  501    0  0.69439664625E+02 -0.20832842724E+02 -0.33009838840E+04  0.33017798952E+04  0.00000000000E+00 0. -1.
          1    1    1    2  502    0 -0.40159317473E+02 -0.16403334918E+02  0.27560181076E+04  0.27563594921E+04  0.00000000000E+00 0. -1.
         22    1    3    3    0    0 -0.10502542303E+02 -0.36074356230E+02  0.13534124593E+03  0.14045965763E+03  0.00000000000E+00 0.  1.
         22    1    3    3    0    0 -0.18777804850E+02  0.73310533871E+02  0.61716686751E+02  0.97652392470E+02  0.00000000000E+00 0.  1.
</event>
<event>
 7    1  0.6444902E-006  0.1069329E+03  0.7818608E-02  0.1363118E+00
          2   -1    0    0  502    0  0.00000000000E+00  0.00000000000E+00  0.28098060842E+03  0.28098060842E+03  0.00000000000E+00 0. -1.
          1   -1    0    0  501    0 -0.00000000000E+00 -0.00000000000E+00 -0.62562553679E+03  0.62562553679E+03  0.00000000000E+00 0. -1.
         25    2    1    2    0    0  0.55554121503E+02  0.10648633226E+03 -0.23129781594E+02  0.17488725250E+03  0.12499985967E+03 0.  0.
          2    1    1    2  501    0  0.24796641596E+02 -0.37162539542E+02 -0.51185121331E+03  0.51379722882E+03  0.00000000000E+00 0. -1.
          1    1    1    2  502    0 -0.80350763099E+02 -0.69323792720E+02  0.19033606653E+03  0.21792166389E+03  0.00000000000E+00 0. -1.
         22    1    3    3    0    0  0.53820215697E+02  0.32942028025E+02 -0.64710972974E+02  0.90384195805E+02  0.00000000000E+00 0.  1.
         22    1    3    3    0    0  0.17339058059E+01  0.73544304237E+02  0.41581191380E+02  0.84503056700E+02  0.00000000000E+00 0.  1.
</event>
<event>
 7    1  0.6444902E-006  0.2311382E+03  0.7818608E-02  0.1147710E+00
          2   -1    0    0  502    0  0.00000000000E+00  0.00000000000E+00  0.13845945227E+04  0.13845945227E+04  0.00000000000E+00 0. -1.
          1   -1    0    0  501    0 -0.00000000000E+00 -0.00000000000E+00 -0.30800477096E+03  0.30800477096E+03  0.00000000000E+00 0. -1.
         25    2    1    2    0    0  0.44508539779E+02  0.18851677715E+03 -0.84421304225E+02  0.24549784679E+03  0.12499060281E+03 0.  0.
          2    1    1    2  501    0  0.40106845368E+02 -0.34429645475E+03  0.85414093325E+02  0.35699324242E+03  0.00000000000E+00 0. -1.
          1    1    1    2  502    0 -0.84615385147E+02  0.15577967760E+03  0.10755969627E+04  0.10901082045E+04  0.00000000000E+00 0. -1.
         22    1    3    3    0    0  0.97244650083E+01  0.19407160465E+03 -0.63008672481E+02  0.20427541643E+03  0.00000000000E+00 0. -1.
         22    1    3    3    0    0  0.34784074771E+02 -0.55548275012E+01 -0.21412631744E+02  0.41222430356E+02  0.00000000000E+00 0. -1.
</event>
<event>
 7    1  0.6444902E-006  0.1320199E+03  0.7818608E-02  0.1365443E+00
          2   -1    0    0  502    0  0.00000000000E+00  0.00000000000E+00  0.16600144635E+04  0.16600144635E+04  0.00000000000E+00 0. -1.
          1   -1    0    0  501    0 -0.00000000000E+00 -0.00000000000E+00 -0.20682145134E+03  0.20682145134E+03  0.00000000000E+00 0. -1.
         25    2    1    2    0    0 -0.31913748155E+02 -0.15249957491E+03  0.11916715699E+03  0.23259743493E+03  0.12500459096E+03 0.  0.
          2    1    1    2  501    0  0.46148912881E+02  0.11998891930E+03 -0.12232482507E+03  0.17745541903E+03  0.00000000000E+00 0. -1.
          1    1    1    2  502    0 -0.14235164726E+02  0.32510655612E+02  0.14563506802E+04  0.14567830608E+04  0.00000000000E+00 0. -1.
         22    1    3    3    0    0  0.18935017232E+02 -0.50924971400E+02 -0.15424567755E+02  0.56478357626E+02  0.00000000000E+00 0. -1.
         22    1    3    3    0    0 -0.50848765387E+02 -0.10157460351E+03  0.13459172475E+03  0.17611907730E+03  0.00000000000E+00 0. -1.
</event>
<event>
 7    1  0.6444902E-006  0.6299588E+02  0.7818608E-02  0.1485132E+00
          2   -1    0    0  502    0  0.00000000000E+00  0.00000000000E+00  0.27325649458E+04  0.27325649458E+04  0.00000000000E+00 0. -1.
          1   -1    0    0  501    0 -0.00000000000E+00 -0.00000000000E+00 -0.20805297971E+03  0.20805297971E+03  0.00000000000E+00 0. -1.
         25    2    1    2    0    0  0.80361703688E+02 -0.10366911455E+02  0.87986945645E+03  0.89238888982E+03  0.12498877553E+03 0.  0.
          2    1    1    2  501    0 -0.19712126324E+02  0.22328899684E+02 -0.20017363669E+03  0.20237745060E+03  0.00000000000E+00 0. -1.
          1    1    1    2  502    0 -0.60649577364E+02 -0.11961988229E+02  0.18448161463E+04  0.18458515851E+04  0.00000000000E+00 0. -1.
         22    1    3    3    0    0  0.33322505795E+02  0.98499635969E+01  0.77409455266E+03  0.77487404630E+03  0.00000000000E+00 0.  1.
         22    1    3    3    0    0  0.47039197892E+02 -0.20216875052E+02  0.10577490379E+03  0.11751484352E+03  0.00000000000E+00 0.  1.
</event>
<event>
 7    1  0.6444902E-006  0.2717576E+03  0.7818608E-02  0.1145501E+00
          2   -1    0    0  502    0  0.00000000000E+00  0.00000000000E+00  0.14082166491E+04  0.14082166491E+04  0.00000000000E+00 0. -1.
          1   -1    0    0  501    0 -0.00000000000E+00 -0.00000000000E+00 -0.69881042831E+03  0.69881042831E+03  0.00000000000E+00 0. -1.
         25    2    1    2    0    0  0.34564186954E+03  0.12788054516E+03  0.45559505596E+03  0.59917753263E+03  0.12500049914E+03 0.  0.
          2    1    1    2  501    0 -0.19941901003E+03 -0.17869639417E+03 -0.59107497465E+03  0.64889904339E+03  0.00000000000E+00 0. -1.
          1    1    1    2  502    0 -0.14622285951E+03  0.50815849017E+02  0.84488613951E+03  0.85895050142E+03  0.00000000000E+00 0. -1.
         22    1    3    3    0    0  0.51832603703E+02  0.74165186548E+02  0.10580333377E+03  0.13921723722E+03  0.00000000000E+00 0.  1.
         22    1    3    3    0    0  0.29380926583E+03  0.53715358608E+02  0.34979172219E+03  0.45996029541E+03  0.00000000000E+00 0.  1.
</event>
<event>
 7    1  0.6444902E-006  0.4656233E+02  0.7818608E-02  0.1569158E+00
          2   -1    0    0  502    0  0.00000000000E+00  0.00000000000E+00  0.15160608928E+03  0.15160608928E+03  0.00000000000E+00 0. -1.
          1   -1    0    0  501    0 -0.00000000000E+00 -0.00000000000E+00 -0.36029928342E+03  0.36029928342E+03  0.00000000000E+00 0. -1.
         25    2    1    2    0    0  0.61436545483E+02 -0.19153694819E+02 -0.43159109836E+02  0.14706962816E+03  0.12500181446E+03 0.  0.
          2    1    1    2  501    0 -0.15814160350E+02  0.16824550107E+02 -0.25940968638E+03  0.26043528666E+03  0.00000000000E+00 0. -1.
          1    1    1    2  502    0 -0.45622385133E+02  0.23291447120E+01  0.93875602075E+02  0.10440045788E+03  0.00000000000E+00 0. -1.
         22    1    3    3    0    0 -0.24444176896E+02  0.28234327320E+02 -0.30402881089E+02  0.48156310094E+02  0.00000000000E+00 0.  1.
         22    1    3    3    0    0  0.85880722379E+02 -0.47388022139E+02 -0.12756228747E+02  0.98913318064E+02  0.00000000000E+00 0.  1.
</event>
<event>
 7    1  0.6444902E-006  0.5256891E+02  0.7818608E-02  0.1492341E+00
          2   -1    0    0  502    0  0.00000000000E+00  0.00000000000E+00  0.14715831016E+03  0.14715831016E+03  0.00000000000E+00 0. -1.
          1   -1    0    0  501    0 -0.00000000000E+00 -0.00000000000E+00 -0.67257432798E+03  0.67257432798E+03  0.00000000000E+00 0. -1.
         25    2    1    2    0    0  0.43843591388E+02 -0.19467351645E+02 -0.22986305190E+03  0.26602232804E+03  0.12501847104E+03 0.  0.
          2    1    1    2  501    0 -0.25066380054E+02  0.47742030953E+02 -0.42064919224E+03  0.42409122587E+03  0.00000000000E+00 0. -1.
          1    1    1    2  502    0 -0.18777211334E+02 -0.28274679308E+02  0.12509622633E+03  0.12961908423E+03  0.00000000000E+00 0. -1.
         22    1    3    3    0    0  0.55878517839E+02  0.37581303187E+02 -0.76317678827E+02  0.10177991554E+03  0.00000000000E+00 0. -1.
         22    1    3    3    0    0 -0.12034926451E+02 -0.57048654832E+02 -0.15354537308E+03  0.16424241251E+03  0.00000000000E+00 0. -1.
</event>
<event>
 7    1  0.6444902E-006  0.1177529E+03  0.7818608E-02  0.1338869E+00
          2   -1    0    0  502    0  0.00000000000E+00  0.00000000000E+00  0.14501227585E+04  0.14501227585E+04  0.00000000000E+00 0. -1.
          1   -1    0    0  501    0 -0.00000000000E+00 -0.00000000000E+00 -0.50790759901E+03  0.50790759901E+03  0.00000000000E+00 0. -1.
         25    2    1    2    0    0 -0.79158181048E+01 -0.14685399280E+03 -0.11796169066E+03  0.22620494868E+03  0.12499985187E+03 0.  0.
          2    1    1    2  501    0 -0.33488363202E+02  0.36967084918E+02 -0.33148559576E+03  0.33521744590E+03  0.00000000000E+00 0. -1.
          1    1    1    2  502    0  0.41404181307E+02  0.10988690788E+03  0.13916624459E+04  0.13966079629E+04  0.00000000000E+00 0. -1.
         22    1    3    3    0    0 -0.60199935711E+02 -0.11063094740E+03 -0.57523153241E+02  0.13846354011E+03  0.00000000000E+00 0.  1.
         22    1    3    3    0    0  0.52284117606E+02 -0.36223045400E+02 -0.60438537421E+02  0.87741408568E+02  0.00000000000E+00 0.  1.
</event>
<event>
 7    1  0.6444902E-006  0.1965643E+03  0.7818608E-02  0.1309069E+00
          2   -1    0    0  502    0  0.00000000000E+00  0.00000000000E+00  0.19007247968E+04  0.19007247968E+04  0.00000000000E+00 0. -1.
          1   -1    0    0  501    0 -0.00000000000E+00 -0.00000000000E+00 -0.55962056220E+02  0.55962056220E+02  0.00000000000E+00 0. -1.
         25    2    1    2    0    0  0.11460240005E+03  0.19655493210E+03  0.11796381766E+04  0.12078647795E+04  0.12499418540E+03 0.  0.
          2    1    1    2  501    0 -0.85550743959E+02 -0.17063566999E+03  0.18073358282E+03  0.26286895903E+03  0.00000000000E+00 0. -1.
          1    1    1    2  502    0 -0.29051656088E+02 -0.25919262113E+02  0.48439098115E+03  0.48595311450E+03  0.00000000000E+00 0. -1.
         22    1    3    3    0    0  0.72055323176E+01 -0.63757892155E+01  0.47078804506E+01  0.10711420188E+02  0.00000000000E+00 0.  1.
         22    1    3    3    0    0  0.10739686773E+03  0.20293072132E+03  0.11749302962E+04  0.11971533593E+04  0.00000000000E+00 0.  1.
</event>
<event>
 7    1  0.6444902E-006  0.5600530E+02  0.7818608E-02  0.1445191E+00
          2   -1    0    0  502    0  0.00000000000E+00  0.00000000000E+00  0.87460414771E+03  0.87460414771E+03  0.00000000000E+00 0. -1.
          1   -1    0    0  501    0 -0.00000000000E+00 -0.00000000000E+00 -0.26396913202E+02  0.26396913202E+02  0.00000000000E+00 0. -1.
         25    2    1    2    0    0 -0.66089945639E+02  0.18309631881E+02  0.64464360160E+03  0.66022250189E+03  0.12500102151E+03 0.  0.
          2    1    1    2  501    0  0.31469205413E+02 -0.46566640975E+02  0.34587167304E+02  0.65992689618E+02  0.00000000000E+00 0. -1.
          1    1    1    2  502    0  0.34620740227E+02  0.28257009093E+02  0.16897646560E+03  0.17478586941E+03  0.00000000000E+00 0. -1.
         22    1    3    3    0    0 -0.10123825342E+03  0.84589521400E+00  0.40972764372E+03  0.42205052011E+03  0.00000000000E+00 0. -1.
         22    1    3    3    0    0  0.35148307779E+02  0.17463736667E+02  0.23491595789E+03  0.23817198179E+03  0.00000000000E+00 0. -1.
</event>
<event>
 7    1  0.6444902E-006  0.1083416E+03  0.7818608E-02  0.1448623E+00
          2   -1    0    0  502    0  0.00000000000E+00  0.00000000000E+00  0.23779653508E+03  0.23779653508E+03  0.00000000000E+00 0. -1.
          1   -1    0    0  501    0 -0.00000000000E+00 -0.00000000000E+00 -0.47750517046E+03  0.47750517046E+03  0.00000000000E+00 0. -1.
         25    2    1    2    0    0 -0.85609951028E+02 -0.24407174560E+02 -0.36575739384E+02  0.15776097770E+03  0.12500386989E+03 0.  0.
          2    1    1    2  501    0  0.10812773781E+03  0.24824838278E+02 -0.37148081130E+03  0.38769301444E+03  0.00000000000E+00 0. -1.
          1    1    1    2  502    0 -0.22517786779E+02 -0.41766371826E+00  0.16834791530E+03  0.16984771341E+03  0.00000000000E+00 0. -1.
         22    1    3    3    0    0 -0.97099213878E+01 -0.63097094317E+02 -0.34450609191E+02  0.72542197088E+02  0.00000000000E+00 0. -1.
         22    1    3    3    0    0 -0.75900029641E+02  0.38689919758E+02 -0.21251301931E+01  0.85218780610E+02  0.00000000000E+00 0. -1.
</event>
<event>
 7    1  0.6444902E-006  0.6860645E+02  0.7818608E-02  0.1453738E+00
          2   -1    0    0  502    0  0.00000000000E+00  0.00000000000E+00  0.20488172777E+04  0.20488172777E+04  0.00000000000E+00 0. -1.
          1   -1    0    0  501    0 -0.00000000000E+00 -0.00000000000E+00 -0.51078084589E+03  0.51078084589E+03  0.00000000000E+00 0. -1.
         25    2    1    2    0    0 -0.68494182075E+02  0.53777882844E+02 -0.35140964964E+03  0.38299987379E+03  0.12496658675E+03 0.  0.
          2    1    1    2  501    0  0.58246871624E+02 -0.21093993805E+02 -0.13674232435E+03  0.15012034472E+03  0.00000000000E+00 0. -1.
          1    1    1    2  502    0  0.10247310450E+02 -0.32683889039E+02  0.20261884058E+04  0.20264779051E+04  0.00000000000E+00 0. -1.
         22    1    3    3    0    0 -0.32113121286E+02  0.33421293585E+02 -0.22613567163E+02  0.51571395594E+02  0.00000000000E+00 0. -1.
         22    1    3    3    0    0 -0.36381060789E+02  0.20356589259E+02 -0.32879608247E+03  0.33142847820E+03  0.00000000000E+00 0. -1.
</event>
<event>
 7    1  0.6444902E-006  0.2489252E+02  0.7818608E-02  0.1698782E+00
          2   -1    0    0  502    0  0.00000000000E+00  0.00000000000E+00  0.14143001442E+04  0.14143001442E+04  0.00000000000E+00 0. -1.
          1   -1    0    0  501    0 -0.00000000000E+00 -0.00000000000E+00 -0.58618773356E+03  0.58618773356E+03  0.00000000000E+00 0. -1.
         25    2    1    2    0    0  0.48184311729E+01 -0.79738956870E+00  0.24250176121E+03  0.27286569710E+03  0.12499892541E+03 0.  0.
          2    1    1    2  501    0  0.20055078670E+02  0.39575999770E+01 -0.57068686019E+03  0.57105285322E+03  0.00000000000E+00 0. -1.
          1    1    1    2  502    0 -0.24873509843E+02 -0.31602104083E+01  0.11562975096E+04  0.11565693274E+04  0.00000000000E+00 0. -1.
         22    1    3    3    0    0 -0.93845535355E+01  0.50769162645E+02  0.45781657440E+02  0.69003897561E+02  0.00000000000E+00 0. -1.
         22    1    3    3    0    0  0.14202984708E+02 -0.51566552214E+02  0.19672010377E+03  0.20386179954E+03  0.00000000000E+00 0. -1.
</event>
<event>
 7    1  0.6444902E-006  0.7661918E+02  0.7818608E-02  0.1444747E+00
          2   -1    0    0  502    0  0.00000000000E+00  0.00000000000E+00  0.38740044859E+03  0.38740044859E+03  0.00000000000E+00 0. -1.
          1   -1    0    0  501    0 -0.00000000000E+00 -0.00000000000E+00 -0.70304877166E+03  0.70304877166E+03  0.00000000000E+00 0. -1.
         25    2    1    2    0    0  0.22106398044E+02  0.10573974295E+03 -0.19140252185E+03  0.25284188870E+03  0.12499803693E+03 0.  0.
          2    1    1    2  501    0 -0.69173079960E+00 -0.32765860452E+02 -0.47630317544E+03  0.47742936131E+03  0.00000000000E+00 0. -1.
          1    1    1    2  502    0 -0.21414667244E+02 -0.72973882496E+02  0.35205737423E+03  0.36017797024E+03  0.00000000000E+00 0. -1.
         22    1    3    3    0    0  0.65885224017E+00 -0.20707871338E+02  0.19607900724E+01  0.20810927883E+02  0.00000000000E+00 0. -1.
         22    1    3    3    0    0  0.21447545803E+02  0.12644761429E+03 -0.19336331192E+03  0.23203096082E+03  0.00000000000E+00 0. -1.
</event>
<event>
 7    1  0.6444902E-006  0.5338872E+02  0.7818608E-02  0.1504414E+00
          2   -1    0    0  502    0  0.00000000000E+00  0.00000000000E+00  0.91483847792E+03  0.91483847792E+03  0.00000000000E+00 0. -1.
          1   -1    0    0  501    0 -0.00000000000E+00 -0.00000000000E+00 -0.40570444099E+02  0.40570444099E+02  0.00000000000E+00 0. -1.
         25    2    1    2    0    0  0.47797584298E+01  0.30396766807E+02  0.24416615142E+03  0.27602618609E+03  0.12500614539E+03 0.  0.
          2    1    1    2  501    0  0.26884476138E+02  0.14934709288E+02 -0.13373345601E+02  0.33536054796E+02  0.00000000000E+00 0. -1.
          1    1    1    2  502    0 -0.31664234568E+02 -0.45331476094E+02  0.64347522800E+03  0.64584668112E+03  0.00000000000E+00 0. -1.
         22    1    3    3    0    0  0.12107119146E+02  0.76678675725E+02  0.11614737289E+03  0.13970115917E+03  0.00000000000E+00 0. -1.
         22    1    3    3    0    0 -0.73273607162E+01 -0.46281908918E+02  0.12801877853E+03  0.13632502692E+03  0.00000000000E+00 0. -1.
</event>
<event>
 7    1  0.6444902E-006  0.6182494E+02  0.7818608E-02  0.1521268E+00
          2   -1    0    0  502    0  0.00000000000E+00  0.00000000000E+00  0.22096204937E+04  0.22096204937E+04  0.00000000000E+00 0. -1.
          1   -1    0    0  501    0 -0.00000000000E+00 -0.00000000000E+00 -0.28293034256E+02  0.28293034256E+02  0.00000000000E+00 0. -1.
         25    2    1    2    0    0 -0.58159079595E+02 -0.24617172645E+02  0.19591744993E+03  0.24082086810E+03  0.12499023801E+03 0.  0.
          2    1    1    2  501    0 -0.37213464096E+01  0.23407091554E+02  0.20876113831E+02  0.31584054249E+02  0.00000000000E+00 0. -1.
          1    1    1    2  502    0  0.61880426004E+02  0.12100810904E+01  0.19645338957E+04  0.19655086056E+04  0.00000000000E+00 0. -1.
         22    1    3    3    0    0 -0.87270075241E+02  0.93232215122E-01  0.78608285059E+02  0.11745355339E+03  0.00000000000E+00 0.  1.
         22    1    3    3    0    0  0.29110995647E+02 -0.24710404860E+02  0.11730916487E+03  0.12336731471E+03  0.00000000000E+00 0.  1.
</event>
<event>
 7    1  0.6444902E-006  0.8510681E+02  0.7818608E-02  0.1448877E+00
          2   -1    0    0  502    0  0.00000000000E+00  0.00000000000E+00  0.25010938583E+04  0.25010938583E+04  0.00000000000E+00 0. -1.
          1   -1    0    0  501    0 -0.00000000000E+00 -0.00000000000E+00 -0.82981856817E+02  0.82981856817E+02  0.00000000000E+00 0. -1.
         25    2    1    2    0    0 -0.36738352837E+02  0.10687503437E+03  0.19698802448E+04  0.19770747905E+04  0.12499827561E+03 0.  0.
          2    1    1    2  501    0  0.23675308291E+02 -0.81413968827E+02 -0.56223820539E+02  0.10173432331E+03  0.00000000000E+00 0. -1.
          1    1    1    2  502    0  0.13063044547E+02 -0.25461065543E+02  0.50445557722E+03  0.50526660129E+03  0.00000000000E+00 0. -1.
         22    1    3    3    0    0 -0.75918109593E+02  0.58222049182E+02  0.15018437025E+04  0.15048879936E+04  0.00000000000E+00 0.  1.
         22    1    3    3    0    0  0.39179756756E+02  0.48652985189E+02  0.46803654226E+03  0.47218679694E+03  0.00000000000E+00 0.  1.
</event>
<event>
 7    1  0.6444902E-006  0.4879811E+02  0.7818608E-02  0.1491848E+00
          2   -1    0    0  502    0  0.00000000000E+00  0.00000000000E+00  0.17989358807E+04  0.17989358807E+04  0.00000000000E+00 0. -1.
          1   -1    0    0  501    0 -0.00000000000E+00 -0.00000000000E+00 -0.10568578300E+04  0.10568578300E+04  0.00000000000E+00 0. -1.
         25    2    1    2    0    0  0.57642685948E+02 -0.36894098607E+02  0.61497867434E+02  0.15521204883E+03  0.12499975459E+03 0.  0.
          2    1    1    2  501    0 -0.48727031315E+02  0.13038136908E+01 -0.10092133625E+04  0.10103898429E+04  0.00000000000E+00 0. -1.
          1    1    1    2  502    0 -0.89156546328E+01  0.35590284916E+02  0.16897935458E+04  0.16901918189E+04  0.00000000000E+00 0. -1.
         22    1    3    3    0    0  0.94941745531E+02 -0.42576986751E+02  0.38052718845E+02  0.11079144487E+03  0.00000000000E+00 0.  1.
         22    1    3    3    0    0 -0.37299059584E+02  0.56828881442E+01  0.23445148589E+02  0.44420603957E+02  0.00000000000E+00 0.  1.
</event>
<event>
 7    1  0.6444902E-006  0.4216720E+02  0.7818608E-02  0.1520789E+00
          2   -1    0    0  502    0  0.00000000000E+00  0.00000000000E+00  0.20324786776E+04  0.20324786776E+04  0.00000000000E+00 0. -1.
          1   -1    0    0  501    0 -0.00000000000E+00 -0.00000000000E+00 -0.23465632764E+03  0.23465632764E+03  0.00000000000E+00 0. -1.
         25    2    1    2    0    0 -0.38067895395E+02  0.33375434627E+02  0.10199839556E+04  0.10288613901E+04  0.12500162413E+03 0.  0.
          2    1    1    2  501    0 -0.44632396922E+01 -0.34574617497E+02 -0.22844571507E+03  0.23109039231E+03  0.00000000000E+00 0. -1.
          1    1    1    2  502    0  0.42531135088E+02  0.11991828701E+01  0.10062841094E+04  0.10071832229E+04  0.00000000000E+00 0. -1.
         22    1    3    3    0    0 -0.44227824841E+02  0.75995352070E+02  0.79021427288E+03  0.79509118413E+03  0.00000000000E+00 0. -1.
         22    1    3    3    0    0  0.61599294456E+01 -0.42619917443E+02  0.22976968271E+03  0.23377020595E+03  0.00000000000E+00 0. -1.
</event>
<event>
 7    1  0.6444902E-006  0.7703482E+02  0.7818608E-02  0.1468233E+00
          2   -1    0    0  502    0  0.00000000000E+00  0.00000000000E+00  0.11517255353E+04  0.11517255353E+04  0.00000000000E+00 0. -1.
          1   -1    0    0  501    0 -0.00000000000E+00 -0.00000000000E+00 -0.12869742928E+04  0.12869742928E+04  0.00000000000E+00 0. -1.
         25    2    1    2    0    0  0.18025797071E+02 -0.74995283329E+02 -0.61303901416E+02  0.15916454334E+03  0.12500384652E+03 0.  0.
          2    1    1    2  501    0  0.93886942639E+01  0.76582203185E+02 -0.11753040256E+04  0.11778338312E+04  0.00000000000E+00 0. -1.
          1    1    1    2  502    0 -0.27414491335E+02 -0.15869198563E+01  0.11013591695E+04  0.11017014536E+04  0.00000000000E+00 0. -1.
         22    1    3    3    0    0  0.36643651035E+01 -0.41701521783E+02 -0.98617904402E+02  0.10713512757E+03  0.00000000000E+00 0. -1.
         22    1    3    3    0    0  0.14361431968E+02 -0.33293761547E+02  0.37314002986E+02  0.52029415766E+02  0.00000000000E+00 0. -1.
</event>
<event>
 7    1  0.6444902E-006  0.4599545E+02  0.7818608E-02  0.1481258E+00
          2   -1    0    0  502    0  0.00000000000E+00  0.00000000000E+00  0.36949236545E+04  0.36949236545E+04  0.00000000000E+00 0. -1.
          1   -1    0    0  501    0 -0.00000000000E+00 -0.00000000000E+00 -0.43450393336E+02  0.43450393336E+02  0.00000000000E+00 0. -1.
         25    2    1    2    0    0  0.63870636489E+02 -0.49981511044E+02  0.66669682160E+03  0.68314597199E+03  0.12500462981E+03 0.  0.
          2    1    1    2  501    0 -0.20533735477E+02  0.36547401528E+02 -0.22521805991E+02  0.47587588678E+02  0.00000000000E+00 0. -1.
          1    1    1    2  502    0 -0.43336901012E+02  0.13434109516E+02  0.30072982456E+04  0.30076404872E+04  0.00000000000E+00 0. -1.
         22    1    3    3    0    0  0.92853622185E+02 -0.22145229069E+01  0.43542374559E+03  0.44521965083E+03  0.00000000000E+00 0. -1.
         22    1    3    3    0    0 -0.28982985697E+02 -0.47766988137E+02  0.23127307601E+03  0.23792632116E+03  0.00000000000E+00 0. -1.
</event>
<event>
 7    1  0.6444902E-006  0.2439710E+02  0.7818608E-02  0.1676281E+00
          2   -1    0    0  502    0  0.00000000000E+00  0.00000000000E+00  0.10492057461E+03  0.10492057461E+03  0.00000000000E+00 0. -1.
          1   -1    0    0  501    0 -0.00000000000E+00 -0.00000000000E+00 -0.40672766189E+03  0.40672766189E+03  0.00000000000E+00 0. -1.
         25    2    1    2    0    0 -0.27539243639E+02 -0.13846853716E+02 -0.25076453343E+03  0.28188317544E+03  0.12500051229E+03 0.  0.
          2    1    1    2  501    0  0.49086830020E+01  0.23029360614E+02 -0.13771701301E+03  0.13971550483E+03  0.00000000000E+00 0. -1.
          1    1    1    2  502    0  0.22630560637E+02 -0.91825068983E+01  0.86674459151E+02  0.90049556228E+02  0.00000000000E+00 0. -1.
         22    1    3    3    0    0 -0.32228947609E+02  0.69532650955E+01 -0.25743821897E+03  0.25954092075E+03  0.00000000000E+00 0. -1.
         22    1    3    3    0    0  0.46897039706E+01 -0.20800118812E+02  0.66736855382E+01  0.22342254689E+02  0.00000000000E+00 0. -1.
</event>
<event>
 7    1  0.6444902E-006  0.7041852E+02  0.7818608E-02  0.1376870E+00
          2   -1    0    0  502    0  0.00000000000E+00  0.00000000000E+00  0.11354919823E+04  0.11354919823E+04  0.00000000000E+00 0. -1.
          1   -1    0    0  501    0 -0.00000000000E+00 -0.00000000000E+00 -0.65095832471E+02  0.65095832471E+02  0.00000000000E+00 0. -1.
         25    2    1    2    0    0  0.50652599741E+02 -0.15554713861E+02  0.36173038780E+03  0.38636925637E+03  0.12499877530E+03 0.  0.
          2    1    1    2  501    0 -0.57978972710E+02 -0.44542112690E+02 -0.25596619747E+02  0.77464495235E+02  0.00000000000E+00 0. -1.
          1    1    1    2  502    0  0.73263729699E+01  0.60096826551E+02  0.73426238182E+03  0.73675406321E+03  0.00000000000E+00 0. -1.
         22    1    3    3    0    0 -0.25022302005E+02  0.12028142471E+02  0.17448040049E+02  0.32790637543E+02  0.00000000000E+00 0. -1.
         22    1    3    3    0    0  0.75674901746E+02 -0.27582856332E+02  0.34428234775E+03  0.35357861883E+03  0.00000000000E+00 0. -1.
</event>
<event>
 7    1  0.6444902E-006  0.5567284E+02  0.7818608E-02  0.1533080E+00
          2   -1    0    0  502    0  0.00000000000E+00  0.00000000000E+00  0.12231197161E+03  0.12231197161E+03  0.00000000000E+00 0. -1.
          1   -1    0    0  501    0 -0.00000000000E+00 -0.00000000000E+00 -0.87963171469E+03  0.87963171469E+03  0.00000000000E+00 0. -1.
         25    2    1    2    0    0 -0.40149984390E+02 -0.14021897771E+01 -0.59574129371E+03  0.61003782835E+03  0.12499790241E+03 0.  0.
          2    1    1    2  501    0  0.63573794026E+02 -0.52127725858E+01 -0.27172011993E+03  0.27910683234E+03  0.00000000000E+00 0. -1.
          1    1    1    2  502    0 -0.23423809635E+02  0.66149623629E+01  0.11014167056E+03  0.11279902561E+03  0.00000000000E+00 0. -1.
         22    1    3    3    0    0 -0.94247216650E+01  0.60288347532E+02 -0.23648890618E+03  0.24423454500E+03  0.00000000000E+00 0.  1.
         22    1    3    3    0    0 -0.30725262725E+02 -0.61690537309E+02 -0.35925238753E+03  0.36580328334E+03  0.00000000000E+00 0.  1.
</event>
<event>
 7    1  0.6444902E-006  0.8364887E+02  0.7818608E-02  0.1402824E+00
          2   -1    0    0  502    0  0.00000000000E+00  0.00000000000E+00  0.90059362235E+03  0.90059362235E+03  0.00000000000E+00 0. -1.
          1   -1    0    0  501    0 -0.00000000000E+00 -0.00000000000E+00 -0.64091963799E+03  0.64091963799E+03  0.00000000000E+00 0. -1.
         25    2    1    2    0    0 -0.25981479777E+02  0.34078033532E+02  0.20143978783E+03  0.24091214937E+03  0.12499730370E+03 0.  0.
          2    1    1    2  501    0  0.48815590764E+02 -0.68575389485E+02 -0.61769650818E+03  0.62340558400E+03  0.00000000000E+00 0. -1.
          1    1    1    2  502    0 -0.22834110987E+02  0.34497355953E+02  0.67593070470E+03  0.67719552697E+03  0.00000000000E+00 0. -1.
         22    1    3    3    0    0 -0.49571200016E+02  0.38785355850E+02  0.33582389114E+02  0.71339922611E+02  0.00000000000E+00 0.  1.
         22    1    3    3    0    0  0.23589720239E+02 -0.47073223179E+01  0.16785739872E+03  0.16957222676E+03  0.00000000000E+00 0.  1.
</event>
<event>
 7    1  0.6444902E-006  0.3566281E+02  0.7818608E-02  0.1544033E+00
          2   -1    0    0  502    0  0.00000000000E+00  0.00000000000E+00  0.22395694223E+04  0.22395694223E+04  0.00000000000E+00 0. -1.
          1   -1    0    0  501    0 -0.00000000000E+00 -0.00000000000E+00 -0.12018472919E+03  0.12018472919E+03  0.00000000000E+00 0. -1.
         25    2    1    2    0    0 -0.25423333034E+02  0.65615325623E+02  0.75548292884E+02  0.16212783832E+03  0.12500469824E+03 0.  0.
          2    1    1    2  501    0  0.85568012028E+01 -0.34326825907E+02 -0.72668792831E+02  0.80822665603E+02  0.00000000000E+00 0. -1.
          1    1    1    2  502    0  0.16866531831E+02 -0.31288499717E+02  0.21165051931E+04  0.21168036476E+04  0.00000000000E+00 0. -1.
         22    1    3    3    0    0 -0.39262744878E+02  0.98692914869E+02  0.65891444705E+02  0.12499414813E+03  0.00000000000E+00 0.  1.
         22    1    3    3    0    0  0.13839411844E+02 -0.33077589246E+02  0.96568481787E+01  0.37133690191E+02  0.00000000000E+00 0.  1.
</event>
<event>
 7    1  0.6444902E-006  0.6205211E+02  0.7818608E-02  0.1522490E+00
          2   -1    0    0  502    0  0.00000000000E+00  0.00000000000E+00  0.82233356766E+03  0.82233356766E+03  0.00000000000E+00 0. -1.
          1   -1    0    0  501    0 -0.00000000000E+00 -0.00000000000E+00 -0.86586575059E+03  0.86586575059E+03  0.00000000000E+00 0. -1.
         25    2    1    2    0    0  0.41951408153E+02  0.32315151594E+02 -0.75245842115E+02  0.15521349549E+03  0.12500041103E+03 0.  0.
          2    1    1    2  501    0 -0.32118432455E+02 -0.53573834552E+02 -0.74916069362E+03  0.75176026386E+03  0.00000000000E+00 0. -1.
          1    1    1    2  502    0 -0.98329756972E+01  0.21258682957E+02  0.78087435281E+03  0.78122555891E+03  0.00000000000E+00 0. -1.
         22    1    3    3    0    0 -0.31097953382E+02 -0.22827042787E+01  0.14539896017E+02  0.34404970855E+02  0.00000000000E+00 0.  1.
         22    1    3    3    0    0  0.73049361535E+02  0.34597855873E+02 -0.89785738132E+02  0.12080852463E+03  0.00000000000E+00 0.  1.
</event>
<event>
 7    1  0.6444902E-006  0.8029413E+02  0.7818608E-02  0.1346933E+00
          2   -1    0    0  502    0  0.00000000000E+00  0.00000000000E+00  0.92653768012E+03  0.92653768012E+03  0.00000000000E+00 0. -1.
          1   -1    0    0  501    0 -0.00000000000E+00 -0.00000000000E+00 -0.15945428709E+04  0.15945428709E+04  0.00000000000E+00 0. -1.
         25    2    1    2    0    0 -0.51367209482E+02  0.96723000461E+02 -0.10582146898E+04  0.10711847311E+04  0.12499787741E+03 0.  0.
          2    1    1    2  501    0  0.65883703657E+02 -0.17761377667E+02 -0.52588327358E+03  0.53029175590E+03  0.00000000000E+00 0. -1.
          1    1    1    2  502    0 -0.14516494175E+02 -0.78961622794E+02  0.91609277263E+03  0.91960406401E+03  0.00000000000E+00 0. -1.
         22    1    3    3    0    0 -0.77578535869E+02  0.18385452415E+02 -0.63481492861E+03  0.63980188158E+03  0.00000000000E+00 0. -1.
         22    1    3    3    0    0  0.26211326387E+02  0.78337548046E+02 -0.42339976124E+03  0.43138284954E+03  0.00000000000E+00 0. -1.
</event>
<event>
 7    1  0.6444902E-006  0.9004314E+02  0.7818608E-02  0.1382821E+00
          2   -1    0    0  502    0  0.00000000000E+00  0.00000000000E+00  0.10609229767E+03  0.10609229767E+03  0.00000000000E+00 0. -1.
          1   -1    0    0  501    0 -0.00000000000E+00 -0.00000000000E+00 -0.21985709447E+04  0.21985709447E+04  0.00000000000E+00 0. -1.
         25    2    1    2    0    0 -0.45730428216E+02 -0.70123021303E+02 -0.10150525224E+04  0.10261408308E+04  0.12499948531E+03 0.  0.
          2    1    1    2  501    0  0.78511040241E+01  0.94607181882E+02 -0.11708966312E+04  0.11747387283E+04  0.00000000000E+00 0. -1.
          1    1    1    2  502    0  0.37879324192E+02 -0.24484160579E+02  0.93470506555E+02  0.10378368328E+03  0.00000000000E+00 0. -1.
         22    1    3    3    0    0  0.38910749271E+01 -0.11460773340E+02 -0.48793486521E+01  0.13049821183E+02  0.00000000000E+00 0.  1.
         22    1    3    3    0    0 -0.49621503143E+02 -0.58662247963E+02 -0.10101731737E+04  0.10130910096E+04  0.00000000000E+00 0.  1.
</event>
<event>
 7    1  0.6444902E-006  0.9886128E+02  0.7818608E-02  0.1310452E+00
          2   -1    0    0  502    0  0.00000000000E+00  0.00000000000E+00  0.10097607440E+04  0.10097607440E+04  0.00000000000E+00 0. -1.
          1   -1    0    0  501    0 -0.00000000000E+00 -0.00000000000E+00 -0.85553930547E+03  0.85553930547E+03  0.00000000000E+00 0. -1.
         25    2    1    2    0    0  0.41804243722E+01  0.27193146432E+02  0.54323007601E+02  0.13904286576E+03  0.12499994481E+03 0.  0.
          2    1    1    2  501    0  0.19335817583E+02  0.73959493524E+02 -0.80841746860E+03  0.81202381989E+03  0.00000000000E+00 0. -1.
          1    1    1    2  502    0 -0.23516241955E+02 -0.10115263996E+03  0.90831589958E+03  0.91423336388E+03  0.00000000000E+00 0. -1.
         22    1    3    3    0    0 -0.53743768965E+02 -0.15437711547E+02  0.20386094968E+02  0.59517295877E+02  0.00000000000E+00 0. -1.
         22    1    3    3    0    0  0.57924193338E+02  0.42630857978E+02  0.33936912633E+02  0.79525569881E+02  0.00000000000E+00 0. -1.
</event>
<event>
 7    1  0.6444902E-006  0.1099485E+03  0.7818608E-02  0.1379900E+00
          2   -1    0    0  502    0  0.00000000000E+00  0.00000000000E+00  0.15477950735E+04  0.15477950735E+04  0.00000000000E+00 0. -1.
          1   -1    0    0  501    0 -0.00000000000E+00 -0.00000000000E+00 -0.60835282813E+03  0.60835282813E+03  0.00000000000E+00 0. -1.
         25    2    1    2    0    0  0.12239522598E+03 -0.17003281189E+02  0.46207074921E+03  0.49437215788E+03  0.12499900117E+03 0.  0.
          2    1    1    2  501    0 -0.24236504131E+02 -0.29042121860E+02 -0.58884604402E+03  0.59005975675E+03  0.00000000000E+00 0. -1.
          1    1    1    2  502    0 -0.98158721852E+02  0.46045403048E+02  0.10662175402E+04  0.10717159870E+04  0.00000000000E+00 0. -1.
         22    1    3    3    0    0  0.10564445144E+02 -0.34171884495E+02  0.26955014641E+02  0.44787252712E+02  0.00000000000E+00 0.  1.
         22    1    3    3    0    0  0.11183078084E+03  0.17168603307E+02  0.43511573457E+03  0.44958490517E+03  0.00000000000E+00 0.  1.
</event>
<event>
 7    1  0.6444902E-006  0.1020755E+03  0.7818608E-02  0.1408202E+00
          2   -1    0    0  502    0  0.00000000000E+00  0.00000000000E+00  0.13720338284E+04  0.13720338284E+04  0.00000000000E+00 0. -1.
          1   -1    0    0  501    0 -0.00000000000E+00 -0.00000000000E+00 -0.12808055133E+03  0.12808055133E+03  0.00000000000E+00 0. -1.
         25    2    1    2    0    0  0.76873804528E+02 -0.56413989629E+02  0.82570143708E+03  0.84053535534E+03  0.12499880134E+03 0.  0.
          2    1    1    2  501    0 -0.97480740694E+02  0.31282640560E+02 -0.98345122685E+02  0.14196077473E+03  0.00000000000E+00 0. -1.
          1    1    1    2  502    0  0.20606936166E+02  0.25131349068E+02  0.51659696265E+03  0.51761824962E+03  0.00000000000E+00 0. -1.
         22    1    3    3    0    0  0.66668417132E+02  0.12054253989E+02  0.61575163872E+03  0.61946756450E+03  0.00000000000E+00 0.  1.
         22    1    3    3    0    0  0.10205387396E+02 -0.68468243617E+02  0.20994979836E+03  0.22106779084E+03  0.00000000000E+00 0.  1.
</event>
<event>
 7    1  0.6444902E-006  0.1081278E+03  0.7818608E-02  0.1323882E+00
          2   -1    0    0  502    0  0.00000000000E+00  0.00000000000E+00  0.60144758674E+03  0.60144758674E+03  0.00000000000E+00 0. -1.
          1   -1    0    0  501    0 -0.00000000000E+00 -0.00000000000E+00 -0.16784644972E+04  0.16784644972E+04  0.00000000000E+00 0. -1.
         25    2    1    2    0    0  0.14048605474E+02  0.54225072827E+02 -0.46151652370E+02  0.14454393043E+03  0.12500100387E+03 0.  0.
          2    1    1    2  501    0  0.49488224329E+02  0.37279391031E+02 -0.15768842237E+04  0.15781009766E+04  0.00000000000E+00 0. -1.
          1    1    1    2  502    0 -0.63536829803E+02 -0.91504463857E+02  0.54601896562E+03  0.55726717691E+03  0.00000000000E+00 0. -1.
         22    1    3    3    0    0 -0.21150921675E+02 -0.16435790231E+02 -0.58781780758E+02  0.64597170505E+02  0.00000000000E+00 0.  1.
         22    1    3    3    0    0  0.35199527149E+02  0.70660863058E+02  0.12630128387E+02  0.79946759926E+02  0.00000000000E+00 0.  1.
</event>
<event>
 7    1  0.6444902E-006  0.1778409E+03  0.7818608E-02  0.1283854E+00
          2   -1    0    0  502    0  0.00000000000E+00  0.00000000000E+00  0.28855590146E+03  0.28855590146E+03  0.00000000000E+00 0. -1.
          1   -1    0    0  501    0 -0.00000000000E+00 -0.00000000000E+00 -0.23105260961E+03  0.23105260961E+03  0.00000000000E+00 0. -1.
         25    2    1    2    0    0  0.64627371373E+02  0.18258730411E+03 -0.65354326636E+02  0.23960660001E+03  0.12500125602E+03 0.  0.
          2    1    1    2  501    0 -0.13824275543E+02 -0.16323462798E+03  0.21818215016E+02  0.16526551023E+03  0.00000000000E+00 0. -1.
          1    1    1    2  502    0 -0.50803095830E+02 -0.19352676128E+02  0.10103940348E+03  0.11473640083E+03  0.00000000000E+00 0. -1.
         22    1    3    3    0    0  0.97361256166E+01  0.16672657318E+03 -0.23226141710E+02  0.16861789942E+03  0.00000000000E+00 0. -1.
         22    1    3    3    0    0  0.54891245757E+02  0.15860730926E+02 -0.42128184926E+02  0.70988700590E+02  0.00000000000E+00 0. -1.
</event>
<event>
 7    1  0.6444902E-006  0.6658899E+02  0.7818608E-02  0.1503333E+00
          2   -1    0    0  502    0  0.00000000000E+00  0.00000000000E+00  0.13968034057E+04  0.13968034057E+04  0.00000000000E+00 0. -1.
          1   -1    0    0  501    0 -0.00000000000E+00 -0.00000000000E+00 -0.64938741507E+03  0.64938741507E+03  0.00000000000E+00 0. -1.
         25    2    1    2    0    0  0.79982594571E+02  0.83602797939E+01 -0.12673579859E+02  0.14914012642E+03  0.12496018553E+03 0.  0.
          2    1    1    2  501    0 -0.65253132154E+02  0.11642071654E+02 -0.56643175751E+03  0.57029680431E+03  0.00000000000E+00 0. -1.
          1    1    1    2  502    0 -0.14729462417E+02 -0.20002351448E+02  0.13265213280E+04  0.13267538901E+04  0.00000000000E+00 0. -1.
         22    1    3    3    0    0 -0.29396719288E+02  0.23883051910E+02 -0.70163505713E+01  0.38520078514E+02  0.00000000000E+00 0.  1.
         22    1    3    3    0    0  0.10937931386E+03 -0.15522772116E+02 -0.56572292880E+01  0.11062004790E+03  0.00000000000E+00 0.  1.
</event>
<event>
 7    1  0.6444902E-006  0.2031715E+03  0.7818608E-02  0.1260331E+00
          2   -1    0    0  502    0  0.00000000000E+00  0.00000000000E+00  0.22394254153E+04  0.22394254153E+04  0.00000000000E+00 0. -1.
          1   -1    0    0  501    0 -0.00000000000E+00 -0.00000000000E+00 -0.11972412493E+04  0.11972412493E+04  0.00000000000E+00 0. -1.
         25    2    1    2    0    0 -0.22122910401E+03  0.12125478216E+03 -0.15723783552E+03  0.32247943289E+03  0.12499683621E+03 0.  0.
          2    1    1    2  501    0  0.18190217673E+03 -0.76344543250E+02 -0.94680088022E+03  0.96713432260E+03  0.00000000000E+00 0. -1.
          1    1    1    2  502    0  0.39326927278E+02 -0.44910238913E+02  0.21462228817E+04  0.21470529091E+04  0.00000000000E+00 0. -1.
         22    1    3    3    0    0 -0.53298940132E+02 -0.11972175721E+01 -0.88970379670E+02  0.10372048403E+03  0.00000000000E+00 0.  1.
         22    1    3    3    0    0 -0.16793016387E+03  0.12245199974E+03 -0.68267455850E+02  0.21875894886E+03  0.00000000000E+00 0.  1.
</event>
<event>
 7    1  0.6444902E-006  0.6901832E+02  0.7818608E-02  0.1482370E+00
          2   -1    0    0  502    0  0.00000000000E+00  0.00000000000E+00  0.92852735145E+03  0.92852735145E+03  0.00000000000E+00 0. -1.
          1   -1    0    0  501    0 -0.00000000000E+00 -0.00000000000E+00 -0.21053642477E+03  0.21053642477E+03  0.00000000000E+00 0. -1.
         25    2    1    2    0    0  0.16103544449E+02 -0.45389142296E+02 -0.41278833954E+02  0.14017296435E+03  0.12500007768E+03 0.  0.
          2    1    1    2  501    0 -0.36115454470E+02  0.64568919324E+02 -0.10814689510E+03  0.13103137912E+03  0.00000000000E+00 0. -1.
          1    1    1    2  502    0  0.20011910021E+02 -0.19179777028E+02  0.86741665573E+03  0.86785943276E+03  0.00000000000E+00 0. -1.
         22    1    3    3    0    0  0.35161279971E+02  0.35633645538E+02 -0.22298584088E+02  0.54802364509E+02  0.00000000000E+00 0.  1.
         22    1    3    3    0    0 -0.19057735522E+02 -0.81022787833E+02 -0.18980249866E+02  0.85370599837E+02  0.00000000000E+00 0.  1.
</event>
<event>
 7    1  0.6444902E-006  0.1046364E+03  0.7818608E-02  0.1411602E+00
          2   -1    0    0  502    0  0.00000000000E+00  0.00000000000E+00  0.12125930566E+04  0.12125930566E+04  0.00000000000E+00 0. -1.
          1   -1    0    0  501    0 -0.00000000000E+00 -0.00000000000E+00 -0.32513580836E+03  0.32513580836E+03  0.00000000000E+00 0. -1.
         25    2    1    2    0    0  0.53466448637E+02 -0.52894539389E+02  0.17906929032E+03  0.23097099533E+03  0.12500118608E+03 0.  0.
          2    1    1    2  501    0 -0.73267809567E+02  0.76582406664E+02 -0.28955235788E+03  0.30834007991E+03  0.00000000000E+00 0. -1.
          1    1    1    2  502    0  0.19801360930E+02 -0.23687867275E+02  0.99794031576E+03  0.99841778969E+03  0.00000000000E+00 0. -1.
         22    1    3    3    0    0 -0.39533005393E+02 -0.91151482619E+01  0.32663421591E+02  0.52084964753E+02  0.00000000000E+00 0. -1.
         22    1    3    3    0    0  0.92999454031E+02 -0.43779391127E+02  0.14640586873E+03  0.17888603058E+03  0.00000000000E+00 0. -1.
</event>
<event>
 7    1  0.6444902E-006  0.5705374E+02  0.7818608E-02  0.1461802E+00
          2   -1    0    0  502    0  0.00000000000E+00  0.00000000000E+00  0.31090461576E+04  0.31090461576E+04  0.00000000000E+00 0. -1.
          1   -1    0    0  501    0 -0.00000000000E+00 -0.00000000000E+00 -0.74563321977E+02  0.74563321977E+02  0.00000000000E+00 0. -1.
         25    2    1    2    0    0  0.48372019051E+02 -0.67497964404E+02  0.46702987392E+03  0.49054842643E+03  0.12500011244E+03 0.  0.
          2    1    1    2  501    0 -0.36899847428E+02  0.12115011090E+02 -0.56465743620E+02  0.68532856620E+02  0.00000000000E+00 0. -1.
          1    1    1    2  502    0 -0.11472171623E+02  0.55382953313E+02  0.26239187053E+04  0.26245281965E+04  0.00000000000E+00 0. -1.
         22    1    3    3    0    0  0.13671935635E+02 -0.27144214784E+02  0.12418184841E+02  0.32832019965E+02  0.00000000000E+00 0. -1.
         22    1    3    3    0    0  0.34700083416E+02 -0.40353749620E+02  0.45461168908E+03  0.45771640647E+03  0.00000000000E+00 0. -1.
</event>
<event>
 7    1  0.6444902E-006  0.9487924E+02  0.7818608E-02  0.1354509E+00
          2   -1    0    0  502    0  0.00000000000E+00  0.00000000000E+00  0.18595362913E+03  0.18595362913E+03  0.00000000000E+00 0. -1.
          1   -1    0    0  501    0 -0.00000000000E+00 -0.00000000000E+00 -0.20351439241E+04  0.20351439241E+04  0.00000000000E+00 0. -1.
         25    2    1    2    0    0 -0.13229076589E+03 -0.41600710121E+02 -0.28450413175E+03  0.34029238483E+03  0.12499936149E+03 0.  0.
          2    1    1    2  501    0  0.92990797307E+02  0.43687556967E+01 -0.17168118774E+04  0.17193339980E+04  0.00000000000E+00 0. -1.
          1    1    1    2  502    0  0.39299968579E+02  0.37231954424E+02  0.15212571415E+03  0.16147117039E+03  0.00000000000E+00 0. -1.
         22    1    3    3    0    0 -0.10524584010E+02 -0.13771869184E+02 -0.16988395379E+03  0.17076588946E+03  0.00000000000E+00 0.  1.
         22    1    3    3    0    0 -0.12176618188E+03 -0.27828840937E+02 -0.11462017796E+03  0.16952649537E+03  0.00000000000E+00 0.  1.
</event>
<event>
 7    1  0.6444902E-006  0.2074294E+03  0.7818608E-02  0.1210406E+00
          2   -1    0    0  502    0  0.00000000000E+00  0.00000000000E+00  0.24509738148E+04  0.24509738148E+04  0.00000000000E+00 0. -1.
          1   -1    0    0  501    0 -0.00000000000E+00 -0.00000000000E+00 -0.13371773272E+04  0.13371773272E+04  0.00000000000E+00 0. -1.
         25    2    1    2    0    0  0.29291227592E+03 -0.21181917367E+02 -0.82186974381E+02  0.32958383595E+03  0.12499812461E+03 0.  0.
          2    1    1    2  501    0 -0.93311117462E+02 -0.28187583724E+02 -0.11246380575E+04  0.11288544038E+04  0.00000000000E+00 0. -1.
          1    1    1    2  502    0 -0.19960115846E+03  0.49369501092E+02  0.23206215195E+04  0.23297129022E+04  0.00000000000E+00 0. -1.
         22    1    3    3    0    0  0.19489016696E+03  0.24056642412E+02 -0.99676308874E+02  0.22021867716E+03  0.00000000000E+00 0. -1.
         22    1    3    3    0    0  0.98022108963E+02 -0.45238559779E+02  0.17489334493E+02  0.10936515879E+03  0.00000000000E+00 0. -1.
</event>
<event>
 7    1  0.7812289E-006  0.8607716E+02  0.7818608E-02  0.1324793E+00
          2   -1    0    0  502    0  0.00000000000E+00  0.00000000000E+00  0.28531392862E+04  0.28531392862E+04  0.00000000000E+00 0. -1.
          1   -1    0    0  501    0 -0.00000000000E+00 -0.00000000000E+00 -0.51346500237E+03  0.51346500237E+03  0.00000000000E+00 0. -1.
         25    2    1    2    0    0 -0.29058675942E+02  0.50843032592E+02 -0.15105432535E+03  0.20462297725E+03  0.12499493190E+03 0.  0.
          2    1    1    2  501    0  0.73696643099E+02  0.23004913653E+02 -0.33051816672E+03  0.33941520265E+03  0.00000000000E+00 0. -1.
          1    1    1    2  502    0 -0.44637967156E+02 -0.73847946245E+02  0.28212467759E+04  0.28225661087E+04  0.00000000000E+00 0. -1.
         22    1    3    3    0    0 -0.41989103729E+02  0.15781545549E+01  0.32358736391E+01  0.42143164119E+02  0.00000000000E+00 0.  1.
         22    1    3    3    0    0  0.12930427787E+02  0.49264878037E+02 -0.15429019899E+03  0.16247981313E+03  0.00000000000E+00 0.  1.
</event>
<event>
 7    1  0.6444902E-006  0.2857177E+02  0.7818608E-02  0.1653822E+00
          2   -1    0    0  502    0  0.00000000000E+00  0.00000000000E+00  0.73680160946E+03  0.73680160946E+03  0.00000000000E+00 0. -1.
          1   -1    0    0  501    0 -0.00000000000E+00 -0.00000000000E+00 -0.24692547606E+03  0.24692547606E+03  0.00000000000E+00 0. -1.
         25    2    1    2    0    0 -0.83457232358E+01 -0.25686269046E+02  0.96259371248E+02  0.16006474591E+03  0.12500168325E+03 0.  0.
          2    1    1    2  501    0 -0.17888544793E+02  0.14090101429E+02 -0.21408069507E+03  0.21528835313E+03  0.00000000000E+00 0. -1.
          1    1    1    2  502    0  0.26234268028E+02  0.11596167617E+02  0.60769745722E+03  0.60837398649E+03  0.00000000000E+00 0. -1.
         22    1    3    3    0    0 -0.52117352897E+02  0.11365465788E+02  0.86888987770E+02  0.10195630673E+03  0.00000000000E+00 0.  1.
         22    1    3    3    0    0  0.43771629661E+02 -0.37051734834E+02  0.93703834782E+01  0.58108439180E+02  0.00000000000E+00 0.  1.
</event>
<event>
 7    1  0.6444902E-006  0.9666808E+02  0.7818608E-02  0.1320721E+00
          2   -1    0    0  502    0  0.00000000000E+00  0.00000000000E+00  0.10054934531E+04  0.10054934531E+04  0.00000000000E+00 0. -1.
          1   -1    0    0  501    0 -0.00000000000E+00 -0.00000000000E+00 -0.15736667149E+03  0.15736667149E+03  0.00000000000E+00 0. -1.
         25    2    1    2    0    0 -0.47838406929E+02  0.14084598475E+03  0.12618275237E+03  0.23167545943E+03  0.12500130762E+03 0.  0.
          2    1    1    2  501    0 -0.14476300219E+02 -0.69795761524E+02 -0.89409207455E+02  0.11434604485E+03  0.00000000000E+00 0. -1.
          1    1    1    2  502    0  0.62314707148E+02 -0.71050223228E+02  0.81135323667E+03  0.81683862029E+03  0.00000000000E+00 0. -1.
         22    1    3    3    0    0  0.29535088177E+02  0.76895379791E+02  0.96754999085E+02  0.12706986549E+03  0.00000000000E+00 0.  1.
         22    1    3    3    0    0 -0.77373495107E+02  0.63950604960E+02  0.29427753286E+02  0.10460559394E+03  0.00000000000E+00 0.  1.
</event>
<event>
 7    1  0.6444902E-006  0.9277836E+02  0.7818608E-02  0.1374888E+00
          2   -1    0    0  502    0  0.00000000000E+00  0.00000000000E+00  0.15716005660E+04  0.15716005660E+04  0.00000000000E+00 0. -1.
          1   -1    0    0  501    0 -0.00000000000E+00 -0.00000000000E+00 -0.10819244580E+03  0.10819244580E+03  0.00000000000E+00 0. -1.
         25    2    1    2    0    0  0.52244271172E+02  0.12664971308E+03  0.59290849318E+03  0.62124076285E+03  0.12501996021E+03 0.  0.
          2    1    1    2  501    0 -0.41440273838E+02 -0.81211807217E+02 -0.71208762389E+02  0.11568639405E+03  0.00000000000E+00 0. -1.
          1    1    1    2  502    0 -0.10803997334E+02 -0.45437905858E+02  0.94170838938E+03  0.94286585487E+03  0.00000000000E+00 0. -1.
         22    1    3    3    0    0  0.55930410462E+02  0.10550778810E+03  0.58694104317E+03  0.59896568543E+03  0.00000000000E+00 0. -1.
         22    1    3    3    0    0 -0.36861392907E+01  0.21141924978E+02  0.59674500137E+01  0.22275077426E+02  0.00000000000E+00 0. -1.
</event>
<event>
 7    1  0.6444902E-006  0.1021775E+03  0.7818608E-02  0.1334163E+00
          2   -1    0    0  502    0  0.00000000000E+00  0.00000000000E+00  0.13779016281E+04  0.13779016281E+04  0.00000000000E+00 0. -1.
          1   -1    0    0  501    0 -0.00000000000E+00 -0.00000000000E+00 -0.10163846547E+04  0.10163846547E+04  0.00000000000E+00 0. -1.
         25    2    1    2    0    0 -0.11722050136E+02 -0.69015538690E+02  0.29613077697E+03  0.32896571156E+03  0.12499780507E+03 0.  0.
          2    1    1    2  501    0 -0.58001701173E+02 -0.14914953542E+02 -0.99627177513E+03  0.99807018947E+03  0.00000000000E+00 0. -1.
          1    1    1    2  502    0  0.69723751309E+02  0.83930492233E+02  0.10616579715E+04  0.10672503818E+04  0.00000000000E+00 0. -1.
         22    1    3    3    0    0 -0.68103152467E+02 -0.31678738004E+02  0.14163171732E+03  0.16031570468E+03  0.00000000000E+00 0. -1.
         22    1    3    3    0    0  0.56381102331E+02 -0.37336800686E+02  0.15449905965E+03  0.16865000687E+03  0.00000000000E+00 0. -1.
</event>
<event>
 7    1  0.6444902E-006  0.7909962E+02  0.7818608E-02  0.1333617E+00
          2   -1    0    0  502    0  0.00000000000E+00  0.00000000000E+00  0.64394933263E+03  0.64394933263E+03  0.00000000000E+00 0. -1.
          1   -1    0    0  501    0 -0.00000000000E+00 -0.00000000000E+00 -0.19353292405E+03  0.19353292405E+03  0.00000000000E+00 0. -1.
         25    2    1    2    0    0 -0.25972302850E+02  0.10118869906E+02  0.15085549070E+03  0.19788122646E+03  0.12499059431E+03 0.  0.
          2    1    1    2  501    0  0.22908891510E+01  0.77698074681E+02 -0.15640283271E+03  0.17465418707E+03  0.00000000000E+00 0. -1.
          1    1    1    2  502    0  0.23681413699E+02 -0.87816944587E+02  0.45596375058E+03  0.46494684315E+03  0.00000000000E+00 0. -1.
         22    1    3    3    0    0  0.30562128228E+01  0.48725385641E+01 -0.21891090090E+02  0.22634086998E+02  0.00000000000E+00 0.  1.
         22    1    3    3    0    0 -0.29028515673E+02  0.52463313424E+01  0.17274658079E+03  0.17524713946E+03  0.00000000000E+00 0.  1.
</event>
<event>
 7    1  0.6444902E-006  0.5372520E+02  0.7818608E-02  0.1453089E+00
          2   -1    0    0  502    0  0.00000000000E+00  0.00000000000E+00  0.17625370028E+04  0.17625370028E+04  0.00000000000E+00 0. -1.
          1   -1    0    0  501    0 -0.00000000000E+00 -0.00000000000E+00 -0.60747762678E+03  0.60747762678E+03  0.00000000000E+00 0. -1.
         25    2    1    2    0    0 -0.32067250619E+02 -0.14451106195E+02  0.42638267406E+03  0.44571878143E+03  0.12500361733E+03 0.  0.
          2    1    1    2  501    0  0.18992969581E+02 -0.39632697722E+02 -0.59641719852E+03  0.59803424510E+03  0.00000000000E+00 0. -1.
          1    1    1    2  502    0  0.13074281038E+02  0.54083803916E+02  0.13250939004E+04  0.13262616030E+04  0.00000000000E+00 0. -1.
         22    1    3    3    0    0 -0.35463746312E+02  0.30619049983E+02  0.37229840496E+03  0.37523500085E+03  0.00000000000E+00 0. -1.
         22    1    3    3    0    0  0.33964956930E+01 -0.45070156178E+02  0.54084269104E+02  0.70483780583E+02  0.00000000000E+00 0. -1.
</event>
<event>
 7    1  0.6444902E-006  0.6441760E+02  0.7818608E-02  0.1422105E+00
          2   -1    0    0  502    0  0.00000000000E+00  0.00000000000E+00  0.15496551308E+04  0.15496551308E+04  0.00000000000E+00 0. -1.
          1   -1    0    0  501    0 -0.00000000000E+00 -0.00000000000E+00 -0.37095661052E+03  0.37095661052E+03  0.00000000000E+00 0. -1.
         25    2    1    2    0    0 -0.82958142993E+02 -0.17988752422E+02 -0.19789058455E+03  0.24897945168E+03  0.12499774081E+03 0.  0.
          2    1    1    2  501    0  0.37261525112E+02 -0.27383323309E+02 -0.14319928494E+03  0.15048024075E+03  0.00000000000E+00 0. -1.
          1    1    1    2  502    0  0.45696617881E+02  0.45372075732E+02  0.15197883897E+04  0.15211520488E+04  0.00000000000E+00 0. -1.
         22    1    3    3    0    0 -0.82302303025E+02  0.30670271940E+02 -0.70549878641E+02  0.11265709050E+03  0.00000000000E+00 0.  1.
         22    1    3    3    0    0 -0.65583996735E+00 -0.48659024362E+02 -0.12734070590E+03  0.13632236118E+03  0.00000000000E+00 0.  1.
</event>
<event>
 7    1  0.6444902E-006  0.1452002E+03  0.7818608E-02  0.1330414E+00
          2   -1    0    0  502    0  0.00000000000E+00  0.00000000000E+00  0.49953862513E+03  0.49953862513E+03  0.00000000000E+00 0. -1.
          1   -1    0    0  501    0 -0.00000000000E+00 -0.00000000000E+00 -0.10656802872E+04  0.10656802872E+04  0.00000000000E+00 0. -1.
         25    2    1    2    0    0 -0.79047208154E+02 -0.78994817670E+02 -0.50215437416E+01  0.16774664880E+03  0.12500031979E+03 0.  0.
          2    1    1    2  501    0  0.82518159193E+02  0.12240816415E+03 -0.97257695902E+03  0.98371690361E+03  0.00000000000E+00 0. -1.
          1    1    1    2  502    0 -0.34709510391E+01 -0.43413346478E+02  0.41145684066E+03  0.41375535994E+03  0.00000000000E+00 0. -1.
         22    1    3    3    0    0 -0.98335500899E+02 -0.13337866175E+02 -0.35428687442E+01  0.99299150702E+02  0.00000000000E+00 0. -1.
         22    1    3    3    0    0  0.19288292745E+02 -0.65656951495E+02 -0.14786749974E+01  0.68447498102E+02  0.00000000000E+00 0. -1.
</event>
<event>
 7    1  0.6444902E-006  0.7433125E+02  0.7818608E-02  0.1347277E+00
          2   -1    0    0  502    0  0.00000000000E+00  0.00000000000E+00  0.83179978279E+02  0.83179978279E+02  0.00000000000E+00 0. -1.
          1   -1    0    0  501    0 -0.00000000000E+00 -0.00000000000E+00 -0.13103246563E+04  0.13103246563E+04  0.00000000000E+00 0. -1.
         25    2    1    2    0    0  0.34092351565E+02 -0.86271067785E+01 -0.11923155988E+03  0.17628811454E+03  0.12499847619E+03 0.  0.
          2    1    1    2  501    0 -0.42609985333E+02 -0.64370615766E+02 -0.11359405853E+04  0.11385605826E+04  0.00000000000E+00 0. -1.
          1    1    1    2  502    0  0.85176337675E+01  0.72997722545E+02  0.28027467112E+02  0.78655937439E+02  0.00000000000E+00 0. -1.
         22    1    3    3    0    0  0.50258968758E+02 -0.56192271793E+02 -0.92665470415E+02  0.11945888312E+03  0.00000000000E+00 0. -1.
         22    1    3    3    0    0 -0.16166617192E+02  0.47565165014E+02 -0.26566089470E+02  0.56829231422E+02  0.00000000000E+00 0. -1.
</event>
<event>
 7    1  0.6444902E-006  0.1366899E+03  0.7818608E-02  0.1248439E+00
          2   -1    0    0  502    0  0.00000000000E+00  0.00000000000E+00  0.90625004089E+02  0.90625004089E+02  0.00000000000E+00 0. -1.
          1   -1    0    0  501    0 -0.00000000000E+00 -0.00000000000E+00 -0.81677176734E+03  0.81677176734E+03  0.00000000000E+00 0. -1.
         25    2    1    2    0    0 -0.68139137164E+01 -0.10494345189E+03 -0.18810007047E+03  0.24913311289E+03  0.12500445556E+03 0.  0.
          2    1    1    2  501    0  0.94625344969E+02 -0.31832904921E+02 -0.47262321274E+03  0.48305278279E+03  0.00000000000E+00 0. -1.
          1    1    1    2  502    0 -0.87811431252E+02  0.13677635681E+03 -0.65423480045E+02  0.17521087575E+03  0.00000000000E+00 0. -1.
         22    1    3    3    0    0 -0.35850299049E+02  0.14087995407E+02 -0.64301335363E+02  0.74955835570E+02  0.00000000000E+00 0.  1.
         22    1    3    3    0    0  0.29036385333E+02 -0.11903144730E+03 -0.12379873511E+03  0.17417727732E+03  0.00000000000E+00 0.  1.
</event>
<event>
 7    1  0.6444902E-006  0.4331559E+02  0.7818608E-02  0.1490121E+00
          2   -1    0    0  502    0  0.00000000000E+00  0.00000000000E+00  0.22372380620E+03  0.22372380620E+03  0.00000000000E+00 0. -1.
          1   -1    0    0  501    0 -0.00000000000E+00 -0.00000000000E+00 -0.11284607090E+04  0.11284607090E+04  0.00000000000E+00 0. -1.
         25    2    1    2    0    0  0.46781717728E+02  0.52764937580E+02  0.50981532458E+02  0.15230608921E+03  0.12500144162E+03 0.  0.
          2    1    1    2  501    0 -0.41764219209E+02 -0.11233545037E+02 -0.10737665151E+04  0.10746371348E+04  0.00000000000E+00 0. -1.
          1    1    1    2  502    0 -0.50174985193E+01 -0.41531392543E+02  0.11804807986E+03  0.12524129118E+03  0.00000000000E+00 0. -1.
         22    1    3    3    0    0 -0.40406671625E+01  0.83629819091E+02  0.34894792219E+02  0.90707883650E+02  0.00000000000E+00 0.  1.
         22    1    3    3    0    0  0.50822384891E+02 -0.30864881510E+02  0.16086740239E+02  0.61598205559E+02  0.00000000000E+00 0.  1.
</event>
<event>
 7    1  0.6444902E-006  0.8563035E+02  0.7818608E-02  0.1357870E+00
          2   -1    0    0  502    0  0.00000000000E+00  0.00000000000E+00  0.40616669472E+03  0.40616669472E+03  0.00000000000E+00 0. -1.
          1   -1    0    0  501    0 -0.00000000000E+00 -0.00000000000E+00 -0.21038892228E+04  0.21038892228E+04  0.00000000000E+00 0. -1.
         25    2    1    2    0    0 -0.26270558233E+02  0.38070014224E+02  0.21112533245E+02  0.13494554362E+03  0.12500036988E+03 0.  0.
          2    1    1    2  501    0  0.82828253605E+02 -0.23909467786E+02 -0.20434668290E+04  0.20452845433E+04  0.00000000000E+00 0. -1.
          1    1    1    2  502    0 -0.56557695372E+02 -0.14160546438E+02  0.32463176760E+03  0.32982583058E+03  0.00000000000E+00 0. -1.
         22    1    3    3    0    0 -0.73299600937E+02  0.59661790698E+01 -0.18065255027E+01  0.73564191864E+02  0.00000000000E+00 0. -1.
         22    1    3    3    0    0  0.47029042704E+02  0.32103835154E+02  0.22919058748E+02  0.61381351754E+02  0.00000000000E+00 0. -1.
</event>
<event>
 7    1  0.6444902E-006  0.1372879E+03  0.7818608E-02  0.1320879E+00
          2   -1    0    0  502    0  0.00000000000E+00  0.00000000000E+00  0.22990876492E+03  0.22990876492E+03  0.00000000000E+00 0. -1.
          1   -1    0    0  501    0 -0.00000000000E+00 -0.00000000000E+00 -0.24528074734E+04  0.24528074734E+04  0.00000000000E+00 0. -1.
         25    2    1    2    0    0 -0.28321349562E+01  0.91097404629E+02  0.55164872713E+02  0.16424364491E+03  0.12500421431E+03 0.  0.
          2    1    1    2  501    0 -0.17099588706E+02 -0.13708388755E+03 -0.23909616660E+04  0.23949492847E+04  0.00000000000E+00 0. -1.
          1    1    1    2  502    0  0.19931723663E+02  0.45986482925E+02  0.11289808483E+03  0.12352330864E+03  0.00000000000E+00 0. -1.
         22    1    3    3    0    0  0.23271724210E+02 -0.13385209893E+02  0.49607707296E+02  0.56406219646E+02  0.00000000000E+00 0. -1.
         22    1    3    3    0    0 -0.26103859166E+02  0.10448261452E+03  0.55571654162E+01  0.10783742527E+03  0.00000000000E+00 0. -1.
</event>
<event>
 7    1  0.6444902E-006  0.7983958E+02  0.7818608E-02  0.1496059E+00
          2   -1    0    0  502    0  0.00000000000E+00  0.00000000000E+00  0.14390559762E+04  0.14390559762E+04  0.00000000000E+00 0. -1.
          1   -1    0    0  501    0 -0.00000000000E+00 -0.00000000000E+00 -0.62719602224E+03  0.62719602224E+03  0.00000000000E+00 0. -1.
         25    2    1    2    0    0  0.59386889071E+02 -0.29410848197E+02  0.48204926064E+03  0.50238474788E+03  0.12500857823E+03 0.  0.
          2    1    1    2  501    0  0.20234355753E+02  0.80589421115E+01 -0.61504090529E+03  0.61542643011E+03  0.00000000000E+00 0. -1.
          1    1    1    2  502    0 -0.79621244824E+02  0.21351906085E+02  0.94485159860E+03  0.94844082046E+03  0.00000000000E+00 0. -1.
         22    1    3    3    0    0  0.15532740015E+01  0.41561770806E+02  0.81418324969E+02  0.91426129162E+02  0.00000000000E+00 0. -1.
         22    1    3    3    0    0  0.57833615069E+02 -0.70972619003E+02  0.40063093567E+03  0.41095861871E+03  0.00000000000E+00 0. -1.
</event>
<event>
 7    1  0.6444902E-006  0.8318319E+02  0.7818608E-02  0.1399544E+00
          2   -1    0    0  502    0  0.00000000000E+00  0.00000000000E+00  0.17367499316E+04  0.17367499316E+04  0.00000000000E+00 0. -1.
          1   -1    0    0  501    0 -0.00000000000E+00 -0.00000000000E+00 -0.10372805421E+03  0.10372805421E+03  0.00000000000E+00 0. -1.
         25    2    1    2    0    0  0.53084968490E+02  0.93042988495E+02  0.29176985553E+03  0.33500437989E+03  0.12499309726E+03 0.  0.
          2    1    1    2  501    0 -0.63720232772E+02 -0.51694668573E+02 -0.61205974829E+02  0.10236590340E+03  0.00000000000E+00 0. -1.
          1    1    1    2  502    0  0.10635264282E+02 -0.41348319921E+02  0.14024579967E+04  0.14031077025E+04  0.00000000000E+00 0. -1.
         22    1    3    3    0    0 -0.58711287935E+01  0.10377781570E+03  0.16936541235E+03  0.19871826309E+03  0.00000000000E+00 0.  1.
         22    1    3    3    0    0  0.58956097284E+02 -0.10734827207E+02  0.12240444318E+03  0.13628611680E+03  0.00000000000E+00 0.  1.
</event>
<event>
 7    1  0.6444902E-006  0.1430466E+03  0.7818608E-02  0.1325557E+00
          2   -1    0    0  502    0  0.00000000000E+00  0.00000000000E+00  0.23525636416E+04  0.23525636416E+04  0.00000000000E+00 0. -1.
          1   -1    0    0  501    0 -0.00000000000E+00 -0.00000000000E+00 -0.12154976090E+04  0.12154976090E+04  0.00000000000E+00 0. -1.
         25    2    1    2    0    0  0.42023927654E+02 -0.15838351986E+03 -0.79470222630E+03  0.82099202737E+03  0.12499972262E+03 0.  0.
          2    1    1    2  501    0 -0.57312795782E+02  0.11484658753E+03 -0.39731296978E+03  0.41753094638E+03  0.00000000000E+00 0. -1.
          1    1    1    2  502    0  0.15288868128E+02  0.43536932334E+02  0.23290812287E+04  0.23295382769E+04  0.00000000000E+00 0. -1.
         22    1    3    3    0    0  0.57102294203E+02 -0.13890473427E+03 -0.77508783253E+03  0.78950386024E+03  0.00000000000E+00 0.  1.
         22    1    3    3    0    0 -0.15078366549E+02 -0.19478785587E+02 -0.19614393773E+02  0.31488167124E+02  0.00000000000E+00 0.  1.
</event>
<event>
 7    1  0.6444902E-006  0.7581401E+02  0.7818608E-02  0.1367626E+00
          2   -1    0    0  502    0  0.00000000000E+00  0.00000000000E+00  0.10275823325E+04  0.10275823325E+04  0.00000000000E+00 0. -1.
          1   -1    0    0  501    0 -0.00000000000E+00 -0.00000000000E+00 -0.32560628696E+04  0.32560628696E+04  0.00000000000E+00 0. -1.
         25    2    1    2    0    0  0.47230674585E+02  0.10908613611E+03 -0.11235481897E+03  0.20586016607E+03  0.12499712363E+03 0.  0.
          2    1    1    2  501    0 -0.50520023082E+02 -0.33629663733E+02 -0.30952034715E+04  0.30957984038E+04  0.00000000000E+00 0. -1.
          1    1    1    2  502    0  0.32893484967E+01 -0.75456472375E+02  0.97907775326E+03  0.98198663228E+03  0.00000000000E+00 0. -1.
         22    1    3    3    0    0  0.80546263884E+02  0.88237097858E+02 -0.44586879231E+02  0.12752049194E+03  0.00000000000E+00 0. -1.
         22    1    3    3    0    0 -0.33315589299E+02  0.20849038249E+02 -0.67767939742E+02  0.78339674132E+02  0.00000000000E+00 0. -1.
</event>
<event>
 7    1  0.6444902E-006  0.9402056E+02  0.7818608E-02  0.1338318E+00
          2   -1    0    0  502    0  0.00000000000E+00  0.00000000000E+00  0.67591964576E+03  0.67591964576E+03  0.00000000000E+00 0. -1.
          1   -1    0    0  501    0 -0.00000000000E+00 -0.00000000000E+00 -0.13333832718E+04  0.13333832718E+04  0.00000000000E+00 0. -1.
         25    2    1    2    0    0 -0.38361786607E+02  0.84450630019E+02 -0.96198399054E+02  0.18295503290E+03  0.12495949944E+03 0.  0.
          2    1    1    2  501    0 -0.46323510071E+02 -0.42359064506E+02 -0.11894396769E+04  0.11910948337E+04  0.00000000000E+00 0. -1.
          1    1    1    2  502    0  0.84685296678E+02 -0.42091565513E+02  0.62817444985E+03  0.63525305100E+03  0.00000000000E+00 0. -1.
         22    1    3    3    0    0 -0.74077373927E+02  0.68405853038E+02 -0.28553234975E+02  0.10479554039E+03  0.00000000000E+00 0.  1.
         22    1    3    3    0    0  0.35715587320E+02  0.16044776981E+02 -0.67645164079E+02  0.78159492509E+02  0.00000000000E+00 0.  1.
</event>
<event>
 7    1  0.6444902E-006  0.1005959E+03  0.7818608E-02  0.1419645E+00
          2   -1    0    0  502    0  0.00000000000E+00  0.00000000000E+00  0.12786026452E+03  0.12786026452E+03  0.00000000000E+00 0. -1.
          1   -1    0    0  501    0 -0.00000000000E+00 -0.00000000000E+00 -0.49961161658E+03  0.49961161658E+03  0.00000000000E+00 0. -1.
         25    2    1    2    0    0 -0.42649687330E+02 -0.63399632726E+02 -0.95068108042E+02  0.17464663650E+03  0.12499997285E+03 0.  0.
          2    1    1    2  501    0  0.66946092215E+02  0.81296024287E+02 -0.35426210500E+03  0.36958417426E+03  0.00000000000E+00 0. -1.
          1    1    1    2  502    0 -0.24296404886E+02 -0.17896391562E+02  0.77578860978E+02  0.83241070344E+02  0.00000000000E+00 0. -1.
         22    1    3    3    0    0 -0.39671051104E+02  0.31599381684E+02 -0.24866206899E+02  0.56485763375E+02  0.00000000000E+00 0. -1.
         22    1    3    3    0    0 -0.29786362257E+01 -0.94999014410E+02 -0.70201901142E+02  0.11816087312E+03  0.00000000000E+00 0. -1.
</event>
<event>
 7    1  0.6444902E-006  0.1418753E+03  0.7818608E-02  0.1273169E+00
          2   -1    0    0  502    0  0.00000000000E+00  0.00000000000E+00  0.41027204860E+03  0.41027204860E+03  0.00000000000E+00 0. -1.
          1   -1    0    0  501    0 -0.00000000000E+00 -0.00000000000E+00 -0.60945986305E+03  0.60945986305E+03  0.00000000000E+00 0. -1.
         25    2    1    2    0    0  0.55336937625E+02 -0.83238292385E+02 -0.98386519247E+02  0.18787215114E+03  0.12500099208E+03 0.  0.
          2    1    1    2  501    0 -0.28288726791E+02  0.15368081214E+03 -0.44908546319E+03  0.47549531788E+03  0.00000000000E+00 0. -1.
          1    1    1    2  502    0 -0.27048210834E+02 -0.70442519757E+02  0.34828416798E+03  0.35636444262E+03  0.00000000000E+00 0. -1.
         22    1    3    3    0    0 -0.26115194683E+02 -0.55428447531E+02 -0.59360589451E+01  0.61559345227E+02  0.00000000000E+00 0. -1.
         22    1    3    3    0    0  0.81452132308E+02 -0.27809844854E+02 -0.92450460302E+02  0.12631280592E+03  0.00000000000E+00 0. -1.
</event>
<event>
 7    1  0.6444902E-006  0.5892420E+02  0.7818608E-02  0.1436522E+00
          2   -1    0    0  502    0  0.00000000000E+00  0.00000000000E+00  0.54028097706E+03  0.54028097706E+03  0.00000000000E+00 0. -1.
          1   -1    0    0  501    0 -0.00000000000E+00 -0.00000000000E+00 -0.17997773112E+03  0.17997773112E+03  0.00000000000E+00 0. -1.
         25    2    1    2    0    0  0.55913936123E+02 -0.85671570825E+02  0.92477338221E+02  0.18612715961E+03  0.12500110063E+03 0.  0.
          2    1    1    2  501    0 -0.23579243212E+02  0.38695916989E+02 -0.12718966034E+03  0.13502060732E+03  0.00000000000E+00 0. -1.
          1    1    1    2  502    0 -0.32334692911E+02  0.46975653836E+02  0.39501556806E+03  0.39911094125E+03  0.00000000000E+00 0. -1.
         22    1    3    3    0    0 -0.91076967434E+00 -0.22788106550E+02 -0.29690318042E+02  0.37438513419E+02  0.00000000000E+00 0.  1.
         22    1    3    3    0    0  0.56824705798E+02 -0.62883464274E+02  0.12216765626E+03  0.14868864619E+03  0.00000000000E+00 0.  1.
</event>
<event>
 7    1  0.6444902E-006  0.2612492E+03  0.7818608E-02  0.1107373E+00
          2   -1    0    0  502    0  0.00000000000E+00  0.00000000000E+00  0.17742383298E+04  0.17742383298E+04  0.00000000000E+00 0. -1.
          1   -1    0    0  501    0 -0.00000000000E+00 -0.00000000000E+00 -0.96863851205E+03  0.96863851205E+03  0.00000000000E+00 0. -1.
         25    2    1    2    0    0 -0.22470080930E+03 -0.17530773850E+03 -0.11902658686E+03  0.33319124753E+03  0.12500328864E+03 0.  0.
          2    1    1    2  501    0  0.24180751894E+03 -0.89948544027E+02 -0.70904879311E+03  0.75452753946E+03  0.00000000000E+00 0. -1.
          1    1    1    2  502    0 -0.17106709640E+02  0.26525628253E+03  0.16336751977E+04  0.16551580549E+04  0.00000000000E+00 0. -1.
         22    1    3    3    0    0 -0.91636650765E+02 -0.39413965284E+01 -0.55135729022E+02  0.10701756391E+03  0.00000000000E+00 0. -1.
         22    1    3    3    0    0 -0.13306415854E+03 -0.17136634197E+03 -0.63890857833E+02  0.22617368362E+03  0.00000000000E+00 0. -1.
</event>
<event>
 7    1  0.6444902E-006  0.6523519E+02  0.7818608E-02  0.1468341E+00
          2   -1    0    0  502    0  0.00000000000E+00  0.00000000000E+00  0.59715768097E+03  0.59715768097E+03  0.00000000000E+00 0. -1.
          1   -1    0    0  501    0 -0.00000000000E+00 -0.00000000000E+00 -0.10415293739E+04  0.10415293739E+04  0.00000000000E+00 0. -1.
         25    2    1    2    0    0  0.23727828253E+02 -0.82830998794E+02  0.13673777212E+03  0.20432092697E+03  0.12500335467E+03 0.  0.
          2    1    1    2  501    0  0.12372490906E+02  0.29946937350E+02 -0.10050727090E+04  0.10055948727E+04  0.00000000000E+00 0. -1.
          1    1    1    2  502    0 -0.36100319159E+02  0.52884061443E+02  0.42396324400E+03  0.42877125517E+03  0.00000000000E+00 0. -1.
         22    1    3    3    0    0  0.18950779474E+01 -0.32389088897E+02  0.14513662078E+03  0.14871880544E+03  0.00000000000E+00 0. -1.
         22    1    3    3    0    0  0.21832750306E+02 -0.50441909896E+02 -0.83988486566E+01  0.55602121530E+02  0.00000000000E+00 0. -1.
</event>
<event>
 7    1  0.6444902E-006  0.8958505E+02  0.7818608E-02  0.1400995E+00
          2   -1    0    0  502    0  0.00000000000E+00  0.00000000000E+00  0.96522583274E+03  0.96522583274E+03  0.00000000000E+00 0. -1.
          1   -1    0    0  501    0 -0.00000000000E+00 -0.00000000000E+00 -0.14917426312E+03  0.14917426312E+03  0.00000000000E+00 0. -1.
         25    2    1    2    0    0 -0.44147450736E+02 -0.10320601826E+03  0.46268524548E+03  0.49224209311E+03  0.12499664889E+03 0.  0.
          2    1    1    2  501    0  0.58812589467E+02  0.66863007775E+02 -0.11874385360E+03  0.14842400499E+03  0.00000000000E+00 0. -1.
          1    1    1    2  502    0 -0.14665138732E+02  0.36343010485E+02  0.47211017774E+03  0.47373399776E+03  0.00000000000E+00 0. -1.
         22    1    3    3    0    0 -0.64061473011E+02 -0.67065905939E+02  0.42918575162E+03  0.43909237918E+03  0.00000000000E+00 0.  1.
         22    1    3    3    0    0  0.19914022275E+02 -0.36140112320E+02  0.33499493861E+02  0.53149713928E+02  0.00000000000E+00 0.  1.
</event>
<event>
 7    1  0.6444902E-006  0.2540424E+03  0.7818608E-02  0.1128232E+00
          2   -1    0    0  502    0  0.00000000000E+00  0.00000000000E+00  0.17095916463E+04  0.17095916463E+04  0.00000000000E+00 0. -1.
          1   -1    0    0  501    0 -0.00000000000E+00 -0.00000000000E+00 -0.11247897953E+04  0.11247897953E+04  0.00000000000E+00 0. -1.
         25    2    1    2    0    0 -0.24278731464E+03 -0.82446822047E+02 -0.29066523779E+02  0.28672743646E+03  0.12499840559E+03 0.  0.
          2    1    1    2  501    0  0.11155377001E+03  0.23886928502E+03 -0.94212760877E+03  0.97831856270E+03  0.00000000000E+00 0. -1.
          1    1    1    2  502    0  0.13123354463E+03 -0.15642246297E+03  0.15559959835E+04  0.15693354424E+04  0.00000000000E+00 0. -1.
         22    1    3    3    0    0 -0.20414370653E+03 -0.34127582346E+02 -0.62752125355E+02  0.21628031355E+03  0.00000000000E+00 0.  1.
         22    1    3    3    0    0 -0.38643608114E+02 -0.48319239700E+02  0.33685601577E+02  0.70447122914E+02  0.00000000000E+00 0.  1.
</event>
<event>
 7    1  0.6444902E-006  0.6688765E+02  0.7818608E-02  0.1491145E+00
          2   -1    0    0  502    0  0.00000000000E+00  0.00000000000E+00  0.16826309110E+04  0.16826309110E+04  0.00000000000E+00 0. -1.
          1   -1    0    0  501    0 -0.00000000000E+00 -0.00000000000E+00 -0.14510403857E+04  0.14510403857E+04  0.00000000000E+00 0. -1.
         25    2    1    2    0    0  0.91289567871E+02 -0.19741630786E+02  0.11028640094E+03  0.19108079138E+03  0.12500104564E+03 0.  0.
          2    1    1    2  501    0 -0.65822538346E+02  0.11083897931E+02 -0.14097353757E+04  0.14113147377E+04  0.00000000000E+00 0. -1.
          1    1    1    2  502    0 -0.25467029525E+02  0.86577328554E+01  0.15310395000E+04  0.15312757676E+04  0.00000000000E+00 0. -1.
         22    1    3    3    0    0  0.59533015173E+02 -0.72669593584E+02  0.60022024365E+02  0.11147956376E+03  0.00000000000E+00 0. -1.
         22    1    3    3    0    0  0.31756552698E+02  0.52927962797E+02  0.50264376577E+02  0.79601227615E+02  0.00000000000E+00 0. -1.
</event>
<event>
 7    1  0.6444902E-006  0.1111830E+03  0.7818608E-02  0.1308478E+00
          2   -1    0    0  502    0  0.00000000000E+00  0.00000000000E+00  0.28433171631E+04  0.28433171631E+04  0.00000000000E+00 0. -1.
          1   -1    0    0  501    0 -0.00000000000E+00 -0.00000000000E+00 -0.25441745714E+03  0.25441745714E+03  0.00000000000E+00 0. -1.
         25    2    1    2    0    0  0.82004655047E+02  0.10097334936E+03 -0.90935743622E+02  0.20203257960E+03  0.12500989168E+03 0.  0.
          2    1    1    2  501    0  0.23264499261E+02 -0.65174743085E+02 -0.95612069020E+02  0.11802818225E+03  0.00000000000E+00 0. -1.
          1    1    1    2  502    0 -0.10526915431E+03 -0.35798606280E+02  0.27754475186E+04  0.27776738584E+04  0.00000000000E+00 0. -1.
         22    1    3    3    0    0  0.76088247035E+02 -0.99973185199E+00 -0.54441539292E+02  0.93564427007E+02  0.00000000000E+00 0.  1.
         22    1    3    3    0    0  0.59164080126E+01  0.10197308122E+03 -0.36494204329E+02  0.10846815259E+03  0.00000000000E+00 0.  1.
</event>
<event>
 7    1  0.6444902E-006  0.4848627E+02  0.7818608E-02  0.1526580E+00
          2   -1    0    0  502    0  0.00000000000E+00  0.00000000000E+00  0.72123369878E+03  0.72123369878E+03  0.00000000000E+00 0. -1.
          1   -1    0    0  501    0 -0.00000000000E+00 -0.00000000000E+00 -0.16377121337E+04  0.16377121337E+04  0.00000000000E+00 0. -1.
         25    2    1    2    0    0  0.74353582487E+02 -0.19496058769E+02 -0.76673579049E+02  0.16554157783E+03  0.12496649443E+03 0.  0.
          2    1    1    2  501    0 -0.29034934939E+02  0.28274287788E+01 -0.15156027451E+04  0.15158834727E+04  0.00000000000E+00 0. -1.
          1    1    1    2  502    0 -0.45318647548E+02  0.16668629990E+02  0.67579788918E+03  0.67752078202E+03  0.00000000000E+00 0. -1.
         22    1    3    3    0    0  0.26150953390E+02 -0.57907573465E+02  0.44097338198E+01  0.63691484361E+02  0.00000000000E+00 0. -1.
         22    1    3    3    0    0  0.48202629097E+02  0.38411514696E+02 -0.81083312869E+02  0.10185009347E+03  0.00000000000E+00 0. -1.
</event>
<event>
 7    1  0.6444902E-006  0.9143282E+02  0.7818608E-02  0.1432261E+00
          2   -1    0    0  502    0  0.00000000000E+00  0.00000000000E+00  0.83083980489E+03  0.83083980489E+03  0.00000000000E+00 0. -1.
          1   -1    0    0  501    0 -0.00000000000E+00 -0.00000000000E+00 -0.35732698814E+03  0.35732698814E+03  0.00000000000E+00 0. -1.
         25    2    1    2    0    0 -0.34282712616E+01  0.11443640042E+03  0.41964535534E+03  0.45258614752E+03  0.12499821555E+03 0.  0.
          2    1    1    2  501    0 -0.47789577794E+01 -0.29774152225E+02 -0.33559032515E+03  0.33694243561E+03  0.00000000000E+00 0. -1.
          1    1    1    2  502    0  0.82072290410E+01 -0.84662248193E+02  0.38945778657E+03  0.39863820991E+03  0.00000000000E+00 0. -1.
         22    1    3    3    0    0  0.93181757940E+01 -0.20893411640E+02  0.13766976805E+03  0.13955761564E+03  0.00000000000E+00 0. -1.
         22    1    3    3    0    0 -0.12746447056E+02  0.13532981206E+03  0.28197558729E+03  0.31302853188E+03  0.00000000000E+00 0. -1.
</event>
<event>
 7    1  0.6444902E-006  0.1282895E+03  0.7818608E-02  0.1245551E+00
          2   -1    0    0  502    0  0.00000000000E+00  0.00000000000E+00  0.21139673145E+04  0.21139673145E+04  0.00000000000E+00 0. -1.
          1   -1    0    0  501    0 -0.00000000000E+00 -0.00000000000E+00 -0.56536876453E+03  0.56536876453E+03  0.00000000000E+00 0. -1.
         25    2    1    2    0    0  0.76704517115E+02  0.96931872330E+02  0.17203583669E+03  0.24594037991E+03  0.12494386958E+03 0.  0.
          2    1    1    2  501    0 -0.10495569603E+03  0.31230295504E+02 -0.52045182274E+03  0.53184690399E+03  0.00000000000E+00 0. -1.
          1    1    1    2  502    0  0.28251178918E+02 -0.12816216783E+03  0.18970145361E+04  0.19015487952E+04  0.00000000000E+00 0. -1.
         22    1    3    3    0    0  0.40247524073E+02  0.11895179511E+03  0.15638844610E+03  0.20056604605E+03  0.00000000000E+00 0.  1.
         22    1    3    3    0    0  0.36456993042E+02 -0.22019922784E+02  0.15647390594E+02  0.45374333862E+02  0.00000000000E+00 0.  1.
</event>
<event>
 7    1  0.6444902E-006  0.2005430E+03  0.7818608E-02  0.1273614E+00
          2   -1    0    0  502    0  0.00000000000E+00  0.00000000000E+00  0.11466920032E+04  0.11466920032E+04  0.00000000000E+00 0. -1.
          1   -1    0    0  501    0 -0.00000000000E+00 -0.00000000000E+00 -0.84263183555E+03  0.84263183555E+03  0.00000000000E+00 0. -1.
         25    2    1    2    0    0  0.16257371830E+03  0.37866955512E+02  0.74181812895E+03  0.77057178975E+03  0.12499050573E+03 0.  0.
          2    1    1    2  501    0 -0.20114865403E+03 -0.12966509398E+01 -0.81414684812E+03  0.83862837576E+03  0.00000000000E+00 0. -1.
          1    1    1    2  502    0  0.38574935727E+02 -0.36570304572E+02  0.37638888679E+03  0.38012367322E+03  0.00000000000E+00 0. -1.
         22    1    3    3    0    0  0.29890957225E+02  0.55266515893E+02  0.37239491029E+03  0.37765834601E+03  0.00000000000E+00 0. -1.
         22    1    3    3    0    0  0.13268276107E+03 -0.17399560380E+02  0.36942321866E+03  0.39291344374E+03  0.00000000000E+00 0. -1.
</event>
<event>
 7    1  0.6444902E-006  0.8534896E+02  0.7818608E-02  0.1453856E+00
          2   -1    0    0  502    0  0.00000000000E+00  0.00000000000E+00  0.19149125757E+04  0.19149125757E+04  0.00000000000E+00 0. -1.
          1   -1    0    0  501    0 -0.00000000000E+00 -0.00000000000E+00 -0.60691844704E+03  0.60691844704E+03  0.00000000000E+00 0. -1.
         25    2    1    2    0    0  0.58568163720E+02  0.70322104970E+02  0.24084225958E+03  0.28637588381E+03  0.12502289621E+03 0.  0.
          2    1    1    2  501    0 -0.32436498311E+02 -0.78919345586E+02 -0.58092043721E+03  0.58715325418E+03  0.00000000000E+00 0. -1.
          1    1    1    2  502    0 -0.26131665409E+02  0.85972406163E+01  0.16480723063E+04  0.16483018847E+04  0.00000000000E+00 0. -1.
         22    1    3    3    0    0  0.59582101451E+02  0.37997673244E+02  0.36588029348E+02  0.79577219584E+02  0.00000000000E+00 0. -1.
         22    1    3    3    0    0 -0.10139377306E+01  0.32324431726E+02  0.20425423024E+03  0.20679866423E+03  0.00000000000E+00 0. -1.
</event>
<event>
 7    1  0.6444902E-006  0.1458834E+03  0.7818608E-02  0.1297739E+00
          2   -1    0    0  502    0  0.00000000000E+00  0.00000000000E+00  0.63659403202E+03  0.63659403202E+03  0.00000000000E+00 0. -1.
          1   -1    0    0  501    0 -0.00000000000E+00 -0.00000000000E+00 -0.16889719657E+04  0.16889719657E+04  0.00000000000E+00 0. -1.
         25    2    1    2    0    0  0.70184323371E+02 -0.61416947163E+02 -0.13450220844E+02  0.15653503260E+03  0.12499770936E+03 0.  0.
          2    1    1    2  501    0 -0.12563005014E+03  0.79115657672E+02 -0.15990326357E+04  0.16059101988E+04  0.00000000000E+00 0. -1.
          1    1    1    2  502    0  0.55445726766E+02 -0.17698710510E+02  0.56010492277E+03  0.56312076634E+03  0.00000000000E+00 0. -1.
         22    1    3    3    0    0  0.55499288206E+02  0.29928638191E+02 -0.74898182030E-01  0.63054738007E+02  0.00000000000E+00 0. -1.
         22    1    3    3    0    0  0.14685035165E+02 -0.91345585354E+02 -0.13375322662E+02  0.93480294596E+02  0.00000000000E+00 0. -1.
</event>
<event>
 7    1  0.6444902E-006  0.6477943E+02  0.7818608E-02  0.1517617E+00
          2   -1    0    0  502    0  0.00000000000E+00  0.00000000000E+00  0.59676820338E+03  0.59676820338E+03  0.00000000000E+00 0. -1.
          1   -1    0    0  501    0 -0.00000000000E+00 -0.00000000000E+00 -0.84818684418E+02  0.84818684418E+02  0.00000000000E+00 0. -1.
         25    2    1    2    0    0  0.47793585682E+02 -0.49183847312E+00  0.29569796316E+03  0.32457172918E+03  0.12500021290E+03 0.  0.
          2    1    1    2  501    0 -0.63259226638E+02  0.17757634580E+02 -0.54443365295E+02  0.85329615992E+02  0.00000000000E+00 0. -1.
          1    1    1    2  502    0  0.15465640955E+02 -0.17265796107E+02  0.27069492110E+03  0.27168554263E+03  0.00000000000E+00 0. -1.
         22    1    3    3    0    0 -0.11440661500E+02 -0.13247927837E+02  0.24483897683E+03  0.24546388920E+03  0.00000000000E+00 0. -1.
         22    1    3    3    0    0  0.59234247182E+02  0.12756089364E+02  0.50858986335E+02  0.79107839979E+02  0.00000000000E+00 0. -1.
</event>
<event>
 7    1  0.6444902E-006  0.3119319E+02  0.7818608E-02  0.1602887E+00
          2   -1    0    0  502    0  0.00000000000E+00  0.00000000000E+00  0.15609213627E+04  0.15609213627E+04  0.00000000000E+00 0. -1.
          1   -1    0    0  501    0 -0.00000000000E+00 -0.00000000000E+00 -0.23437445264E+03  0.23437445264E+03  0.00000000000E+00 0. -1.
         25    2    1    2    0    0  0.11479985057E+01 -0.68471865011E+01  0.10155038988E+04  0.10231914831E+04  0.12499776280E+03 0.  0.
          2    1    1    2  501    0  0.22949075209E+02  0.21169098537E+02 -0.22910843174E+03  0.23122600260E+03  0.00000000000E+00 0. -1.
          1    1    1    2  502    0 -0.24097073715E+02 -0.14321912036E+02  0.54015144295E+03  0.54087832962E+03  0.00000000000E+00 0. -1.
         22    1    3    3    0    0  0.35304678235E+01 -0.41726681278E+01  0.10185043520E+04  0.10185190182E+04  0.00000000000E+00 0.  1.
         22    1    3    3    0    0 -0.23824693178E+01 -0.26745183733E+01 -0.30004532134E+01  0.46724648811E+01  0.00000000000E+00 0.  1.
</event>
<event>
 7    1  0.6444902E-006  0.1396948E+03  0.7818608E-02  0.1365093E+00
          2   -1    0    0  502    0  0.00000000000E+00  0.00000000000E+00  0.14971589883E+04  0.14971589883E+04  0.00000000000E+00 0. -1.
          1   -1    0    0  501    0 -0.00000000000E+00 -0.00000000000E+00 -0.26467952760E+03  0.26467952760E+03  0.00000000000E+00 0. -1.
         25    2    1    2    0    0 -0.11033611604E+03  0.14525227290E+02  0.82873466681E+02  0.18675805334E+03  0.12500207309E+03 0.  0.
          2    1    1    2  501    0  0.14385288167E+03 -0.17387234436E+02 -0.18782760439E+03  0.23722389521E+03  0.00000000000E+00 0. -1.
          1    1    1    2  502    0 -0.33516765639E+02  0.28620071459E+01  0.13374335984E+04  0.13378565674E+04  0.00000000000E+00 0. -1.
         22    1    3    3    0    0  0.17699497464E+02  0.58869037207E+01  0.51326237772E+02  0.54610534970E+02  0.00000000000E+00 0.  1.
         22    1    3    3    0    0 -0.12803561350E+03  0.86383235693E+01  0.31547228909E+02  0.13214751837E+03  0.00000000000E+00 0.  1.
</event>
<event>
 7    1  0.6444902E-006  0.6891030E+02  0.7818608E-02  0.1529127E+00
          2   -1    0    0  502    0  0.00000000000E+00  0.00000000000E+00  0.15607531229E+03  0.15607531229E+03  0.00000000000E+00 0. -1.
          1   -1    0    0  501    0 -0.00000000000E+00 -0.00000000000E+00 -0.18928219215E+04  0.18928219215E+04  0.00000000000E+00 0. -1.
         25    2    1    2    0    0 -0.72598258877E+02 -0.21467595795E+02 -0.16763322285E+04  0.16826900109E+04  0.12499826951E+03 0.  0.
          2    1    1    2  501    0  0.37266986950E+01  0.19835972017E+02 -0.20502998795E+03  0.20602099414E+03  0.00000000000E+00 0. -1.
          1    1    1    2  502    0  0.68871560182E+02  0.16316237786E+01  0.14461560732E+03  0.16018622874E+03  0.00000000000E+00 0. -1.
         22    1    3    3    0    0  0.20792037315E+02 -0.44227397080E+02 -0.66860717457E+03  0.67039087506E+03  0.00000000000E+00 0. -1.
         22    1    3    3    0    0 -0.93390296192E+02  0.22759801285E+02 -0.10077250540E+04  0.10122991358E+04  0.00000000000E+00 0. -1.
</event>
<event>
 7    1  0.6444902E-006  0.6902469E+02  0.7818608E-02  0.1424609E+00
          2   -1    0    0  502    0  0.00000000000E+00  0.00000000000E+00  0.71188593898E+03  0.71188593898E+03  0.00000000000E+00 0. -1.
          1   -1    0    0  501    0 -0.00000000000E+00 -0.00000000000E+00 -0.74296093700E+02  0.74296093700E+02  0.00000000000E+00 0. -1.
         25    2    1    2    0    0  0.16618094331E+01  0.71222782216E+02  0.15436050350E+03  0.21101609457E+03  0.12500072324E+03 0.  0.
          2    1    1    2  501    0  0.38784615286E+02 -0.58716576490E+02 -0.17610692155E+02  0.72539776784E+02  0.00000000000E+00 0. -1.
          1    1    1    2  502    0 -0.40446424719E+02 -0.12506205726E+02  0.50084003394E+03  0.50262616133E+03  0.00000000000E+00 0. -1.
         22    1    3    3    0    0  0.46615651563E+02  0.55339841899E+02  0.14553370399E+03  0.16252869307E+03  0.00000000000E+00 0.  1.
         22    1    3    3    0    0 -0.44953842129E+02  0.15882940317E+02  0.88267995062E+01  0.48487401506E+02  0.00000000000E+00 0.  1.
</event>
<event>
 7    1  0.6444902E-006  0.4904362E+02  0.7818608E-02  0.1520163E+00
          2   -1    0    0  502    0  0.00000000000E+00  0.00000000000E+00  0.17023913088E+03  0.17023913088E+03  0.00000000000E+00 0. -1.
          1   -1    0    0  501    0 -0.00000000000E+00 -0.00000000000E+00 -0.15953940177E+04  0.15953940177E+04  0.00000000000E+00 0. -1.
         25    2    1    2    0    0 -0.33398594643E+02 -0.38569164582E+01 -0.73162163098E+03  0.74298493436E+03  0.12500423928E+03 0.  0.
          2    1    1    2  501    0  0.46346006057E+02 -0.23315298189E+02 -0.85592233329E+03  0.85749320465E+03  0.00000000000E+00 0. -1.
          1    1    1    2  502    0 -0.12947411415E+02  0.27172214648E+02  0.16238907745E+03  0.16515500957E+03  0.00000000000E+00 0. -1.
         22    1    3    3    0    0  0.37100818906E+02 -0.18491345429E+02 -0.11633975950E+03  0.12350441393E+03  0.00000000000E+00 0.  1.
         22    1    3    3    0    0 -0.70499413549E+02  0.14634428971E+02 -0.61528187149E+03  0.61948052044E+03  0.00000000000E+00 0.  1.
</event>
<event>
 7    1  0.6444902E-006  0.9900546E+02  0.7818608E-02  0.1350258E+00
          2   -1    0    0  502    0  0.00000000000E+00  0.00000000000E+00  0.46087852155E+03  0.46087852155E+03  0.00000000000E+00 0. -1.
          1   -1    0    0  501    0 -0.00000000000E+00 -0.00000000000E+00 -0.44430429159E+03  0.44430429159E+03  0.00000000000E+00 0. -1.
         25    2    1    2    0    0 -0.10601196776E+03 -0.75488693010E+02  0.63280025177E+02  0.19122059467E+03  0.12499549656E+03 0.  0.
          2    1    1    2  501    0  0.53513168274E+02 -0.54405385858E+01 -0.37138267682E+03  0.37525771316E+03  0.00000000000E+00 0. -1.
          1    1    1    2  502    0  0.52498799483E+02  0.80929231596E+02  0.32467688160E+03  0.33870450531E+03  0.00000000000E+00 0. -1.
         22    1    3    3    0    0  0.27314418913E+02 -0.13752124945E+02  0.24709085105E+02  0.39315865853E+02  0.00000000000E+00 0. -1.
         22    1    3    3    0    0 -0.13332638667E+03 -0.61736568065E+02  0.38570940072E+02  0.15190472882E+03  0.00000000000E+00 0. -1.
</event>
<event>
 7    1  0.6444902E-006  0.1006786E+03  0.7818608E-02  0.1405888E+00
          2   -1    0    0  502    0  0.00000000000E+00  0.00000000000E+00  0.43805982290E+03  0.43805982290E+03  0.00000000000E+00 0. -1.
          1   -1    0    0  501    0 -0.00000000000E+00 -0.00000000000E+00 -0.96434678398E+03  0.96434678398E+03  0.00000000000E+00 0. -1.
         25    2    1    2    0    0 -0.90928522000E+02 -0.29899579187E+02 -0.30455325057E+03  0.34283988071E+03  0.12499808170E+03 0.  0.
          2    1    1    2  501    0  0.81733010733E+02  0.62168342283E+02 -0.63585227916E+03  0.64409107177E+03  0.00000000000E+00 0. -1.
          1    1    1    2  502    0  0.91955112664E+01 -0.32268763096E+02  0.41411856864E+03  0.41547565439E+03  0.00000000000E+00 0. -1.
         22    1    3    3    0    0 -0.89370257826E+02 -0.34444842392E+02 -0.31612203791E+03  0.33031293194E+03  0.00000000000E+00 0. -1.
         22    1    3    3    0    0 -0.15582641742E+01  0.45452632055E+01  0.11568787349E+02  0.12526948774E+02  0.00000000000E+00 0. -1.
</event>
<event>
 7    1  0.6444902E-006  0.3299853E+02  0.7818608E-02  0.1649466E+00
          2   -1    0    0  502    0  0.00000000000E+00  0.00000000000E+00  0.29802948260E+03  0.29802948260E+03  0.00000000000E+00 0. -1.
          1   -1    0    0  501    0 -0.00000000000E+00 -0.00000000000E+00 -0.17848447911E+04  0.17848447911E+04  0.00000000000E+00 0. -1.
         25    2    1    2    0    0  0.94482568633E+01 -0.10629319361E+02 -0.12079775329E+04  0.12145110676E+04  0.12500064559E+03 0.  0.
          2    1    1    2  501    0  0.28632386817E+01 -0.20002664411E+02 -0.57249730691E+03  0.57285379561E+03  0.00000000000E+00 0. -1.
          1    1    1    2  502    0 -0.12311495545E+02  0.30631983772E+02  0.29365953131E+03  0.29550941048E+03  0.00000000000E+00 0. -1.
         22    1    3    3    0    0 -0.45694229046E+02 -0.39500008611E+02 -0.46005740637E+03  0.46400542067E+03  0.00000000000E+00 0.  1.
         22    1    3    3    0    0  0.55142485909E+02  0.28870689250E+02 -0.74792012655E+03  0.75050564698E+03  0.00000000000E+00 0.  1.
</event>
<event>
 7    1  0.6444902E-006  0.7995935E+02  0.7818608E-02  0.1357749E+00
          2   -1    0    0  502    0  0.00000000000E+00  0.00000000000E+00  0.85304656531E+03  0.85304656531E+03  0.00000000000E+00 0. -1.
          1   -1    0    0  501    0 -0.00000000000E+00 -0.00000000000E+00 -0.84847570705E+02  0.84847570705E+02  0.00000000000E+00 0. -1.
         25    2    1    2    0    0 -0.26935148925E+02 -0.42915660143E+02  0.39379829670E+03  0.41626428454E+03  0.12502639706E+03 0.  0.
          2    1    1    2  501    0  0.30088008258E+02 -0.54783331083E+02 -0.53766708610E+02  0.82446107005E+02  0.00000000000E+00 0. -1.
          1    1    1    2  502    0 -0.31528593331E+01  0.97698991227E+02  0.42816740651E+03  0.43918374447E+03  0.00000000000E+00 0. -1.
         22    1    3    3    0    0  0.44150345971E+02 -0.25521295899E+02  0.86873259102E+02  0.10073506212E+03  0.00000000000E+00 0. -1.
         22    1    3    3    0    0 -0.71085494896E+02 -0.17394364245E+02  0.30692503760E+03  0.31552922241E+03  0.00000000000E+00 0. -1.
</event>
<event>
 7    1  0.6444902E-006  0.1085798E+03  0.7818608E-02  0.1464175E+00
          2   -1    0    0  502    0  0.00000000000E+00  0.00000000000E+00  0.45437101109E+03  0.45437101109E+03  0.00000000000E+00 0. -1.
          1   -1    0    0  501    0 -0.00000000000E+00 -0.00000000000E+00 -0.12183107912E+04  0.12183107912E+04  0.00000000000E+00 0. -1.
         25    2    1    2    0    0  0.87138003726E+02  0.38116935992E+02  0.72822676962E+02  0.17312957104E+03  0.12499909434E+03 0.  0.
          2    1    1    2  501    0  0.19227064541E+02 -0.57211516998E+01 -0.11587415883E+04  0.11589152169E+04  0.00000000000E+00 0. -1.
          1    1    1    2  502    0 -0.10636506827E+03 -0.32395784292E+02  0.32197913122E+03  0.34063701433E+03  0.00000000000E+00 0. -1.
         22    1    3    3    0    0  0.57459096752E+02 -0.40912570275E+02  0.19137023876E+02  0.73086331752E+02  0.00000000000E+00 0. -1.
         22    1    3    3    0    0  0.29678906973E+02  0.79029506267E+02  0.53685653086E+02  0.10004323929E+03  0.00000000000E+00 0. -1.
</event>
<event>
 7    1  0.6444902E-006  0.5063159E+02  0.7818608E-02  0.1477309E+00
          2   -1    0    0  502    0  0.00000000000E+00  0.00000000000E+00  0.17390770112E+04  0.17390770112E+04  0.00000000000E+00 0. -1.
          1   -1    0    0  501    0 -0.00000000000E+00 -0.00000000000E+00 -0.11678601845E+04  0.11678601845E+04  0.00000000000E+00 0. -1.
         25    2    1    2    0    0  0.11122183001E+02 -0.74813125758E+01  0.36332337188E+03  0.38445784497E+03  0.12499715600E+03 0.  0.
          2    1    1    2  501    0  0.28152639610E+02 -0.27220894290E+02 -0.11564584026E+04  0.11571212491E+04  0.00000000000E+00 0. -1.
          1    1    1    2  502    0 -0.39274822610E+02  0.34702206865E+02  0.13643518574E+04  0.13653581016E+04  0.00000000000E+00 0. -1.
         22    1    3    3    0    0  0.11621656888E+02  0.54645274574E+02  0.10693571086E+03  0.12064996974E+03  0.00000000000E+00 0.  1.
         22    1    3    3    0    0 -0.49947388709E+00 -0.62126587150E+02  0.25638766103E+03  0.26380787523E+03  0.00000000000E+00 0.  1.
</event>
<event>
 7    1  0.6444902E-006  0.8533156E+02  0.7818608E-02  0.1409707E+00
          2   -1    0    0  502    0  0.00000000000E+00  0.00000000000E+00  0.13861518423E+03  0.13861518423E+03  0.00000000000E+00 0. -1.
          1   -1    0    0  501    0 -0.00000000000E+00 -0.00000000000E+00 -0.12335699812E+04  0.12335699812E+04  0.00000000000E+00 0. -1.
         25    2    1    2    0    0 -0.14992532734E+02 -0.57216572267E+02 -0.22115700232E+02  0.14004468083E+03  0.12499958501E+03 0.  0.
          2    1    1    2  501    0 -0.26089331985E+02 -0.28206418416E+02 -0.11238441210E+04  0.11245007175E+04  0.00000000000E+00 0. -1.
          1    1    1    2  502    0  0.41081864719E+02  0.85422990682E+02  0.51005024331E+02  0.10763976706E+03  0.00000000000E+00 0. -1.
         22    1    3    3    0    0  0.33032020815E+02 -0.76656513344E+02  0.60247262256E+00  0.83472740524E+02  0.00000000000E+00 0. -1.
         22    1    3    3    0    0 -0.48024553549E+02  0.19439941078E+02 -0.22718172855E+02  0.56571940311E+02  0.00000000000E+00 0. -1.
</event>
<event>
 7    1  0.6444902E-006  0.4323237E+02  0.7818608E-02  0.1552949E+00
          2   -1    0    0  502    0  0.00000000000E+00  0.00000000000E+00  0.16089609232E+03  0.16089609232E+03  0.00000000000E+00 0. -1.
          1   -1    0    0  501    0 -0.00000000000E+00 -0.00000000000E+00 -0.90443326087E+02  0.90443326087E+02  0.00000000000E+00 0. -1.
         25    2    1    2    0    0  0.17583776474E+02 -0.76064676897E+01  0.29759559579E+02  0.12991234622E+03  0.12499815506E+03 0.  0.
          2    1    1    2  501    0  0.25255789309E+02 -0.11020656059E+02 -0.27394069604E+02  0.38855434666E+02  0.00000000000E+00 0. -1.
          1    1    1    2  502    0 -0.42839565784E+02  0.18627123748E+02  0.68087276262E+02  0.82571637530E+02  0.00000000000E+00 0. -1.
         22    1    3    3    0    0  0.26963022419E+02 -0.45192963165E+00  0.76809651791E+02  0.81405966775E+02  0.00000000000E+00 0.  1.
         22    1    3    3    0    0 -0.93792459449E+01 -0.71545380581E+01 -0.47050092212E+02  0.48506379441E+02  0.00000000000E+00 0.  1.
</event>
<event>
 7    1  0.6444902E-006  0.8242601E+02  0.7818608E-02  0.1401583E+00
          2   -1    0    0  502    0  0.00000000000E+00  0.00000000000E+00  0.30027488139E+03  0.30027488139E+03  0.00000000000E+00 0. -1.
          1   -1    0    0  501    0 -0.00000000000E+00 -0.00000000000E+00 -0.65420751470E+03  0.65420751470E+03  0.00000000000E+00 0. -1.
         25    2    1    2    0    0  0.61490313987E+02 -0.15415532881E+02  0.32652121584E+02  0.14392508198E+03  0.12501828191E+03 0.  0.
          2    1    1    2  501    0 -0.80190865330E+02 -0.22634361582E+02 -0.59351146426E+03  0.59933191757E+03  0.00000000000E+00 0. -1.
          1    1    1    2  502    0  0.18700551344E+02  0.38049894463E+02  0.20692670938E+03  0.21122539654E+03  0.00000000000E+00 0. -1.
         22    1    3    3    0    0  0.75877808744E+02 -0.50978185418E+02 -0.31286880548E+01  0.91465873074E+02  0.00000000000E+00 0. -1.
         22    1    3    3    0    0 -0.14387494758E+02  0.35562652537E+02  0.35780809638E+02  0.52459208908E+02  0.00000000000E+00 0. -1.
</event>
<event>
 7    1  0.6444902E-006  0.1129185E+03  0.7818608E-02  0.1342396E+00
          2   -1    0    0  502    0  0.00000000000E+00  0.00000000000E+00  0.40965467130E+03  0.40965467130E+03  0.00000000000E+00 0. -1.
          1   -1    0    0  501    0 -0.00000000000E+00 -0.00000000000E+00 -0.15278883392E+04  0.15278883392E+04  0.00000000000E+00 0. -1.
         25    2    1    2    0    0 -0.14431550394E+03  0.51923086492E+02 -0.70698265925E+03  0.73414730929E+03  0.12499927869E+03 0.  0.
          2    1    1    2  501    0  0.95747925241E+02 -0.38261737715E+02 -0.80240431753E+03  0.80900204855E+03  0.00000000000E+00 0. -1.
          1    1    1    2  502    0  0.48567578695E+02 -0.13661348777E+02  0.39115330891E+03  0.39439365262E+03  0.00000000000E+00 0. -1.
         22    1    3    3    0    0 -0.25362586275E+02 -0.37254185375E+02 -0.23575090129E+03  0.24002004618E+03  0.00000000000E+00 0.  1.
         22    1    3    3    0    0 -0.11895291766E+03  0.89177271867E+02 -0.47123175796E+03  0.49412726311E+03  0.00000000000E+00 0.  1.
</event>
<event>
 7    1  0.6444902E-006  0.1459543E+03  0.7818608E-02  0.1232635E+00
          2   -1    0    0  502    0  0.00000000000E+00  0.00000000000E+00  0.31973324814E+04  0.31973324814E+04  0.00000000000E+00 0. -1.
          1   -1    0    0  501    0 -0.00000000000E+00 -0.00000000000E+00 -0.27859943297E+03  0.27859943297E+03  0.00000000000E+00 0. -1.
         25    2    1    2    0    0  0.64219626618E+02 -0.16738525689E+03  0.34915966177E+03  0.41191989160E+03  0.12499417196E+03 0.  0.
          2    1    1    2  501    0 -0.12481528197E+03  0.75866071889E+02 -0.22447283245E+03  0.26781069431E+03  0.00000000000E+00 0. -1.
          1    1    1    2  502    0  0.60595655356E+02  0.91519185005E+02  0.27940462192E+04  0.27962013285E+04  0.00000000000E+00 0. -1.
         22    1    3    3    0    0  0.94132107815E+02 -0.13662850300E+03  0.21822786203E+03  0.27413792390E+03  0.00000000000E+00 0. -1.
         22    1    3    3    0    0 -0.29912481197E+02 -0.30756753888E+02  0.13093179974E+03  0.13778196770E+03  0.00000000000E+00 0. -1.
</event>
<event>
 7    1  0.6444902E-006  0.1916996E+03  0.7818608E-02  0.1251041E+00
          2   -1    0    0  502    0  0.00000000000E+00  0.00000000000E+00  0.69226101819E+03  0.69226101819E+03  0.00000000000E+00 0. -1.
          1   -1    0    0  501    0 -0.00000000000E+00 -0.00000000000E+00 -0.62198634601E+03  0.62198634601E+03  0.00000000000E+00 0. -1.
         25    2    1    2    0    0 -0.15924187887E+03 -0.19486083915E+03 -0.69978099478E+01  0.28107343604E+03  0.12499833791E+03 0.  0.
          2    1    1    2  501    0  0.12621593143E+03  0.13386760362E+03 -0.45792320673E+03  0.49350244164E+03  0.00000000000E+00 0. -1.
          1    1    1    2  502    0  0.33025947439E+02  0.60993235531E+02  0.53519568886E+03  0.53967148652E+03  0.00000000000E+00 0. -1.
         22    1    3    3    0    0 -0.75157140771E+02 -0.11458664999E+03  0.56946654490E+02  0.14839682484E+03  0.00000000000E+00 0. -1.
         22    1    3    3    0    0 -0.84084738101E+02 -0.80274189160E+02 -0.63944464438E+02  0.13267661120E+03  0.00000000000E+00 0. -1.
</event>
<event>
 7    1  0.6444902E-006  0.5046448E+02  0.7818608E-02  0.1509211E+00
          2   -1    0    0  502    0  0.00000000000E+00  0.00000000000E+00  0.53796267360E+03  0.53796267360E+03  0.00000000000E+00 0. -1.
          1   -1    0    0  501    0 -0.00000000000E+00 -0.00000000000E+00 -0.52220180918E+03  0.52220180918E+03  0.00000000000E+00 0. -1.
         25    2    1    2    0    0 -0.94368323238E+01  0.21543882099E+02 -0.28665492205E+02  0.13038444358E+03  0.12500080009E+03 0.  0.
          2    1    1    2  501    0  0.11346611630E+02  0.29375876590E+02 -0.44078095069E+03  0.44190444014E+03  0.00000000000E+00 0. -1.
          1    1    1    2  502    0 -0.19097793058E+01 -0.50919758688E+02  0.48520730732E+03  0.48787559906E+03  0.00000000000E+00 0. -1.
         22    1    3    3    0    0 -0.12242818886E+01 -0.28831023900E+02 -0.62710816154E+02  0.69031683073E+02  0.00000000000E+00 0. -1.
         22    1    3    3    0    0 -0.82125504352E+01  0.50374905999E+02  0.34045323948E+02  0.61352760507E+02  0.00000000000E+00 0. -1.
</event>
<event>
 7    1  0.6444902E-006  0.4890558E+02  0.7818608E-02  0.1485812E+00
          2   -1    0    0  502    0  0.00000000000E+00  0.00000000000E+00  0.27784566732E+04  0.27784566732E+04  0.00000000000E+00 0. -1.
          1   -1    0    0  501    0 -0.00000000000E+00 -0.00000000000E+00 -0.10476748006E+02  0.10476748006E+02  0.00000000000E+00 0. -1.
         25    2    1    2    0    0 -0.50113736354E+02 -0.63292779069E+01  0.14513674081E+04  0.14576158797E+04  0.12500101262E+03 0.  0.
          2    1    1    2  501    0  0.18585399625E+02 -0.33355841121E+02  0.46388140100E+02  0.60082349804E+02  0.00000000000E+00 0. -1.
          1    1    1    2  502    0  0.31528336729E+02  0.39685119028E+02  0.12702243770E+04  0.12712351917E+04  0.00000000000E+00 0. -1.
         22    1    3    3    0    0  0.39836927817E+02 -0.18717776938E+02  0.46739894660E+03  0.46946683724E+03  0.00000000000E+00 0. -1.
         22    1    3    3    0    0 -0.89950664172E+02  0.12388499032E+02  0.98396846154E+03  0.98814904250E+03  0.00000000000E+00 0. -1.
</event>
<event>
 7    1  0.6444902E-006  0.6332632E+02  0.7818608E-02  0.1398251E+00
          2   -1    0    0  502    0  0.00000000000E+00  0.00000000000E+00  0.11691453655E+04  0.11691453655E+04  0.00000000000E+00 0. -1.
          1   -1    0    0  501    0 -0.00000000000E+00 -0.00000000000E+00 -0.16104865383E+03  0.16104865383E+03  0.00000000000E+00 0. -1.
         25    2    1    2    0    0  0.28936603192E+02  0.93872643504E+02  0.92030524206E+01  0.15925978960E+03  0.12501833548E+03 0.  0.
          2    1    1    2  501    0  0.19336059567E+02 -0.53258092613E+02 -0.75663645874E+02  0.94526689010E+02  0.00000000000E+00 0. -1.
          1    1    1    2  502    0 -0.48272662759E+02 -0.40614550891E+02  0.10745573051E+04  0.10764075407E+04  0.00000000000E+00 0. -1.
         22    1    3    3    0    0 -0.21611890756E+02  0.10121273262E+03  0.23680652161E+02  0.10616903670E+03  0.00000000000E+00 0.  1.
         22    1    3    3    0    0  0.50548493948E+02 -0.73400891206E+01 -0.14477599741E+02  0.53090752895E+02  0.00000000000E+00 0.  1.
</event>
<event>
 7    1  0.6444902E-006  0.2779012E+02  0.7818608E-02  0.1646222E+00
          2   -1    0    0  502    0  0.00000000000E+00  0.00000000000E+00  0.62484678423E+03  0.62484678423E+03  0.00000000000E+00 0. -1.
          1   -1    0    0  501    0 -0.00000000000E+00 -0.00000000000E+00 -0.88879143075E+03  0.88879143075E+03  0.00000000000E+00 0. -1.
         25    2    1    2    0    0  0.38569194832E+01  0.26286442363E+00  0.48086862742E+03  0.49686462255E+03  0.12499948553E+03 0.  0.
          2    1    1    2  501    0 -0.23722787575E+02 -0.14495821146E+02 -0.87947399747E+03  0.87991329783E+03  0.00000000000E+00 0. -1.
          1    1    1    2  502    0  0.19865868092E+02  0.14232956722E+02  0.13466072353E+03  0.13686029459E+03  0.00000000000E+00 0. -1.
         22    1    3    3    0    0 -0.42270446180E+02 -0.27428852529E+02  0.97620111535E+02  0.10985817561E+03  0.00000000000E+00 0. -1.
         22    1    3    3    0    0  0.46127365663E+02  0.27691716952E+02  0.38324851588E+03  0.38700644695E+03  0.00000000000E+00 0. -1.
</event>
<event>
 7    1  0.6444902E-006  0.4397306E+03  0.7818608E-02  0.1104486E+00
          2   -1    0    0  502    0  0.00000000000E+00  0.00000000000E+00  0.11139302472E+04  0.11139302472E+04  0.00000000000E+00 0. -1.
          1   -1    0    0  501    0 -0.00000000000E+00 -0.00000000000E+00 -0.54284830303E+03  0.54284830303E+03  0.00000000000E+00 0. -1.
         25    2    1    2    0    0  0.45180824913E+03  0.16735957756E+02  0.26296832713E+03  0.53776194738E+03  0.12499913888E+03 0.  0.
          2    1    1    2  501    0 -0.31227195256E+02 -0.15596891584E+03 -0.31592397327E+03  0.35370806793E+03  0.00000000000E+00 0. -1.
          1    1    1    2  502    0 -0.42058105387E+03  0.13923295809E+03  0.62403759030E+03  0.76530853490E+03  0.00000000000E+00 0. -1.
         22    1    3    3    0    0  0.51153767609E+02  0.30016560058E+02  0.18392625461E+01  0.59338728542E+02  0.00000000000E+00 0.  1.
         22    1    3    3    0    0  0.40065448152E+03 -0.13280602301E+02  0.26112906458E+03  0.47842321884E+03  0.00000000000E+00 0.  1.
</event>
<event>
 7    1  0.6444902E-006  0.8234220E+02  0.7818608E-02  0.1369241E+00
          2   -1    0    0  502    0  0.00000000000E+00  0.00000000000E+00  0.36187562597E+04  0.36187562597E+04  0.00000000000E+00 0. -1.
          1   -1    0    0  501    0 -0.00000000000E+00 -0.00000000000E+00 -0.20203845375E+02  0.20203845375E+02  0.00000000000E+00 0. -1.
         25    2    1    2    0    0  0.56369948208E+02 -0.47777478713E+02  0.84324773391E+03  0.85565855935E+03  0.12499828363E+03 0.  0.
          2    1    1    2  501    0 -0.41830988832E+02 -0.35916070267E+02  0.43662922972E+02  0.70329556892E+02  0.00000000000E+00 0. -1.
          1    1    1    2  502    0 -0.14538959375E+02  0.83693548980E+02  0.27116417574E+04  0.27129719888E+04  0.00000000000E+00 0. -1.
         22    1    3    3    0    0  0.26727346675E+02 -0.24050144247E+02  0.78684682312E+03  0.78766787643E+03  0.00000000000E+00 0.  1.
         22    1    3    3    0    0  0.29642601533E+02 -0.23727334466E+02  0.56400910785E+02  0.67990682920E+02  0.00000000000E+00 0.  1.
</event>
<event>
 7    1  0.6444902E-006  0.9922478E+02  0.7818608E-02  0.1292656E+00
          2   -1    0    0  502    0  0.00000000000E+00  0.00000000000E+00  0.89706010341E+03  0.89706010341E+03  0.00000000000E+00 0. -1.
          1   -1    0    0  501    0 -0.00000000000E+00 -0.00000000000E+00 -0.33887292428E+04  0.33887292428E+04  0.00000000000E+00 0. -1.
         25    2    1    2    0    0  0.67408007679E+02 -0.56271996158E+02 -0.38882590518E+03  0.41775778348E+03  0.12500241625E+03 0.  0.
          2    1    1    2  501    0 -0.78925561916E+02 -0.42639512300E+02 -0.29819519243E+04  0.29833009656E+04  0.00000000000E+00 0. -1.
          1    1    1    2  502    0  0.11517554237E+02  0.98911508458E+02  0.87910869009E+03  0.88473059716E+03  0.00000000000E+00 0. -1.
         22    1    3    3    0    0  0.89667976709E+02  0.11835731926E+01 -0.25818006039E+03  0.27331061171E+03  0.00000000000E+00 0. -1.
         22    1    3    3    0    0 -0.22259969031E+02 -0.57455569351E+02 -0.13064584479E+03  0.14444717177E+03  0.00000000000E+00 0. -1.
</event>
<event>
 7    1  0.6444902E-006  0.9015281E+02  0.7818608E-02  0.1451887E+00
          2   -1    0    0  502    0  0.00000000000E+00  0.00000000000E+00  0.90307960167E+03  0.90307960167E+03  0.00000000000E+00 0. -1.
          1   -1    0    0  501    0 -0.00000000000E+00 -0.00000000000E+00 -0.39611511994E+02  0.39611511994E+02  0.00000000000E+00 0. -1.
         25    2    1    2    0    0  0.32677130055E+02 -0.60363558952E+02  0.46637879202E+03  0.48769494760E+03  0.12500252072E+03 0.  0.
          2    1    1    2  501    0 -0.35712377549E+02  0.86611396282E+02  0.48663810131E+02  0.10557023393E+03  0.00000000000E+00 0. -1.
          1    1    1    2  502    0  0.30352474937E+01 -0.26247837330E+02  0.34842548752E+03  0.34942593213E+03  0.00000000000E+00 0. -1.
         22    1    3    3    0    0  0.47055274424E+02 -0.93972338666E+02  0.31976497543E+03  0.33659268975E+03  0.00000000000E+00 0.  1.
         22    1    3    3    0    0 -0.14378144369E+02  0.33608779714E+02  0.14661381659E+03  0.15110225785E+03  0.00000000000E+00 0.  1.
</event>
<event>
 7    1  0.6444902E-006  0.1039718E+03  0.7818608E-02  0.1381991E+00
          2   -1    0    0  502    0  0.00000000000E+00  0.00000000000E+00  0.21145300420E+03  0.21145300420E+03  0.00000000000E+00 0. -1.
          1   -1    0    0  501    0 -0.00000000000E+00 -0.00000000000E+00 -0.57809576856E+03  0.57809576856E+03  0.00000000000E+00 0. -1.
         25    2    1    2    0    0  0.44840917163E+02 -0.53566924283E+02 -0.89062557120E+02  0.16863418643E+03  0.12500090609E+03 0.  0.
          2    1    1    2  501    0  0.18005502607E+02 -0.34961391953E+02 -0.43109706927E+03  0.43288702935E+03  0.00000000000E+00 0. -1.
          1    1    1    2  502    0 -0.62846419770E+02  0.88528316236E+02  0.15351686202E+03  0.18802755697E+03  0.00000000000E+00 0. -1.
         22    1    3    3    0    0  0.63008773493E+02 -0.83950544826E+02 -0.80316866815E+02  0.13216882616E+03  0.00000000000E+00 0.  1.
         22    1    3    3    0    0 -0.18167856330E+02  0.30383620543E+02 -0.87456903046E+01  0.36465360273E+02  0.00000000000E+00 0.  1.
</event>
<event>
 7    1  0.6444902E-006  0.1475698E+03  0.7818608E-02  0.1361945E+00
          2   -1    0    0  502    0  0.00000000000E+00  0.00000000000E+00  0.41097148274E+03  0.41097148274E+03  0.00000000000E+00 0. -1.
          1   -1    0    0  501    0 -0.00000000000E+00 -0.00000000000E+00 -0.48361154869E+03  0.48361154869E+03  0.00000000000E+00 0. -1.
         25    2    1    2    0    0 -0.68639787820E+02  0.12797554049E+03 -0.14932875911E+03  0.24292727236E+03  0.12500168768E+03 0.  0.
          2    1    1    2  501    0  0.29210228230E+02  0.14682522652E+02 -0.27142378809E+03  0.27338560065E+03  0.00000000000E+00 0. -1.
          1    1    1    2  502    0  0.39429559590E+02 -0.14265806314E+03  0.34811248125E+03  0.37827015842E+03  0.00000000000E+00 0. -1.
         22    1    3    3    0    0 -0.60323776364E+02 -0.29623419632E+01 -0.45795334891E+02  0.75795423097E+02  0.00000000000E+00 0. -1.
         22    1    3    3    0    0 -0.83160114554E+01  0.13093788245E+03 -0.10353342422E+03  0.16713184926E+03  0.00000000000E+00 0. -1.
</event>
<event>
 7    1  0.6444902E-006  0.7742656E+02  0.7818608E-02  0.1445075E+00
          2   -1    0    0  502    0  0.00000000000E+00  0.00000000000E+00  0.14256818550E+04  0.14256818550E+04  0.00000000000E+00 0. -1.
          1   -1    0    0  501    0 -0.00000000000E+00 -0.00000000000E+00 -0.13013125318E+02  0.13013125318E+02  0.00000000000E+00 0. -1.
         25    2    1    2    0    0  0.55093192809E+02  0.28601336066E+01  0.61508811009E+03  0.63007860254E+03  0.12498888729E+03 0.  0.
          2    1    1    2  501    0  0.29449679023E+02 -0.13394414188E+02  0.84796662282E+02  0.90758844529E+02  0.00000000000E+00 0. -1.
          1    1    1    2  502    0 -0.84542871832E+02  0.10534280582E+02  0.71278395733E+03  0.71785753327E+03  0.00000000000E+00 0. -1.
         22    1    3    3    0    0  0.17049723165E+02 -0.59978045126E+02  0.31686065442E+03  0.32293766159E+03  0.00000000000E+00 0. -1.
         22    1    3    3    0    0  0.38043469644E+02  0.62838178733E+02  0.29822745567E+03  0.30714094094E+03  0.00000000000E+00 0. -1.
</event>
<event>
 7    1  0.6444902E-006  0.3570434E+02  0.7818608E-02  0.1546718E+00
          2   -1    0    0  502    0  0.00000000000E+00  0.00000000000E+00  0.63168102139E+03  0.63168102139E+03  0.00000000000E+00 0. -1.
          1   -1    0    0  501    0 -0.00000000000E+00 -0.00000000000E+00 -0.21217637497E+02  0.21217637497E+02  0.00000000000E+00 0. -1.
         25    2    1    2    0    0 -0.24237835528E+02 -0.14310032393E+02  0.30170567537E+03  0.32778390930E+03  0.12499490769E+03 0.  0.
          2    1    1    2  501    0  0.34340686095E+02 -0.18916265382E+02  0.47642375858E+02  0.61700111790E+02  0.00000000000E+00 0. -1.
          1    1    1    2  502    0 -0.10102850567E+02  0.33226297775E+02  0.26111533267E+03  0.26341463780E+03  0.00000000000E+00 0. -1.
         22    1    3    3    0    0  0.32015860762E+02 -0.23786988559E+02  0.29355867430E+02  0.49523763161E+02  0.00000000000E+00 0.  1.
         22    1    3    3    0    0 -0.56253696290E+02  0.94769561665E+01  0.27234980794E+03  0.27826014614E+03  0.00000000000E+00 0.  1.
</event>
<event>
 7    1  0.6444902E-006  0.2968634E+02  0.7818608E-02  0.1624425E+00
          2   -1    0    0  502    0  0.00000000000E+00  0.00000000000E+00  0.80141768693E+03  0.80141768693E+03  0.00000000000E+00 0. -1.
          1   -1    0    0  501    0 -0.00000000000E+00 -0.00000000000E+00 -0.10573032647E+04  0.10573032647E+04  0.00000000000E+00 0. -1.
         25    2    1    2    0    0 -0.32173147887E+02  0.71459995797E+01 -0.44210676812E+03  0.46061656829E+03  0.12499220699E+03 0.  0.
          2    1    1    2  501    0  0.17816880781E+02  0.18843705013E+02 -0.60538568451E+03  0.60594088282E+03  0.00000000000E+00 0. -1.
          1    1    1    2  502    0  0.14356267106E+02 -0.25989704592E+02  0.79160687489E+03  0.79216350050E+03  0.00000000000E+00 0. -1.
         22    1    3    3    0    0 -0.74983918630E+01  0.61245342902E+02 -0.14441082757E+03  0.15704045666E+03  0.00000000000E+00 0.  1.
         22    1    3    3    0    0 -0.24674756024E+02 -0.54099343322E+02 -0.29769594055E+03  0.30357611163E+03  0.00000000000E+00 0.  1.
</event>
<event>
 7    1  0.6444902E-006  0.7938217E+02  0.7818608E-02  0.1426273E+00
          2   -1    0    0  502    0  0.00000000000E+00  0.00000000000E+00  0.24878173071E+03  0.24878173071E+03  0.00000000000E+00 0. -1.
          1   -1    0    0  501    0 -0.00000000000E+00 -0.00000000000E+00 -0.11321977998E+04  0.11321977998E+04  0.00000000000E+00 0. -1.
         25    2    1    2    0    0 -0.11575360288E+02  0.89036477230E+02 -0.12159450698E+03  0.19614307017E+03  0.12500158641E+03 0.  0.
          2    1    1    2  501    0 -0.29477558020E+02 -0.21265581161E+02 -0.96555422281E+03  0.96623812208E+03  0.00000000000E+00 0. -1.
          1    1    1    2  502    0  0.41052918308E+02 -0.67770896069E+02  0.20373266070E+03  0.21859833826E+03  0.00000000000E+00 0. -1.
         22    1    3    3    0    0 -0.22444643943E+02  0.11893220012E+03 -0.86420343874E+02  0.14871821039E+03  0.00000000000E+00 0. -1.
         22    1    3    3    0    0  0.10869283655E+02 -0.29895722893E+02 -0.35174163108E+02  0.47424859776E+02  0.00000000000E+00 0. -1.
</event>
<event>
 7    1  0.6444902E-006  0.1271071E+03  0.7818608E-02  0.1327738E+00
          2   -1    0    0  502    0  0.00000000000E+00  0.00000000000E+00  0.18358628691E+02  0.18358628691E+02  0.00000000000E+00 0. -1.
          1   -1    0    0  501    0 -0.00000000000E+00 -0.00000000000E+00 -0.27581035047E+04  0.27581035047E+04  0.00000000000E+00 0. -1.
         25    2    1    2    0    0 -0.45705151864E+02 -0.81471158724E+02 -0.74279250307E+03  0.75900849997E+03  0.12500675896E+03 0.  0.
          2    1    1    2  501    0  0.91948620351E+02  0.10282971134E+03 -0.19213317868E+04  0.19262773251E+04  0.00000000000E+00 0. -1.
          1    1    1    2  502    0 -0.46243468488E+02 -0.21358552618E+02 -0.75620586129E+02  0.91176308294E+02  0.00000000000E+00 0. -1.
         22    1    3    3    0    0  0.98773449770E+01  0.23543344205E+02 -0.28165246345E+03  0.28280728627E+03  0.00000000000E+00 0. -1.
         22    1    3    3    0    0 -0.55582496841E+02 -0.10501450293E+03 -0.46114003962E+03  0.47620121370E+03  0.00000000000E+00 0. -1.
</event>
<event>
 7    1  0.6444902E-006  0.7205198E+02  0.7818608E-02  0.1364184E+00
          2   -1    0    0  502    0  0.00000000000E+00  0.00000000000E+00  0.55718190423E+03  0.55718190423E+03  0.00000000000E+00 0. -1.
          1   -1    0    0  501    0 -0.00000000000E+00 -0.00000000000E+00 -0.29332876257E+03  0.29332876257E+03  0.00000000000E+00 0. -1.
         25    2    1    2    0    0 -0.35532287799E+01  0.22547866269E+02 -0.64529414441E+02  0.14250584878E+03  0.12499135930E+03 0.  0.
          2    1    1    2  501    0 -0.28757259290E+02 -0.79771420868E+02 -0.17811080477E+03  0.19726611043E+03  0.00000000000E+00 0. -1.
          1    1    1    2  502    0  0.32310488070E+02  0.57223554598E+02  0.50649336087E+03  0.51073870760E+03  0.00000000000E+00 0. -1.
         22    1    3    3    0    0 -0.37797839331E+02 -0.40434923045E+02 -0.26935885459E+02  0.61556491008E+02  0.00000000000E+00 0. -1.
         22    1    3    3    0    0  0.34244610551E+02  0.62982789315E+02 -0.37593528983E+02  0.80949357768E+02  0.00000000000E+00 0. -1.
</event>
<event>
 7    1  0.6444902E-006  0.6476573E+02  0.7818608E-02  0.1500665E+00
          2   -1    0    0  502    0  0.00000000000E+00  0.00000000000E+00  0.80351157184E+02  0.80351157184E+02  0.00000000000E+00 0. -1.
          1   -1    0    0  501    0 -0.00000000000E+00 -0.00000000000E+00 -0.47405944395E+03  0.47405944395E+03  0.00000000000E+00 0. -1.
         25    2    1    2    0    0  0.17442059450E+02  0.85218495378E+02 -0.13584910495E+03  0.20407641299E+03  0.12500314249E+03 0.  0.
          2    1    1    2  501    0 -0.47548918561E+01 -0.62511397488E+02 -0.29688631278E+03  0.30343329832E+03  0.00000000000E+00 0. -1.
          1    1    1    2  502    0 -0.12687167594E+02 -0.22707097890E+02  0.39027130956E+02  0.46900889829E+02  0.00000000000E+00 0. -1.
         22    1    3    3    0    0  0.36303501026E+02  0.66212357607E+02 -0.15414434749E+03  0.17164643996E+03  0.00000000000E+00 0. -1.
         22    1    3    3    0    0 -0.18861441576E+02  0.19006137771E+02  0.18295242543E+02  0.32429973034E+02  0.00000000000E+00 0. -1.
</event>
<event>
 7    1  0.6444902E-006  0.6733064E+02  0.7818608E-02  0.1462091E+00
          2   -1    0    0  502    0  0.00000000000E+00  0.00000000000E+00  0.13589827301E+04  0.13589827301E+04  0.00000000000E+00 0. -1.
          1   -1    0    0  501    0 -0.00000000000E+00 -0.00000000000E+00 -0.33423035733E+02  0.33423035733E+02  0.00000000000E+00 0. -1.
         25    2    1    2    0    0  0.49285488909E+01 -0.77890914917E+02  0.33820061772E+03  0.36891252819E+03  0.12500204159E+03 0.  0.
          2    1    1    2  501    0  0.23847767143E+02  0.62065148328E+02  0.44374173344E+02  0.79936636748E+02  0.00000000000E+00 0. -1.
          1    1    1    2  502    0 -0.28776316034E+02  0.15825766590E+02  0.94298490334E+03  0.94355660094E+03  0.00000000000E+00 0. -1.
         22    1    3    3    0    0  0.19630790335E+02 -0.72965324126E+02  0.34411833416E+03  0.35231624198E+03  0.00000000000E+00 0.  1.
         22    1    3    3    0    0 -0.14702241444E+02 -0.49255907915E+01 -0.59177164376E+01  0.16596286210E+02  0.00000000000E+00 0.  1.
</event>
<event>
 7    1  0.6444902E-006  0.5027919E+02  0.7818608E-02  0.1509343E+00
          2   -1    0    0  502    0  0.00000000000E+00  0.00000000000E+00  0.31340106516E+03  0.31340106516E+03  0.00000000000E+00 0. -1.
          1   -1    0    0  501    0 -0.00000000000E+00 -0.00000000000E+00 -0.68556587216E+03  0.68556587216E+03  0.00000000000E+00 0. -1.
         25    2    1    2    0    0 -0.60689898731E+01  0.48354579807E+02 -0.24675532056E+03  0.28086954509E+03  0.12499806043E+03 0.  0.
          2    1    1    2  501    0 -0.25281921741E+02 -0.44568402280E+02 -0.41934828626E+03  0.42246716232E+03  0.00000000000E+00 0. -1.
          1    1    1    2  502    0  0.31350911614E+02 -0.37861775270E+01  0.29393879981E+03  0.29563022990E+03  0.00000000000E+00 0. -1.
         22    1    3    3    0    0  0.32893532038E+02  0.11809057494E+02 -0.21685103963E+03  0.21964929246E+03  0.00000000000E+00 0.  1.
         22    1    3    3    0    0 -0.38962521911E+02  0.36545522312E+02 -0.29904280927E+02  0.61220252634E+02  0.00000000000E+00 0.  1.
</event>
<event>
 7    1  0.6444902E-006  0.5876869E+02  0.7818608E-02  0.1449744E+00
          2   -1    0    0  502    0  0.00000000000E+00  0.00000000000E+00  0.11661978502E+03  0.11661978502E+03  0.00000000000E+00 0. -1.
          1   -1    0    0  501    0 -0.00000000000E+00 -0.00000000000E+00 -0.87467445401E+03  0.87467445401E+03  0.00000000000E+00 0. -1.
         25    2    1    2    0    0 -0.71749723610E+02  0.32025861112E+02 -0.60196959846E+02  0.15944453939E+03  0.12500083419E+03 0.  0.
          2    1    1    2  501    0  0.14519543993E+02 -0.38532464284E+02 -0.75180534709E+03  0.75293216684E+03  0.00000000000E+00 0. -1.
          1    1    1    2  502    0  0.57230179617E+02  0.65066031717E+01  0.53947637936E+02  0.78917532796E+02  0.00000000000E+00 0. -1.
         22    1    3    3    0    0  0.28440444891E+02 -0.83786628936E+01 -0.39597794402E+02  0.49467627991E+02  0.00000000000E+00 0. -1.
         22    1    3    3    0    0 -0.10019016850E+03  0.40404524006E+02 -0.20599165443E+02  0.10997691140E+03  0.00000000000E+00 0. -1.
</event>
<event>
 7    1  0.6444902E-006  0.9485028E+02  0.7818608E-02  0.1371618E+00
          2   -1    0    0  502    0  0.00000000000E+00  0.00000000000E+00  0.32177520451E+04  0.32177520451E+04  0.00000000000E+00 0. -1.
          1   -1    0    0  501    0 -0.00000000000E+00 -0.00000000000E+00 -0.13689446041E+03  0.13689446041E+03  0.00000000000E+00 0. -1.
         25    2    1    2    0    0 -0.58800557170E+02  0.36155406276E+02  0.15782146185E+03  0.21283231374E+03  0.12500104410E+03 0.  0.
          2    1    1    2  501    0 -0.36719796584E+02 -0.29227113237E+02 -0.10356270376E+03  0.11370048909E+03  0.00000000000E+00 0. -1.
          1    1    1    2  502    0  0.95520353754E+02 -0.69282930395E+01  0.30265988266E+04  0.30281137026E+04  0.00000000000E+00 0. -1.
         22    1    3    3    0    0 -0.68448580447E+02  0.17531049063E+01  0.21292130871E+02  0.71705204686E+02  0.00000000000E+00 0.  1.
         22    1    3    3    0    0  0.96480232764E+01  0.34402301370E+02  0.13652933098E+03  0.14112710905E+03  0.00000000000E+00 0.  1.
</event>
<event>
 7    1  0.6444902E-006  0.4126650E+02  0.7818608E-02  0.1593381E+00
          2   -1    0    0  502    0  0.00000000000E+00  0.00000000000E+00  0.16964031942E+03  0.16964031942E+03  0.00000000000E+00 0. -1.
          1   -1    0    0  501    0 -0.00000000000E+00 -0.00000000000E+00 -0.67654837559E+03  0.67654837559E+03  0.00000000000E+00 0. -1.
         25    2    1    2    0    0  0.14073868418E+02 -0.16654973214E+02 -0.15012271911E+03  0.19655958785E+03  0.12499351535E+03 0.  0.
          2    1    1    2  501    0  0.21117928040E+00 -0.22438567261E+02 -0.49999265029E+03  0.50049593829E+03  0.00000000000E+00 0. -1.
          1    1    1    2  502    0 -0.14285047699E+02  0.39093540475E+02  0.14320731323E+03  0.14913316887E+03  0.00000000000E+00 0. -1.
         22    1    3    3    0    0  0.42907071802E+02 -0.40019879799E+02 -0.21175184980E+02  0.62377849023E+02  0.00000000000E+00 0. -1.
         22    1    3    3    0    0 -0.28833203384E+02  0.23364906585E+02 -0.12894753413E+03  0.13418173883E+03  0.00000000000E+00 0. -1.
</event>
<event>
 7    1  0.8629910E-006  0.1478653E+03  0.7818608E-02  0.1238441E+00
          2   -1    0    0  502    0  0.00000000000E+00  0.00000000000E+00  0.24853728469E+04  0.24853728469E+04  0.00000000000E+00 0. -1.
          1   -1    0    0  501    0 -0.00000000000E+00 -0.00000000000E+00 -0.11521589584E+04  0.11521589584E+04  0.00000000000E+00 0. -1.
         25    2    1    2    0    0  0.36528170647E+02  0.30370629805E+02 -0.19315278442E+03  0.23492491686E+03  0.12500014412E+03 0.  0.
          2    1    1    2  501    0  0.63663862369E+02  0.79813750667E+02 -0.93308329828E+03  0.93865209940E+03  0.00000000000E+00 0. -1.
          1    1    1    2  502    0 -0.10019203302E+03 -0.11018438047E+03  0.24594499712E+04  0.24639547889E+04  0.00000000000E+00 0. -1.
         22    1    3    3    0    0  0.61959890521E+02 -0.15853336868E+02 -0.46507079654E+02  0.79077587097E+02  0.00000000000E+00 0. -1.
         22    1    3    3    0    0 -0.25431719874E+02  0.46223966673E+02 -0.14664570476E+03  0.15584732977E+03  0.00000000000E+00 0. -1.
</event>
<event>
 7    1  0.6444902E-006  0.1292311E+03  0.7818608E-02  0.1273794E+00
          2   -1    0    0  502    0  0.00000000000E+00  0.00000000000E+00  0.45785913962E+03  0.45785913962E+03  0.00000000000E+00 0. -1.
          1   -1    0    0  501    0 -0.00000000000E+00 -0.00000000000E+00 -0.14333122791E+04  0.14333122791E+04  0.00000000000E+00 0. -1.
         25    2    1    2    0    0  0.41485905881E+02  0.86240841291E+02 -0.40826374642E+01  0.15748605276E+03  0.12500650300E+03 0.  0.
          2    1    1    2  501    0 -0.66644008747E+02  0.48363321364E+02 -0.13389232947E+04  0.13414529525E+04  0.00000000000E+00 0. -1.
          1    1    1    2  502    0  0.25158102866E+02 -0.13460416265E+03  0.36755279268E+03  0.39223241344E+03  0.00000000000E+00 0. -1.
         22    1    3    3    0    0 -0.36640278043E+02  0.67404936353E+02 -0.72294839181E+01  0.77059722667E+02  0.00000000000E+00 0.  1.
         22    1    3    3    0    0  0.78126183924E+02  0.18835904938E+02  0.31468464539E+01  0.80426330091E+02  0.00000000000E+00 0.  1.
</event>
<event>
 7    1  0.6444902E-006  0.5713978E+02  0.7818608E-02  0.1429995E+00
          2   -1    0    0  502    0  0.00000000000E+00  0.00000000000E+00  0.19631989104E+04  0.19631989104E+04  0.00000000000E+00 0. -1.
          1   -1    0    0  501    0 -0.00000000000E+00 -0.00000000000E+00 -0.15868713082E+03  0.15868713082E+03  0.00000000000E+00 0. -1.
         25    2    1    2    0    0 -0.62069285355E+02 -0.77866438576E+02  0.86274967868E+03  0.87742686018E+03  0.12500043390E+03 0.  0.
          2    1    1    2  501    0  0.39308233500E+02  0.29402148143E+02 -0.14669283190E+03  0.15468810706E+03  0.00000000000E+00 0. -1.
          1    1    1    2  502    0  0.22761051855E+02  0.48464290433E+02  0.10884549328E+04  0.10897710740E+04  0.00000000000E+00 0. -1.
         22    1    3    3    0    0 -0.42365641429E+02  0.27820109999E+02  0.22124226476E+03  0.22697344737E+03  0.00000000000E+00 0. -1.
         22    1    3    3    0    0 -0.19703643926E+02 -0.10568654857E+03  0.64150741391E+03  0.65045341281E+03  0.00000000000E+00 0. -1.
</event>
<event>
 7    1  0.6444902E-006  0.3525733E+02  0.7818608E-02  0.1563679E+00
          2   -1    0    0  502    0  0.00000000000E+00  0.00000000000E+00  0.29775196012E+02  0.29775196012E+02  0.00000000000E+00 0. -1.
          1   -1    0    0  501    0 -0.00000000000E+00 -0.00000000000E+00 -0.14111455330E+04  0.14111455330E+04  0.00000000000E+00 0. -1.
         25    2    1    2    0    0  0.21860757340E+02 -0.15060536003E+01 -0.93331582813E+03  0.94190442487E+03  0.12500139856E+03 0.  0.
          2    1    1    2  501    0 -0.13312147652E+02 -0.32699218864E+02 -0.46033092857E+03  0.46168280885E+03  0.00000000000E+00 0. -1.
          1    1    1    2  502    0 -0.85486096879E+01  0.34205272464E+02  0.12276419690E+02  0.37333495314E+02  0.00000000000E+00 0. -1.
         22    1    3    3    0    0 -0.26334305284E+01 -0.60709979887E+02 -0.37003049383E+03  0.37498693708E+03  0.00000000000E+00 0.  1.
         22    1    3    3    0    0  0.24494187868E+02  0.59203926287E+02 -0.56328533429E+03  0.56691748779E+03  0.00000000000E+00 0.  1.
</event>
<event>
 7    1  0.6444902E-006  0.6086550E+02  0.7818608E-02  0.1433595E+00
          2   -1    0    0  502    0  0.00000000000E+00  0.00000000000E+00  0.25277546587E+04  0.25277546587E+04  0.00000000000E+00 0. -1.
          1   -1    0    0  501    0 -0.00000000000E+00 -0.00000000000E+00 -0.21693754493E+02  0.21693754493E+02  0.00000000000E+00 0. -1.
         25    2    1    2    0    0 -0.52010153650E+02 -0.23374339041E+02  0.57833951106E+03  0.59443473626E+03  0.12499859921E+03 0.  0.
          2    1    1    2  501    0  0.59629078510E+02 -0.20819506707E+02  0.61175298412E+02  0.87928925840E+02  0.00000000000E+00 0. -1.
          1    1    1    2  502    0 -0.76189248604E+01  0.44193845749E+02  0.18665460947E+04  0.18670847511E+04  0.00000000000E+00 0. -1.
         22    1    3    3    0    0 -0.40630315636E+02 -0.42578536955E+02  0.10343998416E+03  0.11901085951E+03  0.00000000000E+00 0. -1.
         22    1    3    3    0    0 -0.11379838014E+02  0.19204197914E+02  0.47489952690E+03  0.47542387675E+03  0.00000000000E+00 0. -1.
</event>
<event>
 7    1  0.6444902E-006  0.6617096E+02  0.7818608E-02  0.1425086E+00
          2   -1    0    0  502    0  0.00000000000E+00  0.00000000000E+00  0.64113208488E+03  0.64113208488E+03  0.00000000000E+00 0. -1.
          1   -1    0    0  501    0 -0.00000000000E+00 -0.00000000000E+00 -0.19507471480E+04  0.19507471480E+04  0.00000000000E+00 0. -1.
         25    2    1    2    0    0 -0.10018839258E+03 -0.47402042162E+01  0.14702426040E+03  0.21748831476E+03  0.12499940147E+03 0.  0.
          2    1    1    2  501    0  0.38217069345E+02  0.21807117726E+02 -0.19130098921E+04  0.19135158588E+04  0.00000000000E+00 0. -1.
          1    1    1    2  502    0  0.61971323234E+02 -0.17066913509E+02  0.45637056855E+03  0.46087505930E+03  0.00000000000E+00 0. -1.
         22    1    3    3    0    0  0.15062207848E+02  0.14891845074E+02 -0.85847075123E+01  0.22854635373E+02  0.00000000000E+00 0.  1.
         22    1    3    3    0    0 -0.11525060043E+03 -0.19632049290E+02  0.15560896792E+03  0.19463367939E+03  0.00000000000E+00 0.  1.
</event>
<event>
 7    1  0.6444902E-006  0.6015683E+02  0.7818608E-02  0.1414909E+00
          2   -1    0    0  502    0  0.00000000000E+00  0.00000000000E+00  0.38018757100E+03  0.38018757100E+03  0.00000000000E+00 0. -1.
          1   -1    0    0  501    0 -0.00000000000E+00 -0.00000000000E+00 -0.12320393011E+03  0.12320393011E+03  0.00000000000E+00 0. -1.
         25    2    1    2    0    0  0.49560122249E+02 -0.22140398294E+02  0.27012142678E+03  0.30255105739E+03  0.12500061667E+03 0.  0.
          2    1    1    2  501    0  0.24132845681E+01  0.60108407616E+02 -0.85149805855E+02  0.10425609836E+03  0.00000000000E+00 0. -1.
          1    1    1    2  502    0 -0.51973406817E+02 -0.37968009322E+02  0.72012019973E+02  0.96584345360E+02  0.00000000000E+00 0. -1.
         22    1    3    3    0    0  0.59176216698E+02  0.29035191952E+02  0.71630478345E+02  0.97343681984E+02  0.00000000000E+00 0. -1.
         22    1    3    3    0    0 -0.96160944488E+01 -0.51175590245E+02  0.19849094843E+03  0.20520737540E+03  0.00000000000E+00 0. -1.
</event>
<event>
 7    1  0.6444902E-006  0.4166431E+02  0.7818608E-02  0.1586844E+00
          2   -1    0    0  502    0  0.00000000000E+00  0.00000000000E+00  0.12895076010E+03  0.12895076010E+03  0.00000000000E+00 0. -1.
          1   -1    0    0  501    0 -0.00000000000E+00 -0.00000000000E+00 -0.34080339379E+03  0.34080339379E+03  0.00000000000E+00 0. -1.
         25    2    1    2    0    0  0.13038706212E+02 -0.36080701129E+02 -0.17997938606E+03  0.22246153399E+03  0.12499891937E+03 0.  0.
          2    1    1    2  501    0 -0.22654874513E+02 -0.46565399995E+01 -0.13449174667E+03  0.13646595409E+03  0.00000000000E+00 0. -1.
          1    1    1    2  502    0  0.96161683013E+01  0.40737241129E+02  0.10261849905E+03  0.11082666581E+03  0.00000000000E+00 0. -1.
         22    1    3    3    0    0 -0.22247873831E+02 -0.42156456018E+02 -0.18046328220E+03  0.18665243341E+03  0.00000000000E+00 0.  1.
         22    1    3    3    0    0  0.35286580043E+02  0.60757548889E+01  0.48389614660E+00  0.35809100576E+02  0.00000000000E+00 0.  1.
</event>
<event>
 7    1  0.6444902E-006  0.1997332E+03  0.7818608E-02  0.1371778E+00
          2   -1    0    0  502    0  0.00000000000E+00  0.00000000000E+00  0.15183532726E+04  0.15183532726E+04  0.00000000000E+00 0. -1.
          1   -1    0    0  501    0 -0.00000000000E+00 -0.00000000000E+00 -0.20504508677E+04  0.20504508677E+04  0.00000000000E+00 0. -1.
         25    2    1    2    0    0 -0.18748823316E+03  0.22358839379E+02 -0.35682989641E+03  0.42261577466E+03  0.12499905100E+03 0.  0.
          2    1    1    2  501    0  0.20182692046E+03 -0.53351788800E+01 -0.16545077516E+04  0.16667808704E+04  0.00000000000E+00 0. -1.
          1    1    1    2  502    0 -0.14338687301E+02 -0.17023660499E+02  0.14792400529E+04  0.14794074953E+04  0.00000000000E+00 0. -1.
         22    1    3    3    0    0 -0.16236718292E+03 -0.21429747205E+02 -0.32208349310E+03  0.36133102922E+03  0.00000000000E+00 0.  1.
         22    1    3    3    0    0 -0.25121050243E+02  0.43788586583E+02 -0.34746403309E+02  0.61284745436E+02  0.00000000000E+00 0.  1.
</event>
<event>
 7    1  0.6444902E-006  0.2970036E+02  0.7818608E-02  0.1615130E+00
          2   -1    0    0  502    0  0.00000000000E+00  0.00000000000E+00  0.80060703840E+02  0.80060703840E+02  0.00000000000E+00 0. -1.
          1   -1    0    0  501    0 -0.00000000000E+00 -0.00000000000E+00 -0.17278715870E+04  0.17278715870E+04  0.00000000000E+00 0. -1.
         25    2    1    2    0    0  0.16590685943E+02 -0.32976234353E+02 -0.51005668419E+03  0.52644545054E+03  0.12499723363E+03 0.  0.
          2    1    1    2  501    0 -0.28594243942E+02  0.83750804565E+01 -0.12068233711E+04  0.12071911290E+04  0.00000000000E+00 0. -1.
          1    1    1    2  502    0  0.12003557999E+02  0.24601153896E+02  0.69069172165E+02  0.74295711325E+02  0.00000000000E+00 0. -1.
         22    1    3    3    0    0 -0.11966021530E+02 -0.30362349489E+01  0.21836466652E+01  0.12536853939E+02  0.00000000000E+00 0.  1.
         22    1    3    3    0    0  0.28556707473E+02 -0.29939999404E+02 -0.51224033086E+03  0.51390859660E+03  0.00000000000E+00 0.  1.
</event>
<event>
 7    1  0.6444902E-006  0.1231717E+03  0.7818608E-02  0.1417049E+00
          2   -1    0    0  502    0  0.00000000000E+00  0.00000000000E+00  0.12083889556E+04  0.12083889556E+04  0.00000000000E+00 0. -1.
          1   -1    0    0  501    0 -0.00000000000E+00 -0.00000000000E+00 -0.90028210411E+02  0.90028210411E+02  0.00000000000E+00 0. -1.
         25    2    1    2    0    0 -0.43915491077E+02 -0.11076220914E+03  0.81639750795E+03  0.83445932123E+03  0.12498252063E+03 0.  0.
          2    1    1    2  501    0  0.19306821571E+02 -0.16106736679E+02 -0.67773083589E+02  0.72286728967E+02  0.00000000000E+00 0. -1.
          1    1    1    2  502    0  0.24608669506E+02  0.12686894582E+03  0.36973632087E+03  0.39167111586E+03  0.00000000000E+00 0. -1.
         22    1    3    3    0    0  0.33914334576E+02 -0.25371388383E+02  0.97010930135E+02  0.10585371984E+03  0.00000000000E+00 0.  1.
         22    1    3    3    0    0 -0.77829825653E+02 -0.85390820758E+02  0.71938657782E+03  0.72860560139E+03  0.00000000000E+00 0.  1.
</event>
<event>
 7    1  0.7272557E-006  0.8710879E+02  0.7818608E-02  0.1458384E+00
          2   -1    0    0  502    0  0.00000000000E+00  0.00000000000E+00  0.18181493823E+04  0.18181493823E+04  0.00000000000E+00 0. -1.
          1   -1    0    0  501    0 -0.00000000000E+00 -0.00000000000E+00 -0.13938694683E+04  0.13938694683E+04  0.00000000000E+00 0. -1.
         25    2    1    2    0    0  0.68376974470E+02  0.45169183285E+02 -0.17965114856E+03  0.23369957844E+03  0.12500116811E+03 0.  0.
          2    1    1    2  501    0 -0.13338244376E+02  0.22407629718E+02 -0.11859904832E+04  0.11862771333E+04  0.00000000000E+00 0. -1.
          1    1    1    2  502    0 -0.55038730093E+02 -0.67576813003E+02  0.17899215458E+04  0.17920421389E+04  0.00000000000E+00 0. -1.
         22    1    3    3    0    0 -0.29200132646E+01 -0.30042664970E+01 -0.13806937521E+03  0.13813292318E+03  0.00000000000E+00 0.  1.
         22    1    3    3    0    0  0.71296987734E+02  0.48173449782E+02 -0.41581773356E+02  0.95566655269E+02  0.00000000000E+00 0.  1.
</event>
<event>
 7    1  0.6444902E-006  0.5354305E+02  0.7818608E-02  0.1427336E+00
          2   -1    0    0  502    0  0.00000000000E+00  0.00000000000E+00  0.10061010879E+04  0.10061010879E+04  0.00000000000E+00 0. -1.
          1   -1    0    0  501    0 -0.00000000000E+00 -0.00000000000E+00 -0.86026669063E+02  0.86026669063E+02  0.00000000000E+00 0. -1.
         25    2    1    2    0    0  0.48734052465E+02  0.27925391854E+02  0.14290406474E+03  0.19799278291E+03  0.12499893994E+03 0.  0.
          2    1    1    2  501    0 -0.46525223427E+02  0.26319869939E+02 -0.45182889457E+02  0.69991609985E+02  0.00000000000E+00 0. -1.
          1    1    1    2  502    0 -0.22088290386E+01 -0.54245261794E+02  0.82235324352E+03  0.82414336403E+03  0.00000000000E+00 0. -1.
         22    1    3    3    0    0  0.11970468532E+02 -0.11594136428E+02  0.14304966310E+03  0.14401709006E+03  0.00000000000E+00 0.  1.
         22    1    3    3    0    0  0.36763583933E+02  0.39519528283E+02 -0.14559836411E+00  0.53975692846E+02  0.00000000000E+00 0.  1.
</event>
<event>
 7    1  0.6444902E-006  0.7153345E+02  0.7818608E-02  0.1389162E+00
          2   -1    0    0  502    0  0.00000000000E+00  0.00000000000E+00  0.20011075015E+04  0.20011075015E+04  0.00000000000E+00 0. -1.
          1   -1    0    0  501    0 -0.00000000000E+00 -0.00000000000E+00 -0.29085533573E+04  0.29085533573E+04  0.00000000000E+00 0. -1.
         25    2    1    2    0    0  0.15977151329E+02  0.98194949168E+01  0.44003201039E+02  0.13384070437E+03  0.12500144239E+03 0.  0.
          2    1    1    2  501    0  0.38517759199E+02  0.37757699948E+02 -0.28626962687E+04  0.28632043568E+04  0.00000000000E+00 0. -1.
          1    1    1    2  502    0 -0.54494910528E+02 -0.47577194865E+02  0.19112472118E+04  0.19126157977E+04  0.00000000000E+00 0. -1.
         22    1    3    3    0    0  0.62168581309E+01 -0.32609311299E+02 -0.32091060126E+02  0.46171989868E+02  0.00000000000E+00 0. -1.
         22    1    3    3    0    0  0.97602931978E+01  0.42428806215E+02  0.76094261165E+02  0.87668714502E+02  0.00000000000E+00 0. -1.
</event>
<event>
 7    1  0.6444902E-006  0.1306802E+03  0.7818608E-02  0.1228835E+00
          2   -1    0    0  502    0  0.00000000000E+00  0.00000000000E+00  0.10589736715E+04  0.10589736715E+04  0.00000000000E+00 0. -1.
          1   -1    0    0  501    0 -0.00000000000E+00 -0.00000000000E+00 -0.60603219503E+03  0.60603219503E+03  0.00000000000E+00 0. -1.
         25    2    1    2    0    0 -0.15032818818E+03  0.17356264765E+02  0.44606954030E+03  0.48734255751E+03  0.12499971794E+03 0.  0.
          2    1    1    2  501    0  0.77409473432E+02  0.10129736764E+03 -0.57006923438E+03  0.58415093534E+03  0.00000000000E+00 0. -1.
          1    1    1    2  502    0  0.72918714752E+02 -0.11865363240E+03  0.57694117059E+03  0.59351237372E+03  0.00000000000E+00 0. -1.
         22    1    3    3    0    0 -0.78809220294E+02 -0.28562272700E+02  0.34619959508E+03  0.35620339170E+03  0.00000000000E+00 0.  1.
         22    1    3    3    0    0 -0.71518967890E+02  0.45918537465E+02  0.99869945225E+02  0.13113916581E+03  0.00000000000E+00 0.  1.
</event>
<event>
 7    1  0.6444902E-006  0.7054771E+02  0.7818608E-02  0.1421449E+00
          2   -1    0    0  502    0  0.00000000000E+00  0.00000000000E+00  0.33877743198E+03  0.33877743198E+03  0.00000000000E+00 0. -1.
          1   -1    0    0  501    0 -0.00000000000E+00 -0.00000000000E+00 -0.76152466896E+03  0.76152466896E+03  0.00000000000E+00 0. -1.
         25    2    1    2    0    0 -0.88334359570E+02 -0.43885935140E+02  0.17824702105E+03  0.23900965114E+03  0.12499871377E+03 0.  0.
          2    1    1    2  501    0  0.46794790852E+02  0.52564598213E+02 -0.72593664513E+03  0.72933997709E+03  0.00000000000E+00 0. -1.
          1    1    1    2  502    0  0.41539568718E+02 -0.86786630726E+01  0.12494238709E+03  0.13195247271E+03  0.00000000000E+00 0. -1.
         22    1    3    3    0    0 -0.30405231297E+02 -0.89102107653E+01 -0.14415345671E+02  0.34809081242E+02  0.00000000000E+00 0. -1.
         22    1    3    3    0    0 -0.57929128272E+02 -0.34975724375E+02  0.19266236672E+03  0.20420056990E+03  0.00000000000E+00 0. -1.
</event>
<event>
 7    1  0.6444902E-006  0.1077770E+03  0.7818608E-02  0.1290719E+00
          2   -1    0    0  502    0  0.00000000000E+00  0.00000000000E+00  0.25237832644E+03  0.25237832644E+03  0.00000000000E+00 0. -1.
          1   -1    0    0  501    0 -0.00000000000E+00 -0.00000000000E+00 -0.72536323336E+03  0.72536323336E+03  0.00000000000E+00 0. -1.
         25    2    1    2    0    0  0.40433212523E+02  0.18738113188E+02 -0.14722089006E+03  0.19816811754E+03  0.12494258993E+03 0.  0.
          2    1    1    2  501    0 -0.12447569885E+03 -0.21739857222E+02 -0.53728726711E+03  0.55194603757E+03  0.00000000000E+00 0. -1.
          1    1    1    2  502    0  0.84042486332E+02  0.30017440338E+01  0.21152325023E+03  0.22762740469E+03  0.00000000000E+00 0. -1.
         22    1    3    3    0    0 -0.33761857016E+02  0.13829511707E+02 -0.10821757153E+03  0.11420228182E+03  0.00000000000E+00 0.  1.
         22    1    3    3    0    0  0.74195069539E+02  0.49086014810E+01 -0.39003318520E+02  0.83965835719E+02  0.00000000000E+00 0.  1.
</event>
<event>
 7    1  0.6444902E-006  0.6485039E+02  0.7818608E-02  0.1443091E+00
          2   -1    0    0  502    0  0.00000000000E+00  0.00000000000E+00  0.16249696410E+04  0.16249696410E+04  0.00000000000E+00 0. -1.
          1   -1    0    0  501    0 -0.00000000000E+00 -0.00000000000E+00 -0.60507987728E+03  0.60507987728E+03  0.00000000000E+00 0. -1.
         25    2    1    2    0    0 -0.53220833023E+02 -0.24722209706E+02 -0.51194079112E+03  0.53023761222E+03  0.12499962830E+03 0.  0.
          2    1    1    2  501    0  0.83789533774E+02  0.18237490661E+00 -0.62792380336E+02  0.10470722162E+03  0.00000000000E+00 0. -1.
          1    1    1    2  502    0 -0.30568700751E+02  0.24539834800E+02  0.15946229352E+04  0.15951046844E+04  0.00000000000E+00 0. -1.
         22    1    3    3    0    0 -0.55640200573E+02  0.42094083766E+02 -0.29974301327E+03  0.30775577624E+03  0.00000000000E+00 0. -1.
         22    1    3    3    0    0  0.24193675504E+01 -0.66816293472E+02 -0.21219777786E+03  0.22248183598E+03  0.00000000000E+00 0. -1.
</event>
<event>
 7    1  0.6444902E-006  0.1432176E+03  0.7818608E-02  0.1363947E+00
          2   -1    0    0  502    0  0.00000000000E+00  0.00000000000E+00  0.13828164306E+04  0.13828164306E+04  0.00000000000E+00 0. -1.
          1   -1    0    0  501    0 -0.00000000000E+00 -0.00000000000E+00 -0.10679888067E+04  0.10679888067E+04  0.00000000000E+00 0. -1.
         25    2    1    2    0    0 -0.15865214422E+03  0.35228823554E+02  0.34466794396E+03  0.40103926285E+03  0.12499970351E+03 0.  0.
          2    1    1    2  501    0  0.13202301616E+03 -0.54933420408E+02 -0.10346126313E+04  0.10444477269E+04  0.00000000000E+00 0. -1.
          1    1    1    2  502    0  0.26629128058E+02  0.19704596853E+02  0.10047723112E+04  0.10053182476E+04  0.00000000000E+00 0. -1.
         22    1    3    3    0    0 -0.46299469767E+02 -0.42094189518E+02  0.66961986421E+02  0.91648618742E+02  0.00000000000E+00 0.  1.
         22    1    3    3    0    0 -0.11235267445E+03  0.77323013072E+02  0.27770595754E+03  0.30939064411E+03  0.00000000000E+00 0.  1.
</event>
<event>
 7    1  0.6444902E-006  0.4568274E+02  0.7818608E-02  0.1521501E+00
          2   -1    0    0  502    0  0.00000000000E+00  0.00000000000E+00  0.15623975847E+04  0.15623975847E+04  0.00000000000E+00 0. -1.
          1   -1    0    0  501    0 -0.00000000000E+00 -0.00000000000E+00 -0.15711035261E+03  0.15711035261E+03  0.00000000000E+00 0. -1.
         25    2    1    2    0    0  0.67646199649E+02 -0.35783770141E+02  0.34613552982E+03  0.37588739119E+03  0.12500015729E+03 0.  0.
          2    1    1    2  501    0 -0.42468111409E+02  0.15991184394E+02 -0.13839540280E+03  0.14564527449E+03  0.00000000000E+00 0. -1.
          1    1    1    2  502    0 -0.25178088240E+02  0.19792585747E+02  0.11975471051E+04  0.11979752717E+04  0.00000000000E+00 0. -1.
         22    1    3    3    0    0 -0.18591801526E+02  0.31796652304E+02  0.95127641715E+02  0.10200956034E+03  0.00000000000E+00 0.  1.
         22    1    3    3    0    0  0.86238001175E+02 -0.67580422444E+02  0.25100788810E+03  0.27387783086E+03  0.00000000000E+00 0.  1.
</event>
<event>
 7    1  0.6444902E-006  0.9329214E+02  0.7818608E-02  0.1353854E+00
          2   -1    0    0  502    0  0.00000000000E+00  0.00000000000E+00  0.33135744543E+04  0.33135744543E+04  0.00000000000E+00 0. -1.
          1   -1    0    0  501    0 -0.00000000000E+00 -0.00000000000E+00 -0.47231039594E+03  0.47231039594E+03  0.00000000000E+00 0. -1.
         25    2    1    2    0    0 -0.50969948426E+02  0.12788083506E+03  0.12740792263E+04  0.12875769806E+04  0.12500064943E+03 0.  0.
          2    1    1    2  501    0  0.36500331576E+02 -0.41627340127E+02 -0.46297077212E+03  0.46626928431E+03  0.00000000000E+00 0. -1.
          1    1    1    2  502    0  0.14469616849E+02 -0.86253494937E+02  0.20301556041E+04  0.20320385853E+04  0.00000000000E+00 0. -1.
         22    1    3    3    0    0 -0.59009890903E+02  0.14785918988E+02  0.25248619877E+03  0.25971151533E+03  0.00000000000E+00 0. -1.
         22    1    3    3    0    0  0.80399424775E+01  0.11309491608E+03  0.10215930276E+04  0.10278654653E+04  0.00000000000E+00 0. -1.
</event>
<event>
 7    1  0.6444902E-006  0.8797023E+02  0.7818608E-02  0.1326945E+00
          2   -1    0    0  502    0  0.00000000000E+00  0.00000000000E+00  0.60574601904E+03  0.60574601904E+03  0.00000000000E+00 0. -1.
          1   -1    0    0  501    0 -0.00000000000E+00 -0.00000000000E+00 -0.24669298498E+04  0.24669298498E+04  0.00000000000E+00 0. -1.
         25    2    1    2    0    0 -0.65716487737E+02  0.49390560572E+02 -0.14993602666E+04  0.15068057514E+04  0.12499711627E+03 0.  0.
          2    1    1    2  501    0  0.14668516931E+02 -0.10312551836E+03 -0.95873394003E+03  0.96437586328E+03  0.00000000000E+00 0. -1.
          1    1    1    2  502    0  0.51047970806E+02  0.53734957788E+02  0.59691037586E+03  0.60149425419E+03  0.00000000000E+00 0. -1.
         22    1    3    3    0    0  0.25878345416E+02  0.19717900570E+02 -0.12800858426E+03  0.13207831771E+03  0.00000000000E+00 0.  1.
         22    1    3    3    0    0 -0.91594833152E+02  0.29672660003E+02 -0.13713516823E+04  0.13747274337E+04  0.00000000000E+00 0.  1.
</event>
<event>
 7    1  0.6444902E-006  0.9472081E+02  0.7818608E-02  0.1476970E+00
          2   -1    0    0  502    0  0.00000000000E+00  0.00000000000E+00  0.21572929903E+03  0.21572929903E+03  0.00000000000E+00 0. -1.
          1   -1    0    0  501    0 -0.00000000000E+00 -0.00000000000E+00 -0.36650236377E+03  0.36650236377E+03  0.00000000000E+00 0. -1.
         25    2    1    2    0    0  0.87306214330E+02  0.26976654953E+02  0.19145610228E+02  0.15601997779E+03  0.12500225641E+03 0.  0.
          2    1    1    2  501    0 -0.82544005203E+02 -0.47412112154E+02 -0.28952833638E+03  0.30477545626E+03  0.00000000000E+00 0. -1.
          1    1    1    2  502    0 -0.47622091270E+01  0.20435457201E+02  0.11960966142E+03  0.12143622874E+03  0.00000000000E+00 0. -1.
         22    1    3    3    0    0 -0.13392390173E+02 -0.10296425790E+02 -0.32682807655E+02  0.36790466358E+02  0.00000000000E+00 0. -1.
         22    1    3    3    0    0  0.10069860450E+03  0.37273080743E+02  0.51828417883E+02  0.11922951144E+03  0.00000000000E+00 0. -1.
</event>
<event>
 7    1  0.6444902E-006  0.7376555E+02  0.7818608E-02  0.1505037E+00
          2   -1    0    0  502    0  0.00000000000E+00  0.00000000000E+00  0.11543298349E+04  0.11543298349E+04  0.00000000000E+00 0. -1.
          1   -1    0    0  501    0 -0.00000000000E+00 -0.00000000000E+00 -0.13251500202E+04  0.13251500202E+04  0.00000000000E+00 0. -1.
         25    2    1    2    0    0 -0.87256296944E+02  0.52489550843E+01 -0.37009537632E+03  0.40029591152E+03  0.12500006527E+03 0.  0.
          2    1    1    2  501    0  0.71862132791E+02  0.10697168002E+02 -0.93844232698E+03  0.94125054932E+03  0.00000000000E+00 0. -1.
          1    1    1    2  502    0  0.15394164154E+02 -0.15946123086E+02  0.11377175180E+04  0.11379333943E+04  0.00000000000E+00 0. -1.
         22    1    3    3    0    0 -0.10223855424E+03  0.33473929754E+02 -0.19875985806E+03  0.22600598913E+03  0.00000000000E+00 0.  1.
         22    1    3    3    0    0  0.14982257295E+02 -0.28224974670E+02 -0.17133551826E+03  0.17428992239E+03  0.00000000000E+00 0.  1.
</event>
<event>
 7    1  0.6444902E-006  0.3294891E+02  0.7818608E-02  0.1589726E+00
          2   -1    0    0  502    0  0.00000000000E+00  0.00000000000E+00  0.17297827031E+03  0.17297827031E+03  0.00000000000E+00 0. -1.
          1   -1    0    0  501    0 -0.00000000000E+00 -0.00000000000E+00 -0.32397225331E+04  0.32397225331E+04  0.00000000000E+00 0. -1.
         25    2    1    2    0    0  0.13035442230E+02 -0.20931881762E+02 -0.15957305426E+04  0.16008086330E+04  0.12499699453E+03 0.  0.
          2    1    1    2  501    0 -0.27368685250E+02 -0.87580033965E+01 -0.16397315708E+04  0.16399833450E+04  0.00000000000E+00 0. -1.
          1    1    1    2  502    0  0.14333243021E+02  0.29689885158E+02  0.16871785060E+03  0.17190882539E+03  0.00000000000E+00 0. -1.
         22    1    3    3    0    0 -0.54539068847E+01 -0.51422058810E+02 -0.14447225570E+04  0.14456476888E+04  0.00000000000E+00 0. -1.
         22    1    3    3    0    0  0.18489349114E+02  0.30490177048E+02 -0.15100798555E+03  0.15516094427E+03  0.00000000000E+00 0. -1.
</event>
<event>
 7    1  0.6444902E-006  0.6685919E+02  0.7818608E-02  0.1409072E+00
          2   -1    0    0  502    0  0.00000000000E+00  0.00000000000E+00  0.63005134721E+03  0.63005134721E+03  0.00000000000E+00 0. -1.
          1   -1    0    0  501    0 -0.00000000000E+00 -0.00000000000E+00 -0.98160775630E+02  0.98160775630E+02  0.00000000000E+00 0. -1.
         25    2    1    2    0    0  0.16409462605E+01 -0.84282306361E+02  0.18111016629E+03  0.23565317375E+03  0.12500130437E+03 0.  0.
          2    1    1    2  501    0 -0.39457611837E+02  0.29525856078E+02 -0.59305303617E+02  0.77109003016E+02  0.00000000000E+00 0. -1.
          1    1    1    2  502    0  0.37816665577E+02  0.54756450283E+02  0.41008570891E+03  0.41544994607E+03  0.00000000000E+00 0. -1.
         22    1    3    3    0    0 -0.47021423543E+02  0.27416860343E-01  0.29589046575E+02  0.55556518078E+02  0.00000000000E+00 0.  1.
         22    1    3    3    0    0  0.48662369804E+02 -0.84309723221E+02  0.15152111972E+03  0.18009665567E+03  0.00000000000E+00 0.  1.
</event>
<event>
 7    1  0.6444902E-006  0.1016828E+03  0.7818608E-02  0.1415154E+00
          2   -1    0    0  502    0  0.00000000000E+00  0.00000000000E+00  0.22244767593E+04  0.22244767593E+04  0.00000000000E+00 0. -1.
          1   -1    0    0  501    0 -0.00000000000E+00 -0.00000000000E+00 -0.27060474494E+02  0.27060474494E+02  0.00000000000E+00 0. -1.
         25    2    1    2    0    0 -0.33242155516E+02 -0.69474829837E+02  0.66081643737E+03  0.67693080726E+03  0.12500064413E+03 0.  0.
          2    1    1    2  501    0  0.52519891081E+02  0.93632457406E+02  0.13416113811E+03  0.17182720104E+03  0.00000000000E+00 0. -1.
          1    1    1    2  502    0 -0.19277735565E+02 -0.24157627569E+02  0.14024387093E+04  0.14027792254E+04  0.00000000000E+00 0. -1.
         22    1    3    3    0    0  0.37679867522E+02 -0.37537429563E+02  0.43186495054E+03  0.43512775887E+03  0.00000000000E+00 0. -1.
         22    1    3    3    0    0 -0.70922023038E+02 -0.31937400274E+02  0.22895148683E+03  0.24180304839E+03  0.00000000000E+00 0. -1.
</event>
<event>
 7    1  0.6444902E-006  0.4509102E+02  0.7818608E-02  0.1544721E+00
          2   -1    0    0  502    0  0.00000000000E+00  0.00000000000E+00  0.19744780914E+04  0.19744780914E+04  0.00000000000E+00 0. -1.
          1   -1    0    0  501    0 -0.00000000000E+00 -0.00000000000E+00 -0.17551559410E+02  0.17551559410E+02  0.00000000000E+00 0. -1.
         25    2    1    2    0    0 -0.89198794437E+01 -0.24862875740E+02  0.27767047345E+03  0.30565259628E+03  0.12499956378E+03 0.  0.
          2    1    1    2  501    0 -0.27764287128E+02 -0.22563816861E+01  0.56634195182E+02  0.63114015575E+02  0.00000000000E+00 0. -1.
          1    1    1    2  502    0  0.36684166572E+02  0.27119257426E+02  0.16226218634E+04  0.16232630390E+04  0.00000000000E+00 0. -1.
         22    1    3    3    0    0 -0.41100676813E-01 -0.51347102912E+02  0.36811256131E+02  0.63179072838E+02  0.00000000000E+00 0. -1.
         22    1    3    3    0    0 -0.88787787669E+01  0.26484227172E+02  0.24085921732E+03  0.24247352344E+03  0.00000000000E+00 0. -1.
</event>
<event>
 7    1  0.6444902E-006  0.8867939E+02  0.7818608E-02  0.1435363E+00
          2   -1    0    0  502    0  0.00000000000E+00  0.00000000000E+00  0.25118729186E+03  0.25118729186E+03  0.00000000000E+00 0. -1.
          1   -1    0    0  501    0 -0.00000000000E+00 -0.00000000000E+00 -0.43606207393E+03  0.43606207393E+03  0.00000000000E+00 0. -1.
         25    2    1    2    0    0 -0.88416083068E+02  0.51567064333E+02  0.78028639500E+02  0.17941591597E+03  0.12500014581E+03 0.  0.
          2    1    1    2  501    0  0.28797737822E+02  0.96536457060E+01 -0.36976263468E+03  0.37100796296E+03  0.00000000000E+00 0. -1.
          1    1    1    2  502    0  0.59618345246E+02 -0.61220710039E+02  0.10685921311E+03  0.13682548686E+03  0.00000000000E+00 0. -1.
         22    1    3    3    0    0 -0.67959482606E+02 -0.45714446602E+01 -0.14149161581E+02  0.69567148539E+02  0.00000000000E+00 0. -1.
         22    1    3    3    0    0 -0.20456600461E+02  0.56138508993E+02  0.92177801080E+02  0.10984876743E+03  0.00000000000E+00 0. -1.
</event>
<event>
 7    1  0.6444902E-006  0.1329845E+03  0.7818608E-02  0.1283863E+00
          2   -1    0    0  502    0  0.00000000000E+00  0.00000000000E+00  0.47610472165E+03  0.47610472165E+03  0.00000000000E+00 0. -1.
          1   -1    0    0  501    0 -0.00000000000E+00 -0.00000000000E+00 -0.53554816962E+03  0.53554816962E+03  0.00000000000E+00 0. -1.
         25    2    1    2    0    0 -0.69296210738E+01  0.86724185124E+02  0.98316924911E+02  0.18127884718E+03  0.12500679492E+03 0.  0.
          2    1    1    2  501    0 -0.54607802356E+02 -0.12542543908E+03 -0.48047672625E+03  0.49957125349E+03  0.00000000000E+00 0. -1.
          1    1    1    2  502    0  0.61537423429E+02  0.38701253954E+02  0.32271635337E+03  0.33080279060E+03  0.00000000000E+00 0. -1.
         22    1    3    3    0    0 -0.51424338913E+01  0.10462504185E+03  0.27623558342E+02  0.10833238197E+03  0.00000000000E+00 0. -1.
         22    1    3    3    0    0 -0.17871871825E+01 -0.17900856722E+02  0.70693366569E+02  0.72946465207E+02  0.00000000000E+00 0. -1.
</event>
<event>
 7    1  0.6444902E-006  0.4889762E+02  0.7818608E-02  0.1462678E+00
          2   -1    0    0  502    0  0.00000000000E+00  0.00000000000E+00  0.32102291025E+03  0.32102291025E+03  0.00000000000E+00 0. -1.
          1   -1    0    0  501    0 -0.00000000000E+00 -0.00000000000E+00 -0.20070853292E+04  0.20070853292E+04  0.00000000000E+00 0. -1.
         25    2    1    2    0    0  0.21643412578E+02  0.29169884386E+02 -0.70948718203E+03  0.72132950091E+03  0.12499947180E+03 0.  0.
          2    1    1    2  501    0  0.26837395501E+02 -0.36157764677E+02 -0.12893780619E+04  0.12901641044E+04  0.00000000000E+00 0. -1.
          1    1    1    2  502    0 -0.48480808079E+02  0.69878802912E+01  0.31280282499E+03  0.31661463413E+03  0.00000000000E+00 0. -1.
         22    1    3    3    0    0 -0.85744238421E+01  0.50182814418E+02 -0.11573244509E+03  0.12643509977E+03  0.00000000000E+00 0. -1.
         22    1    3    3    0    0  0.30217836420E+02 -0.21012930032E+02 -0.59375473694E+03  0.59489440114E+03  0.00000000000E+00 0. -1.
</event>
<event>
 7    1  0.6444902E-006  0.1369180E+03  0.7818608E-02  0.1281107E+00
          2   -1    0    0  502    0  0.00000000000E+00  0.00000000000E+00  0.15856819016E+03  0.15856819016E+03  0.00000000000E+00 0. -1.
          1   -1    0    0  501    0 -0.00000000000E+00 -0.00000000000E+00 -0.10231820805E+04  0.10231820805E+04  0.00000000000E+00 0. -1.
         25    2    1    2    0    0  0.11244171510E+02 -0.10256988032E+03 -0.22496041844E+03  0.27727064679E+03  0.12499923985E+03 0.  0.
          2    1    1    2  501    0 -0.65601722971E+02 -0.30807403641E+02 -0.73057007290E+03  0.73415619156E+03  0.00000000000E+00 0. -1.
          1    1    1    2  502    0  0.54357551461E+02  0.13337728396E+03  0.90916600975E+02  0.17032343236E+03  0.00000000000E+00 0. -1.
         22    1    3    3    0    0 -0.41577691981E+02 -0.10048755002E+03 -0.14121033536E+03  0.17823246335E+03  0.00000000000E+00 0. -1.
         22    1    3    3    0    0  0.52821863491E+02 -0.20823302964E+01 -0.83750083081E+02  0.99038183435E+02  0.00000000000E+00 0. -1.
</event>
<event>
 7    1  0.6444902E-006  0.1001029E+03  0.7818608E-02  0.1356024E+00
          2   -1    0    0  502    0  0.00000000000E+00  0.00000000000E+00  0.24539469240E+04  0.24539469240E+04  0.00000000000E+00 0. -1.
          1   -1    0    0  501    0 -0.00000000000E+00 -0.00000000000E+00 -0.39065624136E+03  0.39065624136E+03  0.00000000000E+00 0. -1.
         25    2    1    2    0    0 -0.65566611624E+02 -0.73254982382E+02 -0.80184125935E+02  0.17810138558E+03  0.12500134595E+03 0.  0.
          2    1    1    2  501    0  0.22609285156E+02  0.10010317654E+03 -0.25116713789E+03  0.27132408091E+03  0.00000000000E+00 0. -1.
          1    1    1    2  502    0  0.42957326469E+02 -0.26848194155E+02  0.23946419465E+04  0.23951776989E+04  0.00000000000E+00 0. -1.
         22    1    3    3    0    0 -0.37349306618E+02 -0.10679582406E+03 -0.70197457790E+02  0.13314654265E+03  0.00000000000E+00 0. -1.
         22    1    3    3    0    0 -0.28217305006E+02  0.33540841673E+02 -0.99866681453E+01  0.44954842927E+02  0.00000000000E+00 0. -1.
</event>
<event>
 7    1  0.6444902E-006  0.1357467E+03  0.7818608E-02  0.1268765E+00
          2   -1    0    0  502    0  0.00000000000E+00  0.00000000000E+00  0.80177679393E+03  0.80177679393E+03  0.00000000000E+00 0. -1.
          1   -1    0    0  501    0 -0.00000000000E+00 -0.00000000000E+00 -0.21423002176E+03  0.21423002176E+03  0.00000000000E+00 0. -1.
         25    2    1    2    0    0 -0.57973726817E+02  0.23942401074E+02  0.53902561061E+03  0.55688012766E+03  0.12503070071E+03 0.  0.
          2    1    1    2  501    0  0.10465554675E+03 -0.91709552240E+02 -0.17346358468E+03  0.22238039628E+03  0.00000000000E+00 0. -1.
          1    1    1    2  502    0 -0.46681819936E+02  0.67767151166E+02  0.22198474625E+03  0.23674629175E+03  0.00000000000E+00 0. -1.
         22    1    3    3    0    0 -0.56570082019E+02  0.65625911258E+02  0.24411360415E+03  0.25903356180E+03  0.00000000000E+00 0.  1.
         22    1    3    3    0    0 -0.14036447988E+01 -0.41683510185E+02  0.29491200646E+03  0.29784656586E+03  0.00000000000E+00 0.  1.
</event>
<event>
 7    1  0.6444902E-006  0.8641439E+02  0.7818608E-02  0.1393739E+00
          2   -1    0    0  502    0  0.00000000000E+00  0.00000000000E+00  0.10021832898E+04  0.10021832898E+04  0.00000000000E+00 0. -1.
          1   -1    0    0  501    0 -0.00000000000E+00 -0.00000000000E+00 -0.52151535629E+03  0.52151535629E+03  0.00000000000E+00 0. -1.
         25    2    1    2    0    0  0.72756986077E+02 -0.92722559440E+02 -0.30364607123E+03  0.34887979610E+03  0.12500049400E+03 0.  0.
          2    1    1    2  501    0 -0.53611492938E+02  0.54174550025E+02 -0.18731991557E+03  0.20223210629E+03  0.00000000000E+00 0. -1.
          1    1    1    2  502    0 -0.19145493139E+02  0.38548009416E+02  0.97163392028E+03  0.97258674368E+03  0.00000000000E+00 0. -1.
         22    1    3    3    0    0  0.54324961496E+02 -0.69150306020E+02 -0.67529506846E+02  0.11087470658E+03  0.00000000000E+00 0.  1.
         22    1    3    3    0    0  0.18432024582E+02 -0.23572253421E+02 -0.23611656439E+03  0.23800508952E+03  0.00000000000E+00 0.  1.
</event>
<event>
 7    1  0.6444902E-006  0.1283917E+03  0.7818608E-02  0.1280834E+00
          2   -1    0    0  502    0  0.00000000000E+00  0.00000000000E+00  0.69612562822E+03  0.69612562822E+03  0.00000000000E+00 0. -1.
          1   -1    0    0  501    0 -0.00000000000E+00 -0.00000000000E+00 -0.86404705010E+03  0.86404705010E+03  0.00000000000E+00 0. -1.
         25    2    1    2    0    0 -0.11685969364E+03  0.35468463578E+02 -0.28099009717E+03  0.33089978013E+03  0.12500011951E+03 0.  0.
          2    1    1    2  501    0  0.38700440752E+02  0.67133552910E+02 -0.54916016356E+03  0.55460032752E+03  0.00000000000E+00 0. -1.
          1    1    1    2  502    0  0.78159252885E+02 -0.10260201649E+03  0.66222883886E+03  0.67467257067E+03  0.00000000000E+00 0. -1.
         22    1    3    3    0    0 -0.75214467319E+02 -0.35598208045E+02 -0.19403202693E+03  0.21112289308E+03  0.00000000000E+00 0.  1.
         22    1    3    3    0    0 -0.41645226318E+02  0.71066671623E+02 -0.86958070237E+02  0.11977688704E+03  0.00000000000E+00 0.  1.
</event>
<event>
 7    1  0.6444902E-006  0.6796409E+02  0.7818608E-02  0.1516549E+00
          2   -1    0    0  502    0  0.00000000000E+00  0.00000000000E+00  0.14046697181E+04  0.14046697181E+04  0.00000000000E+00 0. -1.
          1   -1    0    0  501    0 -0.00000000000E+00 -0.00000000000E+00 -0.10644680202E+04  0.10644680202E+04  0.00000000000E+00 0. -1.
         25    2    1    2    0    0  0.31525875853E+00 -0.60436034974E+02  0.25332680299E+03  0.28888135187E+03  0.12500141053E+03 0.  0.
          2    1    1    2  501    0 -0.21749255925E+02 -0.47053177339E+01 -0.10455350773E+04  0.10457718527E+04  0.00000000000E+00 0. -1.
          1    1    1    2  502    0  0.21433997166E+02  0.65141352707E+02  0.11324099722E+04  0.11344845337E+04  0.00000000000E+00 0. -1.
         22    1    3    3    0    0  0.28658916686E+02  0.14810191183E+02  0.11846425592E+02  0.34365870682E+02  0.00000000000E+00 0.  1.
         22    1    3    3    0    0 -0.28343657927E+02 -0.75246226156E+02  0.24148037740E+03  0.25451548119E+03  0.00000000000E+00 0.  1.
</event>
<event>
 7    1  0.6444902E-006  0.3058822E+02  0.7818608E-02  0.1601011E+00
          2   -1    0    0  502    0  0.00000000000E+00  0.00000000000E+00  0.36199770709E+03  0.36199770709E+03  0.00000000000E+00 0. -1.
          1   -1    0    0  501    0 -0.00000000000E+00 -0.00000000000E+00 -0.37065530138E+03  0.37065530138E+03  0.00000000000E+00 0. -1.
         25    2    1    2    0    0 -0.46568798240E+02 -0.30576930179E+02  0.21581475189E+03  0.25554707981E+03  0.12499880493E+03 0.  0.
          2    1    1    2  501    0  0.18322986147E+02  0.24415747655E+02 -0.34845892543E+03  0.34979348660E+03  0.00000000000E+00 0. -1.
          1    1    1    2  502    0  0.28245812093E+02  0.61611825240E+01  0.12398657925E+03  0.12731244206E+03  0.00000000000E+00 0. -1.
         22    1    3    3    0    0 -0.41030992814E+02 -0.76124011767E+02  0.10786257794E+03  0.13824884541E+03  0.00000000000E+00 0.  1.
         22    1    3    3    0    0 -0.55378054258E+01  0.45547081587E+02  0.10795217396E+03  0.11729823439E+03  0.00000000000E+00 0.  1.
</event>
<event>
 7    1  0.6444902E-006  0.1815075E+03  0.7818608E-02  0.1231528E+00
          2   -1    0    0  502    0  0.00000000000E+00  0.00000000000E+00  0.15436045403E+04  0.15436045403E+04  0.00000000000E+00 0. -1.
          1   -1    0    0  501    0 -0.00000000000E+00 -0.00000000000E+00 -0.12198697494E+04  0.12198697494E+04  0.00000000000E+00 0. -1.
         25    2    1    2    0    0 -0.11785551929E+03  0.17302876737E+03 -0.21148310771E+03  0.32276799381E+03  0.12500078084E+03 0.  0.
          2    1    1    2  501    0  0.15468720247E+03 -0.91708787262E+02 -0.94289984418E+03  0.95989517575E+03  0.00000000000E+00 0. -1.
          1    1    1    2  502    0 -0.36831683186E+02 -0.81319980111E+02  0.14781177428E+04  0.14808111201E+04  0.00000000000E+00 0. -1.
         22    1    3    3    0    0 -0.79615871840E+02  0.85402417148E+02 -0.34727664784E+02  0.12181244027E+03  0.00000000000E+00 0. -1.
         22    1    3    3    0    0 -0.38239647448E+02  0.87626350226E+02 -0.17675544293E+03  0.20095555353E+03  0.00000000000E+00 0. -1.
</event>
<event>
 7    1  0.6444902E-006  0.5804384E+02  0.7818608E-02  0.1427930E+00
          2   -1    0    0  502    0  0.00000000000E+00  0.00000000000E+00  0.12737434528E+04  0.12737434528E+04  0.00000000000E+00 0. -1.
          1   -1    0    0  501    0 -0.00000000000E+00 -0.00000000000E+00 -0.48971240757E+03  0.48971240757E+03  0.00000000000E+00 0. -1.
         25    2    1    2    0    0  0.54902164743E+02  0.66479401375E+02  0.11047595284E+03  0.18779335086E+03  0.12501059144E+03 0.  0.
          2    1    1    2  501    0 -0.66472499886E+01 -0.57479671422E+02 -0.44865926494E+03  0.45237510384E+03  0.00000000000E+00 0. -1.
          1    1    1    2  502    0 -0.48254914754E+02 -0.89997299529E+01  0.11222143574E+04  0.11232874057E+04  0.00000000000E+00 0. -1.
         22    1    3    3    0    0  0.89299424572E+02  0.67570330889E+02  0.10389400030E+03  0.15275503312E+03  0.00000000000E+00 0.  1.
         22    1    3    3    0    0 -0.34397259829E+02 -0.10909295136E+01  0.65819525371E+01  0.35038317742E+02  0.00000000000E+00 0.  1.
</event>
<event>
 7    1  0.6444902E-006  0.6520794E+02  0.7818608E-02  0.1451424E+00
          2   -1    0    0  502    0  0.00000000000E+00  0.00000000000E+00  0.14150750189E+04  0.14150750189E+04  0.00000000000E+00 0. -1.
          1   -1    0    0  501    0 -0.00000000000E+00 -0.00000000000E+00 -0.16471524491E+03  0.16471524491E+03  0.00000000000E+00 0. -1.
         25    2    1    2    0    0  0.25827315566E+02  0.13340037696E+02  0.16361166645E+02  0.12937526225E+03  0.12500105548E+03 0.  0.
          2    1    1    2  501    0  0.32469020799E+02  0.17010285883E+02 -0.10427426685E+03  0.11052922629E+03  0.00000000000E+00 0. -1.
          1    1    1    2  502    0 -0.58296336366E+02 -0.30350323579E+02  0.13382728742E+04  0.13398857753E+04  0.00000000000E+00 0. -1.
         22    1    3    3    0    0  0.52739090622E+02  0.38898958977E+02  0.47492785459E+02  0.80932721193E+02  0.00000000000E+00 0.  1.
         22    1    3    3    0    0 -0.26911775055E+02 -0.25558921281E+02 -0.31131618814E+02  0.48442541053E+02  0.00000000000E+00 0.  1.
</event>
<event>
 7    1  0.6444902E-006  0.1121833E+03  0.7818608E-02  0.1389979E+00
          2   -1    0    0  502    0  0.00000000000E+00  0.00000000000E+00  0.15272140757E+04  0.15272140757E+04  0.00000000000E+00 0. -1.
          1   -1    0    0  501    0 -0.00000000000E+00 -0.00000000000E+00 -0.89976201627E+03  0.89976201627E+03  0.00000000000E+00 0. -1.
         25    2    1    2    0    0  0.77167483608E+02 -0.80152448030E+02  0.32505074477E+03  0.36560011289E+03  0.12500488158E+03 0.  0.
          2    1    1    2  501    0  0.21994327365E+02  0.26147781562E+02 -0.87645683081E+03  0.87712258732E+03  0.00000000000E+00 0. -1.
          1    1    1    2  502    0 -0.99161810973E+02  0.54004666468E+02  0.11788581455E+04  0.11842533918E+04  0.00000000000E+00 0. -1.
         22    1    3    3    0    0  0.74562881115E+02 -0.15593171153E+02  0.27055756471E+03  0.28107679742E+03  0.00000000000E+00 0. -1.
         22    1    3    3    0    0  0.26046024932E+01 -0.64559276877E+02  0.54493180066E+02  0.84523315474E+02  0.00000000000E+00 0. -1.
</event>
<event>
 7    1  0.6444902E-006  0.4773710E+02  0.7818608E-02  0.1504430E+00
          2   -1    0    0  502    0  0.00000000000E+00  0.00000000000E+00  0.56836892605E+03  0.56836892605E+03  0.00000000000E+00 0. -1.
          1   -1    0    0  501    0 -0.00000000000E+00 -0.00000000000E+00 -0.38983096211E+03  0.38983096211E+03  0.00000000000E+00 0. -1.
         25    2    1    2    0    0  0.72001362665E+02  0.14434501842E+02  0.19621743832E+03  0.24396464843E+03  0.12499966206E+03 0.  0.
          2    1    1    2  501    0 -0.26292718356E+02 -0.22169237219E+02 -0.36359965417E+03  0.36522252208E+03  0.00000000000E+00 0. -1.
          1    1    1    2  502    0 -0.45708644309E+02  0.77347353767E+01  0.34592017979E+03  0.34901271765E+03  0.00000000000E+00 0. -1.
         22    1    3    3    0    0  0.10222419003E+03  0.17230114468E+02  0.18410559413E+03  0.21128542700E+03  0.00000000000E+00 0.  1.
         22    1    3    3    0    0 -0.30222827365E+02 -0.27956126259E+01  0.12111844192E+02  0.32679221435E+02  0.00000000000E+00 0.  1.
</event>
<event>
 7    1  0.6444902E-006  0.8308787E+02  0.7818608E-02  0.1334478E+00
          2   -1    0    0  502    0  0.00000000000E+00  0.00000000000E+00  0.10067304070E+04  0.10067304070E+04  0.00000000000E+00 0. -1.
          1   -1    0    0  501    0 -0.00000000000E+00 -0.00000000000E+00 -0.16130032103E+03  0.16130032103E+03  0.00000000000E+00 0. -1.
         25    2    1    2    0    0  0.47524591090E+02  0.14671867846E+03  0.99676597564E+02  0.22213669698E+03  0.12499732267E+03 0.  0.
          2    1    1    2  501    0 -0.21149608494E+02 -0.70334737217E+02 -0.84362537053E+02  0.11185400689E+03  0.00000000000E+00 0. -1.
          1    1    1    2  502    0 -0.26374982595E+02 -0.76383941240E+02  0.83011602542E+03  0.83404002413E+03  0.00000000000E+00 0. -1.
         22    1    3    3    0    0  0.88779029031E+02  0.11737995564E+03  0.82259218503E+02  0.16860115364E+03  0.00000000000E+00 0.  1.
         22    1    3    3    0    0 -0.41254437942E+02  0.29338722819E+02  0.17417379061E+02  0.53535543333E+02  0.00000000000E+00 0.  1.
</event>
<event>
 7    1  0.6444902E-006  0.6993325E+02  0.7818608E-02  0.1487967E+00
          2   -1    0    0  502    0  0.00000000000E+00  0.00000000000E+00  0.14994177474E+04  0.14994177474E+04  0.00000000000E+00 0. -1.
          1   -1    0    0  501    0 -0.00000000000E+00 -0.00000000000E+00 -0.34451877908E+02  0.34451877908E+02  0.00000000000E+00 0. -1.
         25    2    1    2    0    0  0.40164107057E+02 -0.73083401614E+02  0.76568264003E+03  0.78028585057E+03  0.12498705638E+03 0.  0.
          2    1    1    2  501    0 -0.14388917519E+02  0.67838791367E+02  0.17803798649E+02  0.71596911999E+02  0.00000000000E+00 0. -1.
          1    1    1    2  502    0 -0.25775189537E+02  0.52446102477E+01  0.68147943081E+03  0.68198686274E+03  0.00000000000E+00 0. -1.
         22    1    3    3    0    0  0.42303798498E+02 -0.78338569322E+02  0.26471019995E+03  0.27928127895E+03  0.00000000000E+00 0.  1.
         22    1    3    3    0    0 -0.21396914412E+01  0.52551677078E+01  0.50097244008E+03  0.50100457162E+03  0.00000000000E+00 0.  1.
</event>
<event>
 7    1  0.6444902E-006  0.1606801E+03  0.7818608E-02  0.1242787E+00
          2   -1    0    0  502    0  0.00000000000E+00  0.00000000000E+00  0.13295098960E+04  0.13295098960E+04  0.00000000000E+00 0. -1.
          1   -1    0    0  501    0 -0.00000000000E+00 -0.00000000000E+00 -0.79280349367E+03  0.79280349367E+03  0.00000000000E+00 0. -1.
         25    2    1    2    0    0 -0.18974918076E+02  0.23667373022E+03 -0.75907984095E+01  0.26844412271E+03  0.12502049714E+03 0.  0.
          2    1    1    2  501    0  0.41933105343E+02 -0.14975450256E+03 -0.64383001383E+03  0.66234574285E+03  0.00000000000E+00 0. -1.
          1    1    1    2  502    0 -0.22958187267E+02 -0.86919227665E+02  0.11881272146E+04  0.11915235241E+04  0.00000000000E+00 0. -1.
         22    1    3    3    0    0  0.29438332840E+02  0.19193871818E+02 -0.27683003621E+02  0.44736661087E+02  0.00000000000E+00 0. -1.
         22    1    3    3    0    0 -0.48413250915E+02  0.21747985841E+03  0.20092205212E+02  0.22370746163E+03  0.00000000000E+00 0. -1.
</event>
<event>
 7    1  0.6444902E-006  0.1370782E+03  0.7818608E-02  0.1268394E+00
          2   -1    0    0  502    0  0.00000000000E+00  0.00000000000E+00  0.23876557777E+04  0.23876557777E+04  0.00000000000E+00 0. -1.
          1   -1    0    0  501    0 -0.00000000000E+00 -0.00000000000E+00 -0.67743086602E+03  0.67743086602E+03  0.00000000000E+00 0. -1.
         25    2    1    2    0    0  0.10447076658E+03 -0.18270526321E+03  0.41867041534E+03  0.48497791907E+03  0.12499324395E+03 0.  0.
          2    1    1    2  501    0 -0.89594180937E+02  0.10228620509E+03 -0.63622590119E+03  0.65059433010E+03  0.00000000000E+00 0. -1.
          1    1    1    2  502    0 -0.14876585646E+02  0.80419058114E+02  0.19277803976E+04  0.19295143946E+04  0.00000000000E+00 0. -1.
         22    1    3    3    0    0  0.34415769725E+02  0.12913096670E+02  0.70903155110E+02  0.79865203161E+02  0.00000000000E+00 0. -1.
         22    1    3    3    0    0  0.70054996858E+02 -0.19561835988E+03  0.34776726023E+03  0.40511271591E+03  0.00000000000E+00 0. -1.
</event>
<event>
 7    1  0.6444902E-006  0.1109034E+03  0.7818608E-02  0.1320770E+00
          2   -1    0    0  502    0  0.00000000000E+00  0.00000000000E+00  0.26825851432E+03  0.26825851432E+03  0.00000000000E+00 0. -1.
          1   -1    0    0  501    0 -0.00000000000E+00 -0.00000000000E+00 -0.68106028103E+03  0.68106028103E+03  0.00000000000E+00 0. -1.
         25    2    1    2    0    0  0.41580812001E+02  0.91986664803E+02  0.18484028557E+02  0.16173579328E+03  0.12500518825E+03 0.  0.
          2    1    1    2  501    0 -0.57293296227E+02  0.23967965398E+02 -0.58840750558E+03  0.59167590604E+03  0.00000000000E+00 0. -1.
          1    1    1    2  502    0  0.15712484227E+02 -0.11595463020E+03  0.15712171031E+03  0.19590709603E+03  0.00000000000E+00 0. -1.
         22    1    3    3    0    0 -0.20248399289E+02  0.94541170374E+02  0.23966755613E+02  0.99611424767E+02  0.00000000000E+00 0. -1.
         22    1    3    3    0    0  0.61829211290E+02 -0.25545055715E+01 -0.54827270561E+01  0.62124368515E+02  0.00000000000E+00 0. -1.
</event>
<event>
 7    1  0.6444902E-006  0.9197210E+02  0.7818608E-02  0.1411510E+00
          2   -1    0    0  502    0  0.00000000000E+00  0.00000000000E+00  0.28374947590E+03  0.28374947590E+03  0.00000000000E+00 0. -1.
          1   -1    0    0  501    0 -0.00000000000E+00 -0.00000000000E+00 -0.20194118954E+03  0.20194118954E+03  0.00000000000E+00 0. -1.
         25    2    1    2    0    0  0.54948867617E+02  0.67601075110E+02 -0.41979799813E+02  0.15803924625E+03  0.12499926541E+03 0.  0.
          2    1    1    2  501    0 -0.83358663793E+02 -0.46902123554E+02 -0.77631709587E+02  0.12318749270E+03  0.00000000000E+00 0. -1.
          1    1    1    2  502    0  0.28409796176E+02 -0.20698951556E+02  0.20141979576E+03  0.20446392649E+03  0.00000000000E+00 0. -1.
         22    1    3    3    0    0  0.54183966151E+02  0.35388332418E+02  0.35722349773E+02  0.73921056084E+02  0.00000000000E+00 0.  1.
         22    1    3    3    0    0  0.76490146582E+00  0.32212742692E+02 -0.77702149585E+02  0.84118190162E+02  0.00000000000E+00 0.  1.
</event>
<event>
 7    1  0.6444902E-006  0.1094670E+03  0.7818608E-02  0.1398812E+00
          2   -1    0    0  502    0  0.00000000000E+00  0.00000000000E+00  0.50529646744E+03  0.50529646744E+03  0.00000000000E+00 0. -1.
          1   -1    0    0  501    0 -0.00000000000E+00 -0.00000000000E+00 -0.83090999578E+02  0.83090999578E+02  0.00000000000E+00 0. -1.
         25    2    1    2    0    0 -0.59481502849E+01 -0.82440956869E+02  0.30937869478E+03  0.34376178023E+03  0.12500037161E+03 0.  0.
          2    1    1    2  501    0 -0.36568243268E+01  0.11362718818E+03 -0.13193564506E+02  0.11444902971E+03  0.00000000000E+00 0. -1.
          1    1    1    2  502    0  0.96049746117E+01 -0.31186231312E+02  0.12602033758E+03  0.13017665707E+03  0.00000000000E+00 0. -1.
         22    1    3    3    0    0  0.47581628062E+02  0.43731257646E+01  0.10411498304E+03  0.11455594813E+03  0.00000000000E+00 0.  1.
         22    1    3    3    0    0 -0.53529778347E+02 -0.86814082633E+02  0.20526371174E+03  0.22920583210E+03  0.00000000000E+00 0.  1.
</event>
<event>
 7    1  0.6444902E-006  0.1194482E+03  0.7818608E-02  0.1386243E+00
          2   -1    0    0  502    0  0.00000000000E+00  0.00000000000E+00  0.23970444690E+03  0.23970444690E+03  0.00000000000E+00 0. -1.
          1   -1    0    0  501    0 -0.00000000000E+00 -0.00000000000E+00 -0.13465172240E+04  0.13465172240E+04  0.00000000000E+00 0. -1.
         25    2    1    2    0    0  0.33565458336E+02 -0.92226428021E+02 -0.80536221714E+02  0.17816854400E+03  0.12500237216E+03 0.  0.
          2    1    1    2  501    0 -0.15194936053E+02 -0.29373097776E+02 -0.11971054707E+04  0.11975621791E+04  0.00000000000E+00 0. -1.
          1    1    1    2  502    0 -0.18370522284E+02  0.12159952580E+03  0.17082891533E+03  0.21049094773E+03  0.00000000000E+00 0. -1.
         22    1    3    3    0    0 -0.32451676531E+01 -0.10292059791E+03 -0.17581657296E+02  0.10446193211E+03  0.00000000000E+00 0. -1.
         22    1    3    3    0    0  0.36810625989E+02  0.10694169887E+02 -0.62954564418E+02  0.73706611891E+02  0.00000000000E+00 0. -1.
</event>
<event>
 7    1  0.6444902E-006  0.6122555E+02  0.7818608E-02  0.1510396E+00
          2   -1    0    0  502    0  0.00000000000E+00  0.00000000000E+00  0.84768540729E+03  0.84768540729E+03  0.00000000000E+00 0. -1.
          1   -1    0    0  501    0 -0.00000000000E+00 -0.00000000000E+00 -0.27833673259E+03  0.27833673259E+03  0.00000000000E+00 0. -1.
         25    2    1    2    0    0  0.39907256347E+02  0.76538577826E+02  0.13551930563E+03  0.20357187101E+03  0.12500112585E+03 0.  0.
          2    1    1    2  501    0 -0.26356302365E+02 -0.54644395237E+02 -0.24029449741E+03  0.24783484439E+03  0.00000000000E+00 0. -1.
          1    1    1    2  502    0 -0.13550953982E+02 -0.21894182589E+02  0.67412386648E+03  0.67461542448E+03  0.00000000000E+00 0. -1.
         22    1    3    3    0    0 -0.42255687304E+02  0.90467163085E+01  0.56319837783E+02  0.70988099802E+02  0.00000000000E+00 0. -1.
         22    1    3    3    0    0  0.82162943651E+02  0.67491861518E+02  0.79199467850E+02  0.13258377121E+03  0.00000000000E+00 0. -1.
</event>
<event>
 7    1  0.6444902E-006  0.1023926E+03  0.7818608E-02  0.1317891E+00
          2   -1    0    0  502    0  0.00000000000E+00  0.00000000000E+00  0.15756595507E+04  0.15756595507E+04  0.00000000000E+00 0. -1.
          1   -1    0    0  501    0 -0.00000000000E+00 -0.00000000000E+00 -0.21243569394E+03  0.21243569394E+03  0.00000000000E+00 0. -1.
         25    2    1    2    0    0 -0.13490474367E+03  0.10038325351E+03  0.27930967353E+03  0.34916035792E+03  0.12499189721E+03 0.  0.
          2    1    1    2  501    0  0.76567510351E+02 -0.63496013486E+02 -0.16254538167E+03  0.19056581140E+03  0.00000000000E+00 0. -1.
          1    1    1    2  502    0  0.58337233314E+02 -0.36887240022E+02  0.12464595649E+04  0.12483690753E+04  0.00000000000E+00 0. -1.
         22    1    3    3    0    0 -0.80873288238E+02 -0.14565452402E+02  0.10021251927E+03  0.12959625832E+03  0.00000000000E+00 0.  1.
         22    1    3    3    0    0 -0.54031455427E+02  0.11494870591E+03  0.17909715427E+03  0.21956409960E+03  0.00000000000E+00 0.  1.
</event>
<event>
 7    1  0.6444902E-006  0.7351997E+02  0.7818608E-02  0.1406719E+00
          2   -1    0    0  502    0  0.00000000000E+00  0.00000000000E+00  0.26310995470E+03  0.26310995470E+03  0.00000000000E+00 0. -1.
          1   -1    0    0  501    0 -0.00000000000E+00 -0.00000000000E+00 -0.86760349016E+02  0.86760349016E+02  0.00000000000E+00 0. -1.
         25    2    1    2    0    0 -0.65638542742E+02 -0.10223102877E+01  0.25296561794E+02  0.14343421575E+03  0.12499597913E+03 0.  0.
          2    1    1    2  501    0  0.31619912524E+01  0.45540261225E+02  0.11324868366E+02  0.47033671179E+02  0.00000000000E+00 0. -1.
          1    1    1    2  502    0  0.62476551490E+02 -0.44517950937E+02  0.13972817552E+03  0.15940241679E+03  0.00000000000E+00 0. -1.
         22    1    3    3    0    0 -0.97801645407E+02  0.20229370310E+02  0.30754291971E+02  0.10449983609E+03  0.00000000000E+00 0. -1.
         22    1    3    3    0    0  0.32163102665E+02 -0.21251680597E+02 -0.54577301770E+01  0.38934379665E+02  0.00000000000E+00 0. -1.
</event>
<event>
 7    1  0.6444902E-006  0.6550749E+02  0.7818608E-02  0.1443882E+00
          2   -1    0    0  502    0  0.00000000000E+00  0.00000000000E+00  0.76738722701E+03  0.76738722701E+03  0.00000000000E+00 0. -1.
          1   -1    0    0  501    0 -0.00000000000E+00 -0.00000000000E+00 -0.22931598132E+03  0.22931598132E+03  0.00000000000E+00 0. -1.
         25    2    1    2    0    0 -0.24973095506E+02  0.64701575720E+02  0.24946726324E+03  0.28752294078E+03  0.12500230657E+03 0.  0.
          2    1    1    2  501    0 -0.28649078699E+02 -0.25838071839E+02 -0.20629430875E+03  0.20987071613E+03  0.00000000000E+00 0. -1.
          1    1    1    2  502    0  0.53622174205E+02 -0.38863503881E+02  0.49489829120E+03  0.49930955141E+03  0.00000000000E+00 0. -1.
         22    1    3    3    0    0  0.29447627194E+02  0.63295508829E+01  0.52209866096E+01  0.30569341879E+02  0.00000000000E+00 0. -1.
         22    1    3    3    0    0 -0.54420722700E+02  0.58372024837E+02  0.24424627663E+03  0.25695359891E+03  0.00000000000E+00 0. -1.
</event>
<event>
 7    1  0.6444902E-006  0.3620336E+02  0.7818608E-02  0.1594894E+00
          2   -1    0    0  502    0  0.00000000000E+00  0.00000000000E+00  0.79513382059E+03  0.79513382059E+03  0.00000000000E+00 0. -1.
          1   -1    0    0  501    0 -0.00000000000E+00 -0.00000000000E+00 -0.24683046532E+04  0.24683046532E+04  0.00000000000E+00 0. -1.
         25    2    1    2    0    0 -0.11818068568E+00 -0.25422199208E+02 -0.16847394663E+03  0.21131811203E+03  0.12500228638E+03 0.  0.
          2    1    1    2  501    0 -0.25215732114E+02  0.26146760021E+02 -0.22780562414E+04  0.22783458309E+04  0.00000000000E+00 0. -1.
          1    1    1    2  502    0  0.25333912800E+02 -0.72456081297E+00  0.77335935538E+03  0.77377453090E+03  0.00000000000E+00 0. -1.
         22    1    3    3    0    0  0.35381111992E+00  0.10574932911E+02 -0.17449701648E+03  0.17481751385E+03  0.00000000000E+00 0.  1.
         22    1    3    3    0    0 -0.47199180559E+00 -0.35997132119E+02  0.60230698533E+01  0.36500598180E+02  0.00000000000E+00 0.  1.
</event>
<event>
 7    1  0.1114661E-005  0.6697617E+02  0.7818608E-02  0.1390939E+00
          2   -1    0    0  502    0  0.00000000000E+00  0.00000000000E+00  0.10582679121E+04  0.10582679121E+04  0.00000000000E+00 0. -1.
          1   -1    0    0  501    0 -0.00000000000E+00 -0.00000000000E+00 -0.14909374903E+04  0.14909374903E+04  0.00000000000E+00 0. -1.
         25    2    1    2    0    0  0.84587928463E+02  0.35047865487E+02 -0.23546113631E+03  0.28186344683E+03  0.12498634097E+03 0.  0.
          2    1    1    2  501    0 -0.51782724968E+02  0.23319537723E+02 -0.12305368441E+04  0.12318466528E+04  0.00000000000E+00 0. -1.
          1    1    1    2  502    0 -0.32805203495E+02 -0.58367403210E+02  0.10333284022E+04  0.10354953027E+04  0.00000000000E+00 0. -1.
         22    1    3    3    0    0  0.10003060357E+03 -0.87408494294E+01 -0.11447234209E+03  0.15227094668E+03  0.00000000000E+00 0. -1.
         22    1    3    3    0    0 -0.15442675105E+02  0.43788714917E+02 -0.12098879422E+03  0.12959250015E+03  0.00000000000E+00 0. -1.
</event>
<event>
 7    1  0.6444902E-006  0.9433926E+02  0.7818608E-02  0.1340695E+00
          2   -1    0    0  502    0  0.00000000000E+00  0.00000000000E+00  0.35851531628E+02  0.35851531628E+02  0.00000000000E+00 0. -1.
          1   -1    0    0  501    0 -0.00000000000E+00 -0.00000000000E+00 -0.34876656910E+04  0.34876656910E+04  0.00000000000E+00 0. -1.
         25    2    1    2    0    0 -0.94903718106E+02  0.10020816582E+03 -0.13573937027E+04  0.13701062593E+04  0.12500042120E+03 0.  0.
          2    1    1    2  501    0  0.78677586800E+02 -0.41112843928E+02 -0.20900914154E+04  0.20919757535E+04  0.00000000000E+00 0. -1.
          1    1    1    2  502    0  0.16226131306E+02 -0.59095321894E+02 -0.43290412313E+01  0.61435209814E+02  0.00000000000E+00 0. -1.
         22    1    3    3    0    0 -0.42093516066E+02 -0.23177315037E+02 -0.24698732781E+03  0.25161834616E+03  0.00000000000E+00 0.  1.
         22    1    3    3    0    0 -0.52810202040E+02  0.12338548086E+03 -0.11104063749E+04  0.11184879131E+04  0.00000000000E+00 0.  1.
</event>
<event>
 7    1  0.6444902E-006  0.7250670E+02  0.7818608E-02  0.1361955E+00
          2   -1    0    0  502    0  0.00000000000E+00  0.00000000000E+00  0.99214393667E+03  0.99214393667E+03  0.00000000000E+00 0. -1.
          1   -1    0    0  501    0 -0.00000000000E+00 -0.00000000000E+00 -0.41428682913E+03  0.41428682913E+03  0.00000000000E+00 0. -1.
         25    2    1    2    0    0  0.75058380250E+02  0.61924929402E+02 -0.17636931139E+03  0.23706339920E+03  0.12499785563E+03 0.  0.
          2    1    1    2  501    0 -0.71596886603E+02  0.45175515331E+01 -0.20017906334E+03  0.21264566735E+03  0.00000000000E+00 0. -1.
          1    1    1    2  502    0 -0.34614936465E+01 -0.66442480935E+02  0.95440548227E+03  0.95672169924E+03  0.00000000000E+00 0. -1.
         22    1    3    3    0    0  0.96578246790E+01 -0.45910618090E+01  0.18301677899E+02  0.21196764847E+02  0.00000000000E+00 0. -1.
         22    1    3    3    0    0  0.65400555571E+02  0.66515991211E+02 -0.19467098929E+03  0.21586663435E+03  0.00000000000E+00 0. -1.
</event>
<event>
 7    1  0.6444902E-006  0.6967643E+02  0.7818608E-02  0.1437369E+00
          2   -1    0    0  502    0  0.00000000000E+00  0.00000000000E+00  0.13609643382E+04  0.13609643382E+04  0.00000000000E+00 0. -1.
          1   -1    0    0  501    0 -0.00000000000E+00 -0.00000000000E+00 -0.27816055327E+03  0.27816055327E+03  0.00000000000E+00 0. -1.
         25    2    1    2    0    0  0.21636019498E+02  0.91209180020E+02 -0.14996815166E+02  0.15696048805E+03  0.12499783392E+03 0.  0.
          2    1    1    2  501    0  0.17516588636E+02 -0.33810093247E+02 -0.18934952039E+03  0.19314034834E+03  0.00000000000E+00 0. -1.
          1    1    1    2  502    0 -0.39152608134E+02 -0.57399086773E+02  0.12871501205E+04  0.12890240551E+04  0.00000000000E+00 0. -1.
         22    1    3    3    0    0  0.78155785766E+01 -0.69187386803E+01  0.41566782640E+02  0.42857317141E+02  0.00000000000E+00 0. -1.
         22    1    3    3    0    0  0.13820440921E+02  0.98127918701E+02 -0.56563597806E+02  0.11410317091E+03  0.00000000000E+00 0. -1.
</event>
<event>
 7    1  0.6444902E-006  0.4719053E+02  0.7818608E-02  0.1576507E+00
          2   -1    0    0  502    0  0.00000000000E+00  0.00000000000E+00  0.13974335281E+04  0.13974335281E+04  0.00000000000E+00 0. -1.
          1   -1    0    0  501    0 -0.00000000000E+00 -0.00000000000E+00 -0.98458729275E+02  0.98458729275E+02  0.00000000000E+00 0. -1.
         25    2    1    2    0    0  0.35814045788E+02 -0.17532217054E+02  0.41987070167E+03  0.43988562391E+03  0.12497172276E+03 0.  0.
          2    1    1    2  501    0 -0.28319475317E+02  0.37963854196E+02 -0.81978894996E+02  0.94677273579E+02  0.00000000000E+00 0. -1.
          1    1    1    2  502    0 -0.74945704710E+01 -0.20431637142E+02  0.96108299219E+03  0.96132935993E+03  0.00000000000E+00 0. -1.
         22    1    3    3    0    0 -0.21024381773E+02  0.36764815636E+02  0.74632577124E+02  0.85811991388E+02  0.00000000000E+00 0. -1.
         22    1    3    3    0    0  0.56838427561E+02 -0.54297032690E+02  0.34523812455E+03  0.35407363253E+03  0.00000000000E+00 0. -1.
</event>
<event>
 7    1  0.6444902E-006  0.1272489E+03  0.7818608E-02  0.1280821E+00
          2   -1    0    0  502    0  0.00000000000E+00  0.00000000000E+00  0.24707709964E+04  0.24707709964E+04  0.00000000000E+00 0. -1.
          1   -1    0    0  501    0 -0.00000000000E+00 -0.00000000000E+00 -0.40074134944E+03  0.40074134944E+03  0.00000000000E+00 0. -1.
         25    2    1    2    0    0  0.12931299637E+03 -0.15088956149E+03 -0.81153067375E+01  0.23490381974E+03  0.12499774210E+03 0.  0.
          2    1    1    2  501    0 -0.66323830468E+02  0.41419494509E+02 -0.27202841184E+03  0.28304395747E+03  0.00000000000E+00 0. -1.
          1    1    1    2  502    0 -0.62989165898E+02  0.10947006699E+03  0.23501733655E+04  0.23535645686E+04  0.00000000000E+00 0. -1.
         22    1    3    3    0    0 -0.13445919144E+01 -0.85398413979E+02 -0.21696944387E+02  0.88121815876E+02  0.00000000000E+00 0.  1.
         22    1    3    3    0    0  0.13065758828E+03 -0.65491147516E+02  0.13581637650E+02  0.14678200387E+03  0.00000000000E+00 0.  1.
</event>
<event>
 7    1  0.6444902E-006  0.3079366E+02  0.7818608E-02  0.1640978E+00
          2   -1    0    0  502    0  0.00000000000E+00  0.00000000000E+00  0.23177984952E+03  0.23177984952E+03  0.00000000000E+00 0. -1.
          1   -1    0    0  501    0 -0.00000000000E+00 -0.00000000000E+00 -0.55016719401E+02  0.55016719401E+02  0.00000000000E+00 0. -1.
         25    2    1    2    0    0  0.94012766990E+01 -0.35711957852E+02  0.18708125320E+03  0.22800872781E+03  0.12499942689E+03 0.  0.
          2    1    1    2  501    0  0.12113840194E+02  0.28402464827E+02  0.51436411314E+01  0.31303389219E+02  0.00000000000E+00 0. -1.
          1    1    1    2  502    0 -0.21515116893E+02  0.73094930249E+01 -0.15461764210E+02  0.27484451890E+02  0.00000000000E+00 0. -1.
         22    1    3    3    0    0 -0.53114380690E+02 -0.32357389684E+02  0.60373082323E+02  0.86677835532E+02  0.00000000000E+00 0.  1.
         22    1    3    3    0    0  0.62515657389E+02 -0.33545681679E+01  0.12670817088E+03  0.14133089228E+03  0.00000000000E+00 0.  1.
</event>
<event>
 7    1  0.6444902E-006  0.5992094E+02  0.7818608E-02  0.1540198E+00
          2   -1    0    0  502    0  0.00000000000E+00  0.00000000000E+00  0.17907859612E+04  0.17907859612E+04  0.00000000000E+00 0. -1.
          1   -1    0    0  501    0 -0.00000000000E+00 -0.00000000000E+00 -0.24206477959E+02  0.24206477959E+02  0.00000000000E+00 0. -1.
         25    2    1    2    0    0 -0.45699177090E+02 -0.45130800543E+02  0.37310176267E+03  0.39870082013E+03  0.12502885556E+03 0.  0.
          2    1    1    2  501    0  0.19703881643E+02 -0.88153848377E+01  0.58296805379E-01  0.21586045496E+02  0.00000000000E+00 0. -1.
          1    1    1    2  502    0  0.25995295447E+02  0.53946185381E+02  0.13934194238E+04  0.13947055736E+04  0.00000000000E+00 0. -1.
         22    1    3    3    0    0 -0.32705687908E+02 -0.72939855051E+02  0.12280973675E+03  0.14653366820E+03  0.00000000000E+00 0. -1.
         22    1    3    3    0    0 -0.12993489181E+02  0.27809054508E+02  0.25029202592E+03  0.25216715193E+03  0.00000000000E+00 0. -1.
</event>
<event>
 7    1  0.6444902E-006  0.7907151E+02  0.7818608E-02  0.1370867E+00
          2   -1    0    0  502    0  0.00000000000E+00  0.00000000000E+00  0.96539581912E+03  0.96539581912E+03  0.00000000000E+00 0. -1.
          1   -1    0    0  501    0 -0.00000000000E+00 -0.00000000000E+00 -0.13457595982E+03  0.13457595982E+03  0.00000000000E+00 0. -1.
         25    2    1    2    0    0 -0.91175107296E+01  0.13051899411E+03  0.31649428564E+03  0.36457176782E+03  0.12500241685E+03 0.  0.
          2    1    1    2  501    0  0.17212682257E+01 -0.56621024173E+02 -0.10089685037E+03  0.11571118164E+03  0.00000000000E+00 0. -1.
          1    1    1    2  502    0  0.73962425038E+01 -0.73897969936E+02  0.61522242402E+03  0.61968882948E+03  0.00000000000E+00 0. -1.
         22    1    3    3    0    0 -0.52358914222E+02  0.57950994536E+02  0.23323048932E+03  0.24595982357E+03  0.00000000000E+00 0. -1.
         22    1    3    3    0    0  0.43241403492E+02  0.72567999573E+02  0.83263796327E+02  0.11861194424E+03  0.00000000000E+00 0. -1.
</event>
<event>
 7    1  0.6444902E-006  0.6756462E+02  0.7818608E-02  0.1427870E+00
          2   -1    0    0  502    0  0.00000000000E+00  0.00000000000E+00  0.17789932905E+03  0.17789932905E+03  0.00000000000E+00 0. -1.
          1   -1    0    0  501    0 -0.00000000000E+00 -0.00000000000E+00 -0.17429059650E+04  0.17429059650E+04  0.00000000000E+00 0. -1.
         25    2    1    2    0    0 -0.23983475796E+02 -0.80572110837E+02 -0.12174812886E+03  0.19368494737E+03  0.12499671917E+03 0.  0.
          2    1    1    2  501    0 -0.24723530392E+02  0.34185673083E+02 -0.15769226282E+04  0.15774868901E+04  0.00000000000E+00 0. -1.
          1    1    1    2  502    0  0.48707006188E+02  0.46386437754E+02  0.13366412109E+03  0.14963345657E+03  0.00000000000E+00 0. -1.
         22    1    3    3    0    0 -0.28414382396E+02  0.27759732476E+02 -0.17965539052E+02  0.43597482353E+02  0.00000000000E+00 0. -1.
         22    1    3    3    0    0  0.44309065998E+01 -0.10833184331E+03 -0.10378258981E+03  0.15008746502E+03  0.00000000000E+00 0. -1.
</event>
<event>
 7    1  0.6444902E-006  0.1115967E+03  0.7818608E-02  0.1338582E+00
          2   -1    0    0  502    0  0.00000000000E+00  0.00000000000E+00  0.13049133487E+04  0.13049133487E+04  0.00000000000E+00 0. -1.
          1   -1    0    0  501    0 -0.00000000000E+00 -0.00000000000E+00 -0.10699785152E+03  0.10699785152E+03  0.00000000000E+00 0. -1.
         25    2    1    2    0    0  0.12959307113E+03 -0.57554629511E+02  0.60355769564E+03  0.63246810507E+03  0.12500844970E+03 0.  0.
          2    1    1    2  501    0 -0.80127898799E+02  0.75916691101E+02 -0.58180574220E+02  0.12477501100E+03  0.00000000000E+00 0. -1.
          1    1    1    2  502    0 -0.49465172326E+02 -0.18362061590E+02  0.65253837574E+03  0.65466808414E+03  0.00000000000E+00 0. -1.
         22    1    3    3    0    0  0.39627024346E+02 -0.21661324814E+02  0.44051103008E+03  0.44281992014E+03  0.00000000000E+00 0. -1.
         22    1    3    3    0    0  0.89966046779E+02 -0.35893304696E+02  0.16304666556E+03  0.18964818492E+03  0.00000000000E+00 0. -1.
</event>
<event>
 7    1  0.6444902E-006  0.8288421E+02  0.7818608E-02  0.1334214E+00
          2   -1    0    0  502    0  0.00000000000E+00  0.00000000000E+00  0.58665081693E+03  0.58665081693E+03  0.00000000000E+00 0. -1.
          1   -1    0    0  501    0 -0.00000000000E+00 -0.00000000000E+00 -0.41800745549E+03  0.41800745549E+03  0.00000000000E+00 0. -1.
         25    2    1    2    0    0 -0.34976357050E+02  0.54031015749E+02 -0.18025561325E+02  0.14172703005E+03  0.12497573353E+03 0.  0.
          2    1    1    2  501    0 -0.34068572609E+02 -0.80083289138E+02 -0.32986500312E+03  0.34115234298E+03  0.00000000000E+00 0. -1.
          1    1    1    2  502    0  0.69044929659E+02  0.26052273389E+02  0.51653392588E+03  0.52177889939E+03  0.00000000000E+00 0. -1.
         22    1    3    3    0    0  0.11025671695E+01 -0.39713794833E+02 -0.99434008825E+01  0.40954515935E+02  0.00000000000E+00 0. -1.
         22    1    3    3    0    0 -0.36078924220E+02  0.93744810582E+02 -0.80821604428E+01  0.10077251412E+03  0.00000000000E+00 0. -1.
</event>
<event>
 7    1  0.6444902E-006  0.1266007E+03  0.7818608E-02  0.1312968E+00
          2   -1    0    0  502    0  0.00000000000E+00  0.00000000000E+00  0.42438689942E+02  0.42438689942E+02  0.00000000000E+00 0. -1.
          1   -1    0    0  501    0 -0.00000000000E+00 -0.00000000000E+00 -0.26274091290E+04  0.26274091290E+04  0.00000000000E+00 0. -1.
         25    2    1    2    0    0  0.68467878028E+02  0.14009999871E+03 -0.30112532841E+03  0.36141082420E+03  0.12500184189E+03 0.  0.
          2    1    1    2  501    0 -0.91018621287E+02 -0.86282296514E+02 -0.22134579706E+04  0.22170081668E+04  0.00000000000E+00 0. -1.
          1    1    1    2  502    0  0.22550743259E+02 -0.53817702196E+02 -0.70387140015E+02  0.91428827898E+02  0.00000000000E+00 0. -1.
         22    1    3    3    0    0  0.68459698374E+01  0.45556889914E+02 -0.21382892815E+03  0.21873524644E+03  0.00000000000E+00 0.  1.
         22    1    3    3    0    0  0.61621908190E+02  0.94543108795E+02 -0.87296400262E+02  0.14267557776E+03  0.00000000000E+00 0.  1.
</event>
<event>
 7    1  0.6444902E-006  0.4070006E+02  0.7818608E-02  0.1551570E+00
          2   -1    0    0  502    0  0.00000000000E+00  0.00000000000E+00  0.83199148486E+03  0.83199148486E+03  0.00000000000E+00 0. -1.
          1   -1    0    0  501    0 -0.00000000000E+00 -0.00000000000E+00 -0.26476122960E+03  0.26476122960E+03  0.00000000000E+00 0. -1.
         25    2    1    2    0    0  0.17610720501E+02 -0.29312612410E+02 -0.83818424674E+02  0.15433797881E+03  0.12500126665E+03 0.  0.
          2    1    1    2  501    0  0.95293839499E+01  0.40949600149E+02 -0.14236919769E+03  0.14844752393E+03  0.00000000000E+00 0. -1.
          1    1    1    2  502    0 -0.27140104451E+02 -0.11636987739E+02  0.79341787762E+03  0.79396721171E+03  0.00000000000E+00 0. -1.
         22    1    3    3    0    0 -0.47161472617E+02  0.66910417402E+01 -0.59766556858E+02  0.76426538962E+02  0.00000000000E+00 0.  1.
         22    1    3    3    0    0  0.64772193119E+02 -0.36003654150E+02 -0.24051867816E+02  0.77911439847E+02  0.00000000000E+00 0.  1.
</event>
<event>
 7    1  0.6444902E-006  0.3957503E+02  0.7818608E-02  0.1590883E+00
          2   -1    0    0  502    0  0.00000000000E+00  0.00000000000E+00  0.67729801347E+02  0.67729801347E+02  0.00000000000E+00 0. -1.
          1   -1    0    0  501    0 -0.00000000000E+00 -0.00000000000E+00 -0.98873203642E+03  0.98873203642E+03  0.00000000000E+00 0. -1.
         25    2    1    2    0    0  0.60753551346E+02  0.13448117610E+02 -0.23423880779E+03  0.27269717686E+03  0.12499634124E+03 0.  0.
          2    1    1    2  501    0 -0.22187706663E+02 -0.84899207398E+01 -0.72724555268E+03  0.72763347022E+03  0.00000000000E+00 0. -1.
          1    1    1    2  502    0 -0.38565844683E+02 -0.49581968703E+01  0.40482125396E+02  0.56131190696E+02  0.00000000000E+00 0. -1.
         22    1    3    3    0    0  0.68779252351E+02  0.58811616417E+02 -0.18050037318E+03  0.20191527059E+03  0.00000000000E+00 0.  1.
         22    1    3    3    0    0 -0.80257010056E+01 -0.45363498806E+02 -0.53738434612E+02  0.70781906269E+02  0.00000000000E+00 0.  1.
</event>
<event>
 7    1  0.6444902E-006  0.7440432E+02  0.7818608E-02  0.1351581E+00
          2   -1    0    0  502    0  0.00000000000E+00  0.00000000000E+00  0.47213583035E+03  0.47213583035E+03  0.00000000000E+00 0. -1.
          1   -1    0    0  501    0 -0.00000000000E+00 -0.00000000000E+00 -0.22315307106E+03  0.22315307106E+03  0.00000000000E+00 0. -1.
         25    2    1    2    0    0  0.80048988564E+02  0.46029381530E+02  0.15336455891E+03  0.21833974515E+03  0.12500004739E+03 0.  0.
          2    1    1    2  501    0 -0.64889391766E+02  0.28248650884E+02 -0.17877641898E+03  0.19227487466E+03  0.00000000000E+00 0. -1.
          1    1    1    2  502    0 -0.15159596798E+02 -0.74278032414E+02  0.27439461935E+03  0.28467428160E+03  0.00000000000E+00 0. -1.
         22    1    3    3    0    0  0.10275525144E+03  0.11416655907E+02  0.68800748564E+02  0.12418745804E+03  0.00000000000E+00 0.  1.
         22    1    3    3    0    0 -0.22706262874E+02  0.34612725624E+02  0.84563810348E+02  0.94152287117E+02  0.00000000000E+00 0.  1.
</event>
<event>
 7    1  0.6444902E-006  0.1733240E+03  0.7818608E-02  0.1249637E+00
          2   -1    0    0  502    0  0.00000000000E+00  0.00000000000E+00  0.23177230626E+04  0.23177230626E+04  0.00000000000E+00 0. -1.
          1   -1    0    0  501    0 -0.00000000000E+00 -0.00000000000E+00 -0.20502434635E+03  0.20502434635E+03  0.00000000000E+00 0. -1.
         25    2    1    2    0    0  0.21173522580E+03  0.88829124965E+02  0.24648384602E+03  0.35930778505E+03  0.12500151504E+03 0.  0.
          2    1    1    2  501    0 -0.13432845926E+03 -0.96607060373E+02 -0.10154983769E+03  0.19413765378E+03  0.00000000000E+00 0. -1.
          1    1    1    2  502    0 -0.77406766540E+02  0.77779354084E+01  0.19677647079E+04  0.19693019701E+04  0.00000000000E+00 0. -1.
         22    1    3    3    0    0  0.98774874682E+02 -0.23775860028E+02  0.87062116602E+02  0.13379678447E+03  0.00000000000E+00 0.  1.
         22    1    3    3    0    0  0.11296035112E+03  0.11260498499E+03  0.15942172941E+03  0.22551100058E+03  0.00000000000E+00 0.  1.
</event>
<event>
 7    1  0.6444902E-006  0.7648423E+02  0.7818608E-02  0.1351696E+00
          2   -1    0    0  502    0  0.00000000000E+00  0.00000000000E+00  0.16478239291E+03  0.16478239291E+03  0.00000000000E+00 0. -1.
          1   -1    0    0  501    0 -0.00000000000E+00 -0.00000000000E+00 -0.13928351897E+04  0.13928351897E+04  0.00000000000E+00 0. -1.
         25    2    1    2    0    0  0.10555632270E+03  0.19595375422E+02 -0.60165549689E+03  0.62381108195E+03  0.12499925212E+03 0.  0.
          2    1    1    2  501    0 -0.65379489306E+02  0.36229556873E+02 -0.77050744201E+03  0.77412452268E+03  0.00000000000E+00 0. -1.
          1    1    1    2  502    0 -0.40176833392E+02 -0.55824932295E+02  0.14411014215E+03  0.15968197794E+03  0.00000000000E+00 0. -1.
         22    1    3    3    0    0  0.67163960913E+01  0.17453314817E+02 -0.54706470693E+01  0.19484767227E+02  0.00000000000E+00 0. -1.
         22    1    3    3    0    0  0.98839926607E+02  0.21420606058E+01 -0.59618484982E+03  0.60432631472E+03  0.00000000000E+00 0. -1.
</event>
<event>
 7    1  0.6444902E-006  0.1041257E+03  0.7818608E-02  0.1405020E+00
          2   -1    0    0  502    0  0.00000000000E+00  0.00000000000E+00  0.19854773267E+04  0.19854773267E+04  0.00000000000E+00 0. -1.
          1   -1    0    0  501    0 -0.00000000000E+00 -0.00000000000E+00 -0.57008767289E+03  0.57008767289E+03  0.00000000000E+00 0. -1.
         25    2    1    2    0    0  0.93723519828E+02 -0.19064492037E+01  0.21946362804E+03  0.26939983904E+03  0.12499702606E+03 0.  0.
          2    1    1    2  501    0  0.56490597209E+01 -0.32172413692E+02 -0.54304364236E+03  0.54402515896E+03  0.00000000000E+00 0. -1.
          1    1    1    2  502    0 -0.99372579549E+02  0.34078862896E+02  0.17389696682E+04  0.17421400016E+04  0.00000000000E+00 0. -1.
         22    1    3    3    0    0 -0.14077190877E+02  0.39786131256E+01 -0.86737012888E+01  0.17006756288E+02  0.00000000000E+00 0.  1.
         22    1    3    3    0    0  0.10780071070E+03 -0.58850623293E+01  0.22813732933E+03  0.25239308275E+03  0.00000000000E+00 0.  1.
</event>
<event>
 7    1  0.6444902E-006  0.5339795E+02  0.7818608E-02  0.1437119E+00
          2   -1    0    0  502    0  0.00000000000E+00  0.00000000000E+00  0.26720398220E+03  0.26720398220E+03  0.00000000000E+00 0. -1.
          1   -1    0    0  501    0 -0.00000000000E+00 -0.00000000000E+00 -0.87748900380E+03  0.87748900380E+03  0.00000000000E+00 0. -1.
         25    2    1    2    0    0 -0.66146235815E+01 -0.21989123227E+01 -0.37675263013E+02  0.13074104273E+03  0.12500082540E+03 0.  0.
          2    1    1    2  501    0  0.48202147559E+02 -0.25160032280E+02 -0.78952647373E+03  0.79139656745E+03  0.00000000000E+00 0. -1.
          1    1    1    2  502    0 -0.41587523977E+02  0.27358944603E+02  0.21691671514E+03  0.22255537582E+03  0.00000000000E+00 0. -1.
         22    1    3    3    0    0 -0.58738916694E+02  0.27183271096E+02 -0.26144462704E+02  0.69804895902E+02  0.00000000000E+00 0.  1.
         22    1    3    3    0    0  0.52124293112E+02 -0.29382183419E+02 -0.11530800310E+02  0.60936146832E+02  0.00000000000E+00 0.  1.
</event>
<event>
 7    1  0.6444902E-006  0.8024278E+02  0.7818608E-02  0.1383962E+00
          2   -1    0    0  502    0  0.00000000000E+00  0.00000000000E+00  0.17223014735E+04  0.17223014735E+04  0.00000000000E+00 0. -1.
          1   -1    0    0  501    0 -0.00000000000E+00 -0.00000000000E+00 -0.41401938548E+03  0.41401938548E+03  0.00000000000E+00 0. -1.
         25    2    1    2    0    0 -0.12500717528E+03 -0.12444833379E+02  0.52181578594E+03  0.55108862137E+03  0.12500114554E+03 0.  0.
          2    1    1    2  501    0  0.48544067632E+02  0.12571837321E+02 -0.39656982459E+03  0.39972766151E+03  0.00000000000E+00 0. -1.
          1    1    1    2  502    0  0.76463107653E+02 -0.12700394207E+00  0.11830361267E+04  0.11855045761E+04  0.00000000000E+00 0. -1.
         22    1    3    3    0    0 -0.96176030900E+02  0.22493702937E+02  0.17192354235E+03  0.19827632235E+03  0.00000000000E+00 0. -1.
         22    1    3    3    0    0 -0.28831144384E+02 -0.34938536315E+02  0.34989224360E+03  0.35281229902E+03  0.00000000000E+00 0. -1.
</event>
<event>
 7    1  0.6444902E-006  0.7893748E+02  0.7818608E-02  0.1359257E+00
          2   -1    0    0  502    0  0.00000000000E+00  0.00000000000E+00  0.51355295873E+03  0.51355295873E+03  0.00000000000E+00 0. -1.
          1   -1    0    0  501    0 -0.00000000000E+00 -0.00000000000E+00 -0.13947648547E+04  0.13947648547E+04  0.00000000000E+00 0. -1.
         25    2    1    2    0    0 -0.20498379831E+02  0.12611969282E+03 -0.70579425738E+02  0.19217956088E+03  0.12500067115E+03 0.  0.
          2    1    1    2  501    0 -0.17172697696E+02 -0.76233353181E+02 -0.12600113827E+04  0.12624322200E+04  0.00000000000E+00 0. -1.
          1    1    1    2  502    0  0.37671077527E+02 -0.49886339643E+02  0.44937891246E+03  0.45370603251E+03  0.00000000000E+00 0. -1.
         22    1    3    3    0    0 -0.42830282923E+02 -0.71297704966E+00  0.45601620645E+01  0.43078260754E+02  0.00000000000E+00 0. -1.
         22    1    3    3    0    0  0.22331903093E+02  0.12683266987E+03 -0.75139587802E+02  0.14910130012E+03  0.00000000000E+00 0. -1.
</event>
<event>
 7    1  0.6444902E-006  0.1496052E+03  0.7818608E-02  0.1297538E+00
          2   -1    0    0  502    0  0.00000000000E+00  0.00000000000E+00  0.27806855003E+04  0.27806855003E+04  0.00000000000E+00 0. -1.
          1   -1    0    0  501    0 -0.00000000000E+00 -0.00000000000E+00 -0.20020777838E+04  0.20020777838E+04  0.00000000000E+00 0. -1.
         25    2    1    2    0    0  0.11921141297E+03  0.16643077242E+03  0.40258275459E+02  0.24322248064E+03  0.12500353337E+03 0.  0.
          2    1    1    2  501    0 -0.27081417767E+02 -0.49996159537E+02 -0.18980811875E+04  0.18989326511E+04  0.00000000000E+00 0. -1.
          1    1    1    2  502    0 -0.92129995204E+02 -0.11643461288E+03  0.26364306285E+04  0.26406081523E+04  0.00000000000E+00 0. -1.
         22    1    3    3    0    0  0.11237468949E+03  0.17922097027E+03  0.12503430360E+02  0.21190696731E+03  0.00000000000E+00 0.  1.
         22    1    3    3    0    0  0.68367234840E+01 -0.12790197849E+02  0.27754845099E+02  0.31315513336E+02  0.00000000000E+00 0.  1.
</event>
<event>
 7    1  0.6444902E-006  0.1094040E+03  0.7818608E-02  0.1354163E+00
          2   -1    0    0  502    0  0.00000000000E+00  0.00000000000E+00  0.67079376796E+03  0.67079376796E+03  0.00000000000E+00 0. -1.
          1   -1    0    0  501    0 -0.00000000000E+00 -0.00000000000E+00 -0.23421864640E+03  0.23421864640E+03  0.00000000000E+00 0. -1.
         25    2    1    2    0    0  0.12315149361E+03 -0.32422375029E+02 -0.16140454821E+03  0.24061244838E+03  0.12500168538E+03 0.  0.
          2    1    1    2  501    0 -0.76351990687E+02  0.37616413292E+02  0.23920272021E+02  0.88412671288E+02  0.00000000000E+00 0. -1.
          1    1    1    2  502    0 -0.46799502922E+02 -0.51940382623E+01  0.57405939775E+03  0.57598729470E+03  0.00000000000E+00 0. -1.
         22    1    3    3    0    0  0.14864409143E+03 -0.22489655504E+02 -0.12809627821E+03  0.19750824543E+03  0.00000000000E+00 0.  1.
         22    1    3    3    0    0 -0.25492597822E+02 -0.99327195250E+01 -0.33308270006E+02  0.43104202946E+02  0.00000000000E+00 0.  1.
</event>
<event>
 7    1  0.6444902E-006  0.8595194E+02  0.7818608E-02  0.1327992E+00
          2   -1    0    0  502    0  0.00000000000E+00  0.00000000000E+00  0.18074747815E+04  0.18074747815E+04  0.00000000000E+00 0. -1.
          1   -1    0    0  501    0 -0.00000000000E+00 -0.00000000000E+00 -0.10590407691E+04  0.10590407691E+04  0.00000000000E+00 0. -1.
         25    2    1    2    0    0 -0.32831035518E+02 -0.12764688265E+03  0.83974651988E+02  0.20015637515E+03  0.12505690222E+03 0.  0.
          2    1    1    2  501    0 -0.29466578043E+02  0.69141535258E+02 -0.99844015341E+03  0.10012649854E+04  0.00000000000E+00 0. -1.
          1    1    1    2  502    0  0.62297613561E+02  0.58505347391E+02  0.16628995139E+04  0.16650941900E+04  0.00000000000E+00 0. -1.
         22    1    3    3    0    0 -0.11382785731E+02  0.22684418799E+02  0.29290214848E+02  0.38756513686E+02  0.00000000000E+00 0. -1.
         22    1    3    3    0    0 -0.21448249787E+02 -0.15033130145E+03  0.54684437140E+02  0.16139986146E+03  0.00000000000E+00 0. -1.
</event>
<event>
 7    1  0.6444902E-006  0.6277891E+02  0.7818608E-02  0.1430408E+00
          2   -1    0    0  502    0  0.00000000000E+00  0.00000000000E+00  0.53155067928E+03  0.53155067928E+03  0.00000000000E+00 0. -1.
          1   -1    0    0  501    0 -0.00000000000E+00 -0.00000000000E+00 -0.97639473316E+03  0.97639473316E+03  0.00000000000E+00 0. -1.
         25    2    1    2    0    0  0.41918402172E+01  0.35465974883E+02 -0.12616328915E+03  0.18116310229E+03  0.12500994841E+03 0.  0.
          2    1    1    2  501    0 -0.48115323223E+02 -0.42843991882E+02 -0.82048241626E+03  0.82300795097E+03  0.00000000000E+00 0. -1.
          1    1    1    2  502    0  0.43923483006E+02  0.73780169993E+01  0.50180165153E+03  0.50377435918E+03  0.00000000000E+00 0. -1.
         22    1    3    3    0    0  0.62863710282E+02  0.19127379119E+02 -0.44793362465E+02  0.79524512091E+02  0.00000000000E+00 0.  1.
         22    1    3    3    0    0 -0.58671870065E+02  0.16338595764E+02 -0.81369926686E+02  0.10163859020E+03  0.00000000000E+00 0.  1.
</event>
<event>
 7    1  0.6444902E-006  0.4503908E+02  0.7818608E-02  0.1560590E+00
          2   -1    0    0  502    0  0.00000000000E+00  0.00000000000E+00  0.19192337534E+04  0.19192337534E+04  0.00000000000E+00 0. -1.
          1   -1    0    0  501    0 -0.00000000000E+00 -0.00000000000E+00 -0.71992136854E+03  0.71992136854E+03  0.00000000000E+00 0. -1.
         25    2    1    2    0    0 -0.65572851658E+02  0.24867271177E+02 -0.73912993469E+02  0.16126313265E+03  0.12499794917E+03 0.  0.
          2    1    1    2  501    0  0.23963703694E+02 -0.77786248911E+01 -0.60179998951E+03  0.60232714821E+03  0.00000000000E+00 0. -1.
          1    1    1    2  502    0  0.41609147964E+02 -0.17088646286E+02  0.18750253679E+04  0.18755648411E+04  0.00000000000E+00 0. -1.
         22    1    3    3    0    0 -0.70413016431E+02 -0.34581025520E+02 -0.63035073796E+02  0.10063429205E+03  0.00000000000E+00 0. -1.
         22    1    3    3    0    0  0.48401647723E+01  0.59448296697E+02 -0.10877919673E+02  0.60628840593E+02  0.00000000000E+00 0. -1.
</event>
<event>
 7    1  0.6444902E-006  0.1622468E+03  0.7818608E-02  0.1338207E+00
          2   -1    0    0  502    0  0.00000000000E+00  0.00000000000E+00  0.72231785248E+03  0.72231785248E+03  0.00000000000E+00 0. -1.
          1   -1    0    0  501    0 -0.00000000000E+00 -0.00000000000E+00 -0.13360602117E+04  0.13360602117E+04  0.00000000000E+00 0. -1.
         25    2    1    2    0    0  0.13780774818E+03 -0.14027611593E+03 -0.51371654290E+03  0.56408716081E+03  0.12498509666E+03 0.  0.
          2    1    1    2  501    0 -0.31213457127E+02  0.18746085862E+02 -0.78736078956E+03  0.78820220031E+03  0.00000000000E+00 0. -1.
          1    1    1    2  502    0 -0.10659429105E+03  0.12153003007E+03  0.68733497326E+03  0.70608870304E+03  0.00000000000E+00 0. -1.
         22    1    3    3    0    0  0.11874738612E+03 -0.48075882244E+02 -0.37631430937E+03  0.39752319630E+03  0.00000000000E+00 0.  1.
         22    1    3    3    0    0  0.19060362057E+02 -0.92200233685E+02 -0.13740223353E+03  0.16656396451E+03  0.00000000000E+00 0.  1.
</event>
<event>
 7    1  0.6444902E-006  0.7828080E+02  0.7818608E-02  0.1458712E+00
          2   -1    0    0  502    0  0.00000000000E+00  0.00000000000E+00  0.20024771785E+03  0.20024771785E+03  0.00000000000E+00 0. -1.
          1   -1    0    0  501    0 -0.00000000000E+00 -0.00000000000E+00 -0.17540962642E+04  0.17540962642E+04  0.00000000000E+00 0. -1.
         25    2    1    2    0    0 -0.42800008632E+02  0.95007155508E+02  0.80972849610E+02  0.18175913698E+03  0.12498632391E+03 0.  0.
          2    1    1    2  501    0  0.41647401175E+02 -0.66081492635E+02 -0.16997245493E+04  0.17015183846E+04  0.00000000000E+00 0. -1.
          1    1    1    2  502    0  0.11526074576E+01 -0.28925662873E+02  0.64903153385E+02  0.71066460415E+02  0.00000000000E+00 0. -1.
         22    1    3    3    0    0 -0.18194269144E+02  0.58439990501E+02 -0.25666514196E+02  0.66370429187E+02  0.00000000000E+00 0. -1.
         22    1    3    3    0    0 -0.24605739489E+02  0.36567165007E+02  0.10663936381E+03  0.11538870779E+03  0.00000000000E+00 0. -1.
</event>
<event>
 7    1  0.6444902E-006  0.1733710E+03  0.7818608E-02  0.1197883E+00
          2   -1    0    0  502    0  0.00000000000E+00  0.00000000000E+00  0.36263919267E+03  0.36263919267E+03  0.00000000000E+00 0. -1.
          1   -1    0    0  501    0 -0.00000000000E+00 -0.00000000000E+00 -0.23430864066E+04  0.23430864066E+04  0.00000000000E+00 0. -1.
         25    2    1    2    0    0 -0.11116017255E+02 -0.22414050607E+03  0.10512615321E+03  0.27755763125E+03  0.12499679305E+03 0.  0.
          2    1    1    2  501    0 -0.95855460256E+02  0.14429171633E+03 -0.22269805824E+04  0.22337078777E+04  0.00000000000E+00 0. -1.
          1    1    1    2  502    0  0.10697147751E+03  0.79848789745E+02  0.14140721520E+03  0.19446009034E+03  0.00000000000E+00 0. -1.
         22    1    3    3    0    0 -0.58561109777E+02 -0.15768351802E+03  0.10012121978E+03  0.19574921222E+03  0.00000000000E+00 0.  1.
         22    1    3    3    0    0  0.47445092523E+02 -0.66456988048E+02  0.50049334325E+01  0.81808419026E+02  0.00000000000E+00 0.  1.
</event>
<event>
 7    1  0.6444902E-006  0.7240607E+02  0.7818608E-02  0.1464507E+00
          2   -1    0    0  502    0  0.00000000000E+00  0.00000000000E+00  0.48059258030E+03  0.48059258030E+03  0.00000000000E+00 0. -1.
          1   -1    0    0  501    0 -0.00000000000E+00 -0.00000000000E+00 -0.40278198718E+03  0.40278198718E+03  0.00000000000E+00 0. -1.
         25    2    1    2    0    0 -0.61409994154E+02  0.45790959400E+02  0.35791814692E+03  0.38678066200E+03  0.12500352499E+03 0.  0.
          2    1    1    2  501    0 -0.82100911371E+01 -0.28865208333E+02 -0.37583046464E+03  0.37702671523E+03  0.00000000000E+00 0. -1.
          1    1    1    2  502    0  0.69620085291E+02 -0.16925751067E+02  0.95722910838E+02  0.11956719025E+03  0.00000000000E+00 0. -1.
         22    1    3    3    0    0  0.72558796746E+01  0.70802067635E+02  0.14214241043E+03  0.15896554788E+03  0.00000000000E+00 0. -1.
         22    1    3    3    0    0 -0.68665873828E+02 -0.25011108235E+02  0.21577573649E+03  0.22781511412E+03  0.00000000000E+00 0. -1.
</event>
<event>
 7    1  0.6444902E-006  0.4981275E+02  0.7818608E-02  0.1498218E+00
          2   -1    0    0  502    0  0.00000000000E+00  0.00000000000E+00  0.44846497579E+03  0.44846497579E+03  0.00000000000E+00 0. -1.
          1   -1    0    0  501    0 -0.00000000000E+00 -0.00000000000E+00 -0.56040698096E+02  0.56040698096E+02  0.00000000000E+00 0. -1.
         25    2    1    2    0    0 -0.80485673705E+02  0.16078898994E+02  0.10683292474E+03  0.18377767309E+03  0.12499793860E+03 0.  0.
          2    1    1    2  501    0  0.34295187690E+02 -0.25919453486E+01  0.35097724418E+01  0.34571615264E+02  0.00000000000E+00 0. -1.
          1    1    1    2  502    0  0.46190486015E+02 -0.13486953645E+02  0.28208158051E+03  0.28615638553E+03  0.00000000000E+00 0. -1.
         22    1    3    3    0    0  0.10335799884E+02 -0.34836274334E+02  0.58778717507E+02  0.69103779930E+02  0.00000000000E+00 0.  1.
         22    1    3    3    0    0 -0.90821473589E+02  0.50915173328E+02  0.48054207237E+02  0.11467389316E+03  0.00000000000E+00 0.  1.
</event>
<event>
 7    1  0.6444902E-006  0.7307586E+02  0.7818608E-02  0.1455566E+00
          2   -1    0    0  502    0  0.00000000000E+00  0.00000000000E+00  0.65729013272E+03  0.65729013272E+03  0.00000000000E+00 0. -1.
          1   -1    0    0  501    0 -0.00000000000E+00 -0.00000000000E+00 -0.34008332267E+03  0.34008332267E+03  0.00000000000E+00 0. -1.
         25    2    1    2    0    0  0.24600367014E+02  0.55836009467E+02 -0.17839530724E+03  0.22621856295E+03  0.12500845798E+03 0.  0.
          2    1    1    2  501    0  0.30747702374E+02 -0.78347329671E+01 -0.13379605446E+03  0.13750704866E+03  0.00000000000E+00 0. -1.
          1    1    1    2  502    0 -0.55348069387E+02 -0.48001276500E+02  0.62939817175E+03  0.63364784378E+03  0.00000000000E+00 0. -1.
         22    1    3    3    0    0  0.45222673457E+02  0.80087430616E+02 -0.77022409158E+02  0.11996473753E+03  0.00000000000E+00 0.  1.
         22    1    3    3    0    0 -0.20622306444E+02 -0.24251421149E+02 -0.10137289808E+03  0.10625382542E+03  0.00000000000E+00 0.  1.
</event>
<event>
 7    1  0.6444902E-006  0.2697268E+03  0.7818608E-02  0.1249019E+00
          2   -1    0    0  502    0  0.00000000000E+00  0.00000000000E+00  0.33358018332E+04  0.33358018332E+04  0.00000000000E+00 0. -1.
          1   -1    0    0  501    0 -0.00000000000E+00 -0.00000000000E+00 -0.13769572057E+04  0.13769572057E+04  0.00000000000E+00 0. -1.
         25    2    1    2    0    0 -0.27334222983E+03  0.16343038617E+03 -0.21014109344E+03  0.40150988013E+03  0.12500175582E+03 0.  0.
          2    1    1    2  501    0  0.46540913159E+02 -0.19083297931E+02 -0.10649604892E+04  0.10661477723E+04  0.00000000000E+00 0. -1.
          1    1    1    2  502    0  0.22680131667E+03 -0.14434708824E+03  0.32339462101E+04  0.32451013865E+04  0.00000000000E+00 0. -1.
         22    1    3    3    0    0 -0.11310932663E+03  0.43399544328E+02 -0.14928881849E+03  0.19226125856E+03  0.00000000000E+00 0.  1.
         22    1    3    3    0    0 -0.16023290320E+03  0.12003084184E+03 -0.60852274952E+02  0.20924862157E+03  0.00000000000E+00 0.  1.
</event>
<event>
 7    1  0.6444902E-006  0.3284587E+02  0.7818608E-02  0.1583556E+00
          2   -1    0    0  502    0  0.00000000000E+00  0.00000000000E+00  0.19794492800E+04  0.19794492800E+04  0.00000000000E+00 0. -1.
          1   -1    0    0  501    0 -0.00000000000E+00 -0.00000000000E+00 -0.49602300497E+02  0.49602300497E+02  0.00000000000E+00 0. -1.
         25    2    1    2    0    0 -0.61653695560E+02  0.14238507262E+01  0.45289561778E+03  0.47385987867E+03  0.12500215392E+03 0.  0.
          2    1    1    2  501    0  0.29490094831E+02 -0.51449332959E+01 -0.33194307774E+02  0.44698972028E+02  0.00000000000E+00 0. -1.
          1    1    1    2  502    0  0.32163600729E+02  0.37210825696E+01  0.15101456695E+04  0.15104927298E+04  0.00000000000E+00 0. -1.
         22    1    3    3    0    0 -0.91514917368E+02  0.22302400287E+02  0.23915715925E+03  0.25703798159E+03  0.00000000000E+00 0.  1.
         22    1    3    3    0    0  0.29861221808E+02 -0.20878549561E+02  0.21373845853E+03  0.21682189708E+03  0.00000000000E+00 0.  1.
</event>
<event>
 7    1  0.6444902E-006  0.1089023E+03  0.7818608E-02  0.1383629E+00
          2   -1    0    0  502    0  0.00000000000E+00  0.00000000000E+00  0.18693524953E+04  0.18693524953E+04  0.00000000000E+00 0. -1.
          1   -1    0    0  501    0 -0.00000000000E+00 -0.00000000000E+00 -0.27817681013E+02  0.27817681013E+02  0.00000000000E+00 0. -1.
         25    2    1    2    0    0 -0.74161724075E+02  0.11718027445E+03  0.81840202043E+03  0.83942741631E+03  0.12500136864E+03 0.  0.
          2    1    1    2  501    0  0.63096953609E+02 -0.81822094528E+02  0.14086268190E+03  0.17469509398E+03  0.00000000000E+00 0. -1.
          1    1    1    2  502    0  0.11064770467E+02 -0.35358179924E+02  0.88227011191E+03  0.88304766599E+03  0.00000000000E+00 0. -1.
         22    1    3    3    0    0 -0.90763807905E+02  0.33937971421E+02  0.33936889991E+03  0.35293215347E+03  0.00000000000E+00 0.  1.
         22    1    3    3    0    0  0.16602083829E+02  0.83242303030E+02  0.47903312052E+03  0.48649526283E+03  0.00000000000E+00 0.  1.
</event>
<event>
 7    1  0.6444902E-006  0.6377319E+02  0.7818608E-02  0.1454508E+00
          2   -1    0    0  502    0  0.00000000000E+00  0.00000000000E+00  0.10909433823E+04  0.10909433823E+04  0.00000000000E+00 0. -1.
          1   -1    0    0  501    0 -0.00000000000E+00 -0.00000000000E+00 -0.67955878868E+03  0.67955878868E+03  0.00000000000E+00 0. -1.
         25    2    1    2    0    0  0.67435377214E+02  0.68898579379E+02  0.18391832357E+03  0.24236231386E+03  0.12497598607E+03 0.  0.
          2    1    1    2  501    0 -0.34140110610E+02 -0.53601188451E+02 -0.64840031336E+03  0.65150717642E+03  0.00000000000E+00 0. -1.
          1    1    1    2  502    0 -0.33295266604E+02 -0.15297390928E+02  0.87586658339E+03  0.87663268069E+03  0.00000000000E+00 0. -1.
         22    1    3    3    0    0 -0.24281552460E+02  0.19566459075E+01 -0.20742849598E+01  0.24448413264E+02  0.00000000000E+00 0. -1.
         22    1    3    3    0    0  0.91716929673E+02  0.66941933472E+02  0.18599260853E+03  0.21791390060E+03  0.00000000000E+00 0. -1.
</event>
<event>
 7    1  0.6444902E-006  0.6245304E+02  0.7818608E-02  0.1541378E+00
          2   -1    0    0  502    0  0.00000000000E+00  0.00000000000E+00  0.30136062114E+04  0.30136062114E+04  0.00000000000E+00 0. -1.
          1   -1    0    0  501    0 -0.00000000000E+00 -0.00000000000E+00 -0.15266113131E+02  0.15266113131E+02  0.00000000000E+00 0. -1.
         25    2    1    2    0    0  0.17118712264E+02  0.41249019097E+02  0.10751341389E+04  0.10832969611E+04  0.12499742975E+03 0.  0.
          2    1    1    2  501    0  0.33916258394E+01  0.20270672998E+02 -0.71201963728E+00  0.20564782557E+02  0.00000000000E+00 0. -1.
          1    1    1    2  502    0 -0.20510338103E+02 -0.61519692095E+02  0.19239179790E+04  0.19250105809E+04  0.00000000000E+00 0. -1.
         22    1    3    3    0    0  0.39687361143E+02  0.79183542976E+02  0.70795700334E+03  0.71347616547E+03  0.00000000000E+00 0. -1.
         22    1    3    3    0    0 -0.22568648880E+02 -0.37934523879E+02  0.36717713553E+03  0.36982079562E+03  0.00000000000E+00 0. -1.
</event>
<event>
 7    1  0.6444902E-006  0.4974228E+02  0.7818608E-02  0.1505240E+00
          2   -1    0    0  502    0  0.00000000000E+00  0.00000000000E+00  0.12329165217E+02  0.12329165217E+02  0.00000000000E+00 0. -1.
          1   -1    0    0  501    0 -0.00000000000E+00 -0.00000000000E+00 -0.20626314907E+04  0.20626314907E+04  0.00000000000E+00 0. -1.
         25    2    1    2    0    0  0.21122415834E+02 -0.13998885306E+02 -0.44443320672E+03  0.46237291943E+03  0.12500286455E+03 0.  0.
          2    1    1    2  501    0 -0.51098995636E+02  0.62871530758E+00 -0.15168425274E+04  0.15177031184E+04  0.00000000000E+00 0. -1.
          1    1    1    2  502    0  0.29976579802E+02  0.13370169999E+02 -0.89026591416E+02  0.94884618150E+02  0.00000000000E+00 0. -1.
         22    1    3    3    0    0 -0.54008634818E+01 -0.41004122774E+02 -0.40714198480E+03  0.40923722118E+03  0.00000000000E+00 0. -1.
         22    1    3    3    0    0  0.26523279316E+02  0.27005237468E+02 -0.37291221917E+02  0.53135698250E+02  0.00000000000E+00 0. -1.
</event>
<event>
 7    1  0.6444902E-006  0.2613310E+02  0.7818608E-02  0.1665237E+00
          2   -1    0    0  502    0  0.00000000000E+00  0.00000000000E+00  0.20085831008E+02  0.20085831008E+02  0.00000000000E+00 0. -1.
          1   -1    0    0  501    0 -0.00000000000E+00 -0.00000000000E+00 -0.19749804956E+04  0.19749804956E+04  0.00000000000E+00 0. -1.
         25    2    1    2    0    0  0.15798060396E+02 -0.50784490050E+01 -0.33369627770E+03  0.35672664626E+03  0.12500130015E+03 0.  0.
          2    1    1    2  501    0  0.48197965880E+01  0.22857275552E+02 -0.16078482312E+04  0.16080179166E+04  0.00000000000E+00 0. -1.
          1    1    1    2  502    0 -0.20617856984E+02 -0.17778826547E+02 -0.13350155657E+02  0.30321763736E+02  0.00000000000E+00 0. -1.
         22    1    3    3    0    0 -0.50113475195E+02 -0.22750013850E+02 -0.11244556430E+03  0.12519156704E+03  0.00000000000E+00 0. -1.
         22    1    3    3    0    0  0.65911535590E+02  0.17671564845E+02 -0.22125071340E+03  0.23153507922E+03  0.00000000000E+00 0. -1.
</event>
<event>
 7    1  0.6444902E-006  0.5221237E+02  0.7818608E-02  0.1474295E+00
          2   -1    0    0  502    0  0.00000000000E+00  0.00000000000E+00  0.21329893569E+03  0.21329893569E+03  0.00000000000E+00 0. -1.
          1   -1    0    0  501    0 -0.00000000000E+00 -0.00000000000E+00 -0.13539084654E+04  0.13539084654E+04  0.00000000000E+00 0. -1.
         25    2    1    2    0    0  0.18211918778E+02  0.17327419063E+02 -0.74369421228E+03  0.75454491689E+03  0.12500014716E+03 0.  0.
          2    1    1    2  501    0 -0.16707461631E+02  0.35015030979E+02 -0.60085565557E+03  0.60210689292E+03  0.00000000000E+00 0. -1.
          1    1    1    2  502    0 -0.15044571467E+01 -0.52342450041E+02  0.20394033818E+03  0.21055559124E+03  0.00000000000E+00 0. -1.
         22    1    3    3    0    0  0.52207842011E+02 -0.25580440058E+02 -0.55597349814E+03  0.55900496269E+03  0.00000000000E+00 0.  1.
         22    1    3    3    0    0 -0.33995923233E+02  0.42907859121E+02 -0.18772071415E+03  0.19553995420E+03  0.00000000000E+00 0.  1.
</event>
<event>
 7    1  0.6444902E-006  0.8832408E+02  0.7818608E-02  0.1465316E+00
          2   -1    0    0  502    0  0.00000000000E+00  0.00000000000E+00  0.70749341579E+02  0.70749341579E+02  0.00000000000E+00 0. -1.
          1   -1    0    0  501    0 -0.00000000000E+00 -0.00000000000E+00 -0.56555737826E+03  0.56555737826E+03  0.00000000000E+00 0. -1.
         25    2    1    2    0    0  0.62370063636E+02  0.22894998637E+02 -0.40418147471E+03  0.42825336600E+03  0.12499630069E+03 0.  0.
          2    1    1    2  501    0  0.19746205096E+02  0.14432810689E+02 -0.11258971003E+03  0.11521571701E+03  0.00000000000E+00 0. -1.
          1    1    1    2  502    0 -0.82116268733E+02 -0.37327809326E+02  0.21963148067E+02  0.92837636833E+02  0.00000000000E+00 0. -1.
         22    1    3    3    0    0  0.76200790707E+02 -0.32221976094E+02 -0.20331646809E+03  0.21950490301E+03  0.00000000000E+00 0.  1.
         22    1    3    3    0    0 -0.13830727071E+02  0.55116974732E+02 -0.20086500662E+03  0.20874846299E+03  0.00000000000E+00 0.  1.
</event>
<event>
 7    1  0.6444902E-006  0.1173956E+03  0.7818608E-02  0.1378470E+00
          2   -1    0    0  502    0  0.00000000000E+00  0.00000000000E+00  0.81740341184E+03  0.81740341184E+03  0.00000000000E+00 0. -1.
          1   -1    0    0  501    0 -0.00000000000E+00 -0.00000000000E+00 -0.54647614867E+03  0.54647614867E+03  0.00000000000E+00 0. -1.
         25    2    1    2    0    0 -0.48524591773E+02  0.11761313636E+03 -0.28829832723E+02  0.18064354107E+03  0.12495376674E+03 0.  0.
          2    1    1    2  501    0  0.12710982626E+02 -0.11616279210E+03 -0.43356590219E+03  0.44903758739E+03  0.00000000000E+00 0. -1.
          1    1    1    2  502    0  0.35813609147E+02 -0.14503442566E+01  0.73332299809E+03  0.73419843205E+03  0.00000000000E+00 0. -1.
         22    1    3    3    0    0 -0.38228651155E+01  0.21676205587E+02 -0.65132127741E+02  0.68750754545E+02  0.00000000000E+00 0.  1.
         22    1    3    3    0    0 -0.44701726657E+02  0.95936930774E+02  0.36302295018E+02  0.11189278652E+03  0.00000000000E+00 0.  1.
</event>
<event>
 7    1  0.6444902E-006  0.1501222E+03  0.7818608E-02  0.1246328E+00
          2   -1    0    0  502    0  0.00000000000E+00  0.00000000000E+00  0.20443649776E+03  0.20443649776E+03  0.00000000000E+00 0. -1.
          1   -1    0    0  501    0 -0.00000000000E+00 -0.00000000000E+00 -0.27485112582E+04  0.27485112582E+04  0.00000000000E+00 0. -1.
         25    2    1    2    0    0  0.70397287396E+02  0.26168035708E+02 -0.35106003424E+02  0.14999441536E+03  0.12500139599E+03 0.  0.
          2    1    1    2  501    0 -0.15233737192E+03  0.17498379520E+02 -0.26388477143E+04  0.26432990991E+04  0.00000000000E+00 0. -1.
          1    1    1    2  502    0  0.81940084525E+02 -0.43666415228E+02  0.12987895729E+03  0.15965424147E+03  0.00000000000E+00 0. -1.
         22    1    3    3    0    0  0.69551483403E+01  0.30408267300E+02 -0.70593255087E+02  0.77178005108E+02  0.00000000000E+00 0.  1.
         22    1    3    3    0    0  0.63442139056E+02 -0.42402315925E+01  0.35487251663E+02  0.72816410256E+02  0.00000000000E+00 0.  1.
</event>
<event>
 7    1  0.6444902E-006  0.1706951E+03  0.7818608E-02  0.1256701E+00
          2   -1    0    0  502    0  0.00000000000E+00  0.00000000000E+00  0.12924456052E+04  0.12924456052E+04  0.00000000000E+00 0. -1.
          1   -1    0    0  501    0 -0.00000000000E+00 -0.00000000000E+00 -0.20711650134E+03  0.20711650134E+03  0.00000000000E+00 0. -1.
         25    2    1    2    0    0 -0.10880918708E+03  0.57920615544E+02  0.34880630801E+03  0.39049287500E+03  0.12499843205E+03 0.  0.
          2    1    1    2  501    0  0.17501907505E+03 -0.25685808717E+02 -0.14238668148E+03  0.22708017188E+03  0.00000000000E+00 0. -1.
          1    1    1    2  502    0 -0.66209887965E+02 -0.32234806827E+02  0.87890947734E+03  0.88198905968E+03  0.00000000000E+00 0. -1.
         22    1    3    3    0    0  0.37117331637E+01 -0.23175479722E+02  0.12506486444E+03  0.12724818325E+03  0.00000000000E+00 0.  1.
         22    1    3    3    0    0 -0.11252092025E+03  0.81096095266E+02  0.22374144357E+03  0.26324469174E+03  0.00000000000E+00 0.  1.
</event>
<event>
 7    1  0.6444902E-006  0.1321619E+03  0.7818608E-02  0.1265173E+00
          2   -1    0    0  502    0  0.00000000000E+00  0.00000000000E+00  0.38470564507E+03  0.38470564507E+03  0.00000000000E+00 0. -1.
          1   -1    0    0  501    0 -0.00000000000E+00 -0.00000000000E+00 -0.18572818987E+04  0.18572818987E+04  0.00000000000E+00 0. -1.
         25    2    1    2    0    0 -0.20609434375E+03  0.48723972975E+02 -0.18271411667E+03  0.30635866729E+03  0.12498912165E+03 0.  0.
          2    1    1    2  501    0  0.12871406514E+03 -0.78251950236E+01 -0.16041790695E+04  0.16093536067E+04  0.00000000000E+00 0. -1.
          1    1    1    2  502    0  0.77380278602E+02 -0.40898777952E+02  0.31431693258E+03  0.32627526977E+03  0.00000000000E+00 0. -1.
         22    1    3    3    0    0 -0.37164594809E+02  0.25553309973E+02 -0.11386464014E+03  0.12247177239E+03  0.00000000000E+00 0.  1.
         22    1    3    3    0    0 -0.16892974894E+03  0.23170663002E+02 -0.68849476527E+02  0.18388689491E+03  0.00000000000E+00 0.  1.
</event>
<event>
 7    1  0.6444902E-006  0.5621010E+02  0.7818608E-02  0.1425695E+00
          2   -1    0    0  502    0  0.00000000000E+00  0.00000000000E+00  0.16866762023E+03  0.16866762023E+03  0.00000000000E+00 0. -1.
          1   -1    0    0  501    0 -0.00000000000E+00 -0.00000000000E+00 -0.10716459848E+03  0.10716459848E+03  0.00000000000E+00 0. -1.
         25    2    1    2    0    0  0.39130412086E+02  0.26624425995E+02  0.56977344585E+01  0.13378037403E+03  0.12499870035E+03 0.  0.
          2    1    1    2  501    0 -0.64387652053E+02  0.18323591958E+02  0.12041736703E+01  0.66955013206E+02  0.00000000000E+00 0. -1.
          1    1    1    2  502    0  0.25257239967E+02 -0.44948017953E+02  0.54601113626E+02  0.75096831477E+02  0.00000000000E+00 0. -1.
         22    1    3    3    0    0 -0.18478561235E+02  0.41481823974E+02 -0.38604893901E+02  0.59603160811E+02  0.00000000000E+00 0. -1.
         22    1    3    3    0    0  0.57608973321E+02 -0.14857397979E+02  0.44302628359E+02  0.74177213222E+02  0.00000000000E+00 0. -1.
</event>
<event>
 7    1  0.6444902E-006  0.8476985E+02  0.7818608E-02  0.1350597E+00
          2   -1    0    0  502    0  0.00000000000E+00  0.00000000000E+00  0.17491141211E+03  0.17491141211E+03  0.00000000000E+00 0. -1.
          1   -1    0    0  501    0 -0.00000000000E+00 -0.00000000000E+00 -0.24699939013E+03  0.24699939013E+03  0.00000000000E+00 0. -1.
         25    2    1    2    0    0 -0.75960481459E+02  0.49245223432E+02  0.37285773627E+02  0.15877765041E+03  0.12500010632E+03 0.  0.
          2    1    1    2  501    0  0.23321374949E+02 -0.83200087098E+02 -0.16049736928E+03  0.18227876060E+03  0.00000000000E+00 0. -1.
          1    1    1    2  502    0  0.52639106510E+02  0.33954863666E+02  0.51123617636E+02  0.80854391229E+02  0.00000000000E+00 0. -1.
         22    1    3    3    0    0 -0.37285856677E+02 -0.10683926464E+02 -0.38539677813E+02  0.54678040919E+02  0.00000000000E+00 0.  1.
         22    1    3    3    0    0 -0.38674624782E+02  0.59929149897E+02  0.75825451440E+02  0.10409960949E+03  0.00000000000E+00 0.  1.
</event>
<event>
 7    1  0.6444902E-006  0.1084720E+03  0.7818608E-02  0.1289400E+00
          2   -1    0    0  502    0  0.00000000000E+00  0.00000000000E+00  0.75888070946E+03  0.75888070946E+03  0.00000000000E+00 0. -1.
          1   -1    0    0  501    0 -0.00000000000E+00 -0.00000000000E+00 -0.65028308026E+03  0.65028308026E+03  0.00000000000E+00 0. -1.
         25    2    1    2    0    0 -0.58028020949E+02  0.15360423132E+03 -0.27412979192E+03  0.34312335219E+03  0.12499992361E+03 0.  0.
          2    1    1    2  501    0  0.70750222715E+02 -0.46377767839E+02 -0.33230347371E+03  0.34290244969E+03  0.00000000000E+00 0. -1.
          1    1    1    2  502    0 -0.12722201766E+02 -0.10722646348E+03  0.71503089484E+03  0.72313798784E+03  0.00000000000E+00 0. -1.
         22    1    3    3    0    0 -0.81268511266E+02  0.15989464257E+03 -0.21978180793E+03  0.28368100173E+03  0.00000000000E+00 0.  1.
         22    1    3    3    0    0  0.23240490317E+02 -0.62904112521E+01 -0.54347983987E+02  0.59442350453E+02  0.00000000000E+00 0.  1.
</event>
<event>
 7    1  0.6444902E-006  0.2148395E+03  0.7818608E-02  0.1192176E+00
          2   -1    0    0  502    0  0.00000000000E+00  0.00000000000E+00  0.59011383856E+03  0.59011383856E+03  0.00000000000E+00 0. -1.
          1   -1    0    0  501    0 -0.00000000000E+00 -0.00000000000E+00 -0.15540543846E+04  0.15540543846E+04  0.00000000000E+00 0. -1.
         25    2    1    2    0    0 -0.70858102083E+02 -0.29692780824E+03  0.15300754632E+03  0.36362546391E+03  0.12500069933E+03 0.  0.
          2    1    1    2  501    0  0.18267741912E+02  0.11320472584E+03 -0.14187222167E+04  0.14233487796E+04  0.00000000000E+00 0. -1.
          1    1    1    2  502    0  0.52590360172E+02  0.18372308240E+03  0.30177412430E+03  0.35719397964E+03  0.00000000000E+00 0. -1.
         22    1    3    3    0    0  0.32812923246E+02 -0.11135695853E+03  0.39330840801E+02  0.12257232633E+03  0.00000000000E+00 0.  1.
         22    1    3    3    0    0 -0.10367102533E+03 -0.18557084972E+03  0.11367670552E+03  0.24105313758E+03  0.00000000000E+00 0.  1.
</event>
<event>
 7    1  0.6444902E-006  0.8979736E+02  0.7818608E-02  0.1324858E+00
          2   -1    0    0  502    0  0.00000000000E+00  0.00000000000E+00  0.94875056693E+03  0.94875056693E+03  0.00000000000E+00 0. -1.
          1   -1    0    0  501    0 -0.00000000000E+00 -0.00000000000E+00 -0.68883016570E+02  0.68883016570E+02  0.00000000000E+00 0. -1.
         25    2    1    2    0    0  0.11042952102E+01  0.48218017251E+02  0.67579436336E+03  0.68894808365E+03  0.12500097503E+03 0.  0.
          2    1    1    2  501    0 -0.74687936548E+02 -0.55693763090E+02 -0.17762180183E+02  0.94845021787E+02  0.00000000000E+00 0. -1.
          1    1    1    2  502    0  0.73583641337E+02  0.74757458389E+01  0.22183536718E+03  0.23384047806E+03  0.00000000000E+00 0. -1.
         22    1    3    3    0    0  0.34426707369E+02  0.76087486790E+02  0.53872402959E+03  0.54515876943E+03  0.00000000000E+00 0.  1.
         22    1    3    3    0    0 -0.33322412159E+02 -0.27869469539E+02  0.13707033377E+03  0.14378931422E+03  0.00000000000E+00 0.  1.
</event>
<event>
 7    1  0.1057981E-005  0.6979114E+02  0.7818608E-02  0.1485546E+00
          2   -1    0    0  502    0  0.00000000000E+00  0.00000000000E+00  0.23646886264E+04  0.23646886264E+04  0.00000000000E+00 0. -1.
          1   -1    0    0  501    0 -0.00000000000E+00 -0.00000000000E+00 -0.68847310667E+03  0.68847310667E+03  0.00000000000E+00 0. -1.
         25    2    1    2    0    0  0.47193200899E+02 -0.76990530706E+02 -0.38028491053E+03  0.41036212211E+03  0.12500287217E+03 0.  0.
          2    1    1    2  501    0  0.12440493859E+01  0.26778251160E+02 -0.29201763405E+03  0.29324549611E+03  0.00000000000E+00 0. -1.
          1    1    1    2  502    0 -0.48437250285E+02  0.50212279546E+02  0.23485180643E+04  0.23495541149E+04  0.00000000000E+00 0. -1.
         22    1    3    3    0    0  0.83571016346E+02 -0.18984352326E+02 -0.21599951265E+03  0.23237966750E+03  0.00000000000E+00 0.  1.
         22    1    3    3    0    0 -0.36377815447E+02 -0.58006178380E+02 -0.16428539789E+03  0.17798245460E+03  0.00000000000E+00 0.  1.
</event>
<event>
 7    1  0.6444902E-006  0.2212594E+03  0.7818608E-02  0.1264343E+00
          2   -1    0    0  502    0  0.00000000000E+00  0.00000000000E+00  0.10019374491E+04  0.10019374491E+04  0.00000000000E+00 0. -1.
          1   -1    0    0  501    0 -0.00000000000E+00 -0.00000000000E+00 -0.15186083289E+03  0.15186083289E+03  0.00000000000E+00 0. -1.
         25    2    1    2    0    0 -0.23967554649E+03 -0.10183150359E+03  0.47546844263E+03  0.55633533139E+03  0.12499895325E+03 0.  0.
          2    1    1    2  501    0  0.20409852059E+03  0.62947217731E+02 -0.55615003257E+01  0.21365740945E+03  0.00000000000E+00 0. -1.
          1    1    1    2  502    0  0.35577025900E+02  0.38884285863E+02  0.38016967391E+03  0.38380554115E+03  0.00000000000E+00 0. -1.
         22    1    3    3    0    0 -0.20485415744E+03 -0.36576798703E+02  0.29238761518E+03  0.35887826005E+03  0.00000000000E+00 0.  1.
         22    1    3    3    0    0 -0.34821389046E+02 -0.65254704891E+02  0.18308082745E+03  0.19745707135E+03  0.00000000000E+00 0.  1.
</event>
<event>
 7    1  0.6444902E-006  0.7867703E+02  0.7818608E-02  0.1364276E+00
          2   -1    0    0  502    0  0.00000000000E+00  0.00000000000E+00  0.13778015661E+04  0.13778015661E+04  0.00000000000E+00 0. -1.
          1   -1    0    0  501    0 -0.00000000000E+00 -0.00000000000E+00 -0.70742663936E+03  0.70742663936E+03  0.00000000000E+00 0. -1.
         25    2    1    2    0    0 -0.24238231556E+02  0.12600008704E+03  0.30067468087E+03  0.34998953469E+03  0.12499558741E+03 0.  0.
          2    1    1    2  501    0  0.32957212292E+02 -0.50300251683E+02 -0.68006140784E+03  0.68271502956E+03  0.00000000000E+00 0. -1.
          1    1    1    2  502    0 -0.87189807369E+01 -0.75699835360E+02  0.10497616537E+04  0.10525236412E+04  0.00000000000E+00 0. -1.
         22    1    3    3    0    0 -0.22225391093E+02  0.89204985020E+02  0.29931434836E+03  0.31311431857E+03  0.00000000000E+00 0. -1.
         22    1    3    3    0    0 -0.20128404623E+01  0.36795102023E+02  0.13603325182E+01  0.36875216124E+02  0.00000000000E+00 0. -1.
</event>
<event>
 7    1  0.6444902E-006  0.1451974E+03  0.7818608E-02  0.1331338E+00
          2   -1    0    0  502    0  0.00000000000E+00  0.00000000000E+00  0.18832764581E+03  0.18832764581E+03  0.00000000000E+00 0. -1.
          1   -1    0    0  501    0 -0.00000000000E+00 -0.00000000000E+00 -0.52962323441E+03  0.52962323441E+03  0.00000000000E+00 0. -1.
         25    2    1    2    0    0 -0.13612651719E+03 -0.26361917096E+02 -0.23182643858E+02  0.18811792669E+03  0.12500216002E+03 0.  0.
          2    1    1    2  501    0  0.25646438584E+01 -0.43124389867E+02 -0.36853464960E+03  0.37105805254E+03  0.00000000000E+00 0. -1.
          1    1    1    2  502    0  0.13356187333E+03  0.69486306963E+02  0.50421704858E+02  0.15877490099E+03  0.00000000000E+00 0. -1.
         22    1    3    3    0    0 -0.48193368091E+02 -0.38414786611E+02  0.44904920187E+02  0.76254497673E+02  0.00000000000E+00 0. -1.
         22    1    3    3    0    0 -0.87933149097E+02  0.12052869515E+02 -0.68087564045E+02  0.11186342902E+03  0.00000000000E+00 0. -1.
</event>
<event>
 7    1  0.6444902E-006  0.1183124E+03  0.7818608E-02  0.1364767E+00
          2   -1    0    0  502    0  0.00000000000E+00  0.00000000000E+00  0.16356813461E+04  0.16356813461E+04  0.00000000000E+00 0. -1.
          1   -1    0    0  501    0 -0.00000000000E+00 -0.00000000000E+00 -0.13802756771E+03  0.13802756771E+03  0.00000000000E+00 0. -1.
         25    2    1    2    0    0 -0.76111718673E+02 -0.98286866722E+02  0.34936420597E+02  0.17971326189E+03  0.12499200425E+03 0.  0.
          2    1    1    2  501    0  0.37453093303E+02 -0.13543037951E+02 -0.57079128270E+02  0.69600107464E+02  0.00000000000E+00 0. -1.
          1    1    1    2  502    0  0.38658625370E+02  0.11182990467E+03  0.15197964860E+04  0.15243955444E+04  0.00000000000E+00 0. -1.
         22    1    3    3    0    0  0.44243526876E-01 -0.88640782046E+02  0.49580023360E+02  0.10156460464E+03  0.00000000000E+00 0.  1.
         22    1    3    3    0    0 -0.76155962200E+02 -0.96460846764E+01 -0.14643602763E+02  0.78148657251E+02  0.00000000000E+00 0.  1.
</event>
<event>
 7    1  0.6444902E-006  0.1158773E+03  0.7818608E-02  0.1332723E+00
          2   -1    0    0  502    0  0.00000000000E+00  0.00000000000E+00  0.22521329783E+04  0.22521329783E+04  0.00000000000E+00 0. -1.
          1   -1    0    0  501    0 -0.00000000000E+00 -0.00000000000E+00 -0.10877942348E+04  0.10877942348E+04  0.00000000000E+00 0. -1.
         25    2    1    2    0    0 -0.21838197101E+02 -0.14377458454E+03 -0.18971870581E+03  0.26975202962E+03  0.12499972854E+03 0.  0.
          2    1    1    2  501    0 -0.21041585609E+02  0.11181789021E+03 -0.85396179933E+03  0.86150841181E+03  0.00000000000E+00 0. -1.
          1    1    1    2  502    0  0.42879782710E+02  0.31956694334E+02  0.22080192486E+04  0.22086667717E+04  0.00000000000E+00 0. -1.
         22    1    3    3    0    0 -0.72225844369E+01 -0.64384340771E+02 -0.17641913414E+03  0.18793940500E+03  0.00000000000E+00 0.  1.
         22    1    3    3    0    0 -0.14615612664E+02 -0.79390243773E+02 -0.13299571674E+02  0.81812624617E+02  0.00000000000E+00 0.  1.
</event>
<event>
 7    1  0.7587327E-006  0.8228595E+02  0.7818608E-02  0.1389803E+00
          2   -1    0    0  502    0  0.00000000000E+00  0.00000000000E+00  0.87710588333E+03  0.87710588333E+03  0.00000000000E+00 0. -1.
          1   -1    0    0  501    0 -0.00000000000E+00 -0.00000000000E+00 -0.18121616546E+04  0.18121616546E+04  0.00000000000E+00 0. -1.
         25    2    1    2    0    0 -0.86438564046E+02 -0.19193618318E+02 -0.25216720513E+03  0.29504795728E+03  0.12499990966E+03 0.  0.
          2    1    1    2  501    0  0.27148860380E+02 -0.37934418011E+02 -0.15362186183E+04  0.15369267139E+04  0.00000000000E+00 0. -1.
          1    1    1    2  502    0  0.59289703667E+02  0.57128036329E+02  0.85333005215E+03  0.85729286676E+03  0.00000000000E+00 0. -1.
         22    1    3    3    0    0 -0.71067063565E+02 -0.42234061504E+02 -0.25417189144E+03  0.26727812083E+03  0.00000000000E+00 0. -1.
         22    1    3    3    0    0 -0.15371500481E+02  0.23040443186E+02  0.20046863138E+01  0.27769836450E+02  0.00000000000E+00 0. -1.
</event>
<event>
 7    1  0.6444902E-006  0.4693805E+02  0.7818608E-02  0.1477737E+00
          2   -1    0    0  502    0  0.00000000000E+00  0.00000000000E+00  0.18361005455E+04  0.18361005455E+04  0.00000000000E+00 0. -1.
          1   -1    0    0  501    0 -0.00000000000E+00 -0.00000000000E+00 -0.49446242695E+02  0.49446242695E+02  0.00000000000E+00 0. -1.
         25    2    1    2    0    0  0.69541940943E+01 -0.29139743095E+01  0.12124062435E+03  0.17430309171E+03  0.12500170689E+03 0.  0.
          2    1    1    2  501    0 -0.34622445602E+02 -0.35002358915E+02  0.42489016380E+01  0.49415908715E+02  0.00000000000E+00 0. -1.
          1    1    1    2  502    0  0.27668251507E+02  0.37916333224E+02  0.16611647769E+04  0.16618277878E+04  0.00000000000E+00 0. -1.
         22    1    3    3    0    0  0.18413477556E+02  0.40030274014E+02 -0.11650558249E+01  0.44077617318E+02  0.00000000000E+00 0.  1.
         22    1    3    3    0    0 -0.11459283462E+02 -0.42944248324E+02  0.12240568018E+03  0.13022547439E+03  0.00000000000E+00 0.  1.
</event>
<event>
 7    1  0.6444902E-006  0.2066164E+03  0.7818608E-02  0.1314799E+00
          2   -1    0    0  502    0  0.00000000000E+00  0.00000000000E+00  0.12778178225E+04  0.12778178225E+04  0.00000000000E+00 0. -1.
          1   -1    0    0  501    0 -0.00000000000E+00 -0.00000000000E+00 -0.11160295954E+03  0.11160295954E+03  0.00000000000E+00 0. -1.
         25    2    1    2    0    0 -0.83692837812E+02  0.16434549501E+03  0.34662168454E+03  0.41205037089E+03  0.12499993250E+03 0.  0.
          2    1    1    2  501    0  0.11337269499E+03 -0.18321089967E+03  0.69400368556E+02  0.22635373397E+03  0.00000000000E+00 0. -1.
          1    1    1    2  502    0 -0.29679857179E+02  0.18865404655E+02  0.75019280989E+03  0.75101667719E+03  0.00000000000E+00 0. -1.
         22    1    3    3    0    0 -0.21772955258E+02 -0.15234905372E+02  0.16801731027E+02  0.31439816919E+02  0.00000000000E+00 0.  1.
         22    1    3    3    0    0 -0.61919882554E+02  0.17958040039E+03  0.32981995351E+03  0.38061055397E+03  0.00000000000E+00 0.  1.
</event>
<event>
 7    1  0.6444902E-006  0.6395760E+02  0.7818608E-02  0.1416723E+00
          2   -1    0    0  502    0  0.00000000000E+00  0.00000000000E+00  0.25177112206E+02  0.25177112206E+02  0.00000000000E+00 0. -1.
          1   -1    0    0  501    0 -0.00000000000E+00 -0.00000000000E+00 -0.13265947611E+04  0.13265947611E+04  0.00000000000E+00 0. -1.
         25    2    1    2    0    0 -0.56989440449E+01 -0.37210752717E+02 -0.76738113747E+03  0.77840600144E+03  0.12499989939E+03 0.  0.
          2    1    1    2  501    0 -0.21588713838E+02  0.77359188414E+02 -0.51499641326E+03  0.52122147142E+03  0.00000000000E+00 0. -1.
          1    1    1    2  502    0  0.27287657883E+02 -0.40148435696E+02 -0.19040098185E+02  0.52144400471E+02  0.00000000000E+00 0. -1.
         22    1    3    3    0    0  0.51741210338E+02 -0.37792916002E+02 -0.54387235418E+03  0.54763363208E+03  0.00000000000E+00 0.  1.
         22    1    3    3    0    0 -0.57440154383E+02  0.58216328414E+00 -0.22350878329E+03  0.23077236935E+03  0.00000000000E+00 0.  1.
</event>
<event>
 7    1  0.6444902E-006  0.5960306E+02  0.7818608E-02  0.1514203E+00
          2   -1    0    0  502    0  0.00000000000E+00  0.00000000000E+00  0.21082093730E+04  0.21082093730E+04  0.00000000000E+00 0. -1.
          1   -1    0    0  501    0 -0.00000000000E+00 -0.00000000000E+00 -0.70142997793E+03  0.70142997793E+03  0.00000000000E+00 0. -1.
         25    2    1    2    0    0 -0.45049509244E+02 -0.65327398140E+02  0.55879904419E+03  0.57808210702E+03  0.12500169371E+03 0.  0.
          2    1    1    2  501    0  0.23346424787E+02  0.10928618737E+02 -0.69099108858E+03  0.69147174545E+03  0.00000000000E+00 0. -1.
          1    1    1    2  502    0  0.21703084457E+02  0.54398779403E+02  0.15389714395E+04  0.15400854985E+04  0.00000000000E+00 0. -1.
         22    1    3    3    0    0 -0.10745559071E+02 -0.48083738115E+01  0.44185255066E+03  0.44200934834E+03  0.00000000000E+00 0.  1.
         22    1    3    3    0    0 -0.34303950173E+02 -0.60519024329E+02  0.11694649353E+03  0.13607275867E+03  0.00000000000E+00 0.  1.
</event>
<event>
 7    1  0.6444902E-006  0.2941955E+03  0.7818608E-02  0.1122096E+00
          2   -1    0    0  502    0  0.00000000000E+00  0.00000000000E+00  0.48075599102E+03  0.48075599102E+03  0.00000000000E+00 0. -1.
          1   -1    0    0  501    0 -0.00000000000E+00 -0.00000000000E+00 -0.13511963232E+04  0.13511963232E+04  0.00000000000E+00 0. -1.
         25    2    1    2    0    0  0.33823858607E+03  0.22202072699E+03 -0.14616919380E+03  0.44798345563E+03  0.12500079590E+03 0.  0.
          2    1    1    2  501    0 -0.14902770659E+03 -0.24177970956E+03 -0.10052740916E+04  0.10446256193E+04  0.00000000000E+00 0. -1.
          1    1    1    2  502    0 -0.18921087948E+03  0.19758982568E+02  0.28100295324E+03  0.33934323926E+03  0.00000000000E+00 0. -1.
         22    1    3    3    0    0  0.17017409880E+03  0.15764794628E+03 -0.13331588117E+03  0.26755414973E+03  0.00000000000E+00 0. -1.
         22    1    3    3    0    0  0.16806448727E+03  0.64372780714E+02 -0.12853312634E+02  0.18042930589E+03  0.00000000000E+00 0. -1.
</event>
<event>
 7    1  0.6444902E-006  0.7787987E+02  0.7818608E-02  0.1439505E+00
          2   -1    0    0  502    0  0.00000000000E+00  0.00000000000E+00  0.85776011809E+03  0.85776011809E+03  0.00000000000E+00 0. -1.
          1   -1    0    0  501    0 -0.00000000000E+00 -0.00000000000E+00 -0.93802457692E+02  0.93802457692E+02  0.00000000000E+00 0. -1.
         25    2    1    2    0    0 -0.47837179298E+02 -0.86445409763E+02  0.65818714923E+03  0.67719792483E+03  0.12500200556E+03 0.  0.
          2    1    1    2  501    0  0.17259384446E+02  0.28743002438E+02 -0.75004116271E+02  0.82156338759E+02  0.00000000000E+00 0. -1.
          1    1    1    2  502    0  0.30577794852E+02  0.57702407325E+02  0.18077462744E+03  0.19220831219E+03  0.00000000000E+00 0. -1.
         22    1    3    3    0    0  0.85588691099E+01 -0.98090133388E+02  0.47788115567E+03  0.48791938622E+03  0.00000000000E+00 0.  1.
         22    1    3    3    0    0 -0.56396048408E+02  0.11644723625E+02  0.18030599356E+03  0.18927853861E+03  0.00000000000E+00 0.  1.
</event>
<event>
 7    1  0.6444902E-006  0.1820011E+03  0.7818608E-02  0.1175790E+00
          2   -1    0    0  502    0  0.00000000000E+00  0.00000000000E+00  0.55435744623E+03  0.55435744623E+03  0.00000000000E+00 0. -1.
          1   -1    0    0  501    0 -0.00000000000E+00 -0.00000000000E+00 -0.13310964830E+04  0.13310964830E+04  0.00000000000E+00 0. -1.
         25    2    1    2    0    0  0.33864648585E+02  0.33765790565E+02 -0.66061408778E+02  0.14925861864E+03  0.12500832961E+03 0.  0.
          2    1    1    2  501    0  0.14128505351E+03  0.80331759123E+02 -0.11964071685E+04  0.12073958633E+04  0.00000000000E+00 0. -1.
          1    1    1    2  502    0 -0.17514970210E+03 -0.11409754969E+03  0.48572954048E+03  0.52879944732E+03  0.00000000000E+00 0. -1.
         22    1    3    3    0    0  0.68054625385E+02  0.49736225851E+02 -0.72249539199E+02  0.11101855752E+03  0.00000000000E+00 0. -1.
         22    1    3    3    0    0 -0.34189976801E+02 -0.15970435286E+02  0.61881304214E+01  0.38240061127E+02  0.00000000000E+00 0. -1.
</event>
<event>
 7    1  0.6444902E-006  0.8455852E+02  0.7818608E-02  0.1323134E+00
          2   -1    0    0  502    0  0.00000000000E+00  0.00000000000E+00  0.63634249160E+03  0.63634249160E+03  0.00000000000E+00 0. -1.
          1   -1    0    0  501    0 -0.00000000000E+00 -0.00000000000E+00 -0.88370085296E+03  0.88370085296E+03  0.00000000000E+00 0. -1.
         25    2    1    2    0    0 -0.13891519908E+03  0.75848639915E+02  0.68212656547E+02  0.21290389534E+03  0.12499861370E+03 0.  0.
          2    1    1    2  501    0  0.61687814262E+02 -0.50553797223E+02 -0.80604381059E+03  0.80998005989E+03  0.00000000000E+00 0. -1.
          1    1    1    2  502    0  0.77227384814E+02 -0.25294842693E+02  0.49047279268E+03  0.49715938933E+03  0.00000000000E+00 0. -1.
         22    1    3    3    0    0 -0.14828991076E+02 -0.84853475492E+01  0.60288652140E+02  0.62662761479E+02  0.00000000000E+00 0.  1.
         22    1    3    3    0    0 -0.12408620800E+03  0.84333987464E+02  0.79240044077E+01  0.15024113386E+03  0.00000000000E+00 0.  1.
</event>
<event>
 7    1  0.6444902E-006  0.1149489E+03  0.7818608E-02  0.1404285E+00
          2   -1    0    0  502    0  0.00000000000E+00  0.00000000000E+00  0.13363455533E+03  0.13363455533E+03  0.00000000000E+00 0. -1.
          1   -1    0    0  501    0 -0.00000000000E+00 -0.00000000000E+00 -0.77240445335E+03  0.77240445335E+03  0.00000000000E+00 0. -1.
         25    2    1    2    0    0  0.90963227698E+02 -0.38662661170E+02 -0.33574654134E+03  0.37164497138E+03  0.12500053826E+03 0.  0.
          2    1    1    2  501    0  0.34506939730E+01 -0.29559899722E+02 -0.38867336637E+03  0.38981108333E+03  0.00000000000E+00 0. -1.
          1    1    1    2  502    0 -0.94413921671E+02  0.68222560893E+02  0.85650009695E+02  0.14458295398E+03  0.00000000000E+00 0. -1.
         22    1    3    3    0    0  0.32486199645E+02  0.25784422864E+02 -0.23449750347E+03  0.23813707978E+03  0.00000000000E+00 0.  1.
         22    1    3    3    0    0  0.58477028053E+02 -0.64447084034E+02 -0.10124903787E+03  0.13350789160E+03  0.00000000000E+00 0.  1.
</event>
<event>
 7    1  0.6444902E-006  0.1276943E+03  0.7818608E-02  0.1324352E+00
          2   -1    0    0  502    0  0.00000000000E+00  0.00000000000E+00  0.22293594765E+04  0.22293594765E+04  0.00000000000E+00 0. -1.
          1   -1    0    0  501    0 -0.00000000000E+00 -0.00000000000E+00 -0.10669536931E+03  0.10669536931E+03  0.00000000000E+00 0. -1.
         25    2    1    2    0    0 -0.23992910296E+02 -0.15793260595E+03  0.23663145875E+03  0.31166788706E+03  0.12499622709E+03 0.  0.
          2    1    1    2  501    0  0.48887440004E+02  0.11199883598E+03 -0.14567526468E+02  0.12306881765E+03  0.00000000000E+00 0. -1.
          1    1    1    2  502    0 -0.24894529708E+02  0.45933769971E+02  0.19006001749E+04  0.19013181411E+04  0.00000000000E+00 0. -1.
         22    1    3    3    0    0 -0.43556094231E+02 -0.17108367509E+03  0.18963592971E+03  0.25909176572E+03  0.00000000000E+00 0.  1.
         22    1    3    3    0    0  0.19563183935E+02  0.13151069140E+02  0.46995529040E+02  0.52576121338E+02  0.00000000000E+00 0.  1.
</event>
<event>
 7    1  0.6444902E-006  0.2382135E+02  0.7818608E-02  0.1679142E+00
          2   -1    0    0  502    0  0.00000000000E+00  0.00000000000E+00  0.20173505219E+02  0.20173505219E+02  0.00000000000E+00 0. -1.
          1   -1    0    0  501    0 -0.00000000000E+00 -0.00000000000E+00 -0.19002969557E+04  0.19002969557E+04  0.00000000000E+00 0. -1.
         25    2    1    2    0    0  0.25958286453E+02  0.82810420754E+01 -0.35435705029E+03  0.37674480302E+03  0.12500127685E+03 0.  0.
          2    1    1    2  501    0 -0.19037961285E+02  0.14430361575E+02 -0.15187923782E+04  0.15189802393E+04  0.00000000000E+00 0. -1.
          1    1    1    2  502    0 -0.69203251678E+01 -0.22711403650E+02 -0.69740219048E+01  0.24745418520E+02  0.00000000000E+00 0. -1.
         22    1    3    3    0    0  0.53994827629E+02 -0.42312605453E+02 -0.16328892077E+03  0.17711315490E+03  0.00000000000E+00 0. -1.
         22    1    3    3    0    0 -0.28036541176E+02  0.50593647529E+02 -0.19106812952E+03  0.19963164812E+03  0.00000000000E+00 0. -1.
</event>
<event>
 7    1  0.6444902E-006  0.9969926E+02  0.7818608E-02  0.1346339E+00
          2   -1    0    0  502    0  0.00000000000E+00  0.00000000000E+00  0.16132664547E+04  0.16132664547E+04  0.00000000000E+00 0. -1.
          1   -1    0    0  501    0 -0.00000000000E+00 -0.00000000000E+00 -0.21779705872E+03  0.21779705872E+03  0.00000000000E+00 0. -1.
         25    2    1    2    0    0 -0.22931915387E+01  0.13282322698E+03 -0.12217840190E+03  0.21954536581E+03  0.12500134961E+03 0.  0.
          2    1    1    2  501    0  0.43707594483E+00 -0.77618754252E+02 -0.14001913926E+02  0.78872781368E+02  0.00000000000E+00 0. -1.
          1    1    1    2  502    0  0.18561155938E+01 -0.55204472723E+02  0.15316497118E+04  0.15326453663E+04  0.00000000000E+00 0. -1.
         22    1    3    3    0    0 -0.89295162614E+01  0.98178848696E+02 -0.67133708762E+01  0.98812407826E+02  0.00000000000E+00 0. -1.
         22    1    3    3    0    0  0.66363247227E+01  0.34644378280E+02 -0.11546503103E+03  0.12073295798E+03  0.00000000000E+00 0. -1.
</event>
<event>
 7    1  0.6444902E-006  0.1584540E+03  0.7818608E-02  0.1196590E+00
          2   -1    0    0  502    0  0.00000000000E+00  0.00000000000E+00  0.80544751507E+03  0.80544751507E+03  0.00000000000E+00 0. -1.
          1   -1    0    0  501    0 -0.00000000000E+00 -0.00000000000E+00 -0.18288733035E+03  0.18288733035E+03  0.00000000000E+00 0. -1.
         25    2    1    2    0    0 -0.10473873019E+02 -0.38145297801E+02  0.23815949762E+02  0.13325335761E+03  0.12499796834E+03 0.  0.
          2    1    1    2  501    0  0.13302389723E+03 -0.86094758780E+02 -0.63145646378E+02  0.17057267478E+03  0.00000000000E+00 0. -1.
          1    1    1    2  502    0 -0.12255002422E+03  0.12424005658E+03  0.66188988134E+03  0.68450881303E+03  0.00000000000E+00 0. -1.
         22    1    3    3    0    0 -0.54026434944E+02 -0.61190585139E+02  0.18459030272E+02  0.83689181983E+02  0.00000000000E+00 0.  1.
         22    1    3    3    0    0  0.43552561925E+02  0.23045287339E+02  0.53569194908E+01  0.49564175623E+02  0.00000000000E+00 0.  1.
</event>
<event>
 7    1  0.6444902E-006  0.4881692E+02  0.7818608E-02  0.1577525E+00
          2   -1    0    0  502    0  0.00000000000E+00  0.00000000000E+00  0.20517176547E+03  0.20517176547E+03  0.00000000000E+00 0. -1.
          1   -1    0    0  501    0 -0.00000000000E+00 -0.00000000000E+00 -0.12952025284E+04  0.12952025284E+04  0.00000000000E+00 0. -1.
         25    2    1    2    0    0 -0.64355710168E+02  0.26523055566E+02 -0.66176899647E+03  0.67705888431E+03  0.12500159289E+03 0.  0.
          2    1    1    2  501    0  0.19008064004E+02 -0.87023754928E+01 -0.62260584194E+03  0.62295671781E+03  0.00000000000E+00 0. -1.
          1    1    1    2  502    0  0.45347646165E+02 -0.17820680073E+02  0.19434407553E+03  0.20035869171E+03  0.00000000000E+00 0. -1.
         22    1    3    3    0    0  0.79793963221E+01 -0.20267765275E+02 -0.41705737735E+03  0.41762580030E+03  0.00000000000E+00 0. -1.
         22    1    3    3    0    0 -0.72335106490E+02  0.46790820841E+02 -0.24471161913E+03  0.25943308402E+03  0.00000000000E+00 0. -1.
</event>
<event>
 7    1  0.7767582E-006  0.1622477E+03  0.7818608E-02  0.1294289E+00
          2   -1    0    0  502    0  0.00000000000E+00  0.00000000000E+00  0.85620957679E+03  0.85620957679E+03  0.00000000000E+00 0. -1.
          1   -1    0    0  501    0 -0.00000000000E+00 -0.00000000000E+00 -0.20439289178E+04  0.20439289178E+04  0.00000000000E+00 0. -1.
         25    2    1    2    0    0 -0.11068385734E+03  0.98718015637E+01 -0.62757622876E+03  0.64948061364E+03  0.12499910339E+03 0.  0.
          2    1    1    2  501    0 -0.52145029835E+02 -0.14159879676E+02 -0.13970261664E+04  0.13980707121E+04  0.00000000000E+00 0. -1.
          1    1    1    2  502    0  0.16282888717E+03  0.42880781118E+01  0.83688305418E+03  0.85258716885E+03  0.00000000000E+00 0. -1.
         22    1    3    3    0    0 -0.10545432402E+03 -0.41663964710E+02 -0.47520168070E+03  0.48854184851E+03  0.00000000000E+00 0. -1.
         22    1    3    3    0    0 -0.52295333229E+01  0.51535766274E+02 -0.15237454806E+03  0.16093876513E+03  0.00000000000E+00 0. -1.
</event>
<event>
 7    1  0.6444902E-006  0.6424282E+02  0.7818608E-02  0.1518017E+00
          2   -1    0    0  502    0  0.00000000000E+00  0.00000000000E+00  0.13565965841E+04  0.13565965841E+04  0.00000000000E+00 0. -1.
          1   -1    0    0  501    0 -0.00000000000E+00 -0.00000000000E+00 -0.50925442763E+02  0.50925442763E+02  0.00000000000E+00 0. -1.
         25    2    1    2    0    0  0.16798735270E+02 -0.53513513341E+02  0.27923012014E+03  0.31103140844E+03  0.12500073372E+03 0.  0.
          2    1    1    2  501    0 -0.40041716716E+02  0.51738864683E+02 -0.42260590695E+01  0.65559963175E+02  0.00000000000E+00 0. -1.
          1    1    1    2  502    0  0.23242981447E+02  0.17746486578E+01  0.10306670803E+04  0.10309306552E+04  0.00000000000E+00 0. -1.
         22    1    3    3    0    0 -0.41609972269E+02 -0.45147223784E+02  0.67558866643E+02  0.91289988880E+02  0.00000000000E+00 0. -1.
         22    1    3    3    0    0  0.58408707539E+02 -0.83662895573E+01  0.21167125349E+03  0.21974141956E+03  0.00000000000E+00 0. -1.
</event>
<event>
 7    1  0.6444902E-006  0.7167997E+02  0.7818608E-02  0.1406742E+00
          2   -1    0    0  502    0  0.00000000000E+00  0.00000000000E+00  0.19483023977E+03  0.19483023977E+03  0.00000000000E+00 0. -1.
          1   -1    0    0  501    0 -0.00000000000E+00 -0.00000000000E+00 -0.72690584198E+03  0.72690584198E+03  0.00000000000E+00 0. -1.
         25    2    1    2    0    0 -0.63437481125E+02  0.98438679119E+02 -0.24552858038E+03  0.29937389046E+03  0.12500381972E+03 0.  0.
          2    1    1    2  501    0  0.22903450428E+02 -0.40827872877E+02 -0.44578664223E+03  0.44823789849E+03  0.00000000000E+00 0. -1.
          1    1    1    2  502    0  0.40534030697E+02 -0.57610806241E+02  0.15923962040E+03  0.17412429280E+03  0.00000000000E+00 0. -1.
         22    1    3    3    0    0 -0.19720649176E+02  0.96976041988E+02 -0.23410997898E+03  0.25416675428E+03  0.00000000000E+00 0.  1.
         22    1    3    3    0    0 -0.43716831949E+02  0.14626371309E+01 -0.11418601395E+02  0.45207136172E+02  0.00000000000E+00 0.  1.
</event>
<event>
 7    1  0.6444902E-006  0.6722931E+02  0.7818608E-02  0.1427982E+00
          2   -1    0    0  502    0  0.00000000000E+00  0.00000000000E+00  0.91901924063E+02  0.91901924063E+02  0.00000000000E+00 0. -1.
          1   -1    0    0  501    0 -0.00000000000E+00 -0.00000000000E+00 -0.40167330083E+03  0.40167330083E+03  0.00000000000E+00 0. -1.
         25    2    1    2    0    0  0.65299228863E+02 -0.68256433107E+02 -0.17726133493E+03  0.23657862719E+03  0.12499974413E+03 0.  0.
          2    1    1    2  501    0 -0.41745110639E+02  0.72105993721E+01 -0.17428904277E+03  0.17936364580E+03  0.00000000000E+00 0. -1.
          1    1    1    2  502    0 -0.23554118224E+02  0.61045833735E+02  0.41779000934E+02  0.77632951900E+02  0.00000000000E+00 0. -1.
         22    1    3    3    0    0 -0.66250900446E+01 -0.20685309322E+02  0.14639398712E+02  0.26193240244E+02  0.00000000000E+00 0.  1.
         22    1    3    3    0    0  0.71924318908E+02 -0.47571123785E+02 -0.19190073364E+03  0.21038538695E+03  0.00000000000E+00 0.  1.
</event>
<event>
 7    1  0.6444902E-006  0.7483944E+02  0.7818608E-02  0.1371635E+00
          2   -1    0    0  502    0  0.00000000000E+00  0.00000000000E+00  0.83285720159E+02  0.83285720159E+02  0.00000000000E+00 0. -1.
          1   -1    0    0  501    0 -0.00000000000E+00 -0.00000000000E+00 -0.12337062774E+04  0.12337062774E+04  0.00000000000E+00 0. -1.
         25    2    1    2    0    0  0.15803573886E+02 -0.53340870640E+02 -0.95780290137E+02  0.16704636639E+03  0.12504248525E+03 0.  0.
          2    1    1    2  501    0 -0.70336536269E+02  0.29611104363E+02 -0.10818542989E+04  0.10845426547E+04  0.00000000000E+00 0. -1.
          1    1    1    2  502    0  0.54532962384E+02  0.23729766276E+02  0.27214031847E+02  0.65402976410E+02  0.00000000000E+00 0. -1.
         22    1    3    3    0    0  0.70188212744E+02 -0.32344394268E+02 -0.65760351840E+02  0.10147398151E+03  0.00000000000E+00 0. -1.
         22    1    3    3    0    0 -0.54384638858E+02 -0.20996476372E+02 -0.30019938297E+02  0.65572384882E+02  0.00000000000E+00 0. -1.
</event>
<event>
 7    1  0.1155951E-005  0.1050070E+03  0.7818608E-02  0.1341165E+00
          2   -1    0    0  502    0  0.00000000000E+00  0.00000000000E+00  0.28128932884E+04  0.28128932884E+04  0.00000000000E+00 0. -1.
          1   -1    0    0  501    0 -0.00000000000E+00 -0.00000000000E+00 -0.10044069573E+04  0.10044069573E+04  0.00000000000E+00 0. -1.
         25    2    1    2    0    0  0.71175541312E+02  0.72739684588E+02 -0.19980787666E+03  0.25670553776E+03  0.12497010101E+03 0.  0.
          2    1    1    2  501    0  0.30358746702E+02 -0.45662462220E+02 -0.77418875976E+03  0.77612817865E+03  0.00000000000E+00 0. -1.
          1    1    1    2  502    0 -0.10153428801E+03 -0.27077222368E+02  0.27824829676E+04  0.27844665292E+04  0.00000000000E+00 0. -1.
         22    1    3    3    0    0  0.87389235448E+02  0.97811875620E+02 -0.16686535701E+03  0.21224535060E+03  0.00000000000E+00 0. -1.
         22    1    3    3    0    0 -0.16213694136E+02 -0.25072191033E+02 -0.32942519658E+02  0.44460187158E+02  0.00000000000E+00 0. -1.
</event>
<event>
 7    1  0.6444902E-006  0.1517498E+03  0.7818608E-02  0.1338966E+00
          2   -1    0    0  502    0  0.00000000000E+00  0.00000000000E+00  0.14373637613E+04  0.14373637613E+04  0.00000000000E+00 0. -1.
          1   -1    0    0  501    0 -0.00000000000E+00 -0.00000000000E+00 -0.11503438235E+03  0.11503438235E+03  0.00000000000E+00 0. -1.
         25    2    1    2    0    0  0.74095173699E+02  0.12253216379E+03  0.70660716633E+02  0.20278142003E+03  0.12499256580E+03 0.  0.
          2    1    1    2  501    0 -0.51251340874E+02 -0.15373740767E+03  0.86290821417E+02  0.18359737558E+03  0.00000000000E+00 0. -1.
          1    1    1    2  502    0 -0.22843832825E+02  0.31205243880E+02  0.11653778409E+04  0.11660193481E+04  0.00000000000E+00 0. -1.
         22    1    3    3    0    0 -0.24891596020E+00 -0.20784233150E+02  0.29636915050E+02  0.36199351382E+02  0.00000000000E+00 0.  1.
         22    1    3    3    0    0  0.74344089659E+02  0.14331639694E+03  0.41023801582E+02  0.16658206865E+03  0.00000000000E+00 0.  1.
</event>
<event>
 7    1  0.6444902E-006  0.1689533E+03  0.7818608E-02  0.1228015E+00
          2   -1    0    0  502    0  0.00000000000E+00  0.00000000000E+00  0.65880524390E+03  0.65880524390E+03  0.00000000000E+00 0. -1.
          1   -1    0    0  501    0 -0.00000000000E+00 -0.00000000000E+00 -0.11262128703E+04  0.11262128703E+04  0.00000000000E+00 0. -1.
         25    2    1    2    0    0 -0.20059810780E+03  0.41568408563E+02  0.55884460673E+03  0.60819382600E+03  0.12499960828E+03 0.  0.
          2    1    1    2  501    0  0.99429516437E+02  0.20041855917E+01 -0.10576253681E+04  0.10622907628E+04  0.00000000000E+00 0. -1.
          1    1    1    2  502    0  0.10116859136E+03 -0.43572594155E+02  0.31373134973E+02  0.11453352538E+03  0.00000000000E+00 0. -1.
         22    1    3    3    0    0 -0.18066953172E+02  0.23996242146E+02  0.13662863953E+02  0.32998610356E+02  0.00000000000E+00 0.  1.
         22    1    3    3    0    0 -0.18253115462E+03  0.17572166417E+02  0.54518174278E+03  0.57519521565E+03  0.00000000000E+00 0.  1.
</event>
<event>
 7    1  0.6444902E-006  0.1058158E+03  0.7818608E-02  0.1325218E+00
          2   -1    0    0  502    0  0.00000000000E+00  0.00000000000E+00  0.98928338878E+03  0.98928338878E+03  0.00000000000E+00 0. -1.
          1   -1    0    0  501    0 -0.00000000000E+00 -0.00000000000E+00 -0.50553238451E+03  0.50553238451E+03  0.00000000000E+00 0. -1.
         25    2    1    2    0    0 -0.68470208601E+02 -0.67914846077E+02  0.20646903275E+03  0.25991454118E+03  0.12500204577E+03 0.  0.
          2    1    1    2  501    0  0.18050451052E+02  0.10496030804E+03 -0.47156664641E+03  0.48344346831E+03  0.00000000000E+00 0. -1.
          1    1    1    2  502    0  0.50419757549E+02 -0.37045461959E+02  0.74884861793E+03  0.75145776381E+03  0.00000000000E+00 0. -1.
         22    1    3    3    0    0 -0.76439862847E+02 -0.77829993118E+02  0.86364002981E+02  0.13913770687E+03  0.00000000000E+00 0.  1.
         22    1    3    3    0    0  0.79696542464E+01  0.99151470409E+01  0.12010502977E+03  0.12077683431E+03  0.00000000000E+00 0.  1.
</event>
<event>
 7    1  0.6444902E-006  0.8670130E+02  0.7818608E-02  0.1437366E+00
          2   -1    0    0  502    0  0.00000000000E+00  0.00000000000E+00  0.16486930702E+03  0.16486930702E+03  0.00000000000E+00 0. -1.
          1   -1    0    0  501    0 -0.00000000000E+00 -0.00000000000E+00 -0.43671323289E+03  0.43671323289E+03  0.00000000000E+00 0. -1.
         25    2    1    2    0    0  0.16234930003E+02 -0.67187427512E+02 -0.48720605252E+02  0.15093958811E+03  0.12502535149E+03 0.  0.
          2    1    1    2  501    0 -0.20145656947E+02 -0.23035295411E+02 -0.31810994849E+03  0.31957849060E+03  0.00000000000E+00 0. -1.
          1    1    1    2  502    0  0.39107269441E+01  0.90222722923E+02  0.94986627861E+02  0.13106446120E+03  0.00000000000E+00 0. -1.
         22    1    3    3    0    0 -0.17473541495E+02 -0.72305073005E+02 -0.76690577162E+02  0.10684003398E+03  0.00000000000E+00 0. -1.
         22    1    3    3    0    0  0.33708471498E+02  0.51176454933E+01  0.27969971910E+02  0.44099554134E+02  0.00000000000E+00 0. -1.
</event>
<event>
 7    1  0.6444902E-006  0.7313048E+02  0.7818608E-02  0.1425771E+00
          2   -1    0    0  502    0  0.00000000000E+00  0.00000000000E+00  0.16028430137E+03  0.16028430137E+03  0.00000000000E+00 0. -1.
          1   -1    0    0  501    0 -0.00000000000E+00 -0.00000000000E+00 -0.34289234368E+03  0.34289234368E+03  0.00000000000E+00 0. -1.
         25    2    1    2    0    0 -0.39986135720E+02 -0.49432216410E+02 -0.11891026451E+03  0.18386674011E+03  0.12499956817E+03 0.  0.
          2    1    1    2  501    0 -0.30488424791E+02  0.25280486337E+02 -0.17828669833E+03  0.18263294839E+03  0.00000000000E+00 0. -1.
          1    1    1    2  502    0  0.70474560511E+02  0.24151730073E+02  0.11458892053E+03  0.13667695656E+03  0.00000000000E+00 0. -1.
         22    1    3    3    0    0 -0.24455944287E+02  0.31650629251E+02 -0.86270678038E+02  0.95091984058E+02  0.00000000000E+00 0.  1.
         22    1    3    3    0    0 -0.15530191433E+02 -0.81082845661E+02 -0.32639586476E+02  0.88774756050E+02  0.00000000000E+00 0.  1.
</event>
<event>
 7    1  0.6444902E-006  0.1766053E+03  0.7818608E-02  0.1247085E+00
          2   -1    0    0  502    0  0.00000000000E+00  0.00000000000E+00  0.32287296598E+04  0.32287296598E+04  0.00000000000E+00 0. -1.
          1   -1    0    0  501    0 -0.00000000000E+00 -0.00000000000E+00 -0.16877290244E+03  0.16877290244E+03  0.00000000000E+00 0. -1.
         25    2    1    2    0    0  0.71012822512E+01  0.20763693275E+03  0.56436718963E+02  0.24894657188E+03  0.12500307338E+03 0.  0.
          2    1    1    2  501    0 -0.66291299433E+02 -0.41722096404E+02 -0.48059258414E+02  0.91896474514E+02  0.00000000000E+00 0. -1.
          1    1    1    2  502    0  0.59190017181E+02 -0.16591483634E+03  0.30515792968E+04  0.30566595158E+04  0.00000000000E+00 0. -1.
         22    1    3    3    0    0  0.63990884811E+02  0.94570095052E+02  0.41512788099E+02  0.12149752176E+03  0.00000000000E+00 0.  1.
         22    1    3    3    0    0 -0.56889602560E+02  0.11306683770E+03  0.14923930864E+02  0.12744905013E+03  0.00000000000E+00 0.  1.
</event>
<event>
 7    1  0.6444902E-006  0.6803010E+02  0.7818608E-02  0.1463251E+00
          2   -1    0    0  502    0  0.00000000000E+00  0.00000000000E+00  0.35884949444E+04  0.35884949444E+04  0.00000000000E+00 0. -1.
          1   -1    0    0  501    0 -0.00000000000E+00 -0.00000000000E+00 -0.19629487021E+02  0.19629487021E+02  0.00000000000E+00 0. -1.
         25    2    1    2    0    0 -0.63962963412E+02  0.17430367839E+02  0.18212806968E+04  0.18267687022E+04  0.12500174537E+03 0.  0.
          2    1    1    2  501    0  0.50102958718E+02 -0.46529889418E+02  0.53123070512E+02  0.86587514701E+02  0.00000000000E+00 0. -1.
          1    1    1    2  502    0  0.13860004694E+02  0.29099521579E+02  0.16944616901E+04  0.16947682145E+04  0.00000000000E+00 0. -1.
         22    1    3    3    0    0  0.87487827706E+01  0.57137962609E+02  0.84838301377E+03  0.85034994327E+03  0.00000000000E+00 0. -1.
         22    1    3    3    0    0 -0.72711746182E+02 -0.39707594770E+02  0.97289768305E+03  0.97641875894E+03  0.00000000000E+00 0. -1.
</event>
<event>
 7    1  0.6444902E-006  0.8666565E+02  0.7818608E-02  0.1449934E+00
          2   -1    0    0  502    0  0.00000000000E+00  0.00000000000E+00  0.16672744622E+04  0.16672744622E+04  0.00000000000E+00 0. -1.
          1   -1    0    0  501    0 -0.00000000000E+00 -0.00000000000E+00 -0.10908058950E+03  0.10908058950E+03  0.00000000000E+00 0. -1.
         25    2    1    2    0    0 -0.78329143094E+01 -0.70160019632E+02  0.15001285220E+03  0.20760997232E+03  0.12495704013E+03 0.  0.
          2    1    1    2  501    0 -0.13446034136E+02  0.88179628841E+02 -0.55331637128E+02  0.10496681782E+03  0.00000000000E+00 0. -1.
          1    1    1    2  502    0  0.21278948446E+02 -0.18019609209E+02  0.14635126577E+04  0.14637782616E+04  0.00000000000E+00 0. -1.
         22    1    3    3    0    0  0.57213747502E+02 -0.19030943197E+02  0.71769096349E+02  0.93735761015E+02  0.00000000000E+00 0.  1.
         22    1    3    3    0    0 -0.65046661812E+02 -0.51129076435E+02  0.78243755853E+02  0.11387421130E+03  0.00000000000E+00 0.  1.
</event>
<event>
 7    1  0.6444902E-006  0.5356547E+02  0.7818608E-02  0.1458238E+00
          2   -1    0    0  502    0  0.00000000000E+00  0.00000000000E+00  0.10766152984E+03  0.10766152984E+03  0.00000000000E+00 0. -1.
          1   -1    0    0  501    0 -0.00000000000E+00 -0.00000000000E+00 -0.27111527826E+03  0.27111527826E+03  0.00000000000E+00 0. -1.
         25    2    1    2    0    0  0.17279423712E+02 -0.69945210508E+01 -0.41803849055E+02  0.13311980534E+03  0.12500327583E+03 0.  0.
          2    1    1    2  501    0  0.28144053265E+02 -0.31781363446E+02 -0.16595229700E+03  0.17129596515E+03  0.00000000000E+00 0. -1.
          1    1    1    2  502    0 -0.45423476977E+02  0.38775884497E+02  0.44302397627E+02  0.74361037611E+02  0.00000000000E+00 0. -1.
         22    1    3    3    0    0  0.43286159664E+02  0.13059145612E+02  0.29932604420E+02  0.54223553092E+02  0.00000000000E+00 0. -1.
         22    1    3    3    0    0 -0.26006735952E+02 -0.20053666663E+02 -0.71736453475E+02  0.78896252247E+02  0.00000000000E+00 0. -1.
</event>
<event>
 7    1  0.6444902E-006  0.1227081E+03  0.7818608E-02  0.1403278E+00
          2   -1    0    0  502    0  0.00000000000E+00  0.00000000000E+00  0.10763447131E+04  0.10763447131E+04  0.00000000000E+00 0. -1.
          1   -1    0    0  501    0 -0.00000000000E+00 -0.00000000000E+00 -0.82388955859E+02  0.82388955859E+02  0.00000000000E+00 0. -1.
         25    2    1    2    0    0  0.11835422907E+03 -0.52880617568E+02  0.45742818904E+03  0.49159871597E+03  0.12499866464E+03 0.  0.
          2    1    1    2  501    0  0.77696755812E-01  0.28100459890E+02 -0.55852992764E+02  0.62523585018E+02  0.00000000000E+00 0. -1.
          1    1    1    2  502    0 -0.11843192583E+03  0.24780157678E+02  0.59238056100E+03  0.60461136801E+03  0.00000000000E+00 0. -1.
         22    1    3    3    0    0  0.54171777134E+02 -0.84196303063E+02  0.33730960530E+03  0.35185418672E+03  0.00000000000E+00 0. -1.
         22    1    3    3    0    0  0.64182451940E+02  0.31315685495E+02  0.12011858374E+03  0.13974452925E+03  0.00000000000E+00 0. -1.
</event>
<event>
 7    1  0.6444902E-006  0.1123832E+03  0.7818608E-02  0.1305174E+00
          2   -1    0    0  502    0  0.00000000000E+00  0.00000000000E+00  0.46315327080E+03  0.46315327080E+03  0.00000000000E+00 0. -1.
          1   -1    0    0  501    0 -0.00000000000E+00 -0.00000000000E+00 -0.20722481958E+03  0.20722481958E+03  0.00000000000E+00 0. -1.
         25    2    1    2    0    0 -0.32614940458E+02  0.57179659598E+02  0.33505482393E+02  0.14519152353E+03  0.12499885337E+03 0.  0.
          2    1    1    2  501    0 -0.69966370651E+02  0.91171895492E+01 -0.13234676580E+03  0.14998027399E+03  0.00000000000E+00 0. -1.
          1    1    1    2  502    0  0.10258131111E+03 -0.66296849147E+02  0.35476973463E+03  0.37520629286E+03  0.00000000000E+00 0. -1.
         22    1    3    3    0    0  0.69650215698E+01 -0.32654222472E+02 -0.13913791576E+02  0.36171858768E+02  0.00000000000E+00 0.  1.
         22    1    3    3    0    0 -0.39579962028E+02  0.89833882070E+02  0.47419273968E+02  0.10901966477E+03  0.00000000000E+00 0.  1.
</event>
<event>
 7    1  0.8364376E-006  0.5877645E+02  0.7818608E-02  0.1439510E+00
          2   -1    0    0  502    0  0.00000000000E+00  0.00000000000E+00  0.12537043961E+04  0.12537043961E+04  0.00000000000E+00 0. -1.
          1   -1    0    0  501    0 -0.00000000000E+00 -0.00000000000E+00 -0.13092461869E+04  0.13092461869E+04  0.00000000000E+00 0. -1.
         25    2    1    2    0    0 -0.32851740933E+02 -0.33140511884E+00 -0.98504809632E+02  0.16250658244E+03  0.12500338038E+03 0.  0.
          2    1    1    2  501    0 -0.69215684380E+01  0.43879330652E+02 -0.11776096940E+04  0.11784472390E+04  0.00000000000E+00 0. -1.
          1    1    1    2  502    0  0.39773309371E+02 -0.43547925533E+02  0.12205727128E+04  0.12219967615E+04  0.00000000000E+00 0. -1.
         22    1    3    3    0    0 -0.28775919537E+02  0.20489435722E+02 -0.12423377098E+03  0.12915843129E+03  0.00000000000E+00 0.  1.
         22    1    3    3    0    0 -0.40758213957E+01 -0.20820840841E+02  0.25728961348E+02  0.33348151154E+02  0.00000000000E+00 0.  1.
</event>
<event>
 7    1  0.6444902E-006  0.1070492E+03  0.7818608E-02  0.1362643E+00
          2   -1    0    0  502    0  0.00000000000E+00  0.00000000000E+00  0.44879041453E+03  0.44879041453E+03  0.00000000000E+00 0. -1.
          1   -1    0    0  501    0 -0.00000000000E+00 -0.00000000000E+00 -0.55388708432E+03  0.55388708432E+03  0.00000000000E+00 0. -1.
         25    2    1    2    0    0  0.13602681568E+03 -0.50555452894E+02  0.67397190765E+02  0.20304334059E+03  0.12500027373E+03 0.  0.
          2    1    1    2  501    0 -0.36629054038E+02  0.25803149746E+02 -0.47661979258E+03  0.47872112635E+03  0.00000000000E+00 0. -1.
          1    1    1    2  502    0 -0.99397761642E+02  0.24752303148E+02  0.30412593202E+03  0.32091303192E+03  0.00000000000E+00 0. -1.
         22    1    3    3    0    0  0.21602938524E+02 -0.83046265248E+01 -0.36230104699E+02  0.42991560348E+02  0.00000000000E+00 0.  1.
         22    1    3    3    0    0  0.11442387716E+03 -0.42250826369E+02  0.10362729546E+03  0.16005178024E+03  0.00000000000E+00 0.  1.
</event>
<event>
 7    1  0.6444902E-006  0.5620498E+02  0.7818608E-02  0.1459899E+00
          2   -1    0    0  502    0  0.00000000000E+00  0.00000000000E+00  0.11550774618E+04  0.11550774618E+04  0.00000000000E+00 0. -1.
          1   -1    0    0  501    0 -0.00000000000E+00 -0.00000000000E+00 -0.14798781773E+03  0.14798781773E+03  0.00000000000E+00 0. -1.
         25    2    1    2    0    0  0.88764523877E+02 -0.72107614882E+01  0.76857101966E+03  0.78374390063E+03  0.12498781439E+03 0.  0.
          2    1    1    2  501    0 -0.39968052240E+02  0.58967817074E+00 -0.13591114120E+03  0.14166732588E+03  0.00000000000E+00 0. -1.
          1    1    1    2  502    0 -0.48796471637E+02  0.66210833175E+01  0.37442976558E+03  0.37765405299E+03  0.00000000000E+00 0. -1.
         22    1    3    3    0    0  0.65688988895E+02  0.34701299288E+02  0.20325031118E+03  0.21640220061E+03  0.00000000000E+00 0. -1.
         22    1    3    3    0    0  0.23075534982E+02 -0.41912060776E+02  0.56532070848E+03  0.56734170003E+03  0.00000000000E+00 0. -1.
</event>
<event>
 7    1  0.6444902E-006  0.1034546E+03  0.7818608E-02  0.1463117E+00
          2   -1    0    0  502    0  0.00000000000E+00  0.00000000000E+00  0.19519212520E+04  0.19519212520E+04  0.00000000000E+00 0. -1.
          1   -1    0    0  501    0 -0.00000000000E+00 -0.00000000000E+00 -0.60630365985E+02  0.60630365985E+02  0.00000000000E+00 0. -1.
         25    2    1    2    0    0 -0.94605277517E+01 -0.10494878141E+03  0.26548785219E+03  0.31178966265E+03  0.12500098308E+03 0.  0.
          2    1    1    2  501    0 -0.20382883225E+02  0.58851207305E+01 -0.32730301980E+02  0.39004733588E+02  0.00000000000E+00 0. -1.
          1    1    1    2  502    0  0.29843410976E+02  0.99063660678E+02  0.16585333359E+04  0.16617572218E+04  0.00000000000E+00 0. -1.
         22    1    3    3    0    0  0.15702646204E+02 -0.11828984590E+03  0.14404038728E+03  0.18704730394E+03  0.00000000000E+00 0. -1.
         22    1    3    3    0    0 -0.25163173955E+02  0.13341064495E+02  0.12144746490E+03  0.12474235871E+03  0.00000000000E+00 0. -1.
</event>
<event>
 7    1  0.6444902E-006  0.4955618E+02  0.7818608E-02  0.1450505E+00
          2   -1    0    0  502    0  0.00000000000E+00  0.00000000000E+00  0.88588048581E+03  0.88588048581E+03  0.00000000000E+00 0. -1.
          1   -1    0    0  501    0 -0.00000000000E+00 -0.00000000000E+00 -0.16880102919E+04  0.16880102919E+04  0.00000000000E+00 0. -1.
         25    2    1    2    0    0  0.79754034885E+02 -0.16434144210E+02 -0.80399579920E+02  0.16947226628E+03  0.12500387758E+03 0.  0.
          2    1    1    2  501    0 -0.44856406934E+02 -0.18598979203E+02 -0.15619701581E+04  0.15627247980E+04  0.00000000000E+00 0. -1.
          1    1    1    2  502    0 -0.34897627951E+02  0.35033123412E+02  0.84023993192E+03  0.84169371352E+03  0.00000000000E+00 0. -1.
         22    1    3    3    0    0  0.75006531932E+02  0.35825171657E+02 -0.13125252151E+02  0.84152807444E+02  0.00000000000E+00 0.  1.
         22    1    3    3    0    0  0.47475029527E+01 -0.52259315867E+02 -0.67274327769E+02  0.85319458835E+02  0.00000000000E+00 0.  1.
</event>
<event>
 7    1  0.6444902E-006  0.2613347E+02  0.7818608E-02  0.1664223E+00
          2   -1    0    0  502    0  0.00000000000E+00  0.00000000000E+00  0.11786882556E+02  0.11786882556E+02  0.00000000000E+00 0. -1.
          1   -1    0    0  501    0 -0.00000000000E+00 -0.00000000000E+00 -0.14009454226E+04  0.14009454226E+04  0.00000000000E+00 0. -1.
         25    2    1    2    0    0 -0.12102179861E+02  0.28132380269E+02 -0.68433234766E+03  0.69633051786E+03  0.12501013748E+03 0.  0.
          2    1    1    2  501    0 -0.11012489802E+02 -0.23943111629E+02 -0.68543388032E+03  0.68594034129E+03  0.00000000000E+00 0. -1.
          1    1    1    2  502    0  0.23114669663E+02 -0.41892686404E+01 -0.19392312072E+02  0.30461446008E+02  0.00000000000E+00 0. -1.
         22    1    3    3    0    0  0.14535995106E+02  0.70991951888E+02 -0.29639584988E+03  0.30512563349E+03  0.00000000000E+00 0.  1.
         22    1    3    3    0    0 -0.26638174966E+02 -0.42859571619E+02 -0.38793649778E+03  0.39120488437E+03  0.00000000000E+00 0.  1.
</event>
<event>
 7    1  0.6444902E-006  0.6872159E+02  0.7818608E-02  0.1423477E+00
          2   -1    0    0  502    0  0.00000000000E+00  0.00000000000E+00  0.58906523520E+03  0.58906523520E+03  0.00000000000E+00 0. -1.
          1   -1    0    0  501    0 -0.00000000000E+00 -0.00000000000E+00 -0.89533892537E+03  0.89533892537E+03  0.00000000000E+00 0. -1.
         25    2    1    2    0    0  0.44822278374E+02  0.51526502266E+02 -0.11760452039E+03  0.18470870321E+03  0.12498985860E+03 0.  0.
          2    1    1    2  501    0 -0.39306994156E+02  0.17166639486E+02 -0.74142281769E+03  0.74266245892E+03  0.00000000000E+00 0. -1.
          1    1    1    2  502    0 -0.55152842185E+01 -0.68693141751E+02  0.55275364791E+03  0.55703299845E+03  0.00000000000E+00 0. -1.
         22    1    3    3    0    0  0.86248142353E+02  0.33874268523E+02 -0.55548436736E+02  0.10803627609E+03  0.00000000000E+00 0.  1.
         22    1    3    3    0    0 -0.41425863979E+02  0.17652233742E+02 -0.62056083652E+02  0.76672427122E+02  0.00000000000E+00 0.  1.
</event>
<event>
 7    1  0.6444902E-006  0.3024492E+02  0.7818608E-02  0.1700816E+00
          2   -1    0    0  502    0  0.00000000000E+00  0.00000000000E+00  0.25306421493E+03  0.25306421493E+03  0.00000000000E+00 0. -1.
          1   -1    0    0  501    0 -0.00000000000E+00 -0.00000000000E+00 -0.78449579844E+02  0.78449579844E+02  0.00000000000E+00 0. -1.
         25    2    1    2    0    0  0.48169171764E+01 -0.73970428264E+01  0.19323982492E+03  0.23032281566E+03  0.12501620113E+03 0.  0.
          2    1    1    2  501    0  0.16489901152E+02 -0.25354262457E+02  0.27404783582E+02  0.40813939138E+02  0.00000000000E+00 0. -1.
          1    1    1    2  502    0 -0.21306818329E+02  0.32751305283E+02 -0.46029973410E+02  0.60377039983E+02  0.00000000000E+00 0. -1.
         22    1    3    3    0    0 -0.59366551665E+02 -0.11723737605E+01  0.75188615232E+02  0.95807566389E+02  0.00000000000E+00 0. -1.
         22    1    3    3    0    0  0.64183468842E+02 -0.62246690658E+01  0.11805120969E+03  0.13451524927E+03  0.00000000000E+00 0. -1.
</event>
<event>
 7    1  0.6444902E-006  0.7450014E+02  0.7818608E-02  0.1398188E+00
          2   -1    0    0  502    0  0.00000000000E+00  0.00000000000E+00  0.21912165191E+03  0.21912165191E+03  0.00000000000E+00 0. -1.
          1   -1    0    0  501    0 -0.00000000000E+00 -0.00000000000E+00 -0.84824733676E+03  0.84824733676E+03  0.00000000000E+00 0. -1.
         25    2    1    2    0    0 -0.73390499299E+02  0.60381209309E+02 -0.69371110922E+02  0.17166641139E+03  0.12499979978E+03 0.  0.
          2    1    1    2  501    0  0.50104350704E+00 -0.48182976272E+02 -0.71875391632E+03  0.72036729692E+03  0.00000000000E+00 0. -1.
          1    1    1    2  502    0  0.72889455792E+02 -0.12198233036E+02  0.15899934239E+03  0.17533528035E+03  0.00000000000E+00 0. -1.
         22    1    3    3    0    0 -0.80999366242E+02  0.17449835314E+02  0.75987326098E+01  0.83205377358E+02  0.00000000000E+00 0. -1.
         22    1    3    3    0    0  0.76088669423E+01  0.42931373994E+02 -0.76969843532E+02  0.88461034035E+02  0.00000000000E+00 0. -1.
</event>
<event>
 7    1  0.6444902E-006  0.3688535E+02  0.7818608E-02  0.1535846E+00
          2   -1    0    0  502    0  0.00000000000E+00  0.00000000000E+00  0.12518730243E+04  0.12518730243E+04  0.00000000000E+00 0. -1.
          1   -1    0    0  501    0 -0.00000000000E+00 -0.00000000000E+00 -0.74695003912E+03  0.74695003912E+03  0.00000000000E+00 0. -1.
         25    2    1    2    0    0 -0.25181632803E+02 -0.19730642671E+02  0.25149449742E+02  0.13144923823E+03  0.12499197781E+03 0.  0.
          2    1    1    2  501    0 -0.68177854123E+01  0.36391439514E+02 -0.69302861636E+03  0.69401691777E+03  0.00000000000E+00 0. -1.
          1    1    1    2  502    0  0.31999418215E+02 -0.16660796843E+02  0.11728021518E+04  0.11733569074E+04  0.00000000000E+00 0. -1.
         22    1    3    3    0    0 -0.25083269930E+02  0.46279904735E+02  0.37053809089E+02  0.64373789547E+02  0.00000000000E+00 0. -1.
         22    1    3    3    0    0 -0.98362872754E-01 -0.66010547405E+02 -0.11904359347E+02  0.67075448679E+02  0.00000000000E+00 0. -1.
</event>
<event>
 7    1  0.6444902E-006  0.2989710E+03  0.7818608E-02  0.1320945E+00
          2   -1    0    0  502    0  0.00000000000E+00  0.00000000000E+00  0.14398148633E+04  0.14398148633E+04  0.00000000000E+00 0. -1.
          1   -1    0    0  501    0 -0.00000000000E+00 -0.00000000000E+00 -0.18339454151E+04  0.18339454151E+04  0.00000000000E+00 0. -1.
         25    2    1    2    0    0  0.28476910641E+03 -0.10738389811E+02 -0.30846823751E+03  0.43816241221E+03  0.12499955576E+03 0.  0.
          2    1    1    2  501    0 -0.30239672843E+03 -0.40382065818E+01 -0.14448775225E+04  0.14761880447E+04  0.00000000000E+00 0. -1.
          1    1    1    2  502    0  0.17627622023E+02  0.14776596393E+02  0.13592152081E+04  0.13594098215E+04  0.00000000000E+00 0. -1.
         22    1    3    3    0    0  0.11700881299E+02  0.31380315949E+02 -0.21478049617E+02  0.39786196948E+02  0.00000000000E+00 0. -1.
         22    1    3    3    0    0  0.27306822511E+03 -0.42118705761E+02 -0.28699018789E+03  0.39837621526E+03  0.00000000000E+00 0. -1.
</event>
<event>
 7    1  0.6444902E-006  0.1273754E+03  0.7818608E-02  0.1300369E+00
          2   -1    0    0  502    0  0.00000000000E+00  0.00000000000E+00  0.11402691069E+04  0.11402691069E+04  0.00000000000E+00 0. -1.
          1   -1    0    0  501    0 -0.00000000000E+00 -0.00000000000E+00 -0.43723004110E+03  0.43723004110E+03  0.00000000000E+00 0. -1.
         25    2    1    2    0    0 -0.51261089117E+02 -0.58613264583E+02  0.38922847531E+02  0.15234076489E+03  0.12501802488E+03 0.  0.
          2    1    1    2  501    0  0.61829198819E+01 -0.64765643766E+02 -0.37356913301E+03  0.37919218642E+03  0.00000000000E+00 0. -1.
          1    1    1    2  502    0  0.45078169235E+02  0.12337890835E+03  0.10376853512E+04  0.10459661967E+04  0.00000000000E+00 0. -1.
         22    1    3    3    0    0 -0.86783336565E+02 -0.57542457728E+02  0.66564982541E+01  0.10433978587E+03  0.00000000000E+00 0.  1.
         22    1    3    3    0    0  0.35522247448E+02 -0.10708068551E+01  0.32266349277E+02  0.48000979019E+02  0.00000000000E+00 0.  1.
</event>
<event>
 7    1  0.6444902E-006  0.1170605E+03  0.7818608E-02  0.1262892E+00
          2   -1    0    0  502    0  0.00000000000E+00  0.00000000000E+00  0.20112154512E+04  0.20112154512E+04  0.00000000000E+00 0. -1.
          1   -1    0    0  501    0 -0.00000000000E+00 -0.00000000000E+00 -0.13858758979E+03  0.13858758979E+03  0.00000000000E+00 0. -1.
         25    2    1    2    0    0  0.15836262793E+03  0.14175419442E+03  0.10212573840E+04  0.10506018587E+04  0.12499859081E+03 0.  0.
          2    1    1    2  501    0 -0.72133982366E+02 -0.89089165883E+02 -0.94124571423E+02  0.14832270843E+03  0.00000000000E+00 0. -1.
          1    1    1    2  502    0 -0.86228645560E+02 -0.52665028536E+02  0.94549504891E+03  0.95087847387E+03  0.00000000000E+00 0. -1.
         22    1    3    3    0    0  0.98822755393E+02  0.10722676763E+03  0.40384429312E+03  0.42936433220E+03  0.00000000000E+00 0.  1.
         22    1    3    3    0    0  0.59539872533E+02  0.34527426786E+02  0.61741309083E+03  0.62123752651E+03  0.00000000000E+00 0.  1.
</event>
<event>
 7    1  0.6444902E-006  0.4099771E+02  0.7818608E-02  0.1547505E+00
          2   -1    0    0  502    0  0.00000000000E+00  0.00000000000E+00  0.30506667468E+03  0.30506667468E+03  0.00000000000E+00 0. -1.
          1   -1    0    0  501    0 -0.00000000000E+00 -0.00000000000E+00 -0.11098275812E+04  0.11098275812E+04  0.00000000000E+00 0. -1.
         25    2    1    2    0    0 -0.37696765494E+02 -0.12292011468E+02  0.21749924514E+02  0.13293074244E+03  0.12500153357E+03 0.  0.
          2    1    1    2  501    0  0.19406086714E+02  0.36186180423E+02 -0.10528411763E+04  0.10536415796E+04  0.00000000000E+00 0. -1.
          1    1    1    2  502    0  0.18290678779E+02 -0.23894168956E+02  0.22633034529E+03  0.22832193377E+03  0.00000000000E+00 0. -1.
         22    1    3    3    0    0 -0.60290925062E+02  0.41228262177E+02  0.11491934850E+02  0.73938013319E+02  0.00000000000E+00 0. -1.
         22    1    3    3    0    0  0.22594159568E+02 -0.53520273644E+02  0.10257989664E+02  0.58992729124E+02  0.00000000000E+00 0. -1.
</event>
<event>
 7    1  0.6444902E-006  0.2028206E+03  0.7818608E-02  0.1165479E+00
          2   -1    0    0  502    0  0.00000000000E+00  0.00000000000E+00  0.12874202636E+04  0.12874202636E+04  0.00000000000E+00 0. -1.
          1   -1    0    0  501    0 -0.00000000000E+00 -0.00000000000E+00 -0.14049172411E+04  0.14049172411E+04  0.00000000000E+00 0. -1.
         25    2    1    2    0    0  0.73648021325E+02  0.30211219820E+02 -0.30977881464E+02  0.15139688577E+03  0.12499855612E+03 0.  0.
          2    1    1    2  501    0  0.13465859796E+03 -0.93742417673E+02 -0.12988662890E+04  0.13091883805E+04  0.00000000000E+00 0. -1.
          1    1    1    2  502    0 -0.20830661929E+03  0.63531197853E+02  0.12123471929E+04  0.12317522384E+04  0.00000000000E+00 0. -1.
         22    1    3    3    0    0 -0.13266909597E+01  0.94828274728E+01  0.42997390114E+02  0.44050649058E+02  0.00000000000E+00 0. -1.
         22    1    3    3    0    0  0.74974712285E+02  0.20728392347E+02 -0.73975271579E+02  0.10734623671E+03  0.00000000000E+00 0. -1.
</event>
<event>
 7    1  0.6444902E-006  0.6242142E+02  0.7818608E-02  0.1408510E+00
          2   -1    0    0  502    0  0.00000000000E+00  0.00000000000E+00  0.13501480868E+04  0.13501480868E+04  0.00000000000E+00 0. -1.
          1   -1    0    0  501    0 -0.00000000000E+00 -0.00000000000E+00 -0.33288957215E+03  0.33288957215E+03  0.00000000000E+00 0. -1.
         25    2    1    2    0    0 -0.11276851353E+02 -0.25899857174E+01  0.56715858681E+03  0.58088562311E+03  0.12500147653E+03 0.  0.
          2    1    1    2  501    0  0.45756099419E+02  0.42864321643E+02 -0.32209437218E+03  0.32813984107E+03  0.00000000000E+00 0. -1.
          1    1    1    2  502    0 -0.34479248066E+02 -0.40274335926E+02  0.77219430001E+03  0.77401219477E+03  0.00000000000E+00 0. -1.
         22    1    3    3    0    0  0.18726694499E+02 -0.16229882006E+02  0.17732658063E+02  0.30472041591E+02  0.00000000000E+00 0. -1.
         22    1    3    3    0    0 -0.30003545852E+02  0.13639896289E+02  0.54942592875E+03  0.55041358152E+03  0.00000000000E+00 0. -1.
</event>
<event>
 7    1  0.6444902E-006  0.1300492E+03  0.7818608E-02  0.1407594E+00
          2   -1    0    0  502    0  0.00000000000E+00  0.00000000000E+00  0.17301312453E+04  0.17301312453E+04  0.00000000000E+00 0. -1.
          1   -1    0    0  501    0 -0.00000000000E+00 -0.00000000000E+00 -0.73663368424E+03  0.73663368424E+03  0.00000000000E+00 0. -1.
         25    2    1    2    0    0  0.13204395378E+03 -0.70251273424E+02  0.12244499857E+04  0.12398684383E+04  0.12500051812E+03 0.  0.
          2    1    1    2  501    0 -0.12114538089E+03  0.47053185456E+02 -0.72279526680E+03  0.73438627662E+03  0.00000000000E+00 0. -1.
          1    1    1    2  502    0 -0.10898572882E+02  0.23198087968E+02  0.49184284213E+03  0.49251021465E+03  0.00000000000E+00 0. -1.
         22    1    3    3    0    0  0.38380635034E+02 -0.90450543252E+02  0.67775834974E+03  0.68484359862E+03  0.00000000000E+00 0.  1.
         22    1    3    3    0    0  0.93663318741E+02  0.20199269828E+02  0.54669163597E+03  0.55502483964E+03  0.00000000000E+00 0.  1.
</event>
<event>
 7    1  0.6444902E-006  0.8759256E+02  0.7818608E-02  0.1364364E+00
          2   -1    0    0  502    0  0.00000000000E+00  0.00000000000E+00  0.63235048142E+03  0.63235048142E+03  0.00000000000E+00 0. -1.
          1   -1    0    0  501    0 -0.00000000000E+00 -0.00000000000E+00 -0.16296810052E+03  0.16296810052E+03  0.00000000000E+00 0. -1.
         25    2    1    2    0    0  0.96559972363E+02 -0.12278063391E+02  0.10911350242E+03  0.19237076328E+03  0.12500470011E+03 0.  0.
          2    1    1    2  501    0 -0.79097936634E+02 -0.38794458828E+02 -0.10357432385E+03  0.13597475566E+03  0.00000000000E+00 0. -1.
          1    1    1    2  502    0 -0.17462035729E+02  0.51072522219E+02  0.46384320233E+03  0.46697306300E+03  0.00000000000E+00 0. -1.
         22    1    3    3    0    0  0.57604987999E+01  0.66297620244E+01  0.98644305582E+02  0.99034519814E+02  0.00000000000E+00 0. -1.
         22    1    3    3    0    0  0.90799473563E+02 -0.18907825415E+02  0.10469196835E+02  0.93336243462E+02  0.00000000000E+00 0. -1.
</event>
<event>
 7    1  0.6444902E-006  0.7671033E+02  0.7818608E-02  0.1345101E+00
          2   -1    0    0  502    0  0.00000000000E+00  0.00000000000E+00  0.67664649829E+03  0.67664649829E+03  0.00000000000E+00 0. -1.
          1   -1    0    0  501    0 -0.00000000000E+00 -0.00000000000E+00 -0.97360536080E+03  0.97360536080E+03  0.00000000000E+00 0. -1.
         25    2    1    2    0    0 -0.64358562043E+02 -0.64023443249E+02  0.90673560568E+02  0.17913000971E+03  0.12499936000E+03 0.  0.
          2    1    1    2  501    0  0.71300362495E+02 -0.13439179503E+02 -0.92515814355E+03  0.92799889214E+03  0.00000000000E+00 0. -1.
          1    1    1    2  502    0 -0.69418004519E+01  0.77462622752E+02  0.53752572047E+03  0.54312295724E+03  0.00000000000E+00 0. -1.
         22    1    3    3    0    0  0.19224057838E+02 -0.53774617195E+02  0.24369248273E+01  0.57159535135E+02  0.00000000000E+00 0.  1.
         22    1    3    3    0    0 -0.83582619882E+02 -0.10248826054E+02  0.88236635741E+02  0.12197047458E+03  0.00000000000E+00 0.  1.
</event>
<event>
 7    1  0.6444902E-006  0.1177285E+03  0.7818608E-02  0.1275746E+00
          2   -1    0    0  502    0  0.00000000000E+00  0.00000000000E+00  0.74967083788E+03  0.74967083788E+03  0.00000000000E+00 0. -1.
          1   -1    0    0  501    0 -0.00000000000E+00 -0.00000000000E+00 -0.14833543991E+03  0.14833543991E+03  0.00000000000E+00 0. -1.
         25    2    1    2    0    0  0.57059420180E+02  0.68578852704E+02  0.28286106691E+03  0.32186148533E+03  0.12500238436E+03 0.  0.
          2    1    1    2  501    0 -0.48772703056E+02  0.74101661792E+02 -0.10015315522E+03  0.13379270288E+03  0.00000000000E+00 0. -1.
          1    1    1    2  502    0 -0.82867171239E+01 -0.14268051450E+03  0.41862748627E+03  0.44235208958E+03  0.00000000000E+00 0. -1.
         22    1    3    3    0    0  0.24197363931E+02 -0.25448200825E+02  0.15944432502E+03  0.16326547745E+03  0.00000000000E+00 0.  1.
         22    1    3    3    0    0  0.32862056248E+02  0.94027053529E+02  0.12341674189E+03  0.15859600788E+03  0.00000000000E+00 0.  1.
</event>
<event>
 7    1  0.6444902E-006  0.8045973E+02  0.7818608E-02  0.1386353E+00
          2   -1    0    0  502    0  0.00000000000E+00  0.00000000000E+00  0.20202179960E+03  0.20202179960E+03  0.00000000000E+00 0. -1.
          1   -1    0    0  501    0 -0.00000000000E+00 -0.00000000000E+00 -0.10330956151E+04  0.10330956151E+04  0.00000000000E+00 0. -1.
         25    2    1    2    0    0 -0.11587123063E+02  0.30561719635E+02  0.12815655664E+02  0.12984050098E+03  0.12500413808E+03 0.  0.
          2    1    1    2  501    0  0.34043534726E+02 -0.74171806288E+02 -0.96820257159E+03  0.97163606291E+03  0.00000000000E+00 0. -1.
          1    1    1    2  502    0 -0.22456411663E+02  0.43610086653E+02  0.12431310040E+03  0.13364085084E+03  0.00000000000E+00 0. -1.
         22    1    3    3    0    0 -0.26680865892E+02  0.38896884354E+02  0.61895763377E+02  0.77819803015E+02  0.00000000000E+00 0. -1.
         22    1    3    3    0    0  0.15093742830E+02 -0.83351647182E+01 -0.49080107713E+02  0.52020697964E+02  0.00000000000E+00 0. -1.
</event>
<event>
 7    1  0.6444902E-006  0.5043399E+02  0.7818608E-02  0.1569998E+00
          2   -1    0    0  502    0  0.00000000000E+00  0.00000000000E+00  0.14068542726E+04  0.14068542726E+04  0.00000000000E+00 0. -1.
          1   -1    0    0  501    0 -0.00000000000E+00 -0.00000000000E+00 -0.30611083575E+04  0.30611083575E+04  0.00000000000E+00 0. -1.
         25    2    1    2    0    0 -0.21231810962E+02  0.35855297152E+02  0.18004847784E+00  0.13176453985E+03  0.12500187764E+03 0.  0.
          2    1    1    2  501    0  0.55816303696E+01 -0.50164521350E+02 -0.29950196171E+04  0.29954448986E+04  0.00000000000E+00 0. -1.
          1    1    1    2  502    0  0.15650180593E+02  0.14309224198E+02  0.13405854836E+04  0.13407531917E+04  0.00000000000E+00 0. -1.
         22    1    3    3    0    0 -0.45478582509E+02 -0.29005494499E+02  0.23305617029E+02  0.58760292403E+02  0.00000000000E+00 0.  1.
         22    1    3    3    0    0  0.24246771547E+02  0.64860791650E+02 -0.23125568551E+02  0.73004247443E+02  0.00000000000E+00 0.  1.
</event>
<event>
 7    1  0.6444902E-006  0.2051085E+03  0.7818608E-02  0.1301905E+00
          2   -1    0    0  502    0  0.00000000000E+00  0.00000000000E+00  0.25272079895E+04  0.25272079895E+04  0.00000000000E+00 0. -1.
          1   -1    0    0  501    0 -0.00000000000E+00 -0.00000000000E+00 -0.38395049289E+03  0.38395049289E+03  0.00000000000E+00 0. -1.
         25    2    1    2    0    0 -0.21232018440E+03 -0.45362483327E+02  0.11309785948E+04  0.11583934690E+04  0.12500092605E+03 0.  0.
          2    1    1    2  501    0  0.12602059453E+02  0.37790463152E+02 -0.36192130440E+03  0.36410707434E+03  0.00000000000E+00 0. -1.
          1    1    1    2  502    0  0.19971812494E+03  0.75720201755E+01  0.13742002063E+04  0.13886579391E+04  0.00000000000E+00 0. -1.
         22    1    3    3    0    0 -0.37850426503E+02 -0.49725447324E+02  0.15842674653E+03  0.17030651460E+03  0.00000000000E+00 0. -1.
         22    1    3    3    0    0 -0.17446975789E+03  0.43629639966E+01  0.97255184827E+03  0.98808695439E+03  0.00000000000E+00 0. -1.
</event>
<event>
 7    1  0.6444902E-006  0.1402047E+03  0.7818608E-02  0.1375174E+00
          2   -1    0    0  502    0  0.00000000000E+00  0.00000000000E+00  0.15447291175E+03  0.15447291175E+03  0.00000000000E+00 0. -1.
          1   -1    0    0  501    0 -0.00000000000E+00 -0.00000000000E+00 -0.13655140138E+04  0.13655140138E+04  0.00000000000E+00 0. -1.
         25    2    1    2    0    0 -0.39389573534E+01  0.16134264566E+03 -0.64302499460E+03  0.67465074578E+03  0.12500208164E+03 0.  0.
          2    1    1    2  501    0 -0.52407846513E+01 -0.13190735368E+03 -0.69870125418E+03  0.71106290747E+03  0.00000000000E+00 0. -1.
          1    1    1    2  502    0  0.91797420047E+01 -0.29435291977E+02  0.13068514674E+03  0.13427327230E+03  0.00000000000E+00 0. -1.
         22    1    3    3    0    0 -0.38354407414E+02  0.29249539726E+02 -0.66286855850E+02  0.81978920466E+02  0.00000000000E+00 0.  1.
         22    1    3    3    0    0  0.34415450061E+02  0.13209310593E+03 -0.57673813875E+03  0.59267182531E+03  0.00000000000E+00 0.  1.
</event>
<event>
 7    1  0.6444902E-006  0.1512754E+03  0.7818608E-02  0.1221588E+00
          2   -1    0    0  502    0  0.00000000000E+00  0.00000000000E+00  0.89786299963E+03  0.89786299963E+03  0.00000000000E+00 0. -1.
          1   -1    0    0  501    0 -0.00000000000E+00 -0.00000000000E+00 -0.90622486899E+03  0.90622486899E+03  0.00000000000E+00 0. -1.
         25    2    1    2    0    0 -0.21845122211E+02  0.35669996754E+02 -0.26423073805E+03  0.29528434985E+03  0.12500162520E+03 0.  0.
          2    1    1    2  501    0 -0.11090792015E+03  0.42465560597E+02 -0.61401067447E+03  0.62539027731E+03  0.00000000000E+00 0. -1.
          1    1    1    2  502    0  0.13275304236E+03 -0.78135557351E+02  0.86987954316E+03  0.88341324146E+03  0.00000000000E+00 0. -1.
         22    1    3    3    0    0  0.24590434415E+02  0.49975486959E+02 -0.22791895990E+03  0.23462585332E+03  0.00000000000E+00 0. -1.
         22    1    3    3    0    0 -0.46435556626E+02 -0.14305490205E+02 -0.36311778146E+02  0.60658496530E+02  0.00000000000E+00 0. -1.
</event>
<event>
 7    1  0.6444902E-006  0.2538273E+03  0.7818608E-02  0.1208775E+00
          2   -1    0    0  502    0  0.00000000000E+00  0.00000000000E+00  0.42510297464E+04  0.42510297464E+04  0.00000000000E+00 0. -1.
          1   -1    0    0  501    0 -0.00000000000E+00 -0.00000000000E+00 -0.79593167566E+03  0.79593167566E+03  0.00000000000E+00 0. -1.
         25    2    1    2    0    0 -0.18495651594E+03  0.37191828346E+02  0.10717466798E+03  0.25040189374E+03  0.12499021582E+03 0.  0.
          2    1    1    2  501    0 -0.53313173270E+02  0.61057767938E+02 -0.71795722094E+03  0.72251845413E+03  0.00000000000E+00 0. -1.
          1    1    1    2  502    0  0.23826968921E+03 -0.98249596283E+02  0.40658806237E+04  0.40740410742E+04  0.00000000000E+00 0. -1.
         22    1    3    3    0    0 -0.13215143124E+02  0.50075383586E+02  0.40409413342E+02  0.65689456808E+02  0.00000000000E+00 0.  1.
         22    1    3    3    0    0 -0.17174137281E+03 -0.12883555241E+02  0.66765254641E+02  0.18471243694E+03  0.00000000000E+00 0.  1.
</event>
<event>
 7    1  0.6444902E-006  0.1313547E+03  0.7818608E-02  0.1248108E+00
          2   -1    0    0  502    0  0.00000000000E+00  0.00000000000E+00  0.35721230464E+04  0.35721230464E+04  0.00000000000E+00 0. -1.
          1   -1    0    0  501    0 -0.00000000000E+00 -0.00000000000E+00 -0.61685612871E+03  0.61685612871E+03  0.00000000000E+00 0. -1.
         25    2    1    2    0    0 -0.41173709643E+02 -0.18080453954E+02  0.57434354279E+02  0.14472204227E+03  0.12499434901E+03 0.  0.
          2    1    1    2  501    0 -0.87337290737E+02  0.56898701991E+02 -0.56716295568E+03  0.57666201794E+03  0.00000000000E+00 0. -1.
          1    1    1    2  502    0  0.12851100038E+03 -0.38818248037E+02  0.34649955190E+04  0.34675951149E+04  0.00000000000E+00 0. -1.
         22    1    3    3    0    0 -0.42021385777E+00 -0.63047659490E+02  0.55512264672E+02  0.84004734842E+02  0.00000000000E+00 0.  1.
         22    1    3    3    0    0 -0.40753495785E+02  0.44967205536E+02  0.19220896068E+01  0.60717307424E+02  0.00000000000E+00 0.  1.
</event>
<event>
 7    1  0.6444902E-006  0.6546420E+02  0.7818608E-02  0.1391425E+00
          2   -1    0    0  502    0  0.00000000000E+00  0.00000000000E+00  0.89732445634E+03  0.89732445634E+03  0.00000000000E+00 0. -1.
          1   -1    0    0  501    0 -0.00000000000E+00 -0.00000000000E+00 -0.43194610370E+03  0.43194610370E+03  0.00000000000E+00 0. -1.
         25    2    1    2    0    0 -0.99082675496E+01  0.32650434375E+02 -0.16060650955E+02  0.13056666508E+03  0.12500193955E+03 0.  0.
          2    1    1    2  501    0  0.55842910652E+02  0.15207946140E+02 -0.35497560476E+03  0.35966288698E+03  0.00000000000E+00 0. -1.
          1    1    1    2  502    0 -0.45934643102E+02 -0.47858380515E+02  0.83641460835E+03  0.83904100799E+03  0.00000000000E+00 0. -1.
         22    1    3    3    0    0  0.24031211627E+02 -0.16933500220E+02 -0.52588548404E+02  0.60247804817E+02  0.00000000000E+00 0.  1.
         22    1    3    3    0    0 -0.33939479177E+02  0.49583934595E+02  0.36527897450E+02  0.70318860264E+02  0.00000000000E+00 0.  1.
</event>
<event>
 7    1  0.6444902E-006  0.9638965E+02  0.7818608E-02  0.1309022E+00
          2   -1    0    0  502    0  0.00000000000E+00  0.00000000000E+00  0.11399171637E+04  0.11399171637E+04  0.00000000000E+00 0. -1.
          1   -1    0    0  501    0 -0.00000000000E+00 -0.00000000000E+00 -0.22957054153E+04  0.22957054153E+04  0.00000000000E+00 0. -1.
         25    2    1    2    0    0  0.96393193788E+02  0.13636605722E+03  0.40219938407E+03  0.45307810880E+03  0.12501231441E+03 0.  0.
          2    1    1    2  501    0 -0.31155523856E+02 -0.91054536802E+02 -0.22670275938E+04  0.22690693481E+04  0.00000000000E+00 0. -1.
          1    1    1    2  502    0 -0.65237669932E+02 -0.45311520420E+02  0.70903995819E+03  0.71347512204E+03  0.00000000000E+00 0. -1.
         22    1    3    3    0    0 -0.15820931445E+02 -0.92522763771E+01  0.12476553515E+02  0.22171397736E+02  0.00000000000E+00 0.  1.
         22    1    3    3    0    0  0.11221412523E+03  0.14561833360E+03  0.38972283056E+03  0.43090671106E+03  0.00000000000E+00 0.  1.
</event>
<event>
 7    1  0.6444902E-006  0.4418300E+02  0.7818608E-02  0.1494538E+00
          2   -1    0    0  502    0  0.00000000000E+00  0.00000000000E+00  0.99881488877E+03  0.99881488877E+03  0.00000000000E+00 0. -1.
          1   -1    0    0  501    0 -0.00000000000E+00 -0.00000000000E+00 -0.11725879558E+03  0.11725879558E+03  0.00000000000E+00 0. -1.
         25    2    1    2    0    0 -0.68102589107E+02 -0.52587505742E+01  0.25149730572E+03  0.28901662118E+03  0.12495637413E+03 0.  0.
          2    1    1    2  501    0  0.29808789275E+02  0.26331746420E+02 -0.93797783653E+02  0.10188203475E+03  0.00000000000E+00 0. -1.
          1    1    1    2  502    0  0.38293799832E+02 -0.21072995846E+02  0.72385657113E+03  0.72517502841E+03  0.00000000000E+00 0. -1.
         22    1    3    3    0    0 -0.80192169958E+02 -0.28244576595E+02  0.24877610183E+03  0.26290319334E+03  0.00000000000E+00 0.  1.
         22    1    3    3    0    0  0.12089580851E+02  0.22985826021E+02  0.27212038912E+01  0.26113427841E+02  0.00000000000E+00 0.  1.
</event>
<event>
 7    1  0.6444902E-006  0.1263634E+03  0.7818608E-02  0.1295340E+00
          2   -1    0    0  502    0  0.00000000000E+00  0.00000000000E+00  0.16963184911E+03  0.16963184911E+03  0.00000000000E+00 0. -1.
          1   -1    0    0  501    0 -0.00000000000E+00 -0.00000000000E+00 -0.33286085032E+04  0.33286085032E+04  0.00000000000E+00 0. -1.
         25    2    1    2    0    0  0.79087460627E+02 -0.16037666315E+03 -0.18339424751E+03  0.28501529682E+03  0.12499907555E+03 0.  0.
          2    1    1    2  501    0 -0.14845129782E+01  0.68687327330E+02 -0.30635609444E+04  0.30643312178E+04  0.00000000000E+00 0. -1.
          1    1    1    2  502    0 -0.77602947648E+02  0.91689335823E+02  0.87978537781E+02  0.14889383767E+03  0.00000000000E+00 0. -1.
         22    1    3    3    0    0  0.18908316880E+02  0.12837311668E+02 -0.59434143202E+02  0.63676827780E+02  0.00000000000E+00 0.  1.
         22    1    3    3    0    0  0.60179143747E+02 -0.17321397482E+03 -0.12396010431E+03  0.22133846904E+03  0.00000000000E+00 0.  1.
</event>
<event>
 7    1  0.6444902E-006  0.2732652E+03  0.7818608E-02  0.1235985E+00
          2   -1    0    0  502    0  0.00000000000E+00  0.00000000000E+00  0.59620672810E+03  0.59620672810E+03  0.00000000000E+00 0. -1.
          1   -1    0    0  501    0 -0.00000000000E+00 -0.00000000000E+00 -0.20608905657E+04  0.20608905657E+04  0.00000000000E+00 0. -1.
         25    2    1    2    0    0  0.17070241730E+03  0.21574764234E+03  0.28728551757E+03  0.41694632119E+03  0.12499962279E+03 0.  0.
          2    1    1    2  501    0 -0.21002991719E+03 -0.17497875244E+03 -0.19832666935E+04  0.20020182086E+04  0.00000000000E+00 0. -1.
          1    1    1    2  502    0  0.39327499893E+02 -0.40768889899E+02  0.23129733829E+03  0.23813276408E+03  0.00000000000E+00 0. -1.
         22    1    3    3    0    0  0.92480611417E+02  0.26929701287E+02  0.11175083382E+03  0.14753345776E+03  0.00000000000E+00 0.  1.
         22    1    3    3    0    0  0.78221805878E+02  0.18881794105E+03  0.17553468375E+03  0.26941286342E+03  0.00000000000E+00 0.  1.
</event>
<event>
 7    1  0.6444902E-006  0.6253125E+02  0.7818608E-02  0.1531898E+00
          2   -1    0    0  502    0  0.00000000000E+00  0.00000000000E+00  0.15370004060E+03  0.15370004060E+03  0.00000000000E+00 0. -1.
          1   -1    0    0  501    0 -0.00000000000E+00 -0.00000000000E+00 -0.80851926259E+03  0.80851926259E+03  0.00000000000E+00 0. -1.
         25    2    1    2    0    0 -0.49793028780E+02  0.61929133919E+02 -0.18215580549E+02  0.14923597629E+03  0.12500002360E+03 0.  0.
          2    1    1    2  501    0  0.47470824878E+02 -0.40213532637E+02 -0.72208297156E+03  0.72475818397E+03  0.00000000000E+00 0. -1.
          1    1    1    2  502    0  0.23222039021E+01 -0.21715601282E+02  0.85479330113E+02  0.88225142939E+02  0.00000000000E+00 0. -1.
         22    1    3    3    0    0 -0.43562851237E+02 -0.30534800080E+02 -0.19199397554E+02  0.56557164800E+02  0.00000000000E+00 0.  1.
         22    1    3    3    0    0 -0.62301775431E+01  0.92463933999E+02  0.98381700418E+00  0.92678811487E+02  0.00000000000E+00 0.  1.
</event>
<event>
 7    1  0.6444902E-006  0.7763088E+02  0.7818608E-02  0.1506426E+00
          2   -1    0    0  502    0  0.00000000000E+00  0.00000000000E+00  0.13212490458E+04  0.13212490458E+04  0.00000000000E+00 0. -1.
          1   -1    0    0  501    0 -0.00000000000E+00 -0.00000000000E+00 -0.73861034325E+03  0.73861034325E+03  0.00000000000E+00 0. -1.
         25    2    1    2    0    0 -0.83226360218E+02 -0.48855495713E+02 -0.35548844538E+02  0.16187132458E+03  0.12500047550E+03 0.  0.
          2    1    1    2  501    0  0.20587408367E+02  0.33752884867E+01 -0.63853902733E+03  0.63887974094E+03  0.00000000000E+00 0. -1.
          1    1    1    2  502    0  0.62638951851E+02  0.45480207226E+02  0.12567265745E+04  0.12591083236E+04  0.00000000000E+00 0. -1.
         22    1    3    3    0    0 -0.10163681342E+03 -0.71358949985E+01  0.33368538091E+01  0.10194163738E+03  0.00000000000E+00 0. -1.
         22    1    3    3    0    0  0.18410453201E+02 -0.41719600714E+02 -0.38885698347E+02  0.59929687190E+02  0.00000000000E+00 0. -1.
</event>
<event>
 7    1  0.6444902E-006  0.4526362E+02  0.7818608E-02  0.1540536E+00
          2   -1    0    0  502    0  0.00000000000E+00  0.00000000000E+00  0.43731128910E+02  0.43731128910E+02  0.00000000000E+00 0. -1.
          1   -1    0    0  501    0 -0.00000000000E+00 -0.00000000000E+00 -0.12379311305E+04  0.12379311305E+04  0.00000000000E+00 0. -1.
         25    2    1    2    0    0 -0.22174137626E+02  0.54777128982E+01 -0.42315546021E+03  0.44182439687E+03  0.12500622566E+03 0.  0.
          2    1    1    2  501    0  0.35934702215E+02 -0.30450713307E+02 -0.79871671862E+03  0.80010433405E+03  0.00000000000E+00 0. -1.
          1    1    1    2  502    0 -0.13760564589E+02  0.24973000409E+02  0.27672177278E+02  0.39733528443E+02  0.00000000000E+00 0. -1.
         22    1    3    3    0    0 -0.40357575314E+02  0.39655327027E+02 -0.37857899642E+03  0.38278366655E+03  0.00000000000E+00 0.  1.
         22    1    3    3    0    0  0.18183437688E+02 -0.34177614129E+02 -0.44576463790E+02  0.59040730328E+02  0.00000000000E+00 0.  1.
</event>
<event>
 7    1  0.6444902E-006  0.1553701E+03  0.7818608E-02  0.1225615E+00
          2   -1    0    0  502    0  0.00000000000E+00  0.00000000000E+00  0.25667786864E+04  0.25667786864E+04  0.00000000000E+00 0. -1.
          1   -1    0    0  501    0 -0.00000000000E+00 -0.00000000000E+00 -0.32709931246E+03  0.32709931246E+03  0.00000000000E+00 0. -1.
         25    2    1    2    0    0  0.29784524471E+02  0.75217292822E+02  0.45264881209E+03  0.47651055306E+03  0.12500640405E+03 0.  0.
          2    1    1    2  501    0  0.95438427496E+02  0.56426264890E+02 -0.30134992064E+03  0.32109841402E+03  0.00000000000E+00 0. -1.
          1    1    1    2  502    0 -0.12522295197E+03 -0.13164355771E+03  0.20883804825E+04  0.20962690318E+04  0.00000000000E+00 0. -1.
         22    1    3    3    0    0 -0.36095435238E+02 -0.43437443932E+01  0.20473154739E+03  0.20793449704E+03  0.00000000000E+00 0. -1.
         22    1    3    3    0    0  0.65879959710E+02  0.79561037215E+02  0.24791726469E+03  0.26857605602E+03  0.00000000000E+00 0. -1.
</event>
<event>
 7    1  0.6444902E-006  0.1166340E+03  0.7818608E-02  0.1379619E+00
          2   -1    0    0  502    0  0.00000000000E+00  0.00000000000E+00  0.24670008636E+03  0.24670008636E+03  0.00000000000E+00 0. -1.
          1   -1    0    0  501    0 -0.00000000000E+00 -0.00000000000E+00 -0.34418515676E+03  0.34418515676E+03  0.00000000000E+00 0. -1.
         25    2    1    2    0    0 -0.81354247253E+02 -0.48430362243E+02  0.98239817179E+02  0.18503997934E+03  0.12499887497E+03 0.  0.
          2    1    1    2  501    0  0.83781370802E+02  0.84087982924E+02 -0.28551317755E+03  0.30920524174E+03  0.00000000000E+00 0. -1.
          1    1    1    2  502    0 -0.24271235496E+01 -0.35657620681E+02  0.89788289975E+02  0.96640022030E+02  0.00000000000E+00 0. -1.
         22    1    3    3    0    0 -0.10841278157E+03 -0.15798683874E+02  0.90158857832E+02  0.14188569084E+03  0.00000000000E+00 0.  1.
         22    1    3    3    0    0  0.27058534314E+02 -0.32631678369E+02  0.80809593472E+01  0.43154288505E+02  0.00000000000E+00 0.  1.
</event>
<event>
 7    1  0.6444902E-006  0.7550057E+02  0.7818608E-02  0.1346265E+00
          2   -1    0    0  502    0  0.00000000000E+00  0.00000000000E+00  0.35825739880E+03  0.35825739880E+03  0.00000000000E+00 0. -1.
          1   -1    0    0  501    0 -0.00000000000E+00 -0.00000000000E+00 -0.38219385265E+03  0.38219385265E+03  0.00000000000E+00 0. -1.
         25    2    1    2    0    0  0.73324259850E+02  0.74717291496E+02 -0.58607912724E+01  0.16315159491E+03  0.12499989327E+03 0.  0.
          2    1    1    2  501    0 -0.75381210017E+02 -0.17609264496E+01 -0.28798711301E+03  0.29769448256E+03  0.00000000000E+00 0. -1.
          1    1    1    2  502    0  0.20569501670E+01 -0.72956365047E+02  0.26991145043E+03  0.27960517398E+03  0.00000000000E+00 0. -1.
         22    1    3    3    0    0 -0.19917411894E+02  0.62776782386E+02 -0.18232709610E+02  0.68337832882E+02  0.00000000000E+00 0. -1.
         22    1    3    3    0    0  0.93241671744E+02  0.11940509110E+02  0.12371918338E+02  0.94813762033E+02  0.00000000000E+00 0. -1.
</event>
<event>
 7    1  0.6444902E-006  0.4642558E+02  0.7818608E-02  0.1533462E+00
          2   -1    0    0  502    0  0.00000000000E+00  0.00000000000E+00  0.60107724577E+03  0.60107724577E+03  0.00000000000E+00 0. -1.
          1   -1    0    0  501    0 -0.00000000000E+00 -0.00000000000E+00 -0.43651844102E+03  0.43651844102E+03  0.00000000000E+00 0. -1.
         25    2    1    2    0    0  0.22153487508E+02 -0.44858477980E+02  0.43349435565E+03  0.45392147561E+03  0.12499715832E+03 0.  0.
          2    1    1    2  501    0  0.19327888540E+02  0.21774141045E+02 -0.42221200742E+03  0.42321467330E+03  0.00000000000E+00 0. -1.
          1    1    1    2  502    0 -0.41481376048E+02  0.23084336935E+02  0.15327645653E+03  0.16045953788E+03  0.00000000000E+00 0. -1.
         22    1    3    3    0    0 -0.35373714140E+02 -0.30734617063E+02  0.61909293429E+02  0.77644555192E+02  0.00000000000E+00 0. -1.
         22    1    3    3    0    0  0.57527201648E+02 -0.14123860917E+02  0.37158506222E+03  0.37627692042E+03  0.00000000000E+00 0. -1.
</event>
<event>
 7    1  0.6444902E-006  0.8564207E+02  0.7818608E-02  0.1419256E+00
          2   -1    0    0  502    0  0.00000000000E+00  0.00000000000E+00  0.84821924156E+03  0.84821924156E+03  0.00000000000E+00 0. -1.
          1   -1    0    0  501    0 -0.00000000000E+00 -0.00000000000E+00 -0.75774605252E+03  0.75774605252E+03  0.00000000000E+00 0. -1.
         25    2    1    2    0    0 -0.59409335264E+02 -0.34413953682E+02 -0.26494286687E+02  0.14505163476E+03  0.12499696074E+03 0.  0.
          2    1    1    2  501    0 -0.26219065376E+02  0.24009306045E+02 -0.66914206551E+03  0.67008580794E+03  0.00000000000E+00 0. -1.
          1    1    1    2  502    0  0.85628400640E+02  0.10404647637E+02  0.78610954124E+03  0.79082785138E+03  0.00000000000E+00 0. -1.
         22    1    3    3    0    0 -0.81522242466E+02 -0.73192639418E+01 -0.56099920542E+02  0.99230281297E+02  0.00000000000E+00 0.  1.
         22    1    3    3    0    0  0.22112907202E+02 -0.27094689740E+02  0.29605633855E+02  0.45821353461E+02  0.00000000000E+00 0.  1.
</event>
<event>
 7    1  0.6444902E-006  0.5013554E+02  0.7818608E-02  0.1516492E+00
          2   -1    0    0  502    0  0.00000000000E+00  0.00000000000E+00  0.44531319782E+03  0.44531319782E+03  0.00000000000E+00 0. -1.
          1   -1    0    0  501    0 -0.00000000000E+00 -0.00000000000E+00 -0.41679457269E+03  0.41679457269E+03  0.00000000000E+00 0. -1.
         25    2    1    2    0    0  0.19479424952E+02  0.60004155371E+02  0.85464926822E+02  0.16402899329E+03  0.12498524019E+03 0.  0.
          2    1    1    2  501    0  0.87325312134E+01 -0.49292480306E+02 -0.37513594900E+03  0.37846134010E+03  0.00000000000E+00 0. -1.
          1    1    1    2  502    0 -0.28211956166E+02 -0.10711675065E+02  0.31818964731E+03  0.31961743711E+03  0.00000000000E+00 0. -1.
         22    1    3    3    0    0 -0.20949343624E+02  0.76781563946E+01 -0.26101781594E+02  0.34338492778E+02  0.00000000000E+00 0. -1.
         22    1    3    3    0    0  0.40428768576E+02  0.52325998976E+02  0.11156670842E+03  0.12969050052E+03  0.00000000000E+00 0. -1.
</event>
<event>
 7    1  0.6444902E-006  0.5776215E+02  0.7818608E-02  0.1435058E+00
          2   -1    0    0  502    0  0.00000000000E+00  0.00000000000E+00  0.12047967758E+04  0.12047967758E+04  0.00000000000E+00 0. -1.
          1   -1    0    0  501    0 -0.00000000000E+00 -0.00000000000E+00 -0.42403672090E+02  0.42403672090E+02  0.00000000000E+00 0. -1.
         25    2    1    2    0    0 -0.60033842221E+02 -0.70118904071E+02  0.32957244779E+03  0.36436711161E+03  0.12499868304E+03 0.  0.
          2    1    1    2  501    0  0.49440299617E+02  0.24598098205E+02  0.69681137692E+01  0.55659359240E+02  0.00000000000E+00 0. -1.
          1    1    1    2  502    0  0.10593542604E+02  0.45520805866E+02  0.82585254210E+03  0.82717397699E+03  0.00000000000E+00 0. -1.
         22    1    3    3    0    0 -0.13388327648E+02 -0.74961483135E+02  0.29862309407E+03  0.30817888244E+03  0.00000000000E+00 0. -1.
         22    1    3    3    0    0 -0.46645514573E+02  0.48425790633E+01  0.30949353722E+02  0.56188229173E+02  0.00000000000E+00 0. -1.
</event>
<event>
 7    1  0.6444902E-006  0.1488430E+03  0.7818608E-02  0.1208397E+00
          2   -1    0    0  502    0  0.00000000000E+00  0.00000000000E+00  0.17573040712E+04  0.17573040712E+04  0.00000000000E+00 0. -1.
          1   -1    0    0  501    0 -0.00000000000E+00 -0.00000000000E+00 -0.20336140403E+03  0.20336140403E+03  0.00000000000E+00 0. -1.
         25    2    1    2    0    0 -0.48178721439E+02 -0.82738900764E+02  0.53675641715E+03  0.55937237998E+03  0.12499237271E+03 0.  0.
          2    1    1    2  501    0 -0.13615931364E+03  0.60123787069E+02 -0.15476113343E+03  0.21472130048E+03  0.00000000000E+00 0. -1.
          1    1    1    2  502    0  0.18433803508E+03  0.22615113695E+02  0.11719473834E+04  0.11865717947E+04  0.00000000000E+00 0. -1.
         22    1    3    3    0    0  0.22713015872E+01  0.20465041212E+02  0.15945495315E+02  0.26042955737E+02  0.00000000000E+00 0.  1.
         22    1    3    3    0    0 -0.50450023026E+02 -0.10320394198E+03  0.52081092184E+03  0.53332942425E+03  0.00000000000E+00 0.  1.
</event>
<event>
 7    1  0.6444902E-006  0.8160872E+02  0.7818608E-02  0.1417140E+00
          2   -1    0    0  502    0  0.00000000000E+00  0.00000000000E+00  0.12395984690E+03  0.12395984690E+03  0.00000000000E+00 0. -1.
          1   -1    0    0  501    0 -0.00000000000E+00 -0.00000000000E+00 -0.91036869743E+03  0.91036869743E+03  0.00000000000E+00 0. -1.
         25    2    1    2    0    0 -0.45115031074E+02  0.10873795874E+03 -0.19353276966E+02  0.17279684452E+03  0.12499956179E+03 0.  0.
          2    1    1    2  501    0  0.24654703121E+02 -0.76809191372E+02 -0.80432570479E+03  0.80836090062E+03  0.00000000000E+00 0. -1.
          1    1    1    2  502    0  0.20460327953E+02 -0.31928767367E+02  0.37270131223E+02  0.53170799194E+02  0.00000000000E+00 0. -1.
         22    1    3    3    0    0 -0.37892128844E+02  0.30039410174E+01 -0.49688625247E+02  0.62560343421E+02  0.00000000000E+00 0. -1.
         22    1    3    3    0    0 -0.72229022297E+01  0.10573401772E+03  0.30335348281E+02  0.11023650110E+03  0.00000000000E+00 0. -1.
</event>
<event>
 7    1  0.6444902E-006  0.1215347E+03  0.7818608E-02  0.1375180E+00
          2   -1    0    0  502    0  0.00000000000E+00  0.00000000000E+00  0.25094373685E+03  0.25094373685E+03  0.00000000000E+00 0. -1.
          1   -1    0    0  501    0 -0.00000000000E+00 -0.00000000000E+00 -0.39813710356E+03  0.39813710356E+03  0.00000000000E+00 0. -1.
         25    2    1    2    0    0  0.10902452520E+03  0.11000613676E+02  0.84910756354E+02  0.18666106638E+03  0.12500062624E+03 0.  0.
          2    1    1    2  501    0  0.21682081793E+02 -0.28195652968E+02 -0.30817030536E+03  0.31021612567E+03  0.00000000000E+00 0. -1.
          1    1    1    2  502    0 -0.13070660699E+03  0.17195039292E+02  0.76066182299E+02  0.15220364837E+03  0.00000000000E+00 0. -1.
         22    1    3    3    0    0  0.26754476959E+02  0.48377751509E+02  0.78578239548E+02  0.96076784963E+02  0.00000000000E+00 0. -1.
         22    1    3    3    0    0  0.82270048240E+02 -0.37377137833E+02  0.63325168062E+01  0.90584281413E+02  0.00000000000E+00 0. -1.
</event>
<event>
 7    1  0.6444902E-006  0.6709464E+02  0.7818608E-02  0.1387281E+00
          2   -1    0    0  502    0  0.00000000000E+00  0.00000000000E+00  0.10120305573E+03  0.10120305573E+03  0.00000000000E+00 0. -1.
          1   -1    0    0  501    0 -0.00000000000E+00 -0.00000000000E+00 -0.99813737287E+03  0.99813737287E+03  0.00000000000E+00 0. -1.
         25    2    1    2    0    0  0.27807924020E+02 -0.58462929786E+02 -0.52825796939E+03  0.54669234730E+03  0.12499938231E+03 0.  0.
          2    1    1    2  501    0  0.29878161334E+02  0.67462964453E+02 -0.44806673660E+03  0.45410104222E+03  0.00000000000E+00 0. -1.
          1    1    1    2  502    0 -0.57686085354E+02 -0.90000346668E+01  0.79390388857E+02  0.98547039075E+02  0.00000000000E+00 0. -1.
         22    1    3    3    0    0  0.13711294923E+02 -0.74481877491E+02 -0.51709315532E+03  0.52260968319E+03  0.00000000000E+00 0. -1.
         22    1    3    3    0    0  0.14096629097E+02  0.16018947705E+02 -0.11164814064E+02  0.24082664109E+02  0.00000000000E+00 0. -1.
</event>
<event>
 7    1  0.6444902E-006  0.3778042E+03  0.7818608E-02  0.1169211E+00
          2   -1    0    0  502    0  0.00000000000E+00  0.00000000000E+00  0.83776326381E+03  0.83776326381E+03  0.00000000000E+00 0. -1.
          1   -1    0    0  501    0 -0.00000000000E+00 -0.00000000000E+00 -0.12296652085E+04  0.12296652085E+04  0.00000000000E+00 0. -1.
         25    2    1    2    0    0 -0.33309667651E+03 -0.62931499921E+02 -0.18357289906E+03  0.40526450431E+03  0.12500615823E+03 0.  0.
          2    1    1    2  501    0  0.39382225538E+03  0.43367855705E+01 -0.89106981666E+03  0.97422799935E+03  0.00000000000E+00 0. -1.
          1    1    1    2  502    0 -0.60725578871E+02  0.58594714351E+02  0.68274077106E+03  0.68793596864E+03  0.00000000000E+00 0. -1.
         22    1    3    3    0    0 -0.26207032425E+03 -0.71768998685E+02 -0.19269555516E+03  0.33311142430E+03  0.00000000000E+00 0. -1.
         22    1    3    3    0    0 -0.71026352262E+02  0.88374987637E+01  0.91226560913E+01  0.72153080005E+02  0.00000000000E+00 0. -1.
</event>
<event>
 7    1  0.6444902E-006  0.1391250E+03  0.7818608E-02  0.1353744E+00
          2   -1    0    0  502    0  0.00000000000E+00  0.00000000000E+00  0.45753315600E+02  0.45753315600E+02  0.00000000000E+00 0. -1.
          1   -1    0    0  501    0 -0.00000000000E+00 -0.00000000000E+00 -0.22401074560E+04  0.22401074560E+04  0.00000000000E+00 0. -1.
         25    2    1    2    0    0  0.19889207674E+02 -0.11642667445E+03 -0.68345327418E+03  0.70476590167E+03  0.12504338072E+03 0.  0.
          2    1    1    2  501    0  0.19164553817E+01  0.14651552137E+03 -0.15315770843E+04  0.15385703871E+04  0.00000000000E+00 0. -1.
          1    1    1    2  502    0 -0.21805663056E+02 -0.30088846916E+02  0.20676218070E+02  0.42524482875E+02  0.00000000000E+00 0. -1.
         22    1    3    3    0    0 -0.44761944017E+02 -0.82226484570E+02 -0.46693360960E+03  0.47622665000E+03  0.00000000000E+00 0. -1.
         22    1    3    3    0    0  0.64651151691E+02 -0.34200189884E+02 -0.21651966458E+03  0.22853925167E+03  0.00000000000E+00 0. -1.
</event>
<event>
 7    1  0.6444902E-006  0.3616331E+02  0.7818608E-02  0.1620516E+00
          2   -1    0    0  502    0  0.00000000000E+00  0.00000000000E+00  0.82506902681E+03  0.82506902681E+03  0.00000000000E+00 0. -1.
          1   -1    0    0  501    0 -0.00000000000E+00 -0.00000000000E+00 -0.41534997402E+03  0.41534997402E+03  0.00000000000E+00 0. -1.
         25    2    1    2    0    0  0.96600382927E+01  0.49741752465E+02  0.48862978038E+01  0.13496251721E+03  0.12499378731E+03 0.  0.
          2    1    1    2  501    0 -0.19475714691E+02 -0.30298444123E+02 -0.34922838574E+03  0.35108085192E+03  0.00000000000E+00 0. -1.
          1    1    1    2  502    0  0.98156763984E+01 -0.19443308342E+02  0.75406114073E+03  0.75437563170E+03  0.00000000000E+00 0. -1.
         22    1    3    3    0    0 -0.20489669052E+02  0.49792016363E+02  0.54688118390E+02  0.76745434550E+02  0.00000000000E+00 0.  1.
         22    1    3    3    0    0  0.30149707344E+02 -0.50263897552E-01 -0.49801820586E+02  0.58217082657E+02  0.00000000000E+00 0.  1.
</event>
<event>
 7    1  0.6444902E-006  0.1112877E+03  0.7818608E-02  0.1302107E+00
          2   -1    0    0  502    0  0.00000000000E+00  0.00000000000E+00  0.11621446478E+04  0.11621446478E+04  0.00000000000E+00 0. -1.
          1   -1    0    0  501    0 -0.00000000000E+00 -0.00000000000E+00 -0.93242379252E+02  0.93242379252E+02  0.00000000000E+00 0. -1.
         25    2    1    2    0    0  0.79293717103E+02 -0.10111130583E+03  0.53583970495E+02  0.18710472292E+03  0.12500378277E+03 0.  0.
          2    1    1    2  501    0 -0.10090868942E+03  0.31087984843E+02  0.86277181857E+02  0.13635533913E+03  0.00000000000E+00 0. -1.
          1    1    1    2  502    0  0.21614972312E+02  0.70023320983E+02  0.92904111622E+03  0.93192696502E+03  0.00000000000E+00 0. -1.
         22    1    3    3    0    0  0.36051818660E+02  0.26354549424E+02  0.12525185111E+02  0.46380773669E+02  0.00000000000E+00 0. -1.
         22    1    3    3    0    0  0.43241898443E+02 -0.12746585525E+03  0.41058785384E+02  0.14072394925E+03  0.00000000000E+00 0. -1.
</event>
<event>
 7    1  0.6444902E-006  0.1085581E+03  0.7818608E-02  0.1411819E+00
          2   -1    0    0  502    0  0.00000000000E+00  0.00000000000E+00  0.21276194915E+04  0.21276194915E+04  0.00000000000E+00 0. -1.
          1   -1    0    0  501    0 -0.00000000000E+00 -0.00000000000E+00 -0.90234938752E+02  0.90234938752E+02  0.00000000000E+00 0. -1.
         25    2    1    2    0    0 -0.43701016767E+02  0.76517873883E+02  0.14045069937E+04  0.14128093015E+04  0.12500185334E+03 0.  0.
          2    1    1    2  501    0  0.73063946406E+02 -0.81035639403E+02 -0.51057112764E+02  0.12046552985E+03  0.00000000000E+00 0. -1.
          1    1    1    2  502    0 -0.29362929639E+02  0.45177655197E+01  0.68393467188E+03  0.68457959891E+03  0.00000000000E+00 0. -1.
         22    1    3    3    0    0 -0.19897902279E+02  0.10022731798E+03  0.69127764359E+03  0.69878911147E+03  0.00000000000E+00 0. -1.
         22    1    3    3    0    0 -0.23803114488E+02 -0.23709444095E+02  0.71322935007E+03  0.71402019005E+03  0.00000000000E+00 0. -1.
</event>
<event>
 7    1  0.6444902E-006  0.7564336E+02  0.7818608E-02  0.1384141E+00
          2   -1    0    0  502    0  0.00000000000E+00  0.00000000000E+00  0.94040451806E+03  0.94040451806E+03  0.00000000000E+00 0. -1.
          1   -1    0    0  501    0 -0.00000000000E+00 -0.00000000000E+00 -0.27784406987E+03  0.27784406987E+03  0.00000000000E+00 0. -1.
         25    2    1    2    0    0  0.11261387784E+03  0.31596513192E+02 -0.93312449644E+02  0.19496877344E+03  0.12500153690E+03 0.  0.
          2    1    1    2  501    0 -0.59580278551E+02 -0.34581603971E+02 -0.12397546682E+03  0.14182952196E+03  0.00000000000E+00 0. -1.
          1    1    1    2  502    0 -0.53033599293E+02  0.29850907788E+01  0.87984836466E+03  0.88145029253E+03  0.00000000000E+00 0. -1.
         22    1    3    3    0    0  0.86540482135E+02  0.78643043031E+02 -0.57149142070E+02  0.13015378483E+03  0.00000000000E+00 0.  1.
         22    1    3    3    0    0  0.26073395710E+02 -0.47046529839E+02 -0.36163307574E+02  0.64814988609E+02  0.00000000000E+00 0.  1.
</event>
<event>
 7    1  0.6444902E-006  0.1317338E+03  0.7818608E-02  0.1257472E+00
          2   -1    0    0  502    0  0.00000000000E+00  0.00000000000E+00  0.15252546816E+04  0.15252546816E+04  0.00000000000E+00 0. -1.
          1   -1    0    0  501    0 -0.00000000000E+00 -0.00000000000E+00 -0.19005589940E+03  0.19005589940E+03  0.00000000000E+00 0. -1.
         25    2    1    2    0    0 -0.13046354984E+02  0.90319132333E+02  0.13452138454E+03  0.20505619970E+03  0.12499715634E+03 0.  0.
          2    1    1    2  501    0 -0.76304979892E+02 -0.12168333934E+03 -0.11940477522E+03  0.18678004544E+03  0.00000000000E+00 0. -1.
          1    1    1    2  502    0  0.89351334876E+02  0.31364207006E+02  0.13200821729E+04  0.13234743359E+04  0.00000000000E+00 0. -1.
         22    1    3    3    0    0 -0.37945741128E+02  0.97839110976E+02  0.49280085195E+02  0.11593488562E+03  0.00000000000E+00 0. -1.
         22    1    3    3    0    0  0.24899386144E+02 -0.75199786435E+01  0.85241299349E+02  0.89121314083E+02  0.00000000000E+00 0. -1.
</event>
<event>
 7    1  0.6444902E-006  0.1000858E+03  0.7818608E-02  0.1365413E+00
          2   -1    0    0  502    0  0.00000000000E+00  0.00000000000E+00  0.52041266476E+03  0.52041266476E+03  0.00000000000E+00 0. -1.
          1   -1    0    0  501    0 -0.00000000000E+00 -0.00000000000E+00 -0.20968903611E+03  0.20968903611E+03  0.00000000000E+00 0. -1.
         25    2    1    2    0    0  0.30755940552E+02 -0.12831796433E+03 -0.69045450748E+02  0.19443075334E+03  0.12499846290E+03 0.  0.
          2    1    1    2  501    0  0.19053717170E+02  0.42774347321E+02 -0.64949096174E+02  0.80069182714E+02  0.00000000000E+00 0. -1.
          1    1    1    2  502    0 -0.49809657722E+02  0.85543617007E+02  0.44471817557E+03  0.45560176481E+03  0.00000000000E+00 0. -1.
         22    1    3    3    0    0  0.57818250357E+02 -0.56357961520E+02  0.13238694327E+02  0.81819514350E+02  0.00000000000E+00 0.  1.
         22    1    3    3    0    0 -0.27062309805E+02 -0.71960002808E+02 -0.82284145075E+02  0.11261123899E+03  0.00000000000E+00 0.  1.
</event>
<event>
 7    1  0.6444902E-006  0.4798539E+02  0.7818608E-02  0.1503121E+00
          2   -1    0    0  502    0  0.00000000000E+00  0.00000000000E+00  0.16826972657E+04  0.16826972657E+04  0.00000000000E+00 0. -1.
          1   -1    0    0  501    0 -0.00000000000E+00 -0.00000000000E+00 -0.26950327828E+02  0.26950327828E+02  0.00000000000E+00 0. -1.
         25    2    1    2    0    0  0.38996220263E+02  0.73538042667E+01  0.52639768524E+03  0.54248912158E+03  0.12500056151E+03 0.  0.
          2    1    1    2  501    0 -0.40986102329E+02  0.27109931082E+02  0.13753983458E+02  0.51029217203E+02  0.00000000000E+00 0. -1.
          1    1    1    2  502    0  0.19898820662E+01 -0.34463735349E+02  0.11155952692E+04  0.11161292547E+04  0.00000000000E+00 0. -1.
         22    1    3    3    0    0  0.23071812628E+02 -0.37139915693E+02  0.62986225111E+02  0.76674287928E+02  0.00000000000E+00 0. -1.
         22    1    3    3    0    0  0.15924407635E+02  0.44493719960E+02  0.46341146013E+03  0.46581483366E+03  0.00000000000E+00 0. -1.
</event>
<event>
 7    1  0.6444902E-006  0.5078627E+02  0.7818608E-02  0.1449488E+00
          2   -1    0    0  502    0  0.00000000000E+00  0.00000000000E+00  0.53089659614E+03  0.53089659614E+03  0.00000000000E+00 0. -1.
          1   -1    0    0  501    0 -0.00000000000E+00 -0.00000000000E+00 -0.11310402639E+03  0.11310402639E+03  0.00000000000E+00 0. -1.
         25    2    1    2    0    0 -0.14536060689E+02  0.31548706936E+02  0.11626782062E+03  0.17422228275E+03  0.12501431808E+03 0.  0.
          2    1    1    2  501    0 -0.32068369523E+02 -0.41897585571E+02 -0.74192549199E+02  0.91040223842E+02  0.00000000000E+00 0. -1.
          1    1    1    2  502    0  0.46604430212E+02  0.10348878635E+02  0.37571729833E+03  0.37873811595E+03  0.00000000000E+00 0. -1.
         22    1    3    3    0    0 -0.61495706520E+02  0.43570086042E+02  0.44206575568E+02  0.87374456459E+02  0.00000000000E+00 0.  1.
         22    1    3    3    0    0  0.46959645832E+02 -0.12021379106E+02  0.72061245053E+02  0.86847826287E+02  0.00000000000E+00 0.  1.
</event>
<event>
 7    1  0.6444902E-006  0.1690049E+03  0.7818608E-02  0.1283535E+00
          2   -1    0    0  502    0  0.00000000000E+00  0.00000000000E+00  0.13304037541E+04  0.13304037541E+04  0.00000000000E+00 0. -1.
          1   -1    0    0  501    0 -0.00000000000E+00 -0.00000000000E+00 -0.98601889777E+03  0.98601889777E+03  0.00000000000E+00 0. -1.
         25    2    1    2    0    0  0.80574060566E+02 -0.10491462945E+03 -0.26678595677E+02  0.18394441169E+03  0.12499816164E+03 0.  0.
          2    1    1    2  501    0 -0.17871155296E+02 -0.54525189151E+02 -0.87389989786E+03  0.87578159716E+03  0.00000000000E+00 0. -1.
          1    1    1    2  502    0 -0.62702905269E+02  0.15943981860E+03  0.12449633499E+04  0.12566966430E+04  0.00000000000E+00 0. -1.
         22    1    3    3    0    0  0.10072523865E+03 -0.46092678939E+02 -0.44326838507E+02  0.11931042438E+03  0.00000000000E+00 0.  1.
         22    1    3    3    0    0 -0.20151178087E+02 -0.58821950509E+02  0.17648242831E+02  0.64633987306E+02  0.00000000000E+00 0.  1.
</event>
<event>
 7    1  0.6444902E-006  0.6550978E+02  0.7818608E-02  0.1390223E+00
          2   -1    0    0  502    0  0.00000000000E+00  0.00000000000E+00  0.31097053733E+03  0.31097053733E+03  0.00000000000E+00 0. -1.
          1   -1    0    0  501    0 -0.00000000000E+00 -0.00000000000E+00 -0.17393362149E+04  0.17393362149E+04  0.00000000000E+00 0. -1.
         25    2    1    2    0    0  0.35968057011E+02 -0.12795150755E+02 -0.92014430948E+03  0.92938009755E+03  0.12499759374E+03 0.  0.
          2    1    1    2  501    0 -0.38930793007E+02  0.71117235163E+02 -0.80974820382E+03  0.81379691654E+03  0.00000000000E+00 0. -1.
          1    1    1    2  502    0  0.29627359964E+01 -0.58322084408E+02  0.30152683577E+03  0.30712973810E+03  0.00000000000E+00 0. -1.
         22    1    3    3    0    0 -0.63349531821E+01 -0.55792330431E+02 -0.65773858857E+03  0.66013102234E+03  0.00000000000E+00 0.  1.
         22    1    3    3    0    0  0.42303010193E+02  0.42997179676E+02 -0.26240572091E+03  0.26924907521E+03  0.00000000000E+00 0.  1.
</event>
<event>
 7    1  0.6444902E-006  0.7250923E+02  0.7818608E-02  0.1415898E+00
          2   -1    0    0  502    0  0.00000000000E+00  0.00000000000E+00  0.22935004393E+03  0.22935004393E+03  0.00000000000E+00 0. -1.
          1   -1    0    0  501    0 -0.00000000000E+00 -0.00000000000E+00 -0.35566248089E+03  0.35566248089E+03  0.00000000000E+00 0. -1.
         25    2    1    2    0    0  0.53995911894E+02 -0.55429805720E+02 -0.16009983497E+03  0.21736135210E+03  0.12500391339E+03 0.  0.
          2    1    1    2  501    0 -0.72089333275E+02  0.16319738906E+02 -0.15621742990E+03  0.17282098037E+03  0.00000000000E+00 0. -1.
          1    1    1    2  502    0  0.18093421380E+02  0.39110066814E+02  0.19000482791E+03  0.19483019235E+03  0.00000000000E+00 0. -1.
         22    1    3    3    0    0  0.68171647663E+02 -0.76444480568E+02 -0.16229932957E+03  0.19191718145E+03  0.00000000000E+00 0.  1.
         22    1    3    3    0    0 -0.14175735768E+02  0.21014674847E+02  0.21994946037E+01  0.25444170649E+02  0.00000000000E+00 0.  1.
</event>
<event>
 7    1  0.6444902E-006  0.1168726E+03  0.7818608E-02  0.1249561E+00
          2   -1    0    0  502    0  0.00000000000E+00  0.00000000000E+00  0.15897575467E+04  0.15897575467E+04  0.00000000000E+00 0. -1.
          1   -1    0    0  501    0 -0.00000000000E+00 -0.00000000000E+00 -0.52575729583E+03  0.52575729583E+03  0.00000000000E+00 0. -1.
         25    2    1    2    0    0 -0.62959506028E+02  0.86944620231E+02  0.19166904219E+03  0.25275455523E+03  0.12499830826E+03 0.  0.
          2    1    1    2  501    0 -0.58675848467E+02 -0.99441635627E+02 -0.48570000393E+03  0.49923540330E+03  0.00000000000E+00 0. -1.
          1    1    1    2  502    0  0.12163535449E+03  0.12497015396E+02  0.13580312126E+04  0.13635248840E+04  0.00000000000E+00 0. -1.
         22    1    3    3    0    0 -0.30275886804E+02  0.11225819736E+03  0.17033517933E+03  0.20623434610E+03  0.00000000000E+00 0.  1.
         22    1    3    3    0    0 -0.32683619224E+02 -0.25313577128E+02  0.21333862865E+02  0.46520209128E+02  0.00000000000E+00 0.  1.
</event>
<event>
 7    1  0.6444902E-006  0.9310249E+02  0.7818608E-02  0.1322723E+00
          2   -1    0    0  502    0  0.00000000000E+00  0.00000000000E+00  0.11904523442E+04  0.11904523442E+04  0.00000000000E+00 0. -1.
          1   -1    0    0  501    0 -0.00000000000E+00 -0.00000000000E+00 -0.18461383016E+03  0.18461383016E+03  0.00000000000E+00 0. -1.
         25    2    1    2    0    0  0.45273709916E+02  0.14719711845E+03 -0.73284072451E+01  0.19848442277E+03  0.12500264014E+03 0.  0.
          2    1    1    2  501    0  0.82119534944E+01 -0.72237476561E+02 -0.63170103668E+02  0.96312777955E+02  0.00000000000E+00 0. -1.
          1    1    1    2  502    0 -0.53485663410E+02 -0.74959641887E+02  0.10763370250E+04  0.10802689737E+04  0.00000000000E+00 0. -1.
         22    1    3    3    0    0  0.88989523073E+02  0.10039754626E+03 -0.85477093083E+01  0.13443164005E+03  0.00000000000E+00 0.  1.
         22    1    3    3    0    0 -0.43715813157E+02  0.46799572184E+02  0.12193020631E+01  0.64052782719E+02  0.00000000000E+00 0.  1.
</event>
<event>
 7    1  0.6444902E-006  0.8791300E+02  0.7818608E-02  0.1459364E+00
          2   -1    0    0  502    0  0.00000000000E+00  0.00000000000E+00  0.97919769959E+03  0.97919769959E+03  0.00000000000E+00 0. -1.
          1   -1    0    0  501    0 -0.00000000000E+00 -0.00000000000E+00 -0.24323036498E+03  0.24323036498E+03  0.00000000000E+00 0. -1.
         25    2    1    2    0    0  0.74348994880E+02  0.48546489543E+02  0.19740875581E+03  0.24995739376E+03  0.12499578848E+03 0.  0.
          2    1    1    2  501    0 -0.17457191393E+02  0.18799506266E+02 -0.21361409330E+03  0.21514914786E+03  0.00000000000E+00 0. -1.
          1    1    1    2  502    0 -0.56891803487E+02 -0.67345995809E+02  0.75217267210E+03  0.75732152294E+03  0.00000000000E+00 0. -1.
         22    1    3    3    0    0  0.10429920276E+03  0.16843434847E+02  0.16371473729E+03  0.19484491320E+03  0.00000000000E+00 0.  1.
         22    1    3    3    0    0 -0.29950207882E+02  0.31703054696E+02  0.33694018521E+02  0.55112480559E+02  0.00000000000E+00 0.  1.
</event>
<event>
 7    1  0.6444902E-006  0.4665431E+02  0.7818608E-02  0.1571120E+00
          2   -1    0    0  502    0  0.00000000000E+00  0.00000000000E+00  0.37396474918E+04  0.37396474918E+04  0.00000000000E+00 0. -1.
          1   -1    0    0  501    0 -0.00000000000E+00 -0.00000000000E+00 -0.64049779640E+01  0.64049779640E+01  0.00000000000E+00 0. -1.
         25    2    1    2    0    0  0.42941567660E+00 -0.31315821309E+02  0.16056324827E+04  0.16107951930E+04  0.12499847665E+03 0.  0.
          2    1    1    2  501    0 -0.17980950648E+02 -0.13959462310E+02  0.33029435659E+02  0.40113897768E+02  0.00000000000E+00 0. -1.
          1    1    1    2  502    0  0.17551534971E+02  0.45275283619E+02  0.20945805955E+04  0.20951433790E+04  0.00000000000E+00 0. -1.
         22    1    3    3    0    0  0.25534111912E+01  0.47122634153E+02  0.78593856022E+03  0.78735410268E+03  0.00000000000E+00 0. -1.
         22    1    3    3    0    0 -0.21239955146E+01 -0.78438455462E+02  0.81969392251E+03  0.82344109033E+03  0.00000000000E+00 0. -1.
</event>
<event>
 7    1  0.6444902E-006  0.7102411E+02  0.7818608E-02  0.1481436E+00
          2   -1    0    0  502    0  0.00000000000E+00  0.00000000000E+00  0.24132977913E+03  0.24132977913E+03  0.00000000000E+00 0. -1.
          1   -1    0    0  501    0 -0.00000000000E+00 -0.00000000000E+00 -0.14474680260E+04  0.14474680260E+04  0.00000000000E+00 0. -1.
         25    2    1    2    0    0  0.78234178559E+02  0.57034887268E+02 -0.31930094419E+03  0.35630272529E+03  0.12499989612E+03 0.  0.
          2    1    1    2  501    0 -0.24863438240E+02 -0.10815359228E+02 -0.11039030454E+04  0.11042359785E+04  0.00000000000E+00 0. -1.
          1    1    1    2  502    0 -0.53370740320E+02 -0.46219528040E+02  0.21706574270E+03  0.22825910135E+03  0.00000000000E+00 0. -1.
         22    1    3    3    0    0  0.10667196784E+02 -0.34379980211E+02 -0.13541324043E+03  0.14011608690E+03  0.00000000000E+00 0. -1.
         22    1    3    3    0    0  0.67566981776E+02  0.91414867480E+02 -0.18388770376E+03  0.21618663839E+03  0.00000000000E+00 0. -1.
</event>
<event>
 7    1  0.6444902E-006  0.3639358E+03  0.7818608E-02  0.1130310E+00
          2   -1    0    0  502    0  0.00000000000E+00  0.00000000000E+00  0.74960699255E+03  0.74960699255E+03  0.00000000000E+00 0. -1.
          1   -1    0    0  501    0 -0.00000000000E+00 -0.00000000000E+00 -0.22628183079E+04  0.22628183079E+04  0.00000000000E+00 0. -1.
         25    2    1    2    0    0  0.49272249355E+03  0.18128047292E+02 -0.90273974861E+02  0.51660349443E+03  0.12500279265E+03 0.  0.
          2    1    1    2  501    0 -0.35379640472E+03 -0.16815165326E+02 -0.19340230296E+04  0.19661891376E+04  0.00000000000E+00 0. -1.
          1    1    1    2  502    0 -0.13892608883E+03 -0.13128819661E+01  0.51108568912E+03  0.52963266841E+03  0.00000000000E+00 0. -1.
         22    1    3    3    0    0  0.31958846305E+03 -0.45479882824E+02 -0.75795325716E+02  0.33158729900E+03  0.00000000000E+00 0. -1.
         22    1    3    3    0    0  0.17313403050E+03  0.63607930117E+02 -0.14478649145E+02  0.18501619543E+03  0.00000000000E+00 0. -1.
</event>
<event>
 7    1  0.6444902E-006  0.8532568E+02  0.7818608E-02  0.1388812E+00
          2   -1    0    0  502    0  0.00000000000E+00  0.00000000000E+00  0.13913547957E+03  0.13913547957E+03  0.00000000000E+00 0. -1.
          1   -1    0    0  501    0 -0.00000000000E+00 -0.00000000000E+00 -0.91687562437E+03  0.91687562437E+03  0.00000000000E+00 0. -1.
         25    2    1    2    0    0  0.36593106549E+02 -0.49899188140E+02 -0.43089953885E+03  0.45291092525E+03  0.12499963683E+03 0.  0.
          2    1    1    2  501    0  0.42626974236E+02  0.15468144033E+02 -0.45916737500E+03  0.46140112773E+03  0.00000000000E+00 0. -1.
          1    1    1    2  502    0 -0.79220080785E+02  0.34431044108E+02  0.11232676904E+03  0.14169905095E+03  0.00000000000E+00 0. -1.
         22    1    3    3    0    0 -0.10559427756E+02 -0.71649313075E+02 -0.34513120251E+03  0.35264808595E+03  0.00000000000E+00 0. -1.
         22    1    3    3    0    0  0.47152534305E+02  0.21750124935E+02 -0.85768336337E+02  0.10026283930E+03  0.00000000000E+00 0. -1.
</event>
<event>
 7    1  0.6444902E-006  0.9745004E+02  0.7818608E-02  0.1435297E+00
          2   -1    0    0  502    0  0.00000000000E+00  0.00000000000E+00  0.46418338246E+03  0.46418338246E+03  0.00000000000E+00 0. -1.
          1   -1    0    0  501    0 -0.00000000000E+00 -0.00000000000E+00 -0.86657308701E+03  0.86657308701E+03  0.00000000000E+00 0. -1.
         25    2    1    2    0    0 -0.61060860607E+01  0.93350951972E+02 -0.15921050665E+03  0.22298816480E+03  0.12499620672E+03 0.  0.
          2    1    1    2  501    0  0.27585721253E+02  0.19282255852E+01 -0.66966797497E+03  0.67023867896E+03  0.00000000000E+00 0. -1.
          1    1    1    2  502    0 -0.21479635193E+02 -0.95279177557E+02  0.42648877708E+03  0.43752962571E+03  0.00000000000E+00 0. -1.
         22    1    3    3    0    0 -0.50316032837E+01  0.39444774228E+02  0.13550008076E+02  0.42009641326E+02  0.00000000000E+00 0. -1.
         22    1    3    3    0    0 -0.10744827771E+01  0.53906177744E+02 -0.17276051473E+03  0.18097852348E+03  0.00000000000E+00 0. -1.
</event>
<event>
 7    1  0.6444902E-006  0.3297524E+02  0.7818608E-02  0.1574224E+00
          2   -1    0    0  502    0  0.00000000000E+00  0.00000000000E+00  0.56302626629E+02  0.56302626629E+02  0.00000000000E+00 0. -1.
          1   -1    0    0  501    0 -0.00000000000E+00 -0.00000000000E+00 -0.15684168397E+04  0.15684168397E+04  0.00000000000E+00 0. -1.
         25    2    1    2    0    0  0.26930137920E+02 -0.58459699029E+02 -0.13176156780E+03  0.19268978355E+03  0.12500189276E+03 0.  0.
          2    1    1    2  501    0 -0.13478492241E+02  0.29877543447E+02 -0.13962713980E+04  0.13966560616E+04  0.00000000000E+00 0. -1.
          1    1    1    2  502    0 -0.13451645679E+02  0.28582155582E+02  0.15918752753E+02  0.35373621223E+02  0.00000000000E+00 0. -1.
         22    1    3    3    0    0  0.77714261379E+01 -0.51199840979E+02  0.71481419710E+01  0.52277286790E+02  0.00000000000E+00 0. -1.
         22    1    3    3    0    0  0.19158711782E+02 -0.72598580500E+01 -0.13890970977E+03  0.14041249676E+03  0.00000000000E+00 0. -1.
</event>
<event>
 7    1  0.6444902E-006  0.1562795E+03  0.7818608E-02  0.1286406E+00
          2   -1    0    0  502    0  0.00000000000E+00  0.00000000000E+00  0.12716706026E+04  0.12716706026E+04  0.00000000000E+00 0. -1.
          1   -1    0    0  501    0 -0.00000000000E+00 -0.00000000000E+00 -0.98220059856E+03  0.98220059856E+03  0.00000000000E+00 0. -1.
         25    2    1    2    0    0 -0.14244702255E+03  0.57182553059E+02  0.19936895114E+03  0.28094712146E+03  0.12498923060E+03 0.  0.
          2    1    1    2  501    0  0.11212575884E+03 -0.10941191762E+03 -0.93399810961E+03  0.94704573399E+03  0.00000000000E+00 0. -1.
          1    1    1    2  502    0  0.30321263712E+02  0.52229364562E+02  0.10240991625E+04  0.10258783457E+04  0.00000000000E+00 0. -1.
         22    1    3    3    0    0 -0.13107497397E+03  0.35990219181E+02  0.21346667671E+03  0.25306909480E+03  0.00000000000E+00 0. -1.
         22    1    3    3    0    0 -0.11372048580E+02  0.21192333878E+02 -0.14097725565E+02  0.27878026656E+02  0.00000000000E+00 0. -1.
</event>
<event>
 7    1  0.6444902E-006  0.9924879E+02  0.7818608E-02  0.1402527E+00
          2   -1    0    0  502    0  0.00000000000E+00  0.00000000000E+00  0.17707554539E+04  0.17707554539E+04  0.00000000000E+00 0. -1.
          1   -1    0    0  501    0 -0.00000000000E+00 -0.00000000000E+00 -0.84064461524E+03  0.84064461524E+03  0.00000000000E+00 0. -1.
         25    2    1    2    0    0 -0.11010516380E+03 -0.48251576422E+02  0.15984191102E+03  0.23585321331E+03  0.12500375990E+03 0.  0.
          2    1    1    2  501    0  0.77695326012E+02  0.61329687450E+02 -0.79939193543E+03  0.80549696503E+03  0.00000000000E+00 0. -1.
          1    1    1    2  502    0  0.32409837783E+02 -0.13078111027E+02  0.15696608630E+04  0.15700498908E+04  0.00000000000E+00 0. -1.
         22    1    3    3    0    0 -0.10356976255E+03 -0.55858132237E+02  0.53886101449E+02  0.12942387176E+03  0.00000000000E+00 0.  1.
         22    1    3    3    0    0 -0.65354012432E+01  0.76065558145E+01  0.10595580957E+03  0.10642934155E+03  0.00000000000E+00 0.  1.
</event>
<event>
 7    1  0.6444902E-006  0.7908488E+02  0.7818608E-02  0.1397985E+00
          2   -1    0    0  502    0  0.00000000000E+00  0.00000000000E+00  0.13421811445E+04  0.13421811445E+04  0.00000000000E+00 0. -1.
          1   -1    0    0  501    0 -0.00000000000E+00 -0.00000000000E+00 -0.19289423005E+03  0.19289423005E+03  0.00000000000E+00 0. -1.
         25    2    1    2    0    0 -0.10685609028E+03  0.41135280486E+02  0.26496376857E+03  0.31454820067E+03  0.12499774622E+03 0.  0.
          2    1    1    2  501    0  0.77876661550E+02 -0.61025767475E+01 -0.15850500986E+03  0.17670838692E+03  0.00000000000E+00 0. -1.
          1    1    1    2  502    0  0.28979428732E+02 -0.35032703738E+02  0.10428281558E+04  0.10438187870E+04  0.00000000000E+00 0. -1.
         22    1    3    3    0    0 -0.49756546085E+02  0.49818433064E+02  0.24260425048E+03  0.25261514701E+03  0.00000000000E+00 0.  1.
         22    1    3    3    0    0 -0.57099544198E+02 -0.86831525788E+01  0.22359518094E+02  0.61933053660E+02  0.00000000000E+00 0.  1.
</event>
<event>
 7    1  0.6444902E-006  0.7397896E+02  0.7818608E-02  0.1494926E+00
          2   -1    0    0  502    0  0.00000000000E+00  0.00000000000E+00  0.17534088912E+04  0.17534088912E+04  0.00000000000E+00 0. -1.
          1   -1    0    0  501    0 -0.00000000000E+00 -0.00000000000E+00 -0.58379001115E+02  0.58379001115E+02  0.00000000000E+00 0. -1.
         25    2    1    2    0    0  0.78484881935E+01 -0.56852377121E+02  0.45943731841E+03  0.47958845322E+03  0.12501457261E+03 0.  0.
          2    1    1    2  501    0  0.77147385233E+01  0.74713675939E+02 -0.18924826311E+02  0.77458373425E+02  0.00000000000E+00 0. -1.
          1    1    1    2  502    0 -0.15563226717E+02 -0.17861298818E+02  0.12545173979E+04  0.12547410656E+04  0.00000000000E+00 0. -1.
         22    1    3    3    0    0  0.61402905090E+02 -0.61335764918E+01  0.25138892613E+03  0.25885194551E+03  0.00000000000E+00 0. -1.
         22    1    3    3    0    0 -0.53554416897E+02 -0.50718800629E+02  0.20804839228E+03  0.22073650771E+03  0.00000000000E+00 0. -1.
</event>
<event>
 7    1  0.6444902E-006  0.9130972E+02  0.7818608E-02  0.1389624E+00
          2   -1    0    0  502    0  0.00000000000E+00  0.00000000000E+00  0.19584378747E+04  0.19584378747E+04  0.00000000000E+00 0. -1.
          1   -1    0    0  501    0 -0.00000000000E+00 -0.00000000000E+00 -0.18093971992E+03  0.18093971992E+03  0.00000000000E+00 0. -1.
         25    2    1    2    0    0 -0.53343261731E+02  0.84953344706E+02  0.13265535840E+04  0.13362006254E+04  0.12500050285E+03 0.  0.
          2    1    1    2  501    0  0.11620508732E+02 -0.90568815666E+02 -0.16351177233E+03  0.18728012785E+03  0.00000000000E+00 0. -1.
          1    1    1    2  502    0  0.41722752999E+02  0.56154709600E+01  0.61445634306E+03  0.61589684132E+03  0.00000000000E+00 0. -1.
         22    1    3    3    0    0  0.30779546851E+02 -0.30946249148E+01  0.13798456141E+03  0.14140967575E+03  0.00000000000E+00 0. -1.
         22    1    3    3    0    0 -0.84122808582E+02  0.88047969621E+02  0.11885690226E+04  0.11947909497E+04  0.00000000000E+00 0. -1.
</event>
<event>
 7    1  0.6444902E-006  0.1211380E+03  0.7818608E-02  0.1305074E+00
          2   -1    0    0  502    0  0.00000000000E+00  0.00000000000E+00  0.11499757358E+04  0.11499757358E+04  0.00000000000E+00 0. -1.
          1   -1    0    0  501    0 -0.00000000000E+00 -0.00000000000E+00 -0.36183200590E+03  0.36183200590E+03  0.00000000000E+00 0. -1.
         25    2    1    2    0    0  0.60703456829E+02 -0.39102454808E+02 -0.12934213031E+03  0.19382627917E+03  0.12500131272E+03 0.  0.
          2    1    1    2  501    0  0.60736364606E+02  0.24571687680E+02 -0.19143490279E+03  0.20233634332E+03  0.00000000000E+00 0. -1.
          1    1    1    2  502    0 -0.12143982144E+03  0.14530767128E+02  0.11089207630E+04  0.11156451193E+04  0.00000000000E+00 0. -1.
         22    1    3    3    0    0  0.50953223149E+02  0.35931488603E+02 -0.87262737405E+02  0.10724778861E+03  0.00000000000E+00 0.  1.
         22    1    3    3    0    0  0.97502336801E+01 -0.75033943411E+02 -0.42079392901E+02  0.86578490559E+02  0.00000000000E+00 0.  1.
</event>
<event>
 7    1  0.6444902E-006  0.1643871E+03  0.7818608E-02  0.1192773E+00
          2   -1    0    0  502    0  0.00000000000E+00  0.00000000000E+00  0.58702697072E+03  0.58702697072E+03  0.00000000000E+00 0. -1.
          1   -1    0    0  501    0 -0.00000000000E+00 -0.00000000000E+00 -0.43759932975E+03  0.43759932975E+03  0.00000000000E+00 0. -1.
         25    2    1    2    0    0 -0.18173937376E+03 -0.10775126523E+02  0.11600920765E+03  0.24945739053E+03  0.12500220040E+03 0.  0.
          2    1    1    2  501    0  0.76539786728E+02 -0.12770078813E+03 -0.33564642016E+03  0.36718435370E+03  0.00000000000E+00 0. -1.
          1    1    1    2  502    0  0.10519958703E+03  0.13847591465E+03  0.36906485348E+03  0.40798455623E+03  0.00000000000E+00 0. -1.
         22    1    3    3    0    0 -0.95152729591E+02  0.30338072154E+02  0.11670264428E+03  0.15360321530E+03  0.00000000000E+00 0.  1.
         22    1    3    3    0    0 -0.86586644170E+02 -0.41113198677E+02 -0.69343662738E+00  0.95854175227E+02  0.00000000000E+00 0.  1.
</event>
<event>
 7    1  0.6444902E-006  0.2241574E+03  0.7818608E-02  0.1200477E+00
          2   -1    0    0  502    0  0.00000000000E+00  0.00000000000E+00  0.96566601739E+03  0.96566601739E+03  0.00000000000E+00 0. -1.
          1   -1    0    0  501    0 -0.00000000000E+00 -0.00000000000E+00 -0.10793299932E+04  0.10793299932E+04  0.00000000000E+00 0. -1.
         25    2    1    2    0    0  0.11682760736E+03  0.21962193995E+03 -0.53370881739E+03  0.60195724600E+03  0.12499975162E+03 0.  0.
          2    1    1    2  501    0 -0.16902376444E+03 -0.13389023019E+03 -0.48587621388E+03  0.53157438041E+03  0.00000000000E+00 0. -1.
          1    1    1    2  502    0  0.52196157084E+02 -0.85731709761E+02  0.90592105547E+03  0.91146438417E+03  0.00000000000E+00 0. -1.
         22    1    3    3    0    0  0.98072328107E+02  0.13389005516E+03 -0.21627886734E+03  0.27261928924E+03  0.00000000000E+00 0.  1.
         22    1    3    3    0    0  0.18755279253E+02  0.85731884787E+02 -0.31742995006E+03  0.32933795676E+03  0.00000000000E+00 0.  1.
</event>
<event>
 7    1  0.6444902E-006  0.1276056E+03  0.7818608E-02  0.1285732E+00
          2   -1    0    0  502    0  0.00000000000E+00  0.00000000000E+00  0.75619940870E+03  0.75619940870E+03  0.00000000000E+00 0. -1.
          1   -1    0    0  501    0 -0.00000000000E+00 -0.00000000000E+00 -0.36694313151E+04  0.36694313151E+04  0.00000000000E+00 0. -1.
         25    2    1    2    0    0  0.17514246034E+03 -0.81739905416E+01 -0.18554890146E+03  0.28424409144E+03  0.12499845260E+03 0.  0.
          2    1    1    2  501    0 -0.59787979653E+02 -0.44338248757E+02 -0.34284460111E+04  0.34292539325E+04  0.00000000000E+00 0. -1.
          1    1    1    2  502    0 -0.11535448068E+03  0.52512239299E+02  0.70076300611E+03  0.71213269986E+03  0.00000000000E+00 0. -1.
         22    1    3    3    0    0  0.88295723835E+02 -0.59202205686E+02 -0.13413563711E+03  0.17115316284E+03  0.00000000000E+00 0.  1.
         22    1    3    3    0    0  0.86846736502E+02  0.51028215144E+02 -0.51413264352E+02  0.11309092861E+03  0.00000000000E+00 0.  1.
</event>
<event>
 7    1  0.6444902E-006  0.3396536E+02  0.7818608E-02  0.1573063E+00
          2   -1    0    0  502    0  0.00000000000E+00  0.00000000000E+00  0.22858795630E+04  0.22858795630E+04  0.00000000000E+00 0. -1.
          1   -1    0    0  501    0 -0.00000000000E+00 -0.00000000000E+00 -0.83054505927E+02  0.83054505927E+02  0.00000000000E+00 0. -1.
         25    2    1    2    0    0 -0.12284397095E+02 -0.19088405887E+02  0.51474531254E+03  0.53019039421E+03  0.12499537464E+03 0.  0.
          2    1    1    2  501    0  0.34017666958E+02 -0.28640005078E+01 -0.71321848251E+02  0.79070918814E+02  0.00000000000E+00 0. -1.
          1    1    1    2  502    0 -0.21733269863E+02  0.21952406395E+02  0.17594015928E+04  0.17596727559E+04  0.00000000000E+00 0. -1.
         22    1    3    3    0    0 -0.55653870081E+02  0.28071508044E+02  0.28038431108E+03  0.28722939390E+03  0.00000000000E+00 0. -1.
         22    1    3    3    0    0  0.43369472986E+02 -0.47159913931E+02  0.23436100145E+03  0.24296100031E+03  0.00000000000E+00 0. -1.
</event>
<event>
 7    1  0.6444902E-006  0.9982667E+02  0.7818608E-02  0.1385118E+00
          2   -1    0    0  502    0  0.00000000000E+00  0.00000000000E+00  0.24806039833E+04  0.24806039833E+04  0.00000000000E+00 0. -1.
          1   -1    0    0  501    0 -0.00000000000E+00 -0.00000000000E+00 -0.44129479085E+02  0.44129479085E+02  0.00000000000E+00 0. -1.
         25    2    1    2    0    0  0.46868878677E+02  0.73167356085E+02  0.32598870988E+03  0.35978263775E+03  0.12499901468E+03 0.  0.
          2    1    1    2  501    0 -0.20454790145E+02 -0.10311582997E+03  0.75151155865E+02  0.12922449094E+03  0.00000000000E+00 0. -1.
          1    1    1    2  502    0 -0.26414088532E+02  0.29948473886E+02  0.20353346384E+04  0.20357263337E+04  0.00000000000E+00 0. -1.
         22    1    3    3    0    0  0.13388806670E+02  0.36597163674E+02  0.30235650917E+03  0.30485746042E+03  0.00000000000E+00 0.  1.
         22    1    3    3    0    0  0.33480072007E+02  0.36570192411E+02  0.23632200710E+02  0.54925177332E+02  0.00000000000E+00 0.  1.
</event>
<event>
 7    1  0.6444902E-006  0.4675368E+02  0.7818608E-02  0.1535926E+00
          2   -1    0    0  502    0  0.00000000000E+00  0.00000000000E+00  0.32118951575E+03  0.32118951575E+03  0.00000000000E+00 0. -1.
          1   -1    0    0  501    0 -0.00000000000E+00 -0.00000000000E+00 -0.32951453182E+03  0.32951453182E+03  0.00000000000E+00 0. -1.
         25    2    1    2    0    0 -0.34471340960E+02  0.86274282310E+01 -0.19735773223E+03  0.23630011950E+03  0.12499986455E+03 0.  0.
          2    1    1    2  501    0 -0.86473919904E+01 -0.27101209210E+02 -0.10902610999E+03  0.11267628672E+03  0.00000000000E+00 0. -1.
          1    1    1    2  502    0  0.43118732950E+02  0.18473780979E+02  0.29805882615E+03  0.30172764136E+03  0.00000000000E+00 0. -1.
         22    1    3    3    0    0 -0.41548646684E+02  0.59490295607E+02 -0.14915130442E+03  0.16586590043E+03  0.00000000000E+00 0. -1.
         22    1    3    3    0    0  0.70773057245E+01 -0.50862867376E+02 -0.48206427808E+02  0.70434219070E+02  0.00000000000E+00 0. -1.
</event>
<event>
 7    1  0.6444902E-006  0.7793752E+02  0.7818608E-02  0.1389141E+00
          2   -1    0    0  502    0  0.00000000000E+00  0.00000000000E+00  0.60807943799E+03  0.60807943799E+03  0.00000000000E+00 0. -1.
          1   -1    0    0  501    0 -0.00000000000E+00 -0.00000000000E+00 -0.59886946742E+02  0.59886946742E+02  0.00000000000E+00 0. -1.
         25    2    1    2    0    0 -0.48132655230E+02  0.55797311846E+02  0.10187825324E+03  0.17729655781E+03  0.12499919368E+03 0.  0.
          2    1    1    2  501    0  0.43435968703E+02  0.23768600331E+02  0.14545792280E+02  0.51606296243E+02  0.00000000000E+00 0. -1.
          1    1    1    2  502    0  0.46966865278E+01 -0.79565912176E+02  0.43176844573E+03  0.43906353068E+03  0.00000000000E+00 0. -1.
         22    1    3    3    0    0 -0.11813222273E+02  0.17417138812E+02  0.11969646974E+03  0.12153252163E+03  0.00000000000E+00 0. -1.
         22    1    3    3    0    0 -0.36319432958E+02  0.38380173034E+02 -0.17818216499E+02  0.55764036186E+02  0.00000000000E+00 0. -1.
</event>
<event>
 7    1  0.6444902E-006  0.7663151E+02  0.7818608E-02  0.1396508E+00
          2   -1    0    0  502    0  0.00000000000E+00  0.00000000000E+00  0.13080899475E+04  0.13080899475E+04  0.00000000000E+00 0. -1.
          1   -1    0    0  501    0 -0.00000000000E+00 -0.00000000000E+00 -0.74116982876E+02  0.74116982876E+02  0.00000000000E+00 0. -1.
         25    2    1    2    0    0  0.43808457066E+02  0.10678113464E+03  0.24360131290E+03  0.29713149201E+03  0.12499652903E+03 0.  0.
          2    1    1    2  501    0 -0.42250582790E+02 -0.59331424576E+02 -0.18449373730E+02  0.75137933691E+02  0.00000000000E+00 0. -1.
          1    1    1    2  502    0 -0.15578742753E+01 -0.47449710069E+02  0.10088210255E+04  0.10099375047E+04  0.00000000000E+00 0. -1.
         22    1    3    3    0    0  0.23692439197E+02  0.12929510420E+03  0.22792462239E+03  0.26311250282E+03  0.00000000000E+00 0.  1.
         22    1    3    3    0    0  0.20116017868E+02 -0.22513969560E+02  0.15676690509E+02  0.34018989190E+02  0.00000000000E+00 0.  1.
</event>
<event>
 7    1  0.6444902E-006  0.8319051E+02  0.7818608E-02  0.1443148E+00
          2   -1    0    0  502    0  0.00000000000E+00  0.00000000000E+00  0.18239941722E+03  0.18239941722E+03  0.00000000000E+00 0. -1.
          1   -1    0    0  501    0 -0.00000000000E+00 -0.00000000000E+00 -0.10009219985E+04  0.10009219985E+04  0.00000000000E+00 0. -1.
         25    2    1    2    0    0  0.40792703458E+02  0.36154897779E+02 -0.35066876826E+02  0.14080061541E+03  0.12499562457E+03 0.  0.
          2    1    1    2  501    0 -0.68433184248E+02 -0.49155195635E+02 -0.90921216354E+03  0.91310793026E+03  0.00000000000E+00 0. -1.
          1    1    1    2  502    0  0.27640480790E+02  0.13000297855E+02  0.12575645910E+03  0.12941287003E+03  0.00000000000E+00 0. -1.
         22    1    3    3    0    0  0.73883977596E+02 -0.30918238586E+01 -0.47616966433E+02  0.87953266070E+02  0.00000000000E+00 0. -1.
         22    1    3    3    0    0 -0.33091274138E+02  0.39246721638E+02  0.12550089606E+02  0.52847349343E+02  0.00000000000E+00 0. -1.
</event>
<event>
 7    1  0.6444902E-006  0.1148835E+03  0.7818608E-02  0.1257176E+00
          2   -1    0    0  502    0  0.00000000000E+00  0.00000000000E+00  0.37258866726E+03  0.37258866726E+03  0.00000000000E+00 0. -1.
          1   -1    0    0  501    0 -0.00000000000E+00 -0.00000000000E+00 -0.17767054286E+04  0.17767054286E+04  0.00000000000E+00 0. -1.
         25    2    1    2    0    0 -0.49882824345E+02 -0.13554966527E+02 -0.20643325116E+03  0.24680221777E+03  0.12499845690E+03 0.  0.
          2    1    1    2  501    0  0.90851729221E+02 -0.87347956930E+02 -0.15390363890E+04  0.15441880420E+04  0.00000000000E+00 0. -1.
          1    1    1    2  502    0 -0.40968904876E+02  0.10090292346E+03  0.34135287880E+03  0.35830383615E+03  0.00000000000E+00 0. -1.
         22    1    3    3    0    0 -0.67606742739E+02 -0.26840031862E+02 -0.48736474807E+02  0.87557426588E+02  0.00000000000E+00 0. -1.
         22    1    3    3    0    0  0.17723918394E+02  0.13285065335E+02 -0.15769677636E+03  0.15924479118E+03  0.00000000000E+00 0. -1.
</event>
<event>
 7    1  0.6444902E-006  0.1733762E+03  0.7818608E-02  0.1367210E+00
          2   -1    0    0  502    0  0.00000000000E+00  0.00000000000E+00  0.13170266593E+04  0.13170266593E+04  0.00000000000E+00 0. -1.
          1   -1    0    0  501    0 -0.00000000000E+00 -0.00000000000E+00 -0.52900777487E+03  0.52900777487E+03  0.00000000000E+00 0. -1.
         25    2    1    2    0    0 -0.83733676315E+01  0.15461079107E+03  0.81808820938E+02  0.21515549842E+03  0.12499838126E+03 0.  0.
          2    1    1    2  501    0 -0.83434279043E+01 -0.17534056610E+03 -0.44551282863E+03  0.47884820913E+03  0.00000000000E+00 0. -1.
          1    1    1    2  502    0  0.16716795536E+02  0.20729775034E+02  0.11517228921E+04  0.11520307266E+04  0.00000000000E+00 0. -1.
         22    1    3    3    0    0  0.35775394100E+02  0.58588134047E+01 -0.61856092284E+01  0.36775892634E+02  0.00000000000E+00 0. -1.
         22    1    3    3    0    0 -0.44148761732E+02  0.14875197766E+03  0.87994430167E+02  0.17837960579E+03  0.00000000000E+00 0. -1.
</event>
<event>
 7    1  0.6444902E-006  0.5382366E+02  0.7818608E-02  0.1504092E+00
          2   -1    0    0  502    0  0.00000000000E+00  0.00000000000E+00  0.22389569853E+04  0.22389569853E+04  0.00000000000E+00 0. -1.
          1   -1    0    0  501    0 -0.00000000000E+00 -0.00000000000E+00 -0.38912471226E+03  0.38912471226E+03  0.00000000000E+00 0. -1.
         25    2    1    2    0    0 -0.59130423052E+01 -0.84073914252E+02 -0.28815353566E+02  0.15348785779E+03  0.12499924304E+03 0.  0.
          2    1    1    2  501    0  0.25494511702E+01  0.30466432147E+02 -0.29685652488E+03  0.29842670717E+03  0.00000000000E+00 0. -1.
          1    1    1    2  502    0  0.33635911350E+01  0.53607482105E+02  0.21755041515E+04  0.21761671326E+04  0.00000000000E+00 0. -1.
         22    1    3    3    0    0  0.28191349077E+02  0.12427281308E+02 -0.40042966813E+02  0.50523545745E+02  0.00000000000E+00 0.  1.
         22    1    3    3    0    0 -0.34104391382E+02 -0.96501195560E+02  0.11227613247E+02  0.10296431205E+03  0.00000000000E+00 0.  1.
</event>
<event>
 7    1  0.6444902E-006  0.1427154E+03  0.7818608E-02  0.1217791E+00
          2   -1    0    0  502    0  0.00000000000E+00  0.00000000000E+00  0.24987633434E+04  0.24987633434E+04  0.00000000000E+00 0. -1.
          1   -1    0    0  501    0 -0.00000000000E+00 -0.00000000000E+00 -0.81891033615E+03  0.81891033615E+03  0.00000000000E+00 0. -1.
         25    2    1    2    0    0  0.15281273801E+03 -0.12626640210E+03  0.20346062361E+03  0.31034841017E+03  0.12499989255E+03 0.  0.
          2    1    1    2  501    0 -0.22606038508E+02  0.14071160982E+03 -0.75689674008E+03  0.77019703015E+03  0.00000000000E+00 0. -1.
          1    1    1    2  502    0 -0.13020669950E+03 -0.14445207717E+02  0.22332891237E+04  0.22371282392E+04  0.00000000000E+00 0. -1.
         22    1    3    3    0    0 -0.19614856685E+02 -0.16613742428E+02  0.44771914698E+02  0.51626382654E+02  0.00000000000E+00 0. -1.
         22    1    3    3    0    0  0.17242759470E+03 -0.10965265967E+03  0.15868870891E+03  0.25872202751E+03  0.00000000000E+00 0. -1.
</event>
<event>
 7    1  0.6444902E-006  0.2486839E+02  0.7818608E-02  0.1676898E+00
          2   -1    0    0  502    0  0.00000000000E+00  0.00000000000E+00  0.55694974081E+03  0.55694974081E+03  0.00000000000E+00 0. -1.
          1   -1    0    0  501    0 -0.00000000000E+00 -0.00000000000E+00 -0.44241082345E+03  0.44241082345E+03  0.00000000000E+00 0. -1.
         25    2    1    2    0    0  0.17865828427E+02 -0.18368518541E+02 -0.24731186494E+03  0.27828877157E+03  0.12499956616E+03 0.  0.
          2    1    1    2  501    0  0.41632152388E+01  0.25059533020E+02 -0.17846592883E+03  0.18026480608E+03  0.00000000000E+00 0. -1.
          1    1    1    2  502    0 -0.22029043666E+02 -0.66910144790E+01  0.54031671114E+03  0.54080698662E+03  0.00000000000E+00 0. -1.
         22    1    3    3    0    0  0.29057060621E+02 -0.68595250641E+02 -0.12379069366E+03  0.14447753119E+03  0.00000000000E+00 0.  1.
         22    1    3    3    0    0 -0.11191232194E+02  0.50226732100E+02 -0.12352117128E+03  0.13381124037E+03  0.00000000000E+00 0.  1.
</event>
<event>
 7    1  0.6444902E-006  0.1425049E+03  0.7818608E-02  0.1314675E+00
          2   -1    0    0  502    0  0.00000000000E+00  0.00000000000E+00  0.16342696236E+04  0.16342696236E+04  0.00000000000E+00 0. -1.
          1   -1    0    0  501    0 -0.00000000000E+00 -0.00000000000E+00 -0.92769575383E+02  0.92769575383E+02  0.00000000000E+00 0. -1.
         25    2    1    2    0    0 -0.67195614097E+02 -0.94939241953E+02  0.11327440699E+03  0.20490165501E+03  0.12499954693E+03 0.  0.
          2    1    1    2  501    0  0.94442792070E+02  0.13810624383E+03  0.10415084587E+03  0.19707910659E+03  0.00000000000E+00 0. -1.
          1    1    1    2  502    0 -0.27247177973E+02 -0.43167001878E+02  0.13240747954E+04  0.13250584374E+04  0.00000000000E+00 0. -1.
         22    1    3    3    0    0 -0.49243445638E+02 -0.75671896093E+02  0.14051054271E+03  0.16701606332E+03  0.00000000000E+00 0.  1.
         22    1    3    3    0    0 -0.17952168459E+02 -0.19267345860E+02 -0.27236135719E+02  0.37885591691E+02  0.00000000000E+00 0.  1.
</event>
<event>
 7    1  0.6444902E-006  0.6734516E+02  0.7818608E-02  0.1391272E+00
          2   -1    0    0  502    0  0.00000000000E+00  0.00000000000E+00  0.20484497482E+04  0.20484497482E+04  0.00000000000E+00 0. -1.
          1   -1    0    0  501    0 -0.00000000000E+00 -0.00000000000E+00 -0.15096081437E+03  0.15096081437E+03  0.00000000000E+00 0. -1.
         25    2    1    2    0    0 -0.10884779168E+02 -0.15589251281E+02  0.12127310873E+03  0.17519633276E+03  0.12500033975E+03 0.  0.
          2    1    1    2  501    0  0.21118499438E+02 -0.52220551929E+02 -0.11694900683E+03  0.12980773190E+03  0.00000000000E+00 0. -1.
          1    1    1    2  502    0 -0.10233720270E+02  0.67809803210E+02  0.18931648319E+04  0.18944064979E+04  0.00000000000E+00 0. -1.
         22    1    3    3    0    0  0.31164070103E+02 -0.13064756452E+02  0.12813556589E+03  0.13251645322E+03  0.00000000000E+00 0.  1.
         22    1    3    3    0    0 -0.42048849271E+02 -0.25244948293E+01 -0.68624571640E+01  0.42679879539E+02  0.00000000000E+00 0.  1.
</event>
<event>
 7    1  0.6444902E-006  0.3772481E+02  0.7818608E-02  0.1606823E+00
          2   -1    0    0  502    0  0.00000000000E+00  0.00000000000E+00  0.18614794622E+03  0.18614794622E+03  0.00000000000E+00 0. -1.
          1   -1    0    0  501    0 -0.00000000000E+00 -0.00000000000E+00 -0.51851753320E+03  0.51851753320E+03  0.00000000000E+00 0. -1.
         25    2    1    2    0    0  0.45980442375E+02 -0.56223827687E+01  0.15830960537E+01  0.13331642147E+03  0.12499979909E+03 0.  0.
          2    1    1    2  501    0 -0.30501174236E+02  0.22143186326E+02 -0.45077764540E+03  0.45235066920E+03  0.00000000000E+00 0. -1.
          1    1    1    2  502    0 -0.15479268140E+02 -0.16520803558E+02  0.11682496237E+03  0.11899838875E+03  0.00000000000E+00 0. -1.
         22    1    3    3    0    0 -0.19529890509E+02 -0.48525956249E+02 -0.12425673902E+02  0.53764136979E+02  0.00000000000E+00 0.  1.
         22    1    3    3    0    0  0.65510332884E+02  0.42903573480E+02  0.14008769955E+02  0.79552284491E+02  0.00000000000E+00 0.  1.
</event>
<event>
 7    1  0.6444902E-006  0.1734333E+03  0.7818608E-02  0.1245378E+00
          2   -1    0    0  502    0  0.00000000000E+00  0.00000000000E+00  0.41422825550E+03  0.41422825550E+03  0.00000000000E+00 0. -1.
          1   -1    0    0  501    0 -0.00000000000E+00 -0.00000000000E+00 -0.72840799271E+03  0.72840799271E+03  0.00000000000E+00 0. -1.
         25    2    1    2    0    0  0.14967516492E+02  0.20967036064E+03 -0.11275389454E+03  0.26930329454E+03  0.12500054813E+03 0.  0.
          2    1    1    2  501    0 -0.66247818195E+02 -0.46852237693E+02 -0.51229416909E+03  0.51868026883E+03  0.00000000000E+00 0. -1.
          1    1    1    2  502    0  0.51280301703E+02 -0.16281812295E+03  0.31086832641E+03  0.35465268485E+03  0.00000000000E+00 0. -1.
         22    1    3    3    0    0  0.26050689726E+01  0.31790452921E+02 -0.82492699621E+02  0.88444698949E+02  0.00000000000E+00 0. -1.
         22    1    3    3    0    0  0.12362447519E+02  0.17787990772E+03 -0.30261194917E+02  0.18085859559E+03  0.00000000000E+00 0. -1.
</event>
<event>
 7    1  0.6444902E-006  0.6814632E+02  0.7818608E-02  0.1488288E+00
          2   -1    0    0  502    0  0.00000000000E+00  0.00000000000E+00  0.32709508389E+03  0.32709508389E+03  0.00000000000E+00 0. -1.
          1   -1    0    0  501    0 -0.00000000000E+00 -0.00000000000E+00 -0.31326000334E+03  0.31326000334E+03  0.00000000000E+00 0. -1.
         25    2    1    2    0    0 -0.40644467724E+02 -0.36966109291E+02 -0.19319821196E+03  0.23659220478E+03  0.12502742206E+03 0.  0.
          2    1    1    2  501    0  0.67442703650E+02  0.39652532672E+02 -0.82082825690E+02  0.11339502589E+03  0.00000000000E+00 0. -1.
          1    1    1    2  502    0 -0.26798235926E+02 -0.26864233814E+01  0.28911611820E+03  0.29036785656E+03  0.00000000000E+00 0. -1.
         22    1    3    3    0    0 -0.38759076819E+02  0.36805525421E+02 -0.12566335768E+03  0.13655838385E+03  0.00000000000E+00 0. -1.
         22    1    3    3    0    0 -0.18853909050E+01 -0.73771634712E+02 -0.67534854276E+02  0.10003382093E+03  0.00000000000E+00 0. -1.
</event>
<event>
 7    1  0.6444902E-006  0.5362889E+02  0.7818608E-02  0.1555481E+00
          2   -1    0    0  502    0  0.00000000000E+00  0.00000000000E+00  0.48458461057E+03  0.48458461057E+03  0.00000000000E+00 0. -1.
          1   -1    0    0  501    0 -0.00000000000E+00 -0.00000000000E+00 -0.81913818937E+02  0.81913818937E+02  0.00000000000E+00 0. -1.
         25    2    1    2    0    0  0.34480221692E+02 -0.84935447294E+01  0.83719046940E+02  0.15458098025E+03  0.12500149857E+03 0.  0.
          2    1    1    2  501    0  0.14130954243E+02 -0.16675057736E+02 -0.41728783053E+02  0.47106610506E+02  0.00000000000E+00 0. -1.
          1    1    1    2  502    0 -0.48611175935E+02  0.25168602466E+02  0.36068052775E+03  0.36481083875E+03  0.00000000000E+00 0. -1.
         22    1    3    3    0    0  0.49679504959E+02  0.41762196985E+02  0.12489184675E+02  0.66091709343E+02  0.00000000000E+00 0. -1.
         22    1    3    3    0    0 -0.15199283267E+02 -0.50255741714E+02  0.71229862266E+02  0.88489270906E+02  0.00000000000E+00 0. -1.
</event>
<event>
 7    1  0.6444902E-006  0.7490540E+02  0.7818608E-02  0.1354454E+00
          2   -1    0    0  502    0  0.00000000000E+00  0.00000000000E+00  0.10705816370E+03  0.10705816370E+03  0.00000000000E+00 0. -1.
          1   -1    0    0  501    0 -0.00000000000E+00 -0.00000000000E+00 -0.45567207140E+03  0.45567207140E+03  0.00000000000E+00 0. -1.
         25    2    1    2    0    0 -0.20368998513E+01 -0.33831108528E+02 -0.16550153795E+03  0.21015137502E+03  0.12499659393E+03 0.  0.
          2    1    1    2  501    0 -0.68311452510E+02 -0.63253082201E+01 -0.24257784038E+03  0.25209219090E+03  0.00000000000E+00 0. -1.
          1    1    1    2  502    0  0.70348352361E+02  0.40156416748E+02  0.59465470626E+02  0.10048666918E+03  0.00000000000E+00 0. -1.
         22    1    3    3    0    0 -0.29567774275E+02 -0.52800600211E+02 -0.24578405326E+02  0.65316572680E+02  0.00000000000E+00 0. -1.
         22    1    3    3    0    0  0.27530874424E+02  0.18969491683E+02 -0.14092313262E+03  0.14483480234E+03  0.00000000000E+00 0. -1.
</event>
<event>
 7    1  0.6444902E-006  0.8594431E+02  0.7818608E-02  0.1377733E+00
          2   -1    0    0  502    0  0.00000000000E+00  0.00000000000E+00  0.33357952760E+04  0.33357952760E+04  0.00000000000E+00 0. -1.
          1   -1    0    0  501    0 -0.00000000000E+00 -0.00000000000E+00 -0.73750540406E+03  0.73750540406E+03  0.00000000000E+00 0. -1.
         25    2    1    2    0    0  0.18303301463E+02  0.97079564200E+02  0.17182517075E+03  0.23432458883E+03  0.12499868398E+03 0.  0.
          2    1    1    2  501    0 -0.46608924363E+02 -0.15929270304E+02 -0.70480654430E+03  0.70652558224E+03  0.00000000000E+00 0. -1.
          1    1    1    2  502    0  0.28305622900E+02 -0.81150293897E+02  0.31312712455E+04  0.31324505090E+04  0.00000000000E+00 0. -1.
         22    1    3    3    0    0 -0.34135564454E+02  0.65870008137E+02  0.30179500529E+02  0.80093052038E+02  0.00000000000E+00 0. -1.
         22    1    3    3    0    0  0.52438865917E+02  0.31209556064E+02  0.14164567022E+03  0.15423153679E+03  0.00000000000E+00 0. -1.
</event>
<event>
 7    1  0.6444902E-006  0.2115953E+03  0.7818608E-02  0.1295422E+00
          2   -1    0    0  502    0  0.00000000000E+00  0.00000000000E+00  0.70216607094E+03  0.70216607094E+03  0.00000000000E+00 0. -1.
          1   -1    0    0  501    0 -0.00000000000E+00 -0.00000000000E+00 -0.14518288918E+04  0.14518288918E+04  0.00000000000E+00 0. -1.
         25    2    1    2    0    0 -0.21315238479E+03  0.84797878555E+02 -0.25534831890E+03  0.36531091868E+03  0.12499873595E+03 0.  0.
          2    1    1    2  501    0  0.32903921614E+02  0.24457494992E+02 -0.11239542690E+04  0.11247017542E+04  0.00000000000E+00 0. -1.
          1    1    1    2  502    0  0.18024846318E+03 -0.10925537355E+03  0.62963976699E+03  0.66398228990E+03  0.00000000000E+00 0. -1.
         22    1    3    3    0    0 -0.20521604306E+03  0.33980925549E+02 -0.18652242892E+03  0.27939030785E+03  0.00000000000E+00 0. -1.
         22    1    3    3    0    0 -0.79363417287E+01  0.50816953006E+02 -0.68825889981E+02  0.85920610825E+02  0.00000000000E+00 0. -1.
</event>
<event>
 7    1  0.6444902E-006  0.1196330E+03  0.7818608E-02  0.1393612E+00
          2   -1    0    0  502    0  0.00000000000E+00  0.00000000000E+00  0.12975996651E+03  0.12975996651E+03  0.00000000000E+00 0. -1.
          1   -1    0    0  501    0 -0.00000000000E+00 -0.00000000000E+00 -0.38359383105E+03  0.38359383105E+03  0.00000000000E+00 0. -1.
         25    2    1    2    0    0 -0.72562054765E+02  0.97775689156E+02  0.57719132192E+01  0.17459669501E+03  0.12500141497E+03 0.  0.
          2    1    1    2  501    0  0.93587840085E+02 -0.74831612881E+02 -0.27791692577E+03  0.30264875966E+03  0.00000000000E+00 0. -1.
          1    1    1    2  502    0 -0.21025785320E+02 -0.22944076275E+02  0.18311148006E+02  0.36108342883E+02  0.00000000000E+00 0. -1.
         22    1    3    3    0    0 -0.35074797900E+02 -0.19581107580E+02  0.28586140515E+02  0.49303434478E+02  0.00000000000E+00 0. -1.
         22    1    3    3    0    0 -0.37487256865E+02  0.11735679674E+03 -0.22814227295E+02  0.12529326053E+03  0.00000000000E+00 0. -1.
</event>
<event>
 7    1  0.6444902E-006  0.3085466E+03  0.7818608E-02  0.1215747E+00
          2   -1    0    0  502    0  0.00000000000E+00  0.00000000000E+00  0.11268571621E+04  0.11268571621E+04  0.00000000000E+00 0. -1.
          1   -1    0    0  501    0 -0.00000000000E+00 -0.00000000000E+00 -0.71937332631E+03  0.71937332631E+03  0.00000000000E+00 0. -1.
         25    2    1    2    0    0  0.73373257117E+00  0.32872030085E+03 -0.69101843114E+02  0.35840652083E+03  0.12499037922E+03 0.  0.
          2    1    1    2  501    0 -0.54743461754E+02 -0.29844447985E+03 -0.45898212804E+03  0.55020954919E+03  0.00000000000E+00 0. -1.
          1    1    1    2  502    0  0.54009729182E+02 -0.30275821001E+02  0.93556780690E+03  0.93761441834E+03  0.00000000000E+00 0. -1.
         22    1    3    3    0    0 -0.47381599539E+02  0.14655456228E+03  0.93634544293E+01  0.15430790641E+03  0.00000000000E+00 0. -1.
         22    1    3    3    0    0  0.48115332110E+02  0.18216573856E+03 -0.78465297543E+02  0.20409861442E+03  0.00000000000E+00 0. -1.
</event>
<event>
 7    1  0.6444902E-006  0.9480065E+02  0.7818608E-02  0.1394610E+00
          2   -1    0    0  502    0  0.00000000000E+00  0.00000000000E+00  0.51188904759E+03  0.51188904759E+03  0.00000000000E+00 0. -1.
          1   -1    0    0  501    0 -0.00000000000E+00 -0.00000000000E+00 -0.28608525558E+03  0.28608525558E+03  0.00000000000E+00 0. -1.
         25    2    1    2    0    0  0.28416542698E+00 -0.57049875396E+02 -0.13488884333E+03  0.19254716520E+03  0.12499856695E+03 0.  0.
          2    1    1    2  501    0  0.38950653645E+01 -0.38765918570E+02 -0.11434722017E+03  0.12080254442E+03  0.00000000000E+00 0. -1.
          1    1    1    2  502    0 -0.41792307914E+01  0.95815793966E+02  0.47503985552E+03  0.48462459355E+03  0.00000000000E+00 0. -1.
         22    1    3    3    0    0  0.12731499321E+01 -0.94188675433E+02 -0.11992147923E+03  0.15249356927E+03  0.00000000000E+00 0.  1.
         22    1    3    3    0    0 -0.98898450508E+00  0.37138800037E+02 -0.14967364103E+02  0.40053595928E+02  0.00000000000E+00 0.  1.
</event>
<event>
 7    1  0.6444902E-006  0.7654366E+02  0.7818608E-02  0.1446558E+00
          2   -1    0    0  502    0  0.00000000000E+00  0.00000000000E+00  0.14218123002E+04  0.14218123002E+04  0.00000000000E+00 0. -1.
          1   -1    0    0  501    0 -0.00000000000E+00 -0.00000000000E+00 -0.91347264069E+02  0.91347264069E+02  0.00000000000E+00 0. -1.
         25    2    1    2    0    0  0.81569260183E+02  0.38878121180E+02  0.31891733699E+03  0.35425779208E+03  0.12500105161E+03 0.  0.
          2    1    1    2  501    0 -0.53152552776E+02 -0.54376047291E+02 -0.53746312327E+02  0.93116134340E+02  0.00000000000E+00 0. -1.
          1    1    1    2  502    0 -0.28416707407E+02  0.15497926111E+02  0.10652940114E+04  0.10657856378E+04  0.00000000000E+00 0. -1.
         22    1    3    3    0    0  0.47185237800E+02  0.63600908901E+02  0.83577189806E+02  0.11513760869E+03  0.00000000000E+00 0.  1.
         22    1    3    3    0    0  0.34384022383E+02 -0.24722787721E+02  0.23534014718E+03  0.23912018339E+03  0.00000000000E+00 0.  1.
</event>
<event>
 7    1  0.6444902E-006  0.5595074E+02  0.7818608E-02  0.1526191E+00
          2   -1    0    0  502    0  0.00000000000E+00  0.00000000000E+00  0.18895810352E+04  0.18895810352E+04  0.00000000000E+00 0. -1.
          1   -1    0    0  501    0 -0.00000000000E+00 -0.00000000000E+00 -0.17492057895E+03  0.17492057895E+03  0.00000000000E+00 0. -1.
         25    2    1    2    0    0  0.30700183873E+02  0.19466633521E+02  0.26705826799E+03  0.29709772250E+03  0.12500194838E+03 0.  0.
          2    1    1    2  501    0  0.45019479295E+01  0.24942518981E+02 -0.15839358886E+03  0.16040862128E+03  0.00000000000E+00 0. -1.
          1    1    1    2  502    0 -0.35202131802E+02 -0.44409152503E+02  0.16059957771E+04  0.16069952704E+04  0.00000000000E+00 0. -1.
         22    1    3    3    0    0 -0.20465330718E+02 -0.40717313220E+02  0.14243776968E+03  0.14955015075E+03  0.00000000000E+00 0. -1.
         22    1    3    3    0    0  0.51165514590E+02  0.60183946742E+02  0.12462049831E+03  0.14754757175E+03  0.00000000000E+00 0. -1.
</event>
<event>
 7    1  0.6444902E-006  0.5455266E+02  0.7818608E-02  0.1565981E+00
          2   -1    0    0  502    0  0.00000000000E+00  0.00000000000E+00  0.11032917469E+04  0.11032917469E+04  0.00000000000E+00 0. -1.
          1   -1    0    0  501    0 -0.00000000000E+00 -0.00000000000E+00 -0.17989694407E+03  0.17989694407E+03  0.00000000000E+00 0. -1.
         25    2    1    2    0    0 -0.50393708356E+00 -0.72004164539E+02  0.43932246317E+03  0.46239777188E+03  0.12499047616E+03 0.  0.
          2    1    1    2  501    0  0.87731748963E+01  0.53678543866E+02 -0.16380636213E+03  0.17260034456E+03  0.00000000000E+00 0. -1.
          1    1    1    2  502    0 -0.82692378127E+01  0.18325620673E+02  0.64787870179E+03  0.64819057452E+03  0.00000000000E+00 0. -1.
         22    1    3    3    0    0  0.89412719221E+01  0.27026783557E+02  0.21667005117E+03  0.21853215884E+03  0.00000000000E+00 0. -1.
         22    1    3    3    0    0 -0.94452090057E+01 -0.99030948097E+02  0.22265241200E+03  0.24386561304E+03  0.00000000000E+00 0. -1.
</event>
<event>
 7    1  0.6444902E-006  0.1366823E+03  0.7818608E-02  0.1292558E+00
          2   -1    0    0  502    0  0.00000000000E+00  0.00000000000E+00  0.13699320846E+04  0.13699320846E+04  0.00000000000E+00 0. -1.
          1   -1    0    0  501    0 -0.00000000000E+00 -0.00000000000E+00 -0.86348760720E+02  0.86348760720E+02  0.00000000000E+00 0. -1.
         25    2    1    2    0    0  0.10665820567E+02 -0.76866503609E+02  0.68743834079E+02  0.16239424725E+03  0.12499583077E+03 0.  0.
          2    1    1    2  501    0 -0.55569091332E+01 -0.64945179820E+02 -0.54166668974E+01  0.65407154817E+02  0.00000000000E+00 0. -1.
          1    1    1    2  502    0 -0.51089114337E+01  0.14181168343E+03  0.12202561567E+04  0.12284794432E+04  0.00000000000E+00 0. -1.
         22    1    3    3    0    0 -0.36620435360E+02 -0.83587228347E+02  0.69367561735E+02  0.11462870343E+03  0.00000000000E+00 0.  1.
         22    1    3    3    0    0  0.47286255927E+02  0.67207247371E+01 -0.62372765570E+00  0.47765543823E+02  0.00000000000E+00 0.  1.
</event>
<event>
 7    1  0.6444902E-006  0.4035928E+02  0.7818608E-02  0.1510398E+00
          2   -1    0    0  502    0  0.00000000000E+00  0.00000000000E+00  0.10535946328E+04  0.10535946328E+04  0.00000000000E+00 0. -1.
          1   -1    0    0  501    0 -0.00000000000E+00 -0.00000000000E+00 -0.42029715532E+02  0.42029715532E+02  0.00000000000E+00 0. -1.
         25    2    1    2    0    0 -0.34763274061E+02  0.14166229193E+02  0.29474363471E+03  0.32234747978E+03  0.12499968099E+03 0.  0.
          2    1    1    2  501    0  0.28603873246E+02  0.26599271232E+02 -0.13850240951E+02  0.41443117271E+02  0.00000000000E+00 0. -1.
          1    1    1    2  502    0  0.61594008146E+01 -0.40765500426E+02  0.73067152353E+03  0.73183375129E+03  0.00000000000E+00 0. -1.
         22    1    3    3    0    0 -0.10986165238E+02  0.17744352687E+02 -0.51462814464E+01  0.21495164378E+02  0.00000000000E+00 0.  1.
         22    1    3    3    0    0 -0.23777108822E+02 -0.35781234934E+01  0.29988991615E+03  0.30085231540E+03  0.00000000000E+00 0.  1.
</event>
<event>
 7    1  0.6444902E-006  0.1844667E+03  0.7818608E-02  0.1307382E+00
          2   -1    0    0  502    0  0.00000000000E+00  0.00000000000E+00  0.77148821499E+03  0.77148821499E+03  0.00000000000E+00 0. -1.
          1   -1    0    0  501    0 -0.00000000000E+00 -0.00000000000E+00 -0.16422888707E+04  0.16422888707E+04  0.00000000000E+00 0. -1.
         25    2    1    2    0    0 -0.21298433986E+03 -0.50754852376E+02 -0.12901802235E+03  0.28321241479E+03  0.12500095094E+03 0.  0.
          2    1    1    2  501    0  0.31951225783E+02  0.27457583785E+02 -0.14238621259E+04  0.14244852240E+04  0.00000000000E+00 0. -1.
          1    1    1    2  502    0  0.18103311408E+03  0.23297268592E+02  0.68207949258E+03  0.70607944689E+03  0.00000000000E+00 0. -1.
         22    1    3    3    0    0  0.65336221085E+01  0.90062708804E+01  0.11344492983E+02  0.15890206231E+02  0.00000000000E+00 0. -1.
         22    1    3    3    0    0 -0.21951796197E+03 -0.59761123257E+02 -0.14036251533E+03  0.26732220856E+03  0.00000000000E+00 0. -1.
</event>
<event>
 7    1  0.6444902E-006  0.1840407E+03  0.7818608E-02  0.1239768E+00
          2   -1    0    0  502    0  0.00000000000E+00  0.00000000000E+00  0.44846884716E+03  0.44846884716E+03  0.00000000000E+00 0. -1.
          1   -1    0    0  501    0 -0.00000000000E+00 -0.00000000000E+00 -0.15688170204E+03  0.15688170204E+03  0.00000000000E+00 0. -1.
         25    2    1    2    0    0 -0.19888321884E+03 -0.91438871992E+02  0.82309327391E+02  0.26517043945E+03  0.12499973814E+03 0.  0.
          2    1    1    2  501    0  0.25124271204E+02  0.76929026347E+02  0.21089016651E+02  0.83630441357E+02  0.00000000000E+00 0. -1.
          1    1    1    2  502    0  0.17375894764E+03  0.14509845645E+02  0.18818880107E+03  0.25654966840E+03  0.00000000000E+00 0. -1.
         22    1    3    3    0    0 -0.13091497229E+03 -0.98891286197E+02  0.81061480919E+01  0.16426784862E+03  0.00000000000E+00 0. -1.
         22    1    3    3    0    0 -0.67968246556E+02  0.74524142048E+01  0.74203179300E+02  0.10090259083E+03  0.00000000000E+00 0. -1.
</event>
<event>
 7    1  0.6444902E-006  0.5141347E+02  0.7818608E-02  0.1456991E+00
          2   -1    0    0  502    0  0.00000000000E+00  0.00000000000E+00  0.14180235607E+03  0.14180235607E+03  0.00000000000E+00 0. -1.
          1   -1    0    0  501    0 -0.00000000000E+00 -0.00000000000E+00 -0.50680235571E+03  0.50680235571E+03  0.00000000000E+00 0. -1.
         25    2    1    2    0    0 -0.61157424223E+02 -0.57621956324E+02  0.63394764162E+01  0.15073155860E+03  0.12497717155E+03 0.  0.
          2    1    1    2  501    0  0.48767401004E+02  0.14743648030E+02 -0.42501937102E+03  0.42806202856E+03  0.00000000000E+00 0. -1.
          1    1    1    2  502    0  0.12390023219E+02  0.42878308294E+02  0.53679894960E+02  0.69811124618E+02  0.00000000000E+00 0. -1.
         22    1    3    3    0    0  0.28595065409E+02 -0.53315334965E+02 -0.16431697795E+01  0.60521919295E+02  0.00000000000E+00 0. -1.
         22    1    3    3    0    0 -0.89752489632E+02 -0.43066213592E+01  0.79826461957E+01  0.90209639302E+02  0.00000000000E+00 0. -1.
</event>
<event>
 7    1  0.6444902E-006  0.5279322E+02  0.7818608E-02  0.1433209E+00
          2   -1    0    0  502    0  0.00000000000E+00  0.00000000000E+00  0.21851077517E+02  0.21851077517E+02  0.00000000000E+00 0. -1.
          1   -1    0    0  501    0 -0.00000000000E+00 -0.00000000000E+00 -0.19491704946E+04  0.19491704946E+04  0.00000000000E+00 0. -1.
         25    2    1    2    0    0  0.37530720592E+02 -0.37868377903E+02 -0.78654947514E+03  0.79820346724E+03  0.12500451686E+03 0.  0.
          2    1    1    2  501    0 -0.54208429254E+02 -0.11229977533E+02 -0.11122732827E+04  0.11136500894E+04  0.00000000000E+00 0. -1.
          1    1    1    2  502    0  0.16677708662E+02  0.49098355436E+02 -0.28496659316E+02  0.59168015556E+02  0.00000000000E+00 0. -1.
         22    1    3    3    0    0 -0.40363613607E+02  0.13343483461E+02 -0.26502964445E+03  0.26841755213E+03  0.00000000000E+00 0.  1.
         22    1    3    3    0    0  0.77894334199E+02 -0.51211861364E+02 -0.52151983069E+03  0.52978591511E+03  0.00000000000E+00 0.  1.
</event>
<event>
 7    1  0.6444902E-006  0.1958210E+03  0.7818608E-02  0.1232926E+00
          2   -1    0    0  502    0  0.00000000000E+00  0.00000000000E+00  0.47243280540E+03  0.47243280540E+03  0.00000000000E+00 0. -1.
          1   -1    0    0  501    0 -0.00000000000E+00 -0.00000000000E+00 -0.95343651726E+03  0.95343651726E+03  0.00000000000E+00 0. -1.
         25    2    1    2    0    0  0.13639259132E+03 -0.94855765899E+02  0.21145661325E+03  0.29654584184E+03  0.12499992694E+03 0.  0.
          2    1    1    2  501    0  0.78275203371E+02 -0.22934140339E+02 -0.83966735423E+03  0.84361972951E+03  0.00000000000E+00 0. -1.
          1    1    1    2  502    0 -0.21466779469E+03  0.11778990624E+03  0.14720702913E+03  0.28570375131E+03  0.00000000000E+00 0. -1.
         22    1    3    3    0    0 -0.21541820030E+02 -0.29615732245E+02  0.44669647393E+02  0.57762609055E+02  0.00000000000E+00 0.  1.
         22    1    3    3    0    0  0.15793441135E+03 -0.65240033654E+02  0.16678696586E+03  0.23878323278E+03  0.00000000000E+00 0.  1.
</event>
<event>
 7    1  0.6444902E-006  0.1830203E+03  0.7818608E-02  0.1203076E+00
          2   -1    0    0  502    0  0.00000000000E+00  0.00000000000E+00  0.86324475414E+03  0.86324475414E+03  0.00000000000E+00 0. -1.
          1   -1    0    0  501    0 -0.00000000000E+00 -0.00000000000E+00 -0.18735233603E+04  0.18735233603E+04  0.00000000000E+00 0. -1.
         25    2    1    2    0    0 -0.15974807097E+03  0.24682665739E+03  0.12669567168E+02  0.31973211410E+03  0.12500104750E+03 0.  0.
          2    1    1    2  501    0  0.57113951220E+02 -0.10499100167E+03 -0.17068760479E+04  0.17110555096E+04  0.00000000000E+00 0. -1.
          1    1    1    2  502    0  0.10263411975E+03 -0.14183565572E+03  0.68392787457E+03  0.70598049079E+03  0.00000000000E+00 0. -1.
         22    1    3    3    0    0 -0.13147994399E+03  0.11539067893E+03 -0.32455824089E+02  0.17791954635E+03  0.00000000000E+00 0.  1.
         22    1    3    3    0    0 -0.28268126983E+02  0.13143597845E+03  0.45125391257E+02  0.14181256775E+03  0.00000000000E+00 0.  1.
</event>
<event>
 7    1  0.6444902E-006  0.9800322E+02  0.7818608E-02  0.1420590E+00
          2   -1    0    0  502    0  0.00000000000E+00  0.00000000000E+00  0.18454070762E+04  0.18454070762E+04  0.00000000000E+00 0. -1.
          1   -1    0    0  501    0 -0.00000000000E+00 -0.00000000000E+00 -0.43079638816E+03  0.43079638816E+03  0.00000000000E+00 0. -1.
         25    2    1    2    0    0 -0.57749347589E+02 -0.90929174882E+02 -0.55405594633E+02  0.17406487016E+03  0.12500278843E+03 0.  0.
          2    1    1    2  501    0  0.27098985099E+02  0.93402811727E+02 -0.30844360407E+03  0.32341288955E+03  0.00000000000E+00 0. -1.
          1    1    1    2  502    0  0.30650362490E+02 -0.24736368454E+01  0.17784598868E+04  0.17787257047E+04  0.00000000000E+00 0. -1.
         22    1    3    3    0    0  0.39348242176E+02 -0.19008760938E+02 -0.89276331191E+01  0.44601791308E+02  0.00000000000E+00 0.  1.
         22    1    3    3    0    0 -0.97097589765E+02 -0.71920413944E+02 -0.46477961514E+02  0.12946307885E+03  0.00000000000E+00 0.  1.
</event>
<event>
 7    1  0.6444902E-006  0.3109186E+02  0.7818608E-02  0.1609501E+00
          2   -1    0    0  502    0  0.00000000000E+00  0.00000000000E+00  0.31279998806E+04  0.31279998806E+04  0.00000000000E+00 0. -1.
          1   -1    0    0  501    0 -0.00000000000E+00 -0.00000000000E+00 -0.41161226562E+03  0.41161226562E+03  0.00000000000E+00 0. -1.
         25    2    1    2    0    0 -0.47038392404E+00 -0.16517268737E+02  0.21403538538E+04  0.21440645580E+04  0.12500067140E+03 0.  0.
          2    1    1    2  501    0  0.27439448560E+02  0.14634647014E+02 -0.40898114022E+03  0.41016175990E+03  0.00000000000E+00 0. -1.
          1    1    1    2  502    0 -0.26969064636E+02  0.18826217228E+01  0.98501490145E+03  0.98538582839E+03  0.00000000000E+00 0. -1.
         22    1    3    3    0    0  0.39462754884E+02 -0.76659540328E+01  0.18871646696E+04  0.18875927967E+04  0.00000000000E+00 0.  1.
         22    1    3    3    0    0 -0.39933138808E+02 -0.88513147039E+01  0.25318918422E+03  0.25647176132E+03  0.00000000000E+00 0.  1.
</event>
<event>
 7    1  0.6444902E-006  0.5063170E+02  0.7818608E-02  0.1508625E+00
          2   -1    0    0  502    0  0.00000000000E+00  0.00000000000E+00  0.23190338003E+04  0.23190338003E+04  0.00000000000E+00 0. -1.
          1   -1    0    0  501    0 -0.00000000000E+00 -0.00000000000E+00 -0.31166182463E+03  0.31166182463E+03  0.00000000000E+00 0. -1.
         25    2    1    2    0    0 -0.36398327338E+02 -0.72276381355E+02  0.39346414745E+03  0.42069793119E+03  0.12499600172E+03 0.  0.
          2    1    1    2  501    0  0.17960592913E+02  0.25892662696E+02 -0.29688517357E+03  0.29855287499E+03  0.00000000000E+00 0. -1.
          1    1    1    2  502    0  0.18437734426E+02  0.46383718659E+02  0.19107930018E+04  0.19114448187E+04  0.00000000000E+00 0. -1.
         22    1    3    3    0    0 -0.99447848693E+01  0.28510507762E+02  0.18707456975E+03  0.18949575838E+03  0.00000000000E+00 0. -1.
         22    1    3    3    0    0 -0.26453542469E+02 -0.10078688912E+03  0.20638957770E+03  0.23120217281E+03  0.00000000000E+00 0. -1.
</event>
<event>
 7    1  0.6444902E-006  0.7273128E+02  0.7818608E-02  0.1363092E+00
          2   -1    0    0  502    0  0.00000000000E+00  0.00000000000E+00  0.25140943653E+04  0.25140943653E+04  0.00000000000E+00 0. -1.
          1   -1    0    0  501    0 -0.00000000000E+00 -0.00000000000E+00 -0.12193511662E+03  0.12193511662E+03  0.00000000000E+00 0. -1.
         25    2    1    2    0    0 -0.70705855221E+02  0.11785384557E+03  0.85185738561E+02  0.20437690309E+03  0.12499784632E+03 0.  0.
          2    1    1    2  501    0  0.38162936615E+02 -0.53477792707E+02 -0.44321892758E+02  0.79250957228E+02  0.00000000000E+00 0. -1.
          1    1    1    2  502    0  0.32542918607E+02 -0.64376052860E+02  0.23512954029E+04  0.23524016216E+04  0.00000000000E+00 0. -1.
         22    1    3    3    0    0 -0.54072039301E+02  0.10554346753E+03  0.11689264244E+03  0.16651456041E+03  0.00000000000E+00 0.  1.
         22    1    3    3    0    0 -0.16633815920E+02  0.12310378041E+02 -0.31706903879E+02  0.37862342679E+02  0.00000000000E+00 0.  1.
</event>
<event>
 7    1  0.6444902E-006  0.1312775E+03  0.7818608E-02  0.1394347E+00
          2   -1    0    0  502    0  0.00000000000E+00  0.00000000000E+00  0.87031632111E+03  0.87031632111E+03  0.00000000000E+00 0. -1.
          1   -1    0    0  501    0 -0.00000000000E+00 -0.00000000000E+00 -0.17476484974E+03  0.17476484974E+03  0.00000000000E+00 0. -1.
         25    2    1    2    0    0 -0.35266685359E+02  0.11599948757E+03  0.28344592138E+03  0.33266393623E+03  0.12499633558E+03 0.  0.
          2    1    1    2  501    0  0.11989598405E+02 -0.13190872690E+03 -0.12050116903E+03  0.17906477722E+03  0.00000000000E+00 0. -1.
          1    1    1    2  502    0  0.23277086954E+02  0.15909239337E+02  0.53260671902E+03  0.53335245740E+03  0.00000000000E+00 0. -1.
         22    1    3    3    0    0 -0.18817618205E+02  0.12328046865E+03  0.13756434268E+03  0.18567747597E+03  0.00000000000E+00 0. -1.
         22    1    3    3    0    0 -0.16449067154E+02 -0.72809810840E+01  0.14588157869E+03  0.14698646025E+03  0.00000000000E+00 0. -1.
</event>
<event>
 7    1  0.6444902E-006  0.1183181E+03  0.7818608E-02  0.1441811E+00
          2   -1    0    0  502    0  0.00000000000E+00  0.00000000000E+00  0.42777422103E+03  0.42777422103E+03  0.00000000000E+00 0. -1.
          1   -1    0    0  501    0 -0.00000000000E+00 -0.00000000000E+00 -0.17987285980E+04  0.17987285980E+04  0.00000000000E+00 0. -1.
         25    2    1    2    0    0  0.71824661433E+01  0.13915891549E+03 -0.44257699337E+03  0.48053704385E+03  0.12499865545E+03 0.  0.
          2    1    1    2  501    0  0.20785555225E+01 -0.21591662792E+02 -0.13285758088E+04  0.13287528739E+04  0.00000000000E+00 0. -1.
          1    1    1    2  502    0 -0.92610216658E+01 -0.11756725270E+03  0.40019842520E+03  0.41721290124E+03  0.00000000000E+00 0. -1.
         22    1    3    3    0    0  0.44572402802E+02  0.15977862534E+02 -0.57352679232E+02  0.74372851215E+02  0.00000000000E+00 0. -1.
         22    1    3    3    0    0 -0.37389936658E+02  0.12318105295E+03 -0.38522431414E+03  0.40616419263E+03  0.00000000000E+00 0. -1.
</event>
<event>
 7    1  0.6444902E-006  0.4949054E+02  0.7818608E-02  0.1485814E+00
          2   -1    0    0  502    0  0.00000000000E+00  0.00000000000E+00  0.11721452216E+04  0.11721452216E+04  0.00000000000E+00 0. -1.
          1   -1    0    0  501    0 -0.00000000000E+00 -0.00000000000E+00 -0.46148084163E+02  0.46148084163E+02  0.00000000000E+00 0. -1.
         25    2    1    2    0    0  0.33692479670E+02  0.46614399485E+01  0.70493134528E+03  0.71673648587E+03  0.12500430555E+03 0.  0.
          2    1    1    2  501    0  0.33454347156E+01  0.37583736012E+02 -0.29254930086E+02  0.47744948219E+02  0.00000000000E+00 0. -1.
          1    1    1    2  502    0 -0.37037914386E+02 -0.42245175961E+02  0.45032072222E+03  0.45381187166E+03  0.00000000000E+00 0. -1.
         22    1    3    3    0    0  0.66890160434E+02 -0.29797183625E+02  0.54200747062E+03  0.54693168123E+03  0.00000000000E+00 0.  1.
         22    1    3    3    0    0 -0.33197680764E+02  0.34458623573E+02  0.16292387465E+03  0.16980480464E+03  0.00000000000E+00 0.  1.
</event>
<event>
 7    1  0.6444902E-006  0.9258522E+02  0.7818608E-02  0.1364820E+00
          2   -1    0    0  502    0  0.00000000000E+00  0.00000000000E+00  0.26914097111E+03  0.26914097111E+03  0.00000000000E+00 0. -1.
          1   -1    0    0  501    0 -0.00000000000E+00 -0.00000000000E+00 -0.32383122232E+03  0.32383122232E+03  0.00000000000E+00 0. -1.
         25    2    1    2    0    0  0.16206517233E+01 -0.73287498252E+02 -0.18797958473E+03  0.23735229266E+03  0.12500441049E+03 0.  0.
          2    1    1    2  501    0  0.50650101212E+02 -0.47319088171E+01 -0.95556892671E+02  0.10825406898E+03  0.00000000000E+00 0. -1.
          1    1    1    2  502    0 -0.52270752935E+02  0.78019407069E+02  0.22884622619E+03  0.24736583179E+03  0.00000000000E+00 0. -1.
         22    1    3    3    0    0 -0.36950924296E+01 -0.79219610831E+02 -0.20432138012E+03  0.21917259596E+03  0.00000000000E+00 0.  1.
         22    1    3    3    0    0  0.53157441529E+01  0.59321125793E+01  0.16341795384E+02  0.18179696695E+02  0.00000000000E+00 0.  1.
</event>
<event>
 7    1  0.6444902E-006  0.9137462E+02  0.7818608E-02  0.1438142E+00
          2   -1    0    0  502    0  0.00000000000E+00  0.00000000000E+00  0.32806872781E+03  0.32806872781E+03  0.00000000000E+00 0. -1.
          1   -1    0    0  501    0 -0.00000000000E+00 -0.00000000000E+00 -0.46536825498E+03  0.46536825498E+03  0.00000000000E+00 0. -1.
         25    2    1    2    0    0  0.90900326168E+02  0.43991642041E+02  0.38082646473E+02  0.16514707345E+03  0.12500053616E+03 0.  0.
          2    1    1    2  501    0 -0.23646218062E+02  0.16560181803E+02 -0.39224318862E+03  0.39330408372E+03  0.00000000000E+00 0. -1.
          1    1    1    2  502    0 -0.67254108106E+02 -0.60551823844E+02  0.21686101497E+03  0.23498582562E+03  0.00000000000E+00 0. -1.
         22    1    3    3    0    0  0.33348721648E+02 -0.40342220059E+02 -0.83175094914E+01  0.52998235056E+02  0.00000000000E+00 0. -1.
         22    1    3    3    0    0  0.57551604520E+02  0.84333862100E+02  0.46400155965E+02  0.11214883839E+03  0.00000000000E+00 0. -1.
</event>
<event>
 7    1  0.6444902E-006  0.4971258E+02  0.7818608E-02  0.1478587E+00
          2   -1    0    0  502    0  0.00000000000E+00  0.00000000000E+00  0.19506970336E+03  0.19506970336E+03  0.00000000000E+00 0. -1.
          1   -1    0    0  501    0 -0.00000000000E+00 -0.00000000000E+00 -0.84659907022E+03  0.84659907022E+03  0.00000000000E+00 0. -1.
         25    2    1    2    0    0  0.79240033213E+02  0.27160167404E+02 -0.23008849915E+03  0.27492994492E+03  0.12501639739E+03 0.  0.
          2    1    1    2  501    0 -0.29971589007E+02 -0.25766651790E+02 -0.58989727412E+03  0.59121993412E+03  0.00000000000E+00 0. -1.
          1    1    1    2  502    0 -0.49268444206E+02 -0.13935156138E+01  0.16845640641E+03  0.17551889454E+03  0.00000000000E+00 0. -1.
         22    1    3    3    0    0  0.30128631218E+01  0.39046261397E+02 -0.81992415146E+01  0.40011441297E+02  0.00000000000E+00 0.  1.
         22    1    3    3    0    0  0.76227170091E+02 -0.11886093994E+02 -0.22188925764E+03  0.23491850363E+03  0.00000000000E+00 0.  1.
</event>
<event>
 7    1  0.6444902E-006  0.3799104E+02  0.7818608E-02  0.1578603E+00
          2   -1    0    0  502    0  0.00000000000E+00  0.00000000000E+00  0.77392575457E+03  0.77392575457E+03  0.00000000000E+00 0. -1.
          1   -1    0    0  501    0 -0.00000000000E+00 -0.00000000000E+00 -0.17456633011E+03  0.17456633011E+03  0.00000000000E+00 0. -1.
         25    2    1    2    0    0 -0.12855596144E+02 -0.19134726229E+01 -0.55402059443E+01  0.12579385546E+03  0.12499788982E+03 0.  0.
          2    1    1    2  501    0  0.39489214614E+02  0.27632836502E+00 -0.10506031645E+03  0.11223700156E+03  0.00000000000E+00 0. -1.
          1    1    1    2  502    0 -0.26633618470E+02  0.16371442578E+01  0.70995994685E+03  0.71046122766E+03  0.00000000000E+00 0. -1.
         22    1    3    3    0    0 -0.60963386016E+02  0.28677786336E+02  0.59609585202E+01  0.67634923598E+02  0.00000000000E+00 0. -1.
         22    1    3    3    0    0  0.48107789872E+02 -0.30591258959E+02 -0.11501164465E+02  0.58158931860E+02  0.00000000000E+00 0. -1.
</event>
<event>
 7    1  0.6444902E-006  0.6075841E+02  0.7818608E-02  0.1429435E+00
          2   -1    0    0  502    0  0.00000000000E+00  0.00000000000E+00  0.15218670295E+03  0.15218670295E+03  0.00000000000E+00 0. -1.
          1   -1    0    0  501    0 -0.00000000000E+00 -0.00000000000E+00 -0.78232228129E+03  0.78232228129E+03  0.00000000000E+00 0. -1.
         25    2    1    2    0    0  0.44502772188E+02 -0.45733368372E+02 -0.46347159532E+03  0.48425406204E+03  0.12499615682E+03 0.  0.
          2    1    1    2  501    0 -0.18731536977E+01  0.63954968048E+02 -0.30121783725E+03  0.30793819530E+03  0.00000000000E+00 0. -1.
          1    1    1    2  502    0 -0.42629618490E+02 -0.18221599676E+02  0.13455385424E+03  0.14231672690E+03  0.00000000000E+00 0. -1.
         22    1    3    3    0    0  0.27390689511E+02 -0.64698255192E+02 -0.11441671342E+03  0.13426577527E+03  0.00000000000E+00 0. -1.
         22    1    3    3    0    0  0.17112082677E+02  0.18964886820E+02 -0.34905488190E+03  0.34998828678E+03  0.00000000000E+00 0. -1.
</event>
<event>
 7    1  0.6444902E-006  0.1103620E+03  0.7818608E-02  0.1346440E+00
          2   -1    0    0  502    0  0.00000000000E+00  0.00000000000E+00  0.23205227368E+03  0.23205227368E+03  0.00000000000E+00 0. -1.
          1   -1    0    0  501    0 -0.00000000000E+00 -0.00000000000E+00 -0.13875958677E+04  0.13875958677E+04  0.00000000000E+00 0. -1.
         25    2    1    2    0    0 -0.42764207874E+01 -0.15813362220E+03 -0.25077255824E+02  0.20317166570E+03  0.12500130695E+03 0.  0.
          2    1    1    2  501    0  0.10211223692E+02  0.10863235489E+03 -0.12667083571E+04  0.12713989616E+04  0.00000000000E+00 0. -1.
          1    1    1    2  502    0 -0.59348029048E+01  0.49501267313E+02  0.13624201895E+03  0.14507751404E+03  0.00000000000E+00 0. -1.
         22    1    3    3    0    0  0.56026207907E+02 -0.92755417803E+02 -0.34523109388E+02  0.11372927761E+03  0.00000000000E+00 0.  1.
         22    1    3    3    0    0 -0.60302628694E+02 -0.65378204396E+02  0.94458535634E+01  0.89442388089E+02  0.00000000000E+00 0.  1.
</event>
<event>
 7    1  0.6444902E-006  0.5250667E+02  0.7818608E-02  0.1450391E+00
          2   -1    0    0  502    0  0.00000000000E+00  0.00000000000E+00  0.43324996303E+02  0.43324996303E+02  0.00000000000E+00 0. -1.
          1   -1    0    0  501    0 -0.00000000000E+00 -0.00000000000E+00 -0.18301643834E+04  0.18301643834E+04  0.00000000000E+00 0. -1.
         25    2    1    2    0    0  0.71535545079E+02  0.15472191580E+02 -0.11347423622E+04  0.11439500870E+04  0.12499940032E+03 0.  0.
          2    1    1    2  501    0 -0.32285643328E+02 -0.39208718846E+02 -0.67593853793E+03  0.67784407754E+03  0.00000000000E+00 0. -1.
          1    1    1    2  502    0 -0.39249901750E+02  0.23736527266E+02  0.23841513110E+02  0.51695215073E+02  0.00000000000E+00 0. -1.
         22    1    3    3    0    0 -0.27275512183E+02  0.19279754463E+02 -0.12528642369E+03  0.12966244814E+03  0.00000000000E+00 0.  1.
         22    1    3    3    0    0  0.98811057261E+02 -0.38075628830E+01 -0.10094559385E+04  0.10142876389E+04  0.00000000000E+00 0.  1.
</event>
<event>
 7    1  0.6444902E-006  0.6245456E+02  0.7818608E-02  0.1461584E+00
          2   -1    0    0  502    0  0.00000000000E+00  0.00000000000E+00  0.24599788782E+04  0.24599788782E+04  0.00000000000E+00 0. -1.
          1   -1    0    0  501    0 -0.00000000000E+00 -0.00000000000E+00 -0.71921108498E+03  0.71921108498E+03  0.00000000000E+00 0. -1.
         25    2    1    2    0    0 -0.29358615058E+02 -0.27412486209E+02 -0.13313472124E+02  0.13196731370E+03  0.12499900266E+03 0.  0.
          2    1    1    2  501    0  0.61834162968E+02  0.12986808658E+02 -0.64489521652E+03  0.64798299453E+03  0.00000000000E+00 0. -1.
          1    1    1    2  502    0 -0.32475547910E+02  0.14425677550E+02  0.23989764818E+04  0.23992396549E+04  0.00000000000E+00 0. -1.
         22    1    3    3    0    0 -0.10041912933E+02  0.33488531172E+02  0.36805616024E+02  0.50763915395E+02  0.00000000000E+00 0.  1.
         22    1    3    3    0    0 -0.19316702126E+02 -0.60901017380E+02 -0.50119088148E+02  0.81203398301E+02  0.00000000000E+00 0.  1.
</event>
<event>
 7    1  0.6444902E-006  0.4278407E+02  0.7818608E-02  0.1605372E+00
          2   -1    0    0  502    0  0.00000000000E+00  0.00000000000E+00  0.94509210360E+03  0.94509210360E+03  0.00000000000E+00 0. -1.
          1   -1    0    0  501    0 -0.00000000000E+00 -0.00000000000E+00 -0.18420774145E+04  0.18420774145E+04  0.00000000000E+00 0. -1.
         25    2    1    2    0    0 -0.13529542098E+02  0.38506455497E+02 -0.93295973815E+03  0.94218081475E+03  0.12500007617E+03 0.  0.
          2    1    1    2  501    0  0.19769612535E+02  0.38236015150E+01 -0.90390829564E+03  0.90413254804E+03  0.00000000000E+00 0. -1.
          1    1    1    2  502    0 -0.62400704366E+01 -0.42330057012E+02  0.93988272289E+03  0.94085615532E+03  0.00000000000E+00 0. -1.
         22    1    3    3    0    0 -0.53104159249E+02  0.64627361824E+02 -0.63118062926E+03  0.63669909250E+03  0.00000000000E+00 0.  1.
         22    1    3    3    0    0  0.39574617150E+02 -0.26120906327E+02 -0.30177910889E+03  0.30548172226E+03  0.00000000000E+00 0.  1.
</event>
<event>
 7    1  0.6444902E-006  0.6251022E+02  0.7818608E-02  0.1388074E+00
          2   -1    0    0  502    0  0.00000000000E+00  0.00000000000E+00  0.76676623397E+03  0.76676623397E+03  0.00000000000E+00 0. -1.
          1   -1    0    0  501    0 -0.00000000000E+00 -0.00000000000E+00 -0.20693721868E+04  0.20693721868E+04  0.00000000000E+00 0. -1.
         25    2    1    2    0    0  0.80793510640E+02  0.36660972006E+02 -0.10924779428E+02  0.15368324578E+03  0.12501028357E+03 0.  0.
          2    1    1    2  501    0 -0.22133502982E+02 -0.58200159332E+02 -0.19851751746E+04  0.19861514606E+04  0.00000000000E+00 0. -1.
          1    1    1    2  502    0 -0.58660007657E+02  0.21539187326E+02  0.69349400117E+03  0.69630371445E+03  0.00000000000E+00 0. -1.
         22    1    3    3    0    0 -0.13500310019E+02 -0.27953173674E+02 -0.23148902342E+02  0.38723506668E+02  0.00000000000E+00 0. -1.
         22    1    3    3    0    0  0.94293820658E+02  0.64614145680E+02  0.12224122915E+02  0.11495973911E+03  0.00000000000E+00 0. -1.
</event>
<event>
 7    1  0.6444902E-006  0.1150165E+03  0.7818608E-02  0.1440544E+00
          2   -1    0    0  502    0  0.00000000000E+00  0.00000000000E+00  0.38762673292E+04  0.38762673292E+04  0.00000000000E+00 0. -1.
          1   -1    0    0  501    0 -0.00000000000E+00 -0.00000000000E+00 -0.30856062087E+02  0.30856062087E+02  0.00000000000E+00 0. -1.
         25    2    1    2    0    0  0.68530108365E+02 -0.92727716560E+02  0.93884623521E+03  0.95412379439E+03  0.12500062593E+03 0.  0.
          2    1    1    2  501    0 -0.19359364032E+02 -0.11516688210E+02 -0.16336615608E+02  0.27826320141E+02  0.00000000000E+00 0. -1.
          1    1    1    2  502    0 -0.49170744333E+02  0.10424440477E+03  0.29229016476E+04  0.29251732768E+04  0.00000000000E+00 0. -1.
         22    1    3    3    0    0  0.87802607876E+02 -0.22496938624E+02  0.38586363942E+03  0.39636619234E+03  0.00000000000E+00 0.  1.
         22    1    3    3    0    0 -0.19272499511E+02 -0.70230777936E+02  0.55298259579E+03  0.55775760205E+03  0.00000000000E+00 0.  1.
</event>
<event>
 7    1  0.6444902E-006  0.1946298E+03  0.7818608E-02  0.1176585E+00
          2   -1    0    0  502    0  0.00000000000E+00  0.00000000000E+00  0.40161308822E+03  0.40161308822E+03  0.00000000000E+00 0. -1.
          1   -1    0    0  501    0 -0.00000000000E+00 -0.00000000000E+00 -0.70360238936E+03  0.70360238936E+03  0.00000000000E+00 0. -1.
         25    2    1    2    0    0 -0.40412193884E+02  0.79708212816E+02 -0.37394431871E+02  0.15813125769E+03  0.12498242483E+03 0.  0.
          2    1    1    2  501    0  0.14856741217E+03 -0.18453506792E+03 -0.56410555679E+03  0.61183375721E+03  0.00000000000E+00 0. -1.
          1    1    1    2  502    0 -0.10815521829E+03  0.10482685511E+03  0.29951068752E+03  0.33525046269E+03  0.00000000000E+00 0. -1.
         22    1    3    3    0    0 -0.38682152065E+02 -0.20854705860E+02  0.12734048959E+02  0.45753509677E+02  0.00000000000E+00 0. -1.
         22    1    3    3    0    0 -0.17300418183E+01  0.10056291868E+03 -0.50128480830E+02  0.11237774801E+03  0.00000000000E+00 0. -1.
</event>
<event>
 7    1  0.6444902E-006  0.1600265E+03  0.7818608E-02  0.1339117E+00
          2   -1    0    0  502    0  0.00000000000E+00  0.00000000000E+00  0.10776247056E+04  0.10776247056E+04  0.00000000000E+00 0. -1.
          1   -1    0    0  501    0 -0.00000000000E+00 -0.00000000000E+00 -0.99362151602E+02  0.99362151602E+02  0.00000000000E+00 0. -1.
         25    2    1    2    0    0 -0.15446800949E+03  0.12228713746E+02  0.50798735135E+03  0.54560716770E+03  0.12500449960E+03 0.  0.
          2    1    1    2  501    0 -0.31002560809E+01  0.36493261459E+02 -0.63170466178E+02  0.73019706359E+02  0.00000000000E+00 0. -1.
          1    1    1    2  502    0  0.15756826557E+03 -0.48721975205E+02  0.53344566880E+03  0.55835998312E+03  0.00000000000E+00 0. -1.
         22    1    3    3    0    0 -0.10951312575E+02  0.22353557779E+02  0.24134977568E+03  0.24263002084E+03  0.00000000000E+00 0.  1.
         22    1    3    3    0    0 -0.14351669692E+03 -0.10124844033E+02  0.26663757567E+03  0.30297714686E+03  0.00000000000E+00 0.  1.
</event>
<event>
 7    1  0.6444902E-006  0.6606149E+02  0.7818608E-02  0.1375324E+00
          2   -1    0    0  502    0  0.00000000000E+00  0.00000000000E+00  0.43941618445E+03  0.43941618445E+03  0.00000000000E+00 0. -1.
          1   -1    0    0  501    0 -0.00000000000E+00 -0.00000000000E+00 -0.19582013795E+03  0.19582013795E+03  0.00000000000E+00 0. -1.
         25    2    1    2    0    0  0.17847776199E+02 -0.40124741890E+02  0.17170142777E+03  0.21687524322E+03  0.12499981119E+03 0.  0.
          2    1    1    2  501    0 -0.66934153552E+02 -0.40866602745E+01 -0.16199227183E+03  0.17532363742E+03  0.00000000000E+00 0. -1.
          1    1    1    2  502    0  0.49086377353E+02  0.44211402165E+02  0.23388689057E+03  0.24303744177E+03  0.00000000000E+00 0. -1.
         22    1    3    3    0    0 -0.28781911555E+02  0.33120285116E+02  0.41624676590E+02  0.60481116227E+02  0.00000000000E+00 0.  1.
         22    1    3    3    0    0  0.46629687754E+02 -0.73245027006E+02  0.13007675118E+03  0.15639412699E+03  0.00000000000E+00 0.  1.
</event>
<event>
 7    1  0.6444902E-006  0.2136823E+03  0.7818608E-02  0.1301556E+00
          2   -1    0    0  502    0  0.00000000000E+00  0.00000000000E+00  0.95824016774E+02  0.95824016774E+02  0.00000000000E+00 0. -1.
          1   -1    0    0  501    0 -0.00000000000E+00 -0.00000000000E+00 -0.26250891321E+04  0.26250891321E+04  0.00000000000E+00 0. -1.
         25    2    1    2    0    0 -0.14103602049E+03  0.12182578662E+03 -0.43315121187E+03  0.48782972212E+03  0.12500073627E+03 0.  0.
          2    1    1    2  501    0 -0.27132851133E+02  0.27117328994E+02 -0.19796925119E+04  0.19800641360E+04  0.00000000000E+00 0. -1.
          1    1    1    2  502    0  0.16816887162E+03 -0.14894311562E+03 -0.11642139157E+03  0.25301929074E+03  0.00000000000E+00 0. -1.
         22    1    3    3    0    0 -0.33983111814E+02  0.18143031736E+02 -0.24399579144E+03  0.24701815263E+03  0.00000000000E+00 0.  1.
         22    1    3    3    0    0 -0.10705290868E+03  0.10368275489E+03 -0.18915542043E+03  0.24081156948E+03  0.00000000000E+00 0.  1.
</event>
<event>
 7    1  0.6444902E-006  0.8771777E+02  0.7818608E-02  0.1493345E+00
          2   -1    0    0  502    0  0.00000000000E+00  0.00000000000E+00  0.28012444547E+03  0.28012444547E+03  0.00000000000E+00 0. -1.
          1   -1    0    0  501    0 -0.00000000000E+00 -0.00000000000E+00 -0.10434090761E+04  0.10434090761E+04  0.00000000000E+00 0. -1.
         25    2    1    2    0    0  0.31428526909E+02 -0.84853924309E+02 -0.46567143285E+03  0.49057564063E+03  0.12500653995E+03 0.  0.
          2    1    1    2  501    0 -0.11314510586E+02  0.86714757900E+02 -0.56151512542E+03  0.56828399895E+03  0.00000000000E+00 0. -1.
          1    1    1    2  502    0 -0.20114016323E+02 -0.18608335910E+01  0.26390192768E+03  0.26467388195E+03  0.00000000000E+00 0. -1.
         22    1    3    3    0    0  0.57406249249E+02 -0.55165341374E+02 -0.43025992904E+03  0.43756405117E+03  0.00000000000E+00 0. -1.
         22    1    3    3    0    0 -0.25977722340E+02 -0.29688582935E+02 -0.35411503818E+02  0.53011589462E+02  0.00000000000E+00 0. -1.
</event>
<event>
 7    1  0.6444902E-006  0.6775478E+02  0.7818608E-02  0.1434110E+00
          2   -1    0    0  502    0  0.00000000000E+00  0.00000000000E+00  0.10759582223E+04  0.10759582223E+04  0.00000000000E+00 0. -1.
          1   -1    0    0  501    0 -0.00000000000E+00 -0.00000000000E+00 -0.37327634875E+03  0.37327634875E+03  0.00000000000E+00 0. -1.
         25    2    1    2    0    0 -0.42615420681E+02 -0.30817972487E+02  0.15189826802E+02  0.13646189065E+03  0.12500118101E+03 0.  0.
          2    1    1    2  501    0  0.21307336508E+02 -0.34005757862E+02 -0.31018237192E+03  0.31276748234E+03  0.00000000000E+00 0. -1.
          1    1    1    2  502    0  0.21308084174E+02  0.64823730349E+02  0.99767441871E+03  0.10000051981E+04  0.00000000000E+00 0. -1.
         22    1    3    3    0    0 -0.10066334747E+02 -0.70659271916E+02  0.37222388924E+02  0.80495776536E+02  0.00000000000E+00 0.  1.
         22    1    3    3    0    0 -0.32549085934E+02  0.39841299429E+02 -0.22032562122E+02  0.55966114114E+02  0.00000000000E+00 0.  1.
</event>
<event>
 7    1  0.6444902E-006  0.2106838E+03  0.7818608E-02  0.1178941E+00
          2   -1    0    0  502    0  0.00000000000E+00  0.00000000000E+00  0.92336626415E+03  0.92336626415E+03  0.00000000000E+00 0. -1.
          1   -1    0    0  501    0 -0.00000000000E+00 -0.00000000000E+00 -0.26667491372E+03  0.26667491372E+03  0.00000000000E+00 0. -1.
         25    2    1    2    0    0 -0.49938321829E+02  0.14432745078E+03  0.26939411534E+02  0.19918822914E+03  0.12500387872E+03 0.  0.
          2    1    1    2  501    0 -0.19260790697E+01 -0.26950068322E+03 -0.69719437878E+02  0.27837946773E+03  0.00000000000E+00 0. -1.
          1    1    1    2  502    0  0.51864400898E+02  0.12517323244E+03  0.69947137677E+03  0.71247348100E+03  0.00000000000E+00 0. -1.
         22    1    3    3    0    0 -0.54841911096E+02  0.75064674173E+02  0.70979609872E+02  0.11696343676E+03  0.00000000000E+00 0.  1.
         22    1    3    3    0    0  0.49035892672E+01  0.69262776612E+02 -0.44040198337E+02  0.82224792376E+02  0.00000000000E+00 0.  1.
</event>
<event>
 7    1  0.6444902E-006  0.7135199E+02  0.7818608E-02  0.1393768E+00
          2   -1    0    0  502    0  0.00000000000E+00  0.00000000000E+00  0.54470682148E+03  0.54470682148E+03  0.00000000000E+00 0. -1.
          1   -1    0    0  501    0 -0.00000000000E+00 -0.00000000000E+00 -0.62032695656E+03  0.62032695656E+03  0.00000000000E+00 0. -1.
         25    2    1    2    0    0  0.20077486177E+02  0.17009432608E+01  0.21500794137E+03  0.24951911439E+03  0.12500149974E+03 0.  0.
          2    1    1    2  501    0 -0.69386847437E+02 -0.18567208069E+02 -0.59873669724E+03  0.60302977408E+03  0.00000000000E+00 0. -1.
          1    1    1    2  502    0  0.49309361260E+02  0.16866264808E+02  0.30810862079E+03  0.31248488956E+03  0.00000000000E+00 0. -1.
         22    1    3    3    0    0  0.44531081471E+02 -0.50960938311E+02  0.13022305416E+03  0.14675857142E+03  0.00000000000E+00 0.  1.
         22    1    3    3    0    0 -0.24453595294E+02  0.52661881572E+02  0.84784887205E+02  0.10276054297E+03  0.00000000000E+00 0.  1.
</event>
<event>
 7    1  0.6444902E-006  0.8478641E+02  0.7818608E-02  0.1444504E+00
          2   -1    0    0  502    0  0.00000000000E+00  0.00000000000E+00  0.10784183802E+04  0.10784183802E+04  0.00000000000E+00 0. -1.
          1   -1    0    0  501    0 -0.00000000000E+00 -0.00000000000E+00 -0.31031182372E+03  0.31031182372E+03  0.00000000000E+00 0. -1.
         25    2    1    2    0    0 -0.29503176366E+02  0.48630405833E+02  0.91060651200E+02  0.16478307393E+03  0.12500426181E+03 0.  0.
          2    1    1    2  501    0 -0.10928718581E+02  0.27583617809E+02 -0.27068058826E+03  0.27230180631E+03  0.00000000000E+00 0. -1.
          1    1    1    2  502    0  0.40431894947E+02 -0.76214023642E+02  0.94772649350E+03  0.95164532364E+03  0.00000000000E+00 0. -1.
         22    1    3    3    0    0 -0.18118620095E+02  0.13305679594E+02  0.11723316467E+03  0.11936892562E+03  0.00000000000E+00 0. -1.
         22    1    3    3    0    0 -0.11384556271E+02  0.35324726239E+02 -0.26172513475E+02  0.45414148312E+02  0.00000000000E+00 0. -1.
</event>
<event>
 7    1  0.6444902E-006  0.5025057E+02  0.7818608E-02  0.1476763E+00
          2   -1    0    0  502    0  0.00000000000E+00  0.00000000000E+00  0.55837985695E+01  0.55837985695E+01  0.00000000000E+00 0. -1.
          1   -1    0    0  501    0 -0.00000000000E+00 -0.00000000000E+00 -0.38920857693E+04  0.38920857693E+04  0.00000000000E+00 0. -1.
         25    2    1    2    0    0 -0.15379045194E+02  0.67793225245E+01 -0.26756055712E+04  0.26785765996E+04  0.12499981361E+03 0.  0.
          2    1    1    2  501    0 -0.14006469870E+02  0.37051308030E+02 -0.10273028052E+04  0.10280661624E+04  0.00000000000E+00 0. -1.
          1    1    1    2  502    0  0.29385515063E+02 -0.43830630554E+02 -0.18359359437E+03  0.19102680588E+03  0.00000000000E+00 0. -1.
         22    1    3    3    0    0  0.19506155621E+02 -0.52942805912E+02 -0.10802381483E+04  0.10817106304E+04  0.00000000000E+00 0.  1.
         22    1    3    3    0    0 -0.34885200814E+02  0.59722128436E+02 -0.15953674229E+04  0.15968659693E+04  0.00000000000E+00 0.  1.
</event>
<event>
 7    1  0.6444902E-006  0.7983377E+02  0.7818608E-02  0.1365284E+00
          2   -1    0    0  502    0  0.00000000000E+00  0.00000000000E+00  0.83620052849E+02  0.83620052849E+02  0.00000000000E+00 0. -1.
          1   -1    0    0  501    0 -0.00000000000E+00 -0.00000000000E+00 -0.50389048576E+03  0.50389048576E+03  0.00000000000E+00 0. -1.
         25    2    1    2    0    0  0.31083450559E+02  0.19599604537E+02 -0.62159492163E+02  0.14435853453E+03  0.12500103452E+03 0.  0.
          2    1    1    2  501    0 -0.85589435953E+02  0.23734312000E+01 -0.37285707047E+03  0.38256186391E+03  0.00000000000E+00 0. -1.
          1    1    1    2  502    0  0.54505985394E+02 -0.21973035737E+02  0.14746129720E+02  0.60590140163E+02  0.00000000000E+00 0. -1.
         22    1    3    3    0    0  0.61270472732E+02  0.33688268788E+02 -0.80260271829E+02  0.10644567402E+03  0.00000000000E+00 0.  1.
         22    1    3    3    0    0 -0.30187022173E+02 -0.14088664252E+02  0.18100779666E+02  0.37912860517E+02  0.00000000000E+00 0.  1.
</event>
<event>
 7    1  0.6444902E-006  0.6958778E+02  0.7818608E-02  0.1402948E+00
          2   -1    0    0  502    0  0.00000000000E+00  0.00000000000E+00  0.21848133824E+03  0.21848133824E+03  0.00000000000E+00 0. -1.
          1   -1    0    0  501    0 -0.00000000000E+00 -0.00000000000E+00 -0.49538559182E+03  0.49538559182E+03  0.00000000000E+00 0. -1.
         25    2    1    2    0    0 -0.59585523370E+02 -0.23385108557E+02 -0.53440087331E+02  0.15027771239E+03  0.12502099828E+03 0.  0.
          2    1    1    2  501    0  0.30918532286E+02  0.63960654378E+02 -0.38659133517E+03  0.39306460204E+03  0.00000000000E+00 0. -1.
          1    1    1    2  502    0  0.28666991083E+02 -0.40575545821E+02  0.16312716892E+03  0.17052461563E+03  0.00000000000E+00 0. -1.
         22    1    3    3    0    0 -0.67517331063E+02 -0.61213972461E+02 -0.93036641951E+01  0.91609489605E+02  0.00000000000E+00 0.  1.
         22    1    3    3    0    0  0.79318076930E+01  0.37828863903E+02 -0.44136423136E+02  0.58668222785E+02  0.00000000000E+00 0.  1.
</event>
<event>
 7    1  0.6444902E-006  0.7306577E+02  0.7818608E-02  0.1394900E+00
          2   -1    0    0  502    0  0.00000000000E+00  0.00000000000E+00  0.23948639419E+02  0.23948639419E+02  0.00000000000E+00 0. -1.
          1   -1    0    0  501    0 -0.00000000000E+00 -0.00000000000E+00 -0.81618032788E+03  0.81618032788E+03  0.00000000000E+00 0. -1.
         25    2    1    2    0    0  0.35903453935E+02  0.22130425682E+01 -0.30246308203E+03  0.32924643868E+03  0.12500138330E+03 0.  0.
          2    1    1    2  501    0 -0.85644272782E+02 -0.10545661595E+02 -0.38572917000E+03  0.39526338690E+03  0.00000000000E+00 0. -1.
          1    1    1    2  502    0  0.49740818848E+02  0.83326190272E+01 -0.10403943642E+03  0.11561914172E+03  0.00000000000E+00 0. -1.
         22    1    3    3    0    0  0.61174574440E+02 -0.52853969496E+01 -0.29573376090E+03  0.30204092656E+03  0.00000000000E+00 0. -1.
         22    1    3    3    0    0 -0.25271120506E+02  0.74984395179E+01 -0.67293211346E+01  0.27205512121E+02  0.00000000000E+00 0. -1.
</event>
<event>
 7    1  0.6444902E-006  0.1085932E+03  0.7818608E-02  0.1391888E+00
          2   -1    0    0  502    0  0.00000000000E+00  0.00000000000E+00  0.25036607554E+04  0.25036607554E+04  0.00000000000E+00 0. -1.
          1   -1    0    0  501    0 -0.00000000000E+00 -0.00000000000E+00 -0.40652199061E+03  0.40652199061E+03  0.00000000000E+00 0. -1.
         25    2    1    2    0    0  0.48379253126E+02  0.72240662459E+02  0.66742387072E+03  0.68457120900E+03  0.12499540609E+03 0.  0.
          2    1    1    2  501    0  0.34342383917E+02  0.53797248139E+01 -0.39542496347E+03  0.39694992443E+03  0.00000000000E+00 0. -1.
          1    1    1    2  502    0 -0.82721637043E+02 -0.77620387273E+02  0.18251398576E+04  0.18286616126E+04  0.00000000000E+00 0. -1.
         22    1    3    3    0    0  0.61635396998E+02  0.74457579232E+02  0.26760381481E+03  0.28452531516E+03  0.00000000000E+00 0. -1.
         22    1    3    3    0    0 -0.13256143872E+02 -0.22169167733E+01  0.39982005591E+03  0.40004589384E+03  0.00000000000E+00 0. -1.
</event>
<event>
 7    1  0.6444902E-006  0.1118299E+03  0.7818608E-02  0.1294862E+00
          2   -1    0    0  502    0  0.00000000000E+00  0.00000000000E+00  0.13725009576E+04  0.13725009576E+04  0.00000000000E+00 0. -1.
          1   -1    0    0  501    0 -0.00000000000E+00 -0.00000000000E+00 -0.20858692900E+04  0.20858692900E+04  0.00000000000E+00 0. -1.
         25    2    1    2    0    0 -0.10595701281E+03 -0.74609343385E+02 -0.22331001656E+03  0.28685539823E+03  0.12500085325E+03 0.  0.
          2    1    1    2  501    0  0.11214419337E+03 -0.31221122876E+01 -0.18279315925E+04  0.18313710642E+04  0.00000000000E+00 0. -1.
          1    1    1    2  502    0 -0.61871805643E+01  0.77731455673E+02  0.13378732768E+04  0.13401437852E+04  0.00000000000E+00 0. -1.
         22    1    3    3    0    0 -0.12389957794E+03 -0.29038497968E+02 -0.18563080009E+03  0.22506251070E+03  0.00000000000E+00 0.  1.
         22    1    3    3    0    0  0.17942565134E+02 -0.45570845417E+02 -0.37679216463E+02  0.61792887527E+02  0.00000000000E+00 0.  1.
</event>
<event>
 7    1  0.6444902E-006  0.4082944E+02  0.7818608E-02  0.1526362E+00
          2   -1    0    0  502    0  0.00000000000E+00  0.00000000000E+00  0.12398303595E+04  0.12398303595E+04  0.00000000000E+00 0. -1.
          1   -1    0    0  501    0 -0.00000000000E+00 -0.00000000000E+00 -0.54813589437E+02  0.54813589437E+02  0.00000000000E+00 0. -1.
         25    2    1    2    0    0 -0.15845917121E+01 -0.74366003768E+02  0.30603251348E+03  0.33884284350E+03  0.12500303931E+03 0.  0.
          2    1    1    2  501    0 -0.66435156333E+00  0.39745885402E+02 -0.27701709456E+02  0.48451640593E+02  0.00000000000E+00 0. -1.
          1    1    1    2  502    0  0.22489432754E+01  0.34620118366E+02  0.90668596600E+03  0.90734946480E+03  0.00000000000E+00 0. -1.
         22    1    3    3    0    0 -0.15428221191E+02  0.33319571277E+02  0.70399947400E+02  0.79400103483E+02  0.00000000000E+00 0.  1.
         22    1    3    3    0    0  0.13843629479E+02 -0.10768557504E+03  0.23563256608E+03  0.25944274002E+03  0.00000000000E+00 0.  1.
</event>
<event>
 7    1  0.6444902E-006  0.6286586E+02  0.7818608E-02  0.1451892E+00
          2   -1    0    0  502    0  0.00000000000E+00  0.00000000000E+00  0.24793712288E+04  0.24793712288E+04  0.00000000000E+00 0. -1.
          1   -1    0    0  501    0 -0.00000000000E+00 -0.00000000000E+00 -0.26277928912E+02  0.26277928912E+02  0.00000000000E+00 0. -1.
         25    2    1    2    0    0  0.40053793088E+02 -0.42506296764E+01  0.53764444649E+03  0.55345202920E+03  0.12500089438E+03 0.  0.
          2    1    1    2  501    0  0.10484864458E+02 -0.36410489609E+02  0.23115350174E+01  0.37960496973E+02  0.00000000000E+00 0. -1.
          1    1    1    2  502    0 -0.50538657546E+02  0.40661119285E+02  0.19131373184E+04  0.19142366316E+04  0.00000000000E+00 0. -1.
         22    1    3    3    0    0 -0.30015254080E+02  0.32182463615E+02  0.29537811012E+03  0.29863833374E+03  0.00000000000E+00 0.  1.
         22    1    3    3    0    0  0.70069047168E+02 -0.36433093291E+02  0.24226633637E+03  0.25481369546E+03  0.00000000000E+00 0.  1.
</event>
<event>
 7    1  0.6444902E-006  0.5556037E+02  0.7818608E-02  0.1425214E+00
          2   -1    0    0  502    0  0.00000000000E+00  0.00000000000E+00  0.86634267307E+03  0.86634267307E+03  0.00000000000E+00 0. -1.
          1   -1    0    0  501    0 -0.00000000000E+00 -0.00000000000E+00 -0.11203024783E+04  0.11203024783E+04  0.00000000000E+00 0. -1.
         25    2    1    2    0    0 -0.67871624177E+02 -0.49109521238E+02  0.13057394459E+02  0.15104429614E+03  0.12500232559E+03 0.  0.
          2    1    1    2  501    0  0.55435291564E+02 -0.17449341614E+01 -0.10497024390E+04  0.10511666503E+04  0.00000000000E+00 0. -1.
          1    1    1    2  502    0  0.12436332613E+02  0.50854455400E+02  0.78268523930E+03  0.78443420490E+03  0.00000000000E+00 0. -1.
         22    1    3    3    0    0 -0.48519053245E+02 -0.20048890723E+02 -0.54080250343E+02  0.75370617778E+02  0.00000000000E+00 0.  1.
         22    1    3    3    0    0 -0.19352570932E+02 -0.29060630515E+02  0.67137644802E+02  0.75673678364E+02  0.00000000000E+00 0.  1.
</event>
<event>
 7    1  0.6444902E-006  0.6618005E+02  0.7818608E-02  0.1477374E+00
          2   -1    0    0  502    0  0.00000000000E+00  0.00000000000E+00  0.89445259409E+03  0.89445259409E+03  0.00000000000E+00 0. -1.
          1   -1    0    0  501    0 -0.00000000000E+00 -0.00000000000E+00 -0.11534606692E+04  0.11534606692E+04  0.00000000000E+00 0. -1.
         25    2    1    2    0    0  0.86568181259E+02 -0.34619601261E+02  0.80178139044E+01  0.15614754428E+03  0.12500081378E+03 0.  0.
          2    1    1    2  501    0 -0.56638949736E+02  0.33613578066E+02 -0.10781145388E+04  0.10801244382E+04  0.00000000000E+00 0. -1.
          1    1    1    2  502    0 -0.29929231524E+02  0.10060231953E+01  0.81108864975E+03  0.81164128082E+03  0.00000000000E+00 0. -1.
         22    1    3    3    0    0  0.21191987054E+02 -0.73944381782E+02  0.18564981394E+02  0.79129832848E+02  0.00000000000E+00 0. -1.
         22    1    3    3    0    0  0.65376194205E+02  0.39324780521E+02 -0.10547167490E+02  0.77017711429E+02  0.00000000000E+00 0. -1.
</event>
<event>
 7    1  0.6444902E-006  0.1159317E+03  0.7818608E-02  0.1327194E+00
          2   -1    0    0  502    0  0.00000000000E+00  0.00000000000E+00  0.29593629354E+04  0.29593629354E+04  0.00000000000E+00 0. -1.
          1   -1    0    0  501    0 -0.00000000000E+00 -0.00000000000E+00 -0.52005955885E+03  0.52005955885E+03  0.00000000000E+00 0. -1.
         25    2    1    2    0    0 -0.39249071087E+02 -0.68899596557E+02 -0.42739341575E+02  0.15407627434E+03  0.12500081204E+03 0.  0.
          2    1    1    2  501    0  0.18700743134E+02  0.12111930514E+03 -0.41246881873E+03  0.43029075088E+03  0.00000000000E+00 0. -1.
          1    1    1    2  502    0  0.20548327953E+02 -0.52219708582E+02  0.28945115368E+04  0.28950554690E+04  0.00000000000E+00 0. -1.
         22    1    3    3    0    0 -0.39124806090E+02  0.19305359860E+02 -0.49050159872E+02  0.65645758084E+02  0.00000000000E+00 0. -1.
         22    1    3    3    0    0 -0.12426499700E+00 -0.88204956417E+02  0.63108182973E+01  0.88430516259E+02  0.00000000000E+00 0. -1.
</event>
<event>
 7    1  0.6444902E-006  0.1427699E+03  0.7818608E-02  0.1272190E+00
          2   -1    0    0  502    0  0.00000000000E+00  0.00000000000E+00  0.96252850931E+03  0.96252850931E+03  0.00000000000E+00 0. -1.
          1   -1    0    0  501    0 -0.00000000000E+00 -0.00000000000E+00 -0.47386866168E+03  0.47386866168E+03  0.00000000000E+00 0. -1.
         25    2    1    2    0    0 -0.24124564117E+02 -0.76625798152E+02  0.45802048320E+02  0.15548773817E+03  0.12500040621E+03 0.  0.
          2    1    1    2  501    0  0.16885786948E+02 -0.73787277277E+02 -0.40894840529E+03  0.41589480674E+03  0.00000000000E+00 0. -1.
          1    1    1    2  502    0  0.72387771684E+01  0.15041307543E+03  0.85180620460E+03  0.86501462609E+03  0.00000000000E+00 0. -1.
         22    1    3    3    0    0  0.99553650566E+01  0.30957645883E+02  0.24324359230E+02  0.40609845899E+02  0.00000000000E+00 0.  1.
         22    1    3    3    0    0 -0.34079929173E+02 -0.10758344404E+03  0.21477689090E+02  0.11487789227E+03  0.00000000000E+00 0.  1.
</event>
<event>
 7    1  0.6444902E-006  0.8700526E+02  0.7818608E-02  0.1412310E+00
          2   -1    0    0  502    0  0.00000000000E+00  0.00000000000E+00  0.13599573697E+03  0.13599573697E+03  0.00000000000E+00 0. -1.
          1   -1    0    0  501    0 -0.00000000000E+00 -0.00000000000E+00 -0.17629066155E+04  0.17629066155E+04  0.00000000000E+00 0. -1.
         25    2    1    2    0    0 -0.79911000475E+02  0.29580750005E+02 -0.90408169328E+02  0.17623614601E+03  0.12499901324E+03 0.  0.
          2    1    1    2  501    0  0.87007127045E+02  0.66575739751E+01 -0.16247046693E+04  0.16270463502E+04  0.00000000000E+00 0. -1.
          1    1    1    2  502    0 -0.70961265696E+01 -0.36238323980E+02  0.88201960094E+02  0.95619856210E+02  0.00000000000E+00 0. -1.
         22    1    3    3    0    0  0.26848451903E+02 -0.11367360696E+02 -0.44111445767E+02  0.52876042840E+02  0.00000000000E+00 0. -1.
         22    1    3    3    0    0 -0.10675945238E+03  0.40948110700E+02 -0.46296723562E+02  0.12336010317E+03  0.00000000000E+00 0. -1.
</event>
<event>
 7    1  0.6444902E-006  0.6061494E+02  0.7818608E-02  0.1423295E+00
          2   -1    0    0  502    0  0.00000000000E+00  0.00000000000E+00  0.14710192541E+03  0.14710192541E+03  0.00000000000E+00 0. -1.
          1   -1    0    0  501    0 -0.00000000000E+00 -0.00000000000E+00 -0.11066805729E+03  0.11066805729E+03  0.00000000000E+00 0. -1.
         25    2    1    2    0    0  0.36579827140E+02 -0.71333617179E+02  0.19786444757E+02  0.14981117301E+03  0.12500126187E+03 0.  0.
          2    1    1    2  501    0  0.15300311768E+02  0.46230240004E+02  0.33575320310E+01  0.48811962185E+02  0.00000000000E+00 0. -1.
          1    1    1    2  502    0 -0.51880138908E+02  0.25103377176E+02  0.13289891328E+02  0.59146847509E+02  0.00000000000E+00 0. -1.
         22    1    3    3    0    0  0.75004605349E+02 -0.71658943389E+02 -0.53868785268E+01  0.10387354548E+03  0.00000000000E+00 0. -1.
         22    1    3    3    0    0 -0.38424778209E+02  0.32532620926E+00  0.25173323284E+02  0.45937627525E+02  0.00000000000E+00 0. -1.
</event>
<event>
 7    1  0.6444902E-006  0.5936018E+02  0.7818608E-02  0.1445161E+00
          2   -1    0    0  502    0  0.00000000000E+00  0.00000000000E+00  0.27321370279E+04  0.27321370279E+04  0.00000000000E+00 0. -1.
          1   -1    0    0  501    0 -0.00000000000E+00 -0.00000000000E+00 -0.20125643691E+03  0.20125643691E+03  0.00000000000E+00 0. -1.
         25    2    1    2    0    0  0.81584451331E+01  0.19339983997E+02  0.25706128798E+03  0.28661180805E+03  0.12500091010E+03 0.  0.
          2    1    1    2  501    0  0.36242367918E+02  0.21563264623E+02 -0.18372146946E+03  0.18849950121E+03  0.00000000000E+00 0. -1.
          1    1    1    2  502    0 -0.44400813051E+02 -0.40903248620E+02  0.24575407725E+04  0.24582821556E+04  0.00000000000E+00 0. -1.
         22    1    3    3    0    0 -0.10936765741E+01  0.37548608125E+02  0.10224081008E+02  0.38931040739E+02  0.00000000000E+00 0. -1.
         22    1    3    3    0    0  0.92521217072E+01 -0.18208624128E+02  0.24683720698E+03  0.24768076731E+03  0.00000000000E+00 0. -1.
</event>
<event>
 7    1  0.6444902E-006  0.1291863E+03  0.7818608E-02  0.1336987E+00
          2   -1    0    0  502    0  0.00000000000E+00  0.00000000000E+00  0.32260271546E+03  0.32260271546E+03  0.00000000000E+00 0. -1.
          1   -1    0    0  501    0 -0.00000000000E+00 -0.00000000000E+00 -0.13085450514E+04  0.13085450514E+04  0.00000000000E+00 0. -1.
         25    2    1    2    0    0 -0.18139507537E+02 -0.88961481983E+02 -0.41901622264E+03  0.44658931823E+03  0.12499694920E+03 0.  0.
          2    1    1    2  501    0 -0.34964662340E+02 -0.30221540874E+02 -0.86131289280E+03  0.86255189319E+03  0.00000000000E+00 0. -1.
          1    1    1    2  502    0  0.53104169877E+02  0.11918302286E+03  0.29438677951E+03  0.32200655544E+03  0.00000000000E+00 0. -1.
         22    1    3    3    0    0 -0.19583479945E+02 -0.12090507150E+03 -0.32842909394E+03  0.35052420565E+03  0.00000000000E+00 0. -1.
         22    1    3    3    0    0  0.14439724084E+01  0.31943589522E+02 -0.90587128702E+02  0.96065112576E+02  0.00000000000E+00 0. -1.
</event>
<event>
 7    1  0.6444902E-006  0.7596902E+02  0.7818608E-02  0.1490279E+00
          2   -1    0    0  502    0  0.00000000000E+00  0.00000000000E+00  0.93746420368E+03  0.93746420368E+03  0.00000000000E+00 0. -1.
          1   -1    0    0  501    0 -0.00000000000E+00 -0.00000000000E+00 -0.17121496824E+04  0.17121496824E+04  0.00000000000E+00 0. -1.
         25    2    1    2    0    0 -0.12825992426E+02  0.97035873974E+02  0.12915452409E+03  0.20466107737E+03  0.12499919431E+03 0.  0.
          2    1    1    2  501    0  0.85665095773E+01 -0.22232835518E+02 -0.16724900598E+04  0.16726597634E+04  0.00000000000E+00 0. -1.
          1    1    1    2  502    0  0.42594828488E+01 -0.74803038455E+02  0.76865005697E+03  0.77229304531E+03  0.00000000000E+00 0. -1.
         22    1    3    3    0    0 -0.60076297104E+02  0.82386578603E+02  0.11394691864E+03  0.15290719432E+03  0.00000000000E+00 0.  1.
         22    1    3    3    0    0  0.47250304677E+02  0.14649295370E+02  0.15207605444E+02  0.51753883046E+02  0.00000000000E+00 0.  1.
</event>
<event>
 7    1  0.6444902E-006  0.1734687E+03  0.7818608E-02  0.1314266E+00
          2   -1    0    0  502    0  0.00000000000E+00  0.00000000000E+00  0.25919604155E+04  0.25919604155E+04  0.00000000000E+00 0. -1.
          1   -1    0    0  501    0 -0.00000000000E+00 -0.00000000000E+00 -0.19280960145E+03  0.19280960145E+03  0.00000000000E+00 0. -1.
         25    2    1    2    0    0 -0.14515824589E+03 -0.15120155201E+03  0.33317023689E+03  0.41298868543E+03  0.12499768745E+03 0.  0.
          2    1    1    2  501    0  0.10968992428E+03  0.12853922939E+03 -0.10594652454E+03  0.19944643151E+03  0.00000000000E+00 0. -1.
          1    1    1    2  502    0  0.35468321603E+02  0.22662322621E+02  0.21719271017E+04  0.21723349001E+04  0.00000000000E+00 0. -1.
         22    1    3    3    0    0 -0.89637837223E+02 -0.11436710393E+02  0.93408253239E+02  0.12996477207E+03  0.00000000000E+00 0. -1.
         22    1    3    3    0    0 -0.55520408663E+02 -0.13976484161E+03  0.23976198365E+03  0.28302391336E+03  0.00000000000E+00 0. -1.
</event>
<event>
 7    1  0.6444902E-006  0.1595180E+03  0.7818608E-02  0.1293939E+00
          2   -1    0    0  502    0  0.00000000000E+00  0.00000000000E+00  0.76599691480E+02  0.76599691480E+02  0.00000000000E+00 0. -1.
          1   -1    0    0  501    0 -0.00000000000E+00 -0.00000000000E+00 -0.23982885591E+04  0.23982885591E+04  0.00000000000E+00 0. -1.
         25    2    1    2    0    0  0.11797123250E+03  0.15969584117E+01 -0.10381184847E+04  0.10522520914E+04  0.12499885477E+03 0.  0.
          2    1    1    2  501    0  0.41103871143E+02  0.36750634431E+02 -0.12553840540E+04  0.12565943102E+04  0.00000000000E+00 0. -1.
          1    1    1    2  502    0 -0.15907510364E+03 -0.38347592843E+02 -0.28186328959E+02  0.16604184899E+03  0.00000000000E+00 0. -1.
         22    1    3    3    0    0  0.66116164323E+02 -0.29551774922E+02 -0.21410514372E+03  0.22602138650E+03  0.00000000000E+00 0. -1.
         22    1    3    3    0    0  0.51855068179E+02  0.31148733334E+02 -0.82401334094E+03  0.82623070491E+03  0.00000000000E+00 0. -1.
</event>
<event>
 7    1  0.6444902E-006  0.8030916E+02  0.7818608E-02  0.1425761E+00
          2   -1    0    0  502    0  0.00000000000E+00  0.00000000000E+00  0.99828272037E+03  0.99828272037E+03  0.00000000000E+00 0. -1.
          1   -1    0    0  501    0 -0.00000000000E+00 -0.00000000000E+00 -0.61470537990E+03  0.61470537990E+03  0.00000000000E+00 0. -1.
         25    2    1    2    0    0  0.11193949271E+03 -0.25981711169E+02  0.12904994407E+02  0.17028409291E+03  0.12499853629E+03 0.  0.
          2    1    1    2  501    0 -0.33332848142E+02  0.13779425616E+02 -0.53366112238E+03  0.53487862630E+03  0.00000000000E+00 0. -1.
          1    1    1    2  502    0 -0.78606644565E+02  0.12202285553E+02  0.90433346845E+03  0.90782538106E+03  0.00000000000E+00 0. -1.
         22    1    3    3    0    0  0.23140322910E+02 -0.29134304920E+02  0.59330700786E+02  0.70031523782E+02  0.00000000000E+00 0.  1.
         22    1    3    3    0    0  0.88799169797E+02  0.31525937506E+01 -0.46425706379E+02  0.10025256913E+03  0.00000000000E+00 0.  1.
</event>
<event>
 7    1  0.6444902E-006  0.6484798E+02  0.7818608E-02  0.1422464E+00
          2   -1    0    0  502    0  0.00000000000E+00  0.00000000000E+00  0.32072092222E+02  0.32072092222E+02  0.00000000000E+00 0. -1.
          1   -1    0    0  501    0 -0.00000000000E+00 -0.00000000000E+00 -0.30231463465E+04  0.30231463465E+04  0.00000000000E+00 0. -1.
         25    2    1    2    0    0  0.21871740184E+02  0.25860282290E-01 -0.17133942746E+04  0.17180871802E+04  0.12500097862E+03 0.  0.
          2    1    1    2  501    0  0.40098918490E+02 -0.22146436808E+02 -0.12700660628E+04  0.12708918884E+04  0.00000000000E+00 0. -1.
          1    1    1    2  502    0 -0.61970658674E+02  0.22120576526E+02 -0.76139168839E+01  0.66239370261E+02  0.00000000000E+00 0. -1.
         22    1    3    3    0    0  0.18757383000E+02  0.51831397394E+00 -0.17146064663E+04  0.17147091422E+04  0.00000000000E+00 0. -1.
         22    1    3    3    0    0  0.31143571839E+01 -0.49245369165E+00  0.12121917357E+01  0.33780379085E+01  0.00000000000E+00 0. -1.
</event>
<event>
 7    1  0.6444902E-006  0.1221263E+03  0.7818608E-02  0.1281612E+00
          2   -1    0    0  502    0  0.00000000000E+00  0.00000000000E+00  0.19208657620E+04  0.19208657620E+04  0.00000000000E+00 0. -1.
          1   -1    0    0  501    0 -0.00000000000E+00 -0.00000000000E+00 -0.96003901188E+02  0.96003901188E+02  0.00000000000E+00 0. -1.
         25    2    1    2    0    0 -0.17820622521E+03  0.75817229921E+02  0.54464521036E+03  0.59141251142E+03  0.12499856973E+03 0.  0.
          2    1    1    2  501    0  0.98567825643E+02 -0.61786277984E+02 -0.23961662579E+02  0.11877424667E+03  0.00000000000E+00 0. -1.
          1    1    1    2  502    0  0.79638399567E+02 -0.14030951936E+02  0.13041783131E+04  0.13066829051E+04  0.00000000000E+00 0. -1.
         22    1    3    3    0    0 -0.85634650102E+02 -0.10397842544E+02  0.34044320817E+03  0.35120220162E+03  0.00000000000E+00 0. -1.
         22    1    3    3    0    0 -0.92571575109E+02  0.86215072465E+02  0.20420200219E+03  0.24021030980E+03  0.00000000000E+00 0. -1.
</event>
<event>
 7    1  0.6444902E-006  0.7515257E+02  0.7818608E-02  0.1410339E+00
          2   -1    0    0  502    0  0.00000000000E+00  0.00000000000E+00  0.56338010353E+03  0.56338010353E+03  0.00000000000E+00 0. -1.
          1   -1    0    0  501    0 -0.00000000000E+00 -0.00000000000E+00 -0.14577324736E+04  0.14577324736E+04  0.00000000000E+00 0. -1.
         25    2    1    2    0    0  0.15396512108E+02  0.89020310065E+02 -0.34118574567E+02  0.15795521564E+03  0.12499641926E+03 0.  0.
          2    1    1    2  501    0  0.24140296926E+02 -0.71092280666E+02 -0.13597184798E+04  0.13617897086E+04  0.00000000000E+00 0. -1.
          1    1    1    2  502    0 -0.39536809034E+02 -0.17928029398E+02  0.49948468427E+03  0.50136765286E+03  0.00000000000E+00 0. -1.
         22    1    3    3    0    0  0.63202366774E+02  0.13271888194E+02 -0.11896945852E+02  0.65667491978E+02  0.00000000000E+00 0.  1.
         22    1    3    3    0    0 -0.47805854666E+02  0.75748421870E+02 -0.22221628715E+02  0.92287723663E+02  0.00000000000E+00 0.  1.
</event>
<event>
 7    1  0.6444902E-006  0.1066898E+03  0.7818608E-02  0.1353899E+00
          2   -1    0    0  502    0  0.00000000000E+00  0.00000000000E+00  0.24761825292E+03  0.24761825292E+03  0.00000000000E+00 0. -1.
          1   -1    0    0  501    0 -0.00000000000E+00 -0.00000000000E+00 -0.62943623533E+03  0.62943623533E+03  0.00000000000E+00 0. -1.
         25    2    1    2    0    0  0.61141432999E+02 -0.20640675798E+02 -0.43288023019E+02  0.14718211142E+03  0.12499763461E+03 0.  0.
          2    1    1    2  501    0 -0.99768904808E+02  0.49791621461E+02 -0.52526452525E+03  0.53696914383E+03  0.00000000000E+00 0. -1.
          1    1    1    2  502    0  0.38627471809E+02 -0.29150945663E+02  0.18673456586E+03  0.19290323299E+03  0.00000000000E+00 0. -1.
         22    1    3    3    0    0  0.33892587304E+01  0.44083433860E+01  0.41337915359E+02  0.41710236302E+02  0.00000000000E+00 0. -1.
         22    1    3    3    0    0  0.57752174268E+02 -0.25049019183E+02 -0.84625938378E+02  0.10547187512E+03  0.00000000000E+00 0. -1.
</event>
<event>
 7    1  0.6444902E-006  0.3334563E+02  0.7818608E-02  0.1578578E+00
          2   -1    0    0  502    0  0.00000000000E+00  0.00000000000E+00  0.22842635858E+04  0.22842635858E+04  0.00000000000E+00 0. -1.
          1   -1    0    0  501    0 -0.00000000000E+00 -0.00000000000E+00 -0.12427291764E+04  0.12427291764E+04  0.00000000000E+00 0. -1.
         25    2    1    2    0    0  0.27947891587E+01 -0.29748668020E+02  0.81323152877E+02  0.15208975062E+03  0.12500017182E+03 0.  0.
          2    1    1    2  501    0  0.26220003100E+02  0.20656710169E+02 -0.12070085038E+04  0.12074699651E+04  0.00000000000E+00 0. -1.
          1    1    1    2  502    0 -0.29014792258E+02  0.90919578509E+01  0.21672197603E+04  0.21674330466E+04  0.00000000000E+00 0. -1.
         22    1    3    3    0    0  0.19507853504E+02 -0.27902076647E+02  0.11202544257E+03  0.11708450799E+03  0.00000000000E+00 0.  1.
         22    1    3    3    0    0 -0.16713064346E+02 -0.18465913730E+01 -0.30702289688E+02  0.35005242631E+02  0.00000000000E+00 0.  1.
</event>
<event>
 7    1  0.6444902E-006  0.4584950E+02  0.7818608E-02  0.1472913E+00
          2   -1    0    0  502    0  0.00000000000E+00  0.00000000000E+00  0.29029202879E+02  0.29029202879E+02  0.00000000000E+00 0. -1.
          1   -1    0    0  501    0 -0.00000000000E+00 -0.00000000000E+00 -0.12471951450E+04  0.12471951450E+04  0.00000000000E+00 0. -1.
         25    2    1    2    0    0  0.25471235315E+02  0.19954849253E+02 -0.22992682180E+03  0.26370020342E+03  0.12499789625E+03 0.  0.
          2    1    1    2  501    0 -0.31015468060E+02  0.32075398294E+02 -0.94091725051E+03  0.94197455525E+03  0.00000000000E+00 0. -1.
          1    1    1    2  502    0  0.55442327449E+01 -0.52030247546E+02 -0.47321869858E+02  0.70549589250E+02  0.00000000000E+00 0. -1.
         22    1    3    3    0    0 -0.10150687452E+02  0.57860829861E+02 -0.52432106161E+02  0.78740319052E+02  0.00000000000E+00 0.  1.
         22    1    3    3    0    0  0.35621922767E+02 -0.37905980608E+02 -0.17749471563E+03  0.18495988437E+03  0.00000000000E+00 0.  1.
</event>
<event>
 7    1  0.6444902E-006  0.2479993E+03  0.7818608E-02  0.1150366E+00
          2   -1    0    0  502    0  0.00000000000E+00  0.00000000000E+00  0.37377533939E+03  0.37377533939E+03  0.00000000000E+00 0. -1.
          1   -1    0    0  501    0 -0.00000000000E+00 -0.00000000000E+00 -0.71928116877E+03  0.71928116877E+03  0.00000000000E+00 0. -1.
         25    2    1    2    0    0  0.54163856293E+02 -0.29404185201E+03 -0.48179780858E+02  0.32762865929E+03  0.12499965218E+03 0.  0.
          2    1    1    2  501    0  0.91386381239E+02  0.22735997749E+03 -0.46994635211E+03  0.52999396591E+03  0.00000000000E+00 0. -1.
          1    1    1    2  502    0 -0.14555023753E+03  0.66681874519E+02  0.17262030359E+03  0.23543388296E+03  0.00000000000E+00 0. -1.
         22    1    3    3    0    0 -0.91553796902E+01 -0.23550417196E+03 -0.51851005299E+02  0.24131838458E+03  0.00000000000E+00 0.  1.
         22    1    3    3    0    0  0.63319235984E+02 -0.58537680047E+02  0.36712244409E+01  0.86310274706E+02  0.00000000000E+00 0.  1.
</event>
<event>
 7    1  0.6444902E-006  0.9377239E+02  0.7818608E-02  0.1366709E+00
          2   -1    0    0  502    0  0.00000000000E+00  0.00000000000E+00  0.20594307604E+04  0.20594307604E+04  0.00000000000E+00 0. -1.
          1   -1    0    0  501    0 -0.00000000000E+00 -0.00000000000E+00 -0.31018830048E+04  0.31018830048E+04  0.00000000000E+00 0. -1.
         25    2    1    2    0    0  0.33839667353E+02  0.76480371217E+02  0.60480986321E+03  0.62322942230E+03  0.12500228767E+03 0.  0.
          2    1    1    2  501    0  0.12788496997E+02 -0.92922700144E+02 -0.30915388990E+04  0.30929615157E+04  0.00000000000E+00 0. -1.
          1    1    1    2  502    0 -0.46628164350E+02  0.16442328927E+02  0.14442767913E+04  0.14451228273E+04  0.00000000000E+00 0. -1.
         22    1    3    3    0    0 -0.19465659674E+02 -0.24192035514E+02  0.21108761702E+03  0.21335920075E+03  0.00000000000E+00 0.  1.
         22    1    3    3    0    0  0.53305327027E+02  0.10067240673E+03  0.39372224619E+03  0.40987022155E+03  0.00000000000E+00 0.  1.
</event>
<event>
 7    1  0.6444902E-006  0.7917868E+02  0.7818608E-02  0.1399667E+00
          2   -1    0    0  502    0  0.00000000000E+00  0.00000000000E+00  0.63223544107E+03  0.63223544107E+03  0.00000000000E+00 0. -1.
          1   -1    0    0  501    0 -0.00000000000E+00 -0.00000000000E+00 -0.40329157590E+03  0.40329157590E+03  0.00000000000E+00 0. -1.
         25    2    1    2    0    0 -0.91306766159E+02 -0.74979241488E+02  0.10524197942E+03  0.20164288484E+03  0.12500066629E+03 0.  0.
          2    1    1    2  501    0  0.48689685150E+02  0.61133686064E+02 -0.34972000289E+03  0.35834633169E+03  0.00000000000E+00 0. -1.
          1    1    1    2  502    0  0.42617081008E+02  0.13845555423E+02  0.47342188865E+03  0.47553780045E+03  0.00000000000E+00 0. -1.
         22    1    3    3    0    0 -0.33159753744E+01 -0.19793800920E+02  0.95201899123E+02  0.97294356692E+02  0.00000000000E+00 0. -1.
         22    1    3    3    0    0 -0.87990790784E+02 -0.55185440568E+02  0.10040080292E+02  0.10434852814E+03  0.00000000000E+00 0. -1.
</event>
<event>
 7    1  0.6444902E-006  0.1265109E+03  0.7818608E-02  0.1233554E+00
          2   -1    0    0  502    0  0.00000000000E+00  0.00000000000E+00  0.79627042224E+02  0.79627042224E+02  0.00000000000E+00 0. -1.
          1   -1    0    0  501    0 -0.00000000000E+00 -0.00000000000E+00 -0.44863315495E+04  0.44863315495E+04  0.00000000000E+00 0. -1.
         25    2    1    2    0    0 -0.53077402021E+02 -0.14463714349E+03 -0.21617892605E+04  0.21708736374E+04  0.12498971573E+03 0.  0.
          2    1    1    2  501    0  0.12511089695E+03  0.41940989057E+02 -0.22643120609E+04  0.22681536307E+04  0.00000000000E+00 0. -1.
          1    1    1    2  502    0 -0.72033494926E+02  0.10269615443E+03  0.19396814107E+02  0.12693132365E+03  0.00000000000E+00 0. -1.
         22    1    3    3    0    0 -0.61776439427E+00 -0.10069222661E+03 -0.17905822774E+04  0.17934113299E+04  0.00000000000E+00 0. -1.
         22    1    3    3    0    0 -0.52459637626E+02 -0.43944916878E+02 -0.37120698310E+03  0.37746230752E+03  0.00000000000E+00 0. -1.
</event>
<event>
 7    1  0.6444902E-006  0.7436070E+02  0.7818608E-02  0.1392453E+00
          2   -1    0    0  502    0  0.00000000000E+00  0.00000000000E+00  0.27357401482E+04  0.27357401482E+04  0.00000000000E+00 0. -1.
          1   -1    0    0  501    0 -0.00000000000E+00 -0.00000000000E+00 -0.16970945912E+04  0.16970945912E+04  0.00000000000E+00 0. -1.
         25    2    1    2    0    0  0.74292216599E+02  0.87888997983E+02  0.59456812355E+02  0.18001023851E+03  0.12499905607E+03 0.  0.
          2    1    1    2  501    0 -0.11080840696E+02 -0.49304478291E+02 -0.16359035085E+04  0.16366838441E+04  0.00000000000E+00 0. -1.
          1    1    1    2  502    0 -0.63211375902E+02 -0.38584519693E+02  0.26150922532E+04  0.26161406568E+04  0.00000000000E+00 0. -1.
         22    1    3    3    0    0  0.52184704955E+02  0.39101398522E+01  0.75338237628E+02  0.91729944259E+02  0.00000000000E+00 0. -1.
         22    1    3    3    0    0  0.22107511643E+02  0.83978858131E+02 -0.15881425273E+02  0.88280294249E+02  0.00000000000E+00 0. -1.
</event>
<event>
 7    1  0.6444902E-006  0.2217021E+03  0.7818608E-02  0.1269718E+00
          2   -1    0    0  502    0  0.00000000000E+00  0.00000000000E+00  0.12267051944E+04  0.12267051944E+04  0.00000000000E+00 0. -1.
          1   -1    0    0  501    0 -0.00000000000E+00 -0.00000000000E+00 -0.53086414899E+03  0.53086414899E+03  0.00000000000E+00 0. -1.
         25    2    1    2    0    0 -0.15643432640E+03 -0.11784690175E+03  0.48991952356E+03  0.54221693861E+03  0.12497391017E+03 0.  0.
          2    1    1    2  501    0 -0.24716714820E+02 -0.43374270282E+02 -0.48270208165E+03  0.48527676942E+03  0.00000000000E+00 0. -1.
          1    1    1    2  502    0  0.18115104122E+03  0.16122117203E+03  0.68862360349E+03  0.73007563534E+03  0.00000000000E+00 0. -1.
         22    1    3    3    0    0 -0.76343388732E+02 -0.51697054297E+02  0.37981359731E+03  0.39084430036E+03  0.00000000000E+00 0. -1.
         22    1    3    3    0    0 -0.80090937664E+02 -0.66149847455E+02  0.11010592626E+03  0.15137263825E+03  0.00000000000E+00 0. -1.
</event>
<event>
 7    1  0.6444902E-006  0.5690174E+02  0.7818608E-02  0.1442076E+00
          2   -1    0    0  502    0  0.00000000000E+00  0.00000000000E+00  0.25559521994E+04  0.25559521994E+04  0.00000000000E+00 0. -1.
          1   -1    0    0  501    0 -0.00000000000E+00 -0.00000000000E+00 -0.23133423253E+04  0.23133423253E+04  0.00000000000E+00 0. -1.
         25    2    1    2    0    0 -0.20770479950E+02 -0.86732269103E+01  0.98053432019E+03  0.98872618039E+03  0.12500107600E+03 0.  0.
          2    1    1    2  501    0  0.18995558617E+02  0.53653250258E+02 -0.23085731682E+04  0.23092746860E+04  0.00000000000E+00 0. -1.
          1    1    1    2  502    0  0.17749213329E+01 -0.44980023347E+02  0.15706487220E+04  0.15712936584E+04  0.00000000000E+00 0. -1.
         22    1    3    3    0    0 -0.20220050652E+02 -0.56458945413E+02  0.79063068689E+03  0.79290185144E+03  0.00000000000E+00 0. -1.
         22    1    3    3    0    0 -0.55042929764E+00  0.47785718503E+02  0.18990363331E+03  0.19582432895E+03  0.00000000000E+00 0. -1.
</event>
<event>
 7    1  0.6444902E-006  0.9258211E+02  0.7818608E-02  0.1409814E+00
          2   -1    0    0  502    0  0.00000000000E+00  0.00000000000E+00  0.32000436945E+04  0.32000436945E+04  0.00000000000E+00 0. -1.
          1   -1    0    0  501    0 -0.00000000000E+00 -0.00000000000E+00 -0.36660750367E+03  0.36660750367E+03  0.00000000000E+00 0. -1.
         25    2    1    2    0    0 -0.11343451926E+03  0.43709679350E+02 -0.75528470071E+02  0.19002024969E+03  0.12500087709E+03 0.  0.
          2    1    1    2  501    0  0.22448694423E+02 -0.27350710459E+02 -0.23181057063E+03  0.23449551360E+03  0.00000000000E+00 0. -1.
          1    1    1    2  502    0  0.90985824836E+02 -0.16358968891E+02  0.31407752315E+04  0.31421354349E+04  0.00000000000E+00 0. -1.
         22    1    3    3    0    0 -0.84384136382E+02 -0.30597604699E+02 -0.17715055332E+02  0.91491633889E+02  0.00000000000E+00 0. -1.
         22    1    3    3    0    0 -0.29050382876E+02  0.74307284049E+02 -0.57813414739E+02  0.98528615802E+02  0.00000000000E+00 0. -1.
</event>
<event>
 7    1  0.6444902E-006  0.6153561E+02  0.7818608E-02  0.1422972E+00
          2   -1    0    0  502    0  0.00000000000E+00  0.00000000000E+00  0.31762326249E+03  0.31762326249E+03  0.00000000000E+00 0. -1.
          1   -1    0    0  501    0 -0.00000000000E+00 -0.00000000000E+00 -0.20125815197E+04  0.20125815197E+04  0.00000000000E+00 0. -1.
         25    2    1    2    0    0 -0.32920326593E+01  0.20003546311E+02 -0.41213670524E+03  0.43115296246E+03  0.12500093555E+03 0.  0.
          2    1    1    2  501    0 -0.22762894551E+02 -0.60419608725E+02 -0.15884006624E+04  0.15897123459E+04  0.00000000000E+00 0. -1.
          1    1    1    2  502    0  0.26054927210E+02  0.40416062415E+02  0.30557911042E+03  0.30933947381E+03  0.00000000000E+00 0. -1.
         22    1    3    3    0    0  0.48961548289E+02 -0.20123614824E+02 -0.11213105503E+03  0.12399825236E+03  0.00000000000E+00 0. -1.
         22    1    3    3    0    0 -0.52253580948E+02  0.40127161135E+02 -0.30000565021E+03  0.30715471010E+03  0.00000000000E+00 0. -1.
</event>
<event>
 7    1  0.6444902E-006  0.7124223E+02  0.7818608E-02  0.1422472E+00
          2   -1    0    0  502    0  0.00000000000E+00  0.00000000000E+00  0.95531186425E+03  0.95531186425E+03  0.00000000000E+00 0. -1.
          1   -1    0    0  501    0 -0.00000000000E+00 -0.00000000000E+00 -0.55961344149E+03  0.55961344149E+03  0.00000000000E+00 0. -1.
         25    2    1    2    0    0 -0.64072506272E+02  0.23805007785E+02  0.32485373495E+03  0.35471863377E+03  0.12499358213E+03 0.  0.
          2    1    1    2  501    0  0.69145390885E+02  0.17579395974E+02 -0.54163290497E+03  0.54631156311E+03  0.00000000000E+00 0. -1.
          1    1    1    2  502    0 -0.50728846128E+01 -0.41384403759E+02  0.61247759278E+03  0.61389510887E+03  0.00000000000E+00 0. -1.
         22    1    3    3    0    0  0.11892551990E+02  0.55363669443E+01  0.23614202414E+03  0.23650610926E+03  0.00000000000E+00 0.  1.
         22    1    3    3    0    0 -0.75965058263E+02  0.18268640841E+02  0.88711710810E+02  0.11821252451E+03  0.00000000000E+00 0.  1.
</event>
<event>
 7    1  0.6444902E-006  0.2864986E+03  0.7818608E-02  0.1273579E+00
          2   -1    0    0  502    0  0.00000000000E+00  0.00000000000E+00  0.16592353712E+04  0.16592353712E+04  0.00000000000E+00 0. -1.
          1   -1    0    0  501    0 -0.00000000000E+00 -0.00000000000E+00 -0.61677053004E+03  0.61677053004E+03  0.00000000000E+00 0. -1.
         25    2    1    2    0    0  0.23912126538E+03 -0.19927953143E+03  0.63310766990E+03  0.71648788751E+03  0.12505302900E+03 0.  0.
          2    1    1    2  501    0 -0.22573014019E+02  0.29593429215E+02 -0.55522443471E+03  0.55647056069E+03  0.00000000000E+00 0. -1.
          1    1    1    2  502    0 -0.21654825136E+03  0.16968610221E+03  0.96458160601E+03  0.10030474531E+04  0.00000000000E+00 0. -1.
         22    1    3    3    0    0  0.56814182205E+02 -0.12667631805E+03  0.27943441289E+03  0.31202296704E+03  0.00000000000E+00 0.  1.
         22    1    3    3    0    0  0.18230708317E+03 -0.72603213381E+02  0.35367325701E+03  0.40446492047E+03  0.00000000000E+00 0.  1.
</event>
<event>
 7    1  0.6444902E-006  0.1806943E+03  0.7818608E-02  0.1208115E+00
          2   -1    0    0  502    0  0.00000000000E+00  0.00000000000E+00  0.24410181094E+04  0.24410181094E+04  0.00000000000E+00 0. -1.
          1   -1    0    0  501    0 -0.00000000000E+00 -0.00000000000E+00 -0.27977135588E+03  0.27977135588E+03  0.00000000000E+00 0. -1.
         25    2    1    2    0    0  0.17122092009E+03  0.70187503982E+02  0.47055951969E+03  0.52085912940E+03  0.12500032768E+03 0.  0.
          2    1    1    2  501    0 -0.95100366781E+02 -0.15595098329E+03 -0.21992060648E+03  0.28588435093E+03  0.00000000000E+00 0. -1.
          1    1    1    2  502    0 -0.76120553304E+02  0.85763479310E+02  0.19106078403E+04  0.19140459849E+04  0.00000000000E+00 0. -1.
         22    1    3    3    0    0  0.33233846827E+01  0.10308561925E+02  0.17760064523E+03  0.17793060592E+03  0.00000000000E+00 0. -1.
         22    1    3    3    0    0  0.16789753540E+03  0.59878942057E+02  0.29295887445E+03  0.34292852348E+03  0.00000000000E+00 0. -1.
</event>
<event>
 7    1  0.6444902E-006  0.6215938E+02  0.7818608E-02  0.1411691E+00
          2   -1    0    0  502    0  0.00000000000E+00  0.00000000000E+00  0.18293612113E+04  0.18293612113E+04  0.00000000000E+00 0. -1.
          1   -1    0    0  501    0 -0.00000000000E+00 -0.00000000000E+00 -0.11420025024E+04  0.11420025024E+04  0.00000000000E+00 0. -1.
         25    2    1    2    0    0 -0.45063368089E+02  0.59577604137E+02  0.36873634871E+03  0.39644891450E+03  0.12500019556E+03 0.  0.
          2    1    1    2  501    0  0.61325671607E+02 -0.10253497316E+02 -0.11268227843E+04  0.11285369110E+04  0.00000000000E+00 0. -1.
          1    1    1    2  502    0 -0.16262303518E+02 -0.49324106821E+02  0.14454451444E+04  0.14463778883E+04  0.00000000000E+00 0. -1.
         22    1    3    3    0    0  0.12419294125E+02  0.70415434167E+01  0.27148955680E+03  0.27186467525E+03  0.00000000000E+00 0. -1.
         22    1    3    3    0    0 -0.57482662214E+02  0.52536060720E+02  0.97246791915E+02  0.12458423925E+03  0.00000000000E+00 0. -1.
</event>
<event>
 7    1  0.6444902E-006  0.3679993E+02  0.7818608E-02  0.1580703E+00
          2   -1    0    0  502    0  0.00000000000E+00  0.00000000000E+00  0.76090472327E+03  0.76090472327E+03  0.00000000000E+00 0. -1.
          1   -1    0    0  501    0 -0.00000000000E+00 -0.00000000000E+00 -0.53181832476E+03  0.53181832476E+03  0.00000000000E+00 0. -1.
         25    2    1    2    0    0 -0.56267007861E+02  0.29856715217E+02  0.88322426711E+02  0.16575429071E+03  0.12496493192E+03 0.  0.
          2    1    1    2  501    0  0.31305861134E+02 -0.19068822145E+02 -0.49212880120E+03  0.49349208088E+03  0.00000000000E+00 0. -1.
          1    1    1    2  502    0  0.24961146728E+02 -0.10787893072E+02  0.63289277300E+03  0.63347667644E+03  0.00000000000E+00 0. -1.
         22    1    3    3    0    0 -0.27706361784E+01  0.18841650453E+02  0.10650070448E+03  0.10819003776E+03  0.00000000000E+00 0. -1.
         22    1    3    3    0    0 -0.53496371683E+02  0.11015064764E+02 -0.18178277765E+02  0.57564252948E+02  0.00000000000E+00 0. -1.
</event>
<event>
 7    1  0.6444902E-006  0.4693154E+02  0.7818608E-02  0.1469063E+00
          2   -1    0    0  502    0  0.00000000000E+00  0.00000000000E+00  0.92592865653E+03  0.92592865653E+03  0.00000000000E+00 0. -1.
          1   -1    0    0  501    0 -0.00000000000E+00 -0.00000000000E+00 -0.14700419664E+03  0.14700419664E+03  0.00000000000E+00 0. -1.
         25    2    1    2    0    0 -0.50254807360E+02 -0.35743579059E+02  0.40707690417E+02  0.14520633214E+03  0.12499845490E+03 0.  0.
          2    1    1    2  501    0  0.43497441522E+02 -0.10751362338E+02 -0.88753671561E+02  0.99422499600E+02  0.00000000000E+00 0. -1.
          1    1    1    2  502    0  0.67573658385E+01  0.46494941398E+02  0.82697044103E+03  0.82830402143E+03  0.00000000000E+00 0. -1.
         22    1    3    3    0    0  0.40070698342E+02  0.78681534396E+00  0.22900236191E+02  0.46159514313E+02  0.00000000000E+00 0.  1.
         22    1    3    3    0    0 -0.90325505702E+02 -0.36530394403E+02  0.17807454227E+02  0.99046817827E+02  0.00000000000E+00 0.  1.
</event>
<event>
 7    1  0.6444902E-006  0.9931071E+02  0.7818608E-02  0.1337226E+00
          2   -1    0    0  502    0  0.00000000000E+00  0.00000000000E+00  0.52131399184E+03  0.52131399184E+03  0.00000000000E+00 0. -1.
          1   -1    0    0  501    0 -0.00000000000E+00 -0.00000000000E+00 -0.70143075909E+03  0.70143075909E+03  0.00000000000E+00 0. -1.
         25    2    1    2    0    0  0.54366919069E+02 -0.45669726985E+02 -0.99907155385E+02  0.17506654834E+03  0.12500148319E+03 0.  0.
          2    1    1    2  501    0 -0.10373657344E+03  0.11583870164E+02 -0.55721879124E+03  0.56691114297E+03  0.00000000000E+00 0. -1.
          1    1    1    2  502    0  0.49369654373E+02  0.34085856821E+02  0.47700917938E+03  0.48076705962E+03  0.00000000000E+00 0. -1.
         22    1    3    3    0    0  0.65673362304E+02  0.19501311146E+01 -0.21452349153E+01  0.65737322432E+02  0.00000000000E+00 0.  1.
         22    1    3    3    0    0 -0.11306443235E+02 -0.47619858100E+02 -0.97761920470E+02  0.10932922591E+03  0.00000000000E+00 0.  1.
</event>
<event>
 7    1  0.6444902E-006  0.4017080E+02  0.7818608E-02  0.1565985E+00
          2   -1    0    0  502    0  0.00000000000E+00  0.00000000000E+00  0.44206834923E+03  0.44206834923E+03  0.00000000000E+00 0. -1.
          1   -1    0    0  501    0 -0.00000000000E+00 -0.00000000000E+00 -0.55725274585E+03  0.55725274585E+03  0.00000000000E+00 0. -1.
         25    2    1    2    0    0  0.58391707985E+02  0.28814192095E+02 -0.36345764519E+03  0.38982768492E+03  0.12499725939E+03 0.  0.
          2    1    1    2  501    0 -0.19461446971E+02 -0.19148355560E+02 -0.17863271995E+03  0.18070710024E+03  0.00000000000E+00 0. -1.
          1    1    1    2  502    0 -0.38930261014E+02 -0.96658365347E+01  0.42690596852E+03  0.42878630992E+03  0.00000000000E+00 0. -1.
         22    1    3    3    0    0 -0.35945194024E+02  0.23846400489E+02 -0.15637430478E+03  0.16221476808E+03  0.00000000000E+00 0.  1.
         22    1    3    3    0    0  0.94336902009E+02  0.49677916056E+01 -0.20708334041E+03  0.22761291684E+03  0.00000000000E+00 0.  1.
</event>
<event>
 7    1  0.6444902E-006  0.9136547E+02  0.7818608E-02  0.1376805E+00
          2   -1    0    0  502    0  0.00000000000E+00  0.00000000000E+00  0.42840522619E+03  0.42840522619E+03  0.00000000000E+00 0. -1.
          1   -1    0    0  501    0 -0.00000000000E+00 -0.00000000000E+00 -0.21048635394E+04  0.21048635394E+04  0.00000000000E+00 0. -1.
         25    2    1    2    0    0 -0.11421495189E+02  0.54247030036E+02 -0.18093357113E+02  0.13793243550E+03  0.12499918548E+03 0.  0.
          2    1    1    2  501    0 -0.39100482341E+02  0.25510531885E+02 -0.20205290167E+04  0.20210683170E+04  0.00000000000E+00 0. -1.
          1    1    1    2  502    0  0.50521977530E+02 -0.79757561921E+02  0.36216406052E+03  0.37426801310E+03  0.00000000000E+00 0. -1.
         22    1    3    3    0    0  0.33273541918E+01  0.47226232008E+01  0.51182272231E+02  0.51507275667E+02  0.00000000000E+00 0.  1.
         22    1    3    3    0    0 -0.14748849381E+02  0.49524406836E+02 -0.69275629344E+02  0.86425159829E+02  0.00000000000E+00 0.  1.
</event>
<event>
 7    1  0.6444902E-006  0.9603605E+02  0.7818608E-02  0.1373924E+00
          2   -1    0    0  502    0  0.00000000000E+00  0.00000000000E+00  0.94296169445E+02  0.94296169445E+02  0.00000000000E+00 0. -1.
          1   -1    0    0  501    0 -0.00000000000E+00 -0.00000000000E+00 -0.52905631007E+03  0.52905631007E+03  0.00000000000E+00 0. -1.
         25    2    1    2    0    0 -0.20442107027E+02 -0.27280875369E+01 -0.34164653555E+03  0.36437892658E+03  0.12499729869E+03 0.  0.
          2    1    1    2  501    0  0.29319880459E+02  0.98352917965E+02 -0.12129492091E+03  0.15888804140E+03  0.00000000000E+00 0. -1.
          1    1    1    2  502    0 -0.88777734316E+01 -0.95624830428E+02  0.28181315840E+02  0.10008551153E+03  0.00000000000E+00 0. -1.
         22    1    3    3    0    0 -0.58142901729E+01 -0.41530159127E+02 -0.34100968814E+02  0.54050311391E+02  0.00000000000E+00 0. -1.
         22    1    3    3    0    0 -0.14627816855E+02  0.38802071590E+02 -0.30754556674E+03  0.31032861519E+03  0.00000000000E+00 0. -1.
</event>
<event>
 7    1  0.6444902E-006  0.9362363E+02  0.7818608E-02  0.1426389E+00
          2   -1    0    0  502    0  0.00000000000E+00  0.00000000000E+00  0.70188587437E+03  0.70188587437E+03  0.00000000000E+00 0. -1.
          1   -1    0    0  501    0 -0.00000000000E+00 -0.00000000000E+00 -0.67938836672E+02  0.67938836672E+02  0.00000000000E+00 0. -1.
         25    2    1    2    0    0  0.65442093179E+02  0.28448885010E+02  0.17033030564E+03  0.22300028950E+03  0.12499883791E+03 0.  0.
          2    1    1    2  501    0  0.30025099619E+02 -0.68268996852E+01 -0.30360632443E+02  0.43242122621E+02  0.00000000000E+00 0. -1.
          1    1    1    2  502    0 -0.95467192797E+02 -0.21621985325E+02  0.49397736451E+03  0.50358229893E+03  0.00000000000E+00 0. -1.
         22    1    3    3    0    0  0.65488561178E+02  0.36620722645E+02  0.18860483837E+03  0.20298180713E+03  0.00000000000E+00 0. -1.
         22    1    3    3    0    0 -0.46467999346E-01 -0.81718376349E+01 -0.18274532729E+02  0.20018482362E+02  0.00000000000E+00 0. -1.
</event>
<event>
 7    1  0.6444902E-006  0.7917797E+02  0.7818608E-02  0.1349232E+00
          2   -1    0    0  502    0  0.00000000000E+00  0.00000000000E+00  0.26346159917E+04  0.26346159917E+04  0.00000000000E+00 0. -1.
          1   -1    0    0  501    0 -0.00000000000E+00 -0.00000000000E+00 -0.59272378646E+03  0.59272378646E+03  0.00000000000E+00 0. -1.
         25    2    1    2    0    0 -0.44883798434E+02  0.52195652059E+01  0.10646847556E+03  0.17026776131E+03  0.12495509205E+03 0.  0.
          2    1    1    2  501    0  0.10023994384E+02  0.67105837168E+02 -0.55812346750E+03  0.56223258428E+03  0.00000000000E+00 0. -1.
          1    1    1    2  502    0  0.34859804050E+02 -0.72325402374E+02  0.24935471972E+04  0.24948394326E+04  0.00000000000E+00 0. -1.
         22    1    3    3    0    0  0.29275074205E+02 -0.88002796820E+00  0.89194040857E+02  0.93879610903E+02  0.00000000000E+00 0.  1.
         22    1    3    3    0    0 -0.74158872638E+02  0.60995931741E+01  0.17274434700E+02  0.76388150404E+02  0.00000000000E+00 0.  1.
</event>
<event>
 7    1  0.6444902E-006  0.8158147E+02  0.7818608E-02  0.1417046E+00
          2   -1    0    0  502    0  0.00000000000E+00  0.00000000000E+00  0.12239450135E+04  0.12239450135E+04  0.00000000000E+00 0. -1.
          1   -1    0    0  501    0 -0.00000000000E+00 -0.00000000000E+00 -0.10273597979E+04  0.10273597979E+04  0.00000000000E+00 0. -1.
         25    2    1    2    0    0 -0.65405585865E+02 -0.13963301841E+01  0.47952604815E+02  0.14900907783E+03  0.12499765024E+03 0.  0.
          2    1    1    2  501    0  0.72259336683E+02  0.38734848093E+02 -0.97479007845E+03  0.97823182183E+03  0.00000000000E+00 0. -1.
          1    1    1    2  502    0 -0.68537508177E+01 -0.37338517909E+02  0.11234226893E+04  0.11240639117E+04  0.00000000000E+00 0. -1.
         22    1    3    3    0    0 -0.18643435308E+02 -0.54518275351E+02 -0.88083411529E+01  0.58287279068E+02  0.00000000000E+00 0.  1.
         22    1    3    3    0    0 -0.46762150558E+02  0.53121945167E+02  0.56760945968E+02  0.90721798760E+02  0.00000000000E+00 0.  1.
</event>
<event>
 7    1  0.6444902E-006  0.1822022E+03  0.7818608E-02  0.1187942E+00
          2   -1    0    0  502    0  0.00000000000E+00  0.00000000000E+00  0.20186225206E+04  0.20186225206E+04  0.00000000000E+00 0. -1.
          1   -1    0    0  501    0 -0.00000000000E+00 -0.00000000000E+00 -0.28643103080E+04  0.28643103080E+04  0.00000000000E+00 0. -1.
         25    2    1    2    0    0  0.93059556533E+01  0.91923156153E+02  0.50725699013E+03  0.53053832659E+03  0.12499917798E+03 0.  0.
          2    1    1    2  501    0  0.17826169117E+03 -0.37688179597E+02 -0.28433863958E+04  0.28492181077E+04  0.00000000000E+00 0. -1.
          1    1    1    2  502    0 -0.18756764682E+03 -0.54234976556E+02  0.14904416183E+04  0.15031763943E+04  0.00000000000E+00 0. -1.
         22    1    3    3    0    0 -0.27758728677E+00  0.32101222206E+02  0.43525995256E+03  0.43644219758E+03  0.00000000000E+00 0.  1.
         22    1    3    3    0    0  0.95835429400E+01  0.59821933947E+02  0.71997037569E+02  0.94096129013E+02  0.00000000000E+00 0.  1.
</event>
<event>
 7    1  0.6444902E-006  0.8370248E+02  0.7818608E-02  0.1352886E+00
          2   -1    0    0  502    0  0.00000000000E+00  0.00000000000E+00  0.18950016602E+04  0.18950016602E+04  0.00000000000E+00 0. -1.
          1   -1    0    0  501    0 -0.00000000000E+00 -0.00000000000E+00 -0.12353564444E+04  0.12353564444E+04  0.00000000000E+00 0. -1.
         25    2    1    2    0    0 -0.57351484118E+02 -0.13189515367E+03  0.10863260197E+04  0.11029105405E+04  0.12498765888E+03 0.  0.
          2    1    1    2  501    0  0.22044791109E+02  0.80668118720E+02 -0.12244267744E+04  0.12272792037E+04  0.00000000000E+00 0. -1.
          1    1    1    2  502    0  0.35306693009E+02  0.51227034954E+02  0.79774597043E+03  0.80016836042E+03  0.00000000000E+00 0. -1.
         22    1    3    3    0    0 -0.32150778545E+00 -0.12184070461E+03  0.88744770973E+03  0.89577268220E+03  0.00000000000E+00 0. -1.
         22    1    3    3    0    0 -0.57029976333E+02 -0.10054449067E+02  0.19887831001E+03  0.20713785830E+03  0.00000000000E+00 0. -1.
</event>
<event>
 7    1  0.6444902E-006  0.9690051E+03  0.7818608E-02  0.1068556E+00
          2   -1    0    0  502    0  0.00000000000E+00  0.00000000000E+00  0.17553193478E+04  0.17553193478E+04  0.00000000000E+00 0. -1.
          1   -1    0    0  501    0 -0.00000000000E+00 -0.00000000000E+00 -0.10781808143E+04  0.10781808143E+04  0.00000000000E+00 0. -1.
         25    2    1    2    0    0  0.67382993753E+03 -0.76416834079E+03  0.58782073972E+03  0.11828603152E+04  0.12500106177E+03 0.  0.
          2    1    1    2  501    0 -0.69768170573E+03  0.65019984161E+03 -0.48130565560E+03  0.10682578016E+04  0.00000000000E+00 0. -1.
          1    1    1    2  502    0  0.23851768201E+02  0.11396849918E+03  0.57062344937E+03  0.58238204524E+03  0.00000000000E+00 0. -1.
         22    1    3    3    0    0  0.33131736487E+03 -0.39826606806E+03  0.22876831541E+03  0.56632322870E+03  0.00000000000E+00 0.  1.
         22    1    3    3    0    0  0.34251257266E+03 -0.36590227273E+03  0.35905242431E+03  0.61653708649E+03  0.00000000000E+00 0.  1.
</event>
<event>
 7    1  0.6444902E-006  0.2899507E+02  0.7818608E-02  0.1650563E+00
          2   -1    0    0  502    0  0.00000000000E+00  0.00000000000E+00  0.12198491410E+04  0.12198491410E+04  0.00000000000E+00 0. -1.
          1   -1    0    0  501    0 -0.00000000000E+00 -0.00000000000E+00 -0.10690180366E+04  0.10690180366E+04  0.00000000000E+00 0. -1.
         25    2    1    2    0    0 -0.37318283549E+01 -0.51248619443E+02  0.57278963961E+02  0.14679022437E+03  0.12500457080E+03 0.  0.
          2    1    1    2  501    0 -0.14269464075E+01  0.22809927645E+02 -0.10239480412E+04  0.10242030658E+04  0.00000000000E+00 0. -1.
          1    1    1    2  502    0  0.51587747624E+01  0.28438691798E+02  0.11175001817E+04  0.11178738874E+04  0.00000000000E+00 0. -1.
         22    1    3    3    0    0 -0.43205503252E+02  0.22811267380E+02  0.81149439663E+01  0.49526979983E+02  0.00000000000E+00 0. -1.
         22    1    3    3    0    0  0.39473674897E+02 -0.74059886823E+02  0.49164019995E+02  0.97263244384E+02  0.00000000000E+00 0. -1.
</event>
<event>
 7    1  0.6444902E-006  0.5114449E+02  0.7818608E-02  0.1479870E+00
          2   -1    0    0  502    0  0.00000000000E+00  0.00000000000E+00  0.25479000810E+03  0.25479000810E+03  0.00000000000E+00 0. -1.
          1   -1    0    0  501    0 -0.00000000000E+00 -0.00000000000E+00 -0.32648891983E+03  0.32648891983E+03  0.00000000000E+00 0. -1.
         25    2    1    2    0    0 -0.64976285520E+02 -0.38382456934E+02 -0.99702221048E+01  0.14634622786E+03  0.12499072926E+03 0.  0.
          2    1    1    2  501    0  0.37848914976E+02 -0.41100219288E+01 -0.24341887318E+03  0.24637812497E+03  0.00000000000E+00 0. -1.
          1    1    1    2  502    0  0.27127370544E+02  0.42492478863E+02  0.18169018355E+03  0.18855457510E+03  0.00000000000E+00 0. -1.
         22    1    3    3    0    0  0.22223331448E+02 -0.46805926024E+02 -0.24885492293E+02  0.57480073924E+02  0.00000000000E+00 0. -1.
         22    1    3    3    0    0 -0.87199616969E+02  0.84234690901E+01  0.14915270188E+02  0.88866153939E+02  0.00000000000E+00 0. -1.
</event>
<event>
 7    1  0.6444902E-006  0.3245509E+02  0.7818608E-02  0.1588336E+00
          2   -1    0    0  502    0  0.00000000000E+00  0.00000000000E+00  0.16041279362E+03  0.16041279362E+03  0.00000000000E+00 0. -1.
          1   -1    0    0  501    0 -0.00000000000E+00 -0.00000000000E+00 -0.65560801016E+02  0.65560801016E+02  0.00000000000E+00 0. -1.
         25    2    1    2    0    0 -0.81337410398E+01  0.12853448899E+01  0.31280278979E+02  0.12913057045E+03  0.12501375331E+03 0.  0.
          2    1    1    2  501    0  0.35499297395E+02 -0.18734095848E+02  0.29702520253E+02  0.49934018186E+02  0.00000000000E+00 0. -1.
          1    1    1    2  502    0 -0.27365556355E+02  0.17448750959E+02  0.33869193368E+02  0.46909006001E+02  0.00000000000E+00 0. -1.
         22    1    3    3    0    0  0.15125239828E+02  0.26036239507E+01 -0.45959322682E+02  0.48454216317E+02  0.00000000000E+00 0. -1.
         22    1    3    3    0    0 -0.23258980867E+02 -0.13182790608E+01  0.77239601661E+02  0.80676354128E+02  0.00000000000E+00 0. -1.
</event>
<event>
 7    1  0.1273683E-005  0.6406879E+02  0.7818608E-02  0.1397269E+00
          2   -1    0    0  502    0  0.00000000000E+00  0.00000000000E+00  0.28998130528E+04  0.28998130528E+04  0.00000000000E+00 0. -1.
          1   -1    0    0  501    0 -0.00000000000E+00 -0.00000000000E+00 -0.86813610956E+03  0.86813610956E+03  0.00000000000E+00 0. -1.
         25    2    1    2    0    0  0.71742813680E+01 -0.91358274050E+01 -0.15497672538E+03  0.19944357521E+03  0.12500008251E+03 0.  0.
          2    1    1    2  501    0 -0.45702033130E+02  0.50382163943E+02 -0.68897414584E+03  0.69232392124E+03  0.00000000000E+00 0. -1.
          1    1    1    2  502    0  0.38527751762E+02 -0.41246336538E+02  0.28756278145E+04  0.28761816659E+04  0.00000000000E+00 0. -1.
         22    1    3    3    0    0  0.56288470952E+02  0.28588053187E+02 -0.69545565432E+02  0.93926856747E+02  0.00000000000E+00 0. -1.
         22    1    3    3    0    0 -0.49114189584E+02 -0.37723880592E+02 -0.85431159952E+02  0.10551671847E+03  0.00000000000E+00 0. -1.
</event>
<event>
 7    1  0.6444902E-006  0.2237917E+03  0.7818608E-02  0.1225682E+00
          2   -1    0    0  502    0  0.00000000000E+00  0.00000000000E+00  0.22062813761E+03  0.22062813761E+03  0.00000000000E+00 0. -1.
          1   -1    0    0  501    0 -0.00000000000E+00 -0.00000000000E+00 -0.19240391139E+04  0.19240391139E+04  0.00000000000E+00 0. -1.
         25    2    1    2    0    0  0.28541472624E+03  0.66253008858E+02 -0.10525663092E+03  0.33548835358E+03  0.12498979919E+03 0.  0.
          2    1    1    2  501    0 -0.20853460850E+03 -0.68729495560E+02 -0.16814930338E+04  0.16957680411E+04  0.00000000000E+00 0. -1.
          1    1    1    2  502    0 -0.76880117741E+02  0.24764867019E+01  0.83338688342E+02  0.11341085691E+03  0.00000000000E+00 0. -1.
         22    1    3    3    0    0  0.29067381113E+03  0.56206205847E+02 -0.78290576557E+02  0.30623490400E+03  0.00000000000E+00 0. -1.
         22    1    3    3    0    0 -0.52590848899E+01  0.10046803011E+02 -0.26966054362E+02  0.29253449583E+02  0.00000000000E+00 0. -1.
</event>
<event>
 7    1  0.6444902E-006  0.5870113E+02  0.7818608E-02  0.1478076E+00
          2   -1    0    0  502    0  0.00000000000E+00  0.00000000000E+00  0.40482276530E+02  0.40482276530E+02  0.00000000000E+00 0. -1.
          1   -1    0    0  501    0 -0.00000000000E+00 -0.00000000000E+00 -0.46333697878E+03  0.46333697878E+03  0.00000000000E+00 0. -1.
         25    2    1    2    0    0  0.81211354044E+00  0.36735243069E+02 -0.24795585726E+03  0.28010358461E+03  0.12500309337E+03 0.  0.
          2    1    1    2  501    0  0.16378953881E+02 -0.65597363606E+02 -0.17757925639E+03  0.19001493768E+03  0.00000000000E+00 0. -1.
          1    1    1    2  502    0 -0.17191067421E+02  0.28862120537E+02  0.26804113896E+01  0.33700733021E+02  0.00000000000E+00 0. -1.
         22    1    3    3    0    0  0.33783352205E+02  0.70539340762E+02 -0.18916949021E+03  0.20470029191E+03  0.00000000000E+00 0. -1.
         22    1    3    3    0    0 -0.32971238665E+02 -0.33804097693E+02 -0.58786367043E+02  0.75403292700E+02  0.00000000000E+00 0. -1.
</event>
