<event>
 7    1  0.3110367E-005  0.1617498E+03  0.7818608E-02  0.1257962E+00
          2   -1    0    0  502    0  0.00000000000E+00  0.00000000000E+00  0.10171532444E+03  0.10171532444E+03  0.00000000000E+00 0. -1.
          1   -1    0    0  501    0 -0.00000000000E+00 -0.00000000000E+00 -0.19318618252E+04  0.19318618252E+04  0.00000000000E+00 0. -1.
         25    2    1    2    0    0 -0.15358899141E+03 -0.31093623371E+02 -0.80759047684E+03  0.83209590435E+03  0.12499929624E+03 0.  0.
          2    1    1    2  501    0  0.13419378260E+03  0.10535364808E+03 -0.10875851412E+04  0.11008854626E+04  0.00000000000E+00 0. -1.
          1    1    1    2  502    0  0.19395208811E+02 -0.74260024711E+02  0.65029117278E+02  0.10059578266E+03  0.00000000000E+00 0. -1.
         22    1    3    3    0    0 -0.78598317644E+02 -0.59632786195E+02 -0.25002551169E+03  0.26878712994E+03  0.00000000000E+00 0. -1.
         22    1    3    3    0    0 -0.74990673764E+02  0.28539162825E+02 -0.55756496514E+03  0.56330877441E+03  0.00000000000E+00 0. -1.
</event>
<event>
 7    1  0.3110367E-005  0.2475704E+03  0.7818608E-02  0.1175485E+00
          2   -1    0    0  502    0  0.00000000000E+00  0.00000000000E+00  0.45390422280E+03  0.45390422280E+03  0.00000000000E+00 0. -1.
          1   -1    0    0  501    0 -0.00000000000E+00 -0.00000000000E+00 -0.13111388329E+04  0.13111388329E+04  0.00000000000E+00 0. -1.
         25    2    1    2    0    0  0.11613617839E+03  0.72510811794E+02 -0.61194857245E+03  0.63941484575E+03  0.12499943952E+03 0.  0.
          2    1    1    2  501    0  0.11545662996E+03  0.32320908408E+02 -0.64274112009E+03  0.65382797582E+03  0.00000000000E+00 0. -1.
          1    1    1    2  502    0 -0.23159280835E+03 -0.10483172020E+03  0.39745508239E+03  0.47180023417E+03  0.00000000000E+00 0. -1.
         22    1    3    3    0    0  0.47079378152E+02  0.13542020151E+02 -0.49355027115E+02  0.69539721444E+02  0.00000000000E+00 0.  1.
         22    1    3    3    0    0  0.69056800239E+02  0.58968791643E+02 -0.56259354534E+03  0.56987512430E+03  0.00000000000E+00 0.  1.
</event>
<event>
 7    1  0.5431374E-005  0.7608125E+02  0.7818608E-02  0.1363260E+00
          2   -1    0    0  502    0  0.00000000000E+00  0.00000000000E+00  0.15099554734E+04  0.15099554734E+04  0.00000000000E+00 0. -1.
          1   -1    0    0  501    0 -0.00000000000E+00 -0.00000000000E+00 -0.10749127137E+04  0.10749127137E+04  0.00000000000E+00 0. -1.
         25    2    1    2    0    0  0.25171487820E+02  0.13610122115E+03 -0.35579348485E+03  0.40171020316E+03  0.12499974905E+03 0.  0.
          2    1    1    2  501    0 -0.15293520211E+02 -0.60824451338E+02 -0.69377631023E+03  0.69660539352E+03  0.00000000000E+00 0. -1.
          1    1    1    2  502    0 -0.98779676091E+01 -0.75276769812E+02  0.14846125547E+04  0.14865525904E+04  0.00000000000E+00 0. -1.
         22    1    3    3    0    0 -0.30026848845E+02  0.32764604621E+02 -0.25463662639E+02  0.51220397134E+02  0.00000000000E+00 0. -1.
         22    1    3    3    0    0  0.55198336666E+02  0.10333661653E+03 -0.33032982221E+03  0.35048980602E+03  0.00000000000E+00 0. -1.
</event>
<event>
 7    1  0.3110367E-005  0.8702485E+03  0.7818608E-02  0.1191182E+00
          2   -1    0    0  502    0  0.00000000000E+00  0.00000000000E+00  0.28496491252E+04  0.28496491252E+04  0.00000000000E+00 0. -1.
          1   -1    0    0  501    0 -0.00000000000E+00 -0.00000000000E+00 -0.83069199214E+03  0.83069199214E+03  0.00000000000E+00 0. -1.
         25    2    1    2    0    0  0.70243578287E+03 -0.52591296061E+03  0.61229568117E+02  0.88846738951E+03  0.12499908411E+03 0.  0.
          2    1    1    2  501    0 -0.70589761166E+03  0.49750290583E+03  0.30191349851E+02  0.86412504712E+03  0.00000000000E+00 0. -1.
          1    1    1    2  502    0  0.34618287915E+01  0.28410054776E+02  0.19275362151E+04  0.19277486807E+04  0.00000000000E+00 0. -1.
         22    1    3    3    0    0  0.61623807724E+03 -0.50051924677E+03  0.75516812396E+02  0.79747832145E+03  0.00000000000E+00 0.  1.
         22    1    3    3    0    0  0.86197705628E+02 -0.25393713839E+02 -0.14287244279E+02  0.90989068064E+02  0.00000000000E+00 0.  1.
</event>
<event>
 7    1  0.3110367E-005  0.5973315E+03  0.7818608E-02  0.1044774E+00
          2   -1    0    0  502    0  0.00000000000E+00  0.00000000000E+00  0.13006412271E+04  0.13006412271E+04  0.00000000000E+00 0. -1.
          1   -1    0    0  501    0 -0.00000000000E+00 -0.00000000000E+00 -0.18900220845E+04  0.18900220845E+04  0.00000000000E+00 0. -1.
         25    2    1    2    0    0  0.43960232481E+03  0.32187623042E+03 -0.56083132514E+03  0.79183913259E+03  0.12499169956E+03 0.  0.
          2    1    1    2  501    0 -0.33835844974E+03 -0.56573965872E+03 -0.11070609050E+04  0.12884609615E+04  0.00000000000E+00 0. -1.
          1    1    1    2  502    0 -0.10124387507E+03  0.24386342830E+03  0.10785113727E+04  0.11103632176E+04  0.00000000000E+00 0. -1.
         22    1    3    3    0    0  0.22421815765E+03  0.21691941892E+03 -0.25245931226E+03  0.40132719926E+03  0.00000000000E+00 0. -1.
         22    1    3    3    0    0  0.21538416716E+03  0.10495681151E+03 -0.30837201288E+03  0.39051193333E+03  0.00000000000E+00 0. -1.
</event>
<event>
 7    1  0.3629381E-005  0.1193537E+03  0.7818608E-02  0.1267400E+00
          2   -1    0    0  502    0  0.00000000000E+00  0.00000000000E+00  0.10429471516E+04  0.10429471516E+04  0.00000000000E+00 0. -1.
          1   -1    0    0  501    0 -0.00000000000E+00 -0.00000000000E+00 -0.24355439681E+04  0.24355439681E+04  0.00000000000E+00 0. -1.
         25    2    1    2    0    0 -0.39433969828E+02 -0.13531964986E+03 -0.22440406923E+03  0.29299230703E+03  0.12498343923E+03 0.  0.
          2    1    1    2  501    0 -0.51485923052E+02  0.10833861889E+03 -0.21729587136E+04  0.21762669017E+04  0.00000000000E+00 0. -1.
          1    1    1    2  502    0  0.90919892879E+02  0.26981030969E+02  0.10047659664E+04  0.10092319110E+04  0.00000000000E+00 0. -1.
         22    1    3    3    0    0  0.91945678673E+01  0.93636220585E+01 -0.85854462064E+02  0.86851632987E+02  0.00000000000E+00 0. -1.
         22    1    3    3    0    0 -0.48628537695E+02 -0.14468327192E+03 -0.13854960716E+03  0.20614067405E+03  0.00000000000E+00 0. -1.
</event>
<event>
 7    1  0.3110367E-005  0.1601571E+03  0.7818608E-02  0.1203115E+00
          2   -1    0    0  502    0  0.00000000000E+00  0.00000000000E+00  0.23796753305E+04  0.23796753305E+04  0.00000000000E+00 0. -1.
          1   -1    0    0  501    0 -0.00000000000E+00 -0.00000000000E+00 -0.32384020895E+03  0.32384020895E+03  0.00000000000E+00 0. -1.
         25    2    1    2    0    0  0.15523288395E+03 -0.22776135728E+02  0.15227313286E+03  0.25184908886E+03  0.12499942380E+03 0.  0.
          2    1    1    2  501    0 -0.70159666054E+02 -0.11711864536E+03 -0.25375208771E+03  0.28814801379E+03  0.00000000000E+00 0. -1.
          1    1    1    2  502    0 -0.85073217894E+02  0.13989478109E+03  0.21573140764E+04  0.21635184368E+04  0.00000000000E+00 0. -1.
         22    1    3    3    0    0  0.16816470663E+03 -0.30330783165E+02  0.10113707416E+03  0.19856493329E+03  0.00000000000E+00 0. -1.
         22    1    3    3    0    0 -0.12931822678E+02  0.75546474364E+01  0.51136058702E+02  0.53284155574E+02  0.00000000000E+00 0. -1.
</event>
<event>
 7    1  0.3110367E-005  0.2305931E+03  0.7818608E-02  0.1162084E+00
          2   -1    0    0  502    0  0.00000000000E+00  0.00000000000E+00  0.23225070093E+04  0.23225070093E+04  0.00000000000E+00 0. -1.
          1   -1    0    0  501    0 -0.00000000000E+00 -0.00000000000E+00 -0.13282296437E+04  0.13282296437E+04  0.00000000000E+00 0. -1.
         25    2    1    2    0    0  0.20847365128E+03 -0.20870991305E+03  0.35860385221E+03  0.48087806602E+03  0.12500360186E+03 0.  0.
          2    1    1    2  501    0 -0.14969829752E+03 -0.10852715260E+02 -0.12558200795E+04  0.12647574605E+04  0.00000000000E+00 0. -1.
          1    1    1    2  502    0 -0.58775353763E+02  0.21956262831E+03  0.18914935929E+04  0.19051011265E+04  0.00000000000E+00 0. -1.
         22    1    3    3    0    0  0.59050279494E+02 -0.67557223415E+02  0.32566937265E+02  0.95454278829E+02  0.00000000000E+00 0.  1.
         22    1    3    3    0    0  0.14942337179E+03 -0.14115268963E+03  0.32603691494E+03  0.38542378719E+03  0.00000000000E+00 0.  1.
</event>
<event>
 7    1  0.3110367E-005  0.1252640E+03  0.7818608E-02  0.1282433E+00
          2   -1    0    0  502    0  0.00000000000E+00  0.00000000000E+00  0.19950045216E+03  0.19950045216E+03  0.00000000000E+00 0. -1.
          1   -1    0    0  501    0 -0.00000000000E+00 -0.00000000000E+00 -0.37373670705E+03  0.37373670705E+03  0.00000000000E+00 0. -1.
         25    2    1    2    0    0 -0.10833895156E+03  0.52546645537E+02 -0.19726785645E+02  0.17468382898E+03  0.12500726240E+03 0.  0.
          2    1    1    2  501    0  0.12832347622E+03  0.23085875863E+02 -0.24585483861E+03  0.27828847242E+03  0.00000000000E+00 0. -1.
          1    1    1    2  502    0 -0.19984524653E+02 -0.75632521400E+02  0.91345369370E+02  0.12026485781E+03  0.00000000000E+00 0. -1.
         22    1    3    3    0    0 -0.24778294283E+02  0.76539841232E+02  0.13572734350E+02  0.81587562050E+02  0.00000000000E+00 0. -1.
         22    1    3    3    0    0 -0.83560657281E+02 -0.23993195695E+02 -0.33299519994E+02  0.93096266932E+02  0.00000000000E+00 0. -1.
</event>
<event>
 7    1  0.3110367E-005  0.8830729E+02  0.7818608E-02  0.1373324E+00
          2   -1    0    0  502    0  0.00000000000E+00  0.00000000000E+00  0.70639719100E+03  0.70639719100E+03  0.00000000000E+00 0. -1.
          1   -1    0    0  501    0 -0.00000000000E+00 -0.00000000000E+00 -0.14253376571E+04  0.14253376571E+04  0.00000000000E+00 0. -1.
         25    2    1    2    0    0  0.43089433572E+02  0.32623345594E+01  0.18779391955E+02  0.13358605533E+03  0.12500090601E+03 0.  0.
          2    1    1    2  501    0 -0.82834217491E+02 -0.33110189818E+02 -0.13654966267E+04  0.13684074064E+04  0.00000000000E+00 0. -1.
          1    1    1    2  502    0  0.39744783919E+02  0.29847855258E+02  0.62777676872E+03  0.62974138633E+03  0.00000000000E+00 0. -1.
         22    1    3    3    0    0  0.46719255219E+02  0.12799264078E+02  0.67904774517E+02  0.83412039727E+02  0.00000000000E+00 0.  1.
         22    1    3    3    0    0 -0.36298216463E+01 -0.95369295191E+01 -0.49125382562E+02  0.50174015602E+02  0.00000000000E+00 0.  1.
</event>
<event>
 7    1  0.3110367E-005  0.1918417E+03  0.7818608E-02  0.1200597E+00
          2   -1    0    0  502    0  0.00000000000E+00  0.00000000000E+00  0.22640132431E+04  0.22640132431E+04  0.00000000000E+00 0. -1.
          1   -1    0    0  501    0 -0.00000000000E+00 -0.00000000000E+00 -0.25040441781E+03  0.25040441781E+03  0.00000000000E+00 0. -1.
         25    2    1    2    0    0 -0.18534506278E+03 -0.81196281877E+02  0.21661450265E+04  0.21791636133E+04  0.12499659673E+03 0.  0.
          2    1    1    2  501    0  0.11513557579E+03 -0.21504657422E+02 -0.17325818041E+03  0.20913404357E+03  0.00000000000E+00 0. -1.
          1    1    1    2  502    0  0.70209486999E+02  0.10270093930E+03  0.20721979198E+02  0.12612000404E+03  0.00000000000E+00 0. -1.
         22    1    3    3    0    0 -0.10242857893E+03  0.17413138750E+02  0.74856677727E+03  0.75574271496E+03  0.00000000000E+00 0.  1.
         22    1    3    3    0    0 -0.82916483859E+02 -0.98609420627E+02  0.14175782493E+04  0.14234208984E+04  0.00000000000E+00 0.  1.
</event>
<event>
 7    1  0.3110367E-005  0.1733687E+03  0.7818608E-02  0.1182437E+00
          2   -1    0    0  502    0  0.00000000000E+00  0.00000000000E+00  0.28273618643E+04  0.28273618643E+04  0.00000000000E+00 0. -1.
          1   -1    0    0  501    0 -0.00000000000E+00 -0.00000000000E+00 -0.82532000892E+03  0.82532000892E+03  0.00000000000E+00 0. -1.
         25    2    1    2    0    0 -0.10367773295E+03  0.17656614458E+03 -0.52632039333E+02  0.24560013095E+03  0.12499846814E+03 0.  0.
          2    1    1    2  501    0  0.15792270972E+03 -0.11182071598E+02 -0.66411616235E+03  0.68272607835E+03  0.00000000000E+00 0. -1.
          1    1    1    2  502    0 -0.54244976770E+02 -0.16538407298E+03  0.27187900571E+04  0.27243556639E+04  0.00000000000E+00 0. -1.
         22    1    3    3    0    0 -0.85681213790E+02  0.17271088724E+03 -0.31670427777E+01  0.19282207116E+03  0.00000000000E+00 0.  1.
         22    1    3    3    0    0 -0.17996519163E+02  0.38552573428E+01 -0.49464996556E+02  0.52778059792E+02  0.00000000000E+00 0.  1.
</event>
<event>
 7    1  0.3110367E-005  0.2404690E+03  0.7818608E-02  0.1256765E+00
          2   -1    0    0  502    0  0.00000000000E+00  0.00000000000E+00  0.82529785319E+03  0.82529785319E+03  0.00000000000E+00 0. -1.
          1   -1    0    0  501    0 -0.00000000000E+00 -0.00000000000E+00 -0.21994536428E+04  0.21994536428E+04  0.00000000000E+00 0. -1.
         25    2    1    2    0    0 -0.22738241826E+03  0.18337782288E+03  0.78420697584E+03  0.84613043114E+03  0.12500374187E+03 0.  0.
          2    1    1    2  501    0  0.18481286385E+03 -0.15309861722E+03 -0.18942007194E+04  0.19093431715E+04  0.00000000000E+00 0. -1.
          1    1    1    2  502    0  0.42569554409E+02 -0.30279205665E+02 -0.26416204607E+03  0.26927789334E+03  0.00000000000E+00 0. -1.
         22    1    3    3    0    0 -0.19232235084E+03  0.80578919081E+02  0.53987402820E+03  0.57874417073E+03  0.00000000000E+00 0. -1.
         22    1    3    3    0    0 -0.35060067417E+02  0.10279890380E+03  0.24433294764E+03  0.26738626040E+03  0.00000000000E+00 0. -1.
</event>
<event>
 7    1  0.3110367E-005  0.1328167E+03  0.7818608E-02  0.1301419E+00
          2   -1    0    0  502    0  0.00000000000E+00  0.00000000000E+00  0.75647787824E+02  0.75647787824E+02  0.00000000000E+00 0. -1.
          1   -1    0    0  501    0 -0.00000000000E+00 -0.00000000000E+00 -0.55560200058E+03  0.55560200058E+03  0.00000000000E+00 0. -1.
         25    2    1    2    0    0 -0.79855397316E+02 -0.46815751375E+02 -0.24220634636E+03  0.28784841788E+03  0.12499679356E+03 0.  0.
          2    1    1    2  501    0 -0.61076056241E+02 -0.93938747970E+01 -0.16288003464E+03  0.17420802282E+03  0.00000000000E+00 0. -1.
          1    1    1    2  502    0  0.14093145356E+03  0.56209626172E+02 -0.74867831748E+02  0.16919334770E+03  0.00000000000E+00 0. -1.
         22    1    3    3    0    0 -0.43544695223E+01 -0.61877013378E+02 -0.17494582209E+03  0.18561725905E+03  0.00000000000E+00 0.  1.
         22    1    3    3    0    0 -0.75500927794E+02  0.15061262003E+02 -0.67260524271E+02  0.10223115883E+03  0.00000000000E+00 0.  1.
</event>
<event>
 7    1  0.3110367E-005  0.2427386E+03  0.7818608E-02  0.1216205E+00
          2   -1    0    0  502    0  0.00000000000E+00  0.00000000000E+00  0.97995748554E+03  0.97995748554E+03  0.00000000000E+00 0. -1.
          1   -1    0    0  501    0 -0.00000000000E+00 -0.00000000000E+00 -0.19376556532E+04  0.19376556532E+04  0.00000000000E+00 0. -1.
         25    2    1    2    0    0 -0.16224435221E+03  0.20059445743E+03  0.29270348531E+03  0.40970960830E+03  0.12500106658E+03 0.  0.
          2    1    1    2  501    0  0.20264375759E+03 -0.13349496759E+03 -0.18688382865E+04  0.18845269804E+04  0.00000000000E+00 0. -1.
          1    1    1    2  502    0 -0.40399405376E+02 -0.67099489836E+02  0.61843663350E+03  0.62337655005E+03  0.00000000000E+00 0. -1.
         22    1    3    3    0    0 -0.15380431174E+03  0.11442513363E+03  0.24424116507E+03  0.31048771994E+03  0.00000000000E+00 0.  1.
         22    1    3    3    0    0 -0.84400404701E+01  0.86169323802E+02  0.48462320235E+02  0.99221888363E+02  0.00000000000E+00 0.  1.
</event>
<event>
 7    1  0.3110367E-005  0.9034256E+02  0.7818608E-02  0.1484607E+00
          2   -1    0    0  502    0  0.00000000000E+00  0.00000000000E+00  0.11241646335E+03  0.11241646335E+03  0.00000000000E+00 0. -1.
          1   -1    0    0  501    0 -0.00000000000E+00 -0.00000000000E+00 -0.18765147516E+03  0.18765147516E+03  0.00000000000E+00 0. -1.
         25    2    1    2    0    0 -0.69173976293E+02  0.25609244653E+02  0.11537725283E+02  0.14559493592E+03  0.12499557533E+03 0.  0.
          2    1    1    2  501    0  0.89364342271E+02 -0.30795412217E+02 -0.93115877919E+02  0.13268349484E+03  0.00000000000E+00 0. -1.
          1    1    1    2  502    0 -0.20190365978E+02  0.51861675641E+01  0.63431408283E+01  0.21789507748E+02  0.00000000000E+00 0. -1.
         22    1    3    3    0    0 -0.87397899603E+02  0.16109925057E+01 -0.31621996934E+02  0.92956650337E+02  0.00000000000E+00 0. -1.
         22    1    3    3    0    0  0.18223923310E+02  0.23998252147E+02  0.43159722217E+02  0.52638285580E+02  0.00000000000E+00 0. -1.
</event>
<event>
 7    1  0.3110367E-005  0.6202335E+02  0.7818608E-02  0.1421801E+00
          2   -1    0    0  502    0  0.00000000000E+00  0.00000000000E+00  0.14741107200E+03  0.14741107200E+03  0.00000000000E+00 0. -1.
          1   -1    0    0  501    0 -0.00000000000E+00 -0.00000000000E+00 -0.16994567766E+04  0.16994567766E+04  0.00000000000E+00 0. -1.
         25    2    1    2    0    0 -0.36269007667E+02 -0.34848501346E+02 -0.32661947148E+03  0.35331995689E+03  0.12499941528E+03 0.  0.
          2    1    1    2  501    0 -0.23841219909E+01  0.63540635225E+02 -0.13543956393E+04  0.13558874010E+04  0.00000000000E+00 0. -1.
          1    1    1    2  502    0  0.38653129658E+02 -0.28692133879E+02  0.12896940618E+03  0.13766049073E+03  0.00000000000E+00 0. -1.
         22    1    3    3    0    0 -0.18092985204E+02 -0.33239137088E+02 -0.14281522255E+02  0.40449452727E+02  0.00000000000E+00 0.  1.
         22    1    3    3    0    0 -0.18176022463E+02 -0.16093642577E+01 -0.31233794923E+03  0.31287050416E+03  0.00000000000E+00 0.  1.
</event>
<event>
 7    1  0.3110367E-005  0.4443064E+03  0.7818608E-02  0.1151109E+00
          2   -1    0    0  502    0  0.00000000000E+00  0.00000000000E+00  0.16516766815E+03  0.16516766815E+03  0.00000000000E+00 0. -1.
          1   -1    0    0  501    0 -0.00000000000E+00 -0.00000000000E+00 -0.16750622301E+04  0.16750622301E+04  0.00000000000E+00 0. -1.
         25    2    1    2    0    0  0.45493582485E+03  0.15920216790E+03 -0.59887589188E+03  0.77883812238E+03  0.12499820799E+03 0.  0.
          2    1    1    2  501    0 -0.37585012289E+03 -0.19910042738E+03 -0.85934318163E+03  0.95884044495E+03  0.00000000000E+00 0. -1.
          1    1    1    2  502    0 -0.79085701958E+02  0.39898259480E+02 -0.51675488405E+02  0.10255133088E+03  0.00000000000E+00 0. -1.
         22    1    3    3    0    0  0.13621788804E+03  0.73647599501E+02 -0.11387670506E+03  0.19221650785E+03  0.00000000000E+00 0. -1.
         22    1    3    3    0    0  0.31871793681E+03  0.85554568401E+02 -0.48499918682E+03  0.58662161453E+03  0.00000000000E+00 0. -1.
</event>
<event>
 7    1  0.3110367E-005  0.1920783E+03  0.7818608E-02  0.1339656E+00
          2   -1    0    0  502    0  0.00000000000E+00  0.00000000000E+00  0.40369996225E+03  0.40369996225E+03  0.00000000000E+00 0. -1.
          1   -1    0    0  501    0 -0.00000000000E+00 -0.00000000000E+00 -0.13793478300E+04  0.13793478300E+04  0.00000000000E+00 0. -1.
         25    2    1    2    0    0 -0.15463395819E+03 -0.14576416693E+03  0.31699502781E+02  0.24857257565E+03  0.12499845401E+03 0.  0.
          2    1    1    2  501    0  0.12426904043E+03  0.14516328181E+03 -0.12628238846E+04  0.12771998028E+04  0.00000000000E+00 0. -1.
          1    1    1    2  502    0  0.30364917756E+02  0.60088511830E+00  0.25547651408E+03  0.25727541378E+03  0.00000000000E+00 0. -1.
         22    1    3    3    0    0 -0.16066481019E+03 -0.13250214702E+03 -0.58073140427E+01  0.20833560688E+03  0.00000000000E+00 0.  1.
         22    1    3    3    0    0  0.60308520021E+01 -0.13262019912E+02  0.37506816823E+02  0.40236968775E+02  0.00000000000E+00 0.  1.
</event>
<event>
 7    1  0.3110367E-005  0.9464780E+02  0.7818608E-02  0.1430318E+00
          2   -1    0    0  502    0  0.00000000000E+00  0.00000000000E+00  0.19715905905E+03  0.19715905905E+03  0.00000000000E+00 0. -1.
          1   -1    0    0  501    0 -0.00000000000E+00 -0.00000000000E+00 -0.17009487288E+03  0.17009487288E+03  0.00000000000E+00 0. -1.
         25    2    1    2    0    0 -0.11614857735E+03 -0.14240764523E+02 -0.14416275265E+02  0.17183102984E+03  0.12499912971E+03 0.  0.
          2    1    1    2  501    0  0.25643599781E+02  0.14708210127E+02 -0.55430934689E+02  0.62821287597E+02  0.00000000000E+00 0. -1.
          1    1    1    2  502    0  0.90504977565E+02 -0.46744560446E+00  0.96911396120E+02  0.13260161450E+03  0.00000000000E+00 0. -1.
         22    1    3    3    0    0 -0.51025565671E+02  0.36160082204E+02  0.38973997563E+02  0.73689431964E+02  0.00000000000E+00 0. -1.
         22    1    3    3    0    0 -0.65123011674E+02 -0.50400846727E+02 -0.53390272828E+02  0.98141597872E+02  0.00000000000E+00 0. -1.
</event>
<event>
 7    1  0.3110367E-005  0.1585191E+03  0.7818608E-02  0.1235276E+00
          2   -1    0    0  502    0  0.00000000000E+00  0.00000000000E+00  0.25089660932E+04  0.25089660932E+04  0.00000000000E+00 0. -1.
          1   -1    0    0  501    0 -0.00000000000E+00 -0.00000000000E+00 -0.11046225121E+03  0.11046225121E+03  0.00000000000E+00 0. -1.
         25    2    1    2    0    0 -0.40762100914E+02 -0.66281696292E+02  0.39962664593E+03  0.42588884698E+03  0.12500016685E+03 0.  0.
          2    1    1    2  501    0  0.64628703104E+02  0.16170194492E+03 -0.17271073547E+02  0.17499336626E+03  0.00000000000E+00 0. -1.
          1    1    1    2  502    0 -0.23866602190E+02 -0.95420248626E+02  0.20161482696E+04  0.20185461312E+04  0.00000000000E+00 0. -1.
         22    1    3    3    0    0 -0.54285789510E+01  0.37223311816E+02  0.11352597074E+03  0.11959594660E+03  0.00000000000E+00 0.  1.
         22    1    3    3    0    0 -0.35333521963E+02 -0.10350500811E+03  0.28610067519E+03  0.30629290038E+03  0.00000000000E+00 0.  1.
</event>
<event>
 7    1  0.3110367E-005  0.3038873E+03  0.7818608E-02  0.1111423E+00
          2   -1    0    0  502    0  0.00000000000E+00  0.00000000000E+00  0.17865322001E+04  0.17865322001E+04  0.00000000000E+00 0. -1.
          1   -1    0    0  501    0 -0.00000000000E+00 -0.00000000000E+00 -0.61835994701E+03  0.61835994701E+03  0.00000000000E+00 0. -1.
         25    2    1    2    0    0 -0.29148022475E+03 -0.31859607752E+03  0.11960296226E+04  0.12777227278E+04  0.12499731530E+03 0.  0.
          2    1    1    2  501    0  0.16911899495E+03  0.12556341171E+03 -0.53279301854E+03  0.57291867260E+03  0.00000000000E+00 0. -1.
          1    1    1    2  502    0  0.12236122981E+03  0.19303266581E+03  0.50493564899E+03  0.55425074673E+03  0.00000000000E+00 0. -1.
         22    1    3    3    0    0 -0.19046637582E+03 -0.14389060580E+03  0.77307625612E+03  0.80909136970E+03  0.00000000000E+00 0. -1.
         22    1    3    3    0    0 -0.10101384893E+03 -0.17470547172E+03  0.42295336653E+03  0.46863135809E+03  0.00000000000E+00 0. -1.
</event>
<event>
 7    1  0.3110367E-005  0.2405050E+03  0.7818608E-02  0.1214676E+00
          2   -1    0    0  502    0  0.00000000000E+00  0.00000000000E+00  0.24858553444E+03  0.24858553444E+03  0.00000000000E+00 0. -1.
          1   -1    0    0  501    0 -0.00000000000E+00 -0.00000000000E+00 -0.18264008793E+04  0.18264008793E+04  0.00000000000E+00 0. -1.
         25    2    1    2    0    0 -0.52240417950E+02 -0.22957636449E+03  0.32227852489E+02  0.26851027924E+03  0.12499906872E+03 0.  0.
          2    1    1    2  501    0 -0.79548749005E+02  0.11245243572E+02 -0.15398837653E+04  0.15419781028E+04  0.00000000000E+00 0. -1.
          1    1    1    2  502    0  0.13178916695E+03  0.21833112092E+03 -0.70159432130E+02  0.26449803176E+03  0.00000000000E+00 0. -1.
         22    1    3    3    0    0 -0.20520285080E+01 -0.20619906990E+03  0.46387710886E+02  0.21136245402E+03  0.00000000000E+00 0. -1.
         22    1    3    3    0    0 -0.50188389442E+02 -0.23377294587E+02 -0.14159858397E+02  0.57147825215E+02  0.00000000000E+00 0. -1.
</event>
<event>
 7    1  0.3110367E-005  0.1401426E+03  0.7818608E-02  0.1282382E+00
          2   -1    0    0  502    0  0.00000000000E+00  0.00000000000E+00  0.56050989958E+03  0.56050989958E+03  0.00000000000E+00 0. -1.
          1   -1    0    0  501    0 -0.00000000000E+00 -0.00000000000E+00 -0.88425120788E+03  0.88425120788E+03  0.00000000000E+00 0. -1.
         25    2    1    2    0    0  0.14866252238E+03 -0.14441416203E+03 -0.19309628668E+03  0.30963125826E+03  0.12501737642E+03 0.  0.
          2    1    1    2  501    0 -0.46233858598E+02  0.52501234768E+02 -0.62146039279E+03  0.62538545645E+03  0.00000000000E+00 0. -1.
          1    1    1    2  502    0 -0.10242866378E+03  0.91912927260E+02  0.49081537117E+03  0.50974439275E+03  0.00000000000E+00 0. -1.
         22    1    3    3    0    0 -0.15196100957E+02 -0.47882098216E+02 -0.55734417069E+02  0.75032939832E+02  0.00000000000E+00 0. -1.
         22    1    3    3    0    0  0.16385862333E+03 -0.96532063812E+02 -0.13736186961E+03  0.23459831842E+03  0.00000000000E+00 0. -1.
</event>
<event>
 7    1  0.3110367E-005  0.8667011E+02  0.7818608E-02  0.1337614E+00
          2   -1    0    0  502    0  0.00000000000E+00  0.00000000000E+00  0.13114757437E+04  0.13114757437E+04  0.00000000000E+00 0. -1.
          1   -1    0    0  501    0 -0.00000000000E+00 -0.00000000000E+00 -0.23414000210E+02  0.23414000210E+02  0.00000000000E+00 0. -1.
         25    2    1    2    0    0 -0.61901024702E+01 -0.74554315139E+02  0.88663567261E+03  0.89852356506E+03  0.12500047095E+03 0.  0.
          2    1    1    2  501    0 -0.62097232313E+02  0.69014391066E+02  0.15579273177E+03  0.18135718267E+03  0.00000000000E+00 0. -1.
          1    1    1    2  502    0  0.68287334783E+02  0.55399240730E+01  0.24563333908E+03  0.25500899615E+03  0.00000000000E+00 0. -1.
         22    1    3    3    0    0 -0.18806215664E+00 -0.10335124479E+03  0.80769251539E+03  0.81427803273E+03  0.00000000000E+00 0. -1.
         22    1    3    3    0    0 -0.60020403136E+01  0.28796929648E+02  0.78943157227E+02  0.84245532333E+02  0.00000000000E+00 0. -1.
</event>
<event>
 7    1  0.3110367E-005  0.1504000E+03  0.7818608E-02  0.1255710E+00
          2   -1    0    0  502    0  0.00000000000E+00  0.00000000000E+00  0.12715631613E+04  0.12715631613E+04  0.00000000000E+00 0. -1.
          1   -1    0    0  501    0 -0.00000000000E+00 -0.00000000000E+00 -0.17295705861E+03  0.17295705861E+03  0.00000000000E+00 0. -1.
         25    2    1    2    0    0  0.15274453497E+01  0.20127670653E+03  0.13302807931E+03  0.27172098088E+03  0.12498470261E+03 0.  0.
          2    1    1    2  501    0  0.54256098246E+02 -0.64650161569E+02 -0.80338276466E+02  0.11652298594E+03  0.00000000000E+00 0. -1.
          1    1    1    2  502    0 -0.55783543596E+02 -0.13662654496E+03  0.10459162998E+04  0.10562762531E+04  0.00000000000E+00 0. -1.
         22    1    3    3    0    0  0.46772172296E+02  0.18165251443E+03  0.10341701130E+03  0.21419698954E+03  0.00000000000E+00 0. -1.
         22    1    3    3    0    0 -0.45244726946E+02  0.19624192098E+02  0.29611068004E+02  0.57523991346E+02  0.00000000000E+00 0. -1.
</event>
<event>
 7    1  0.3110367E-005  0.3904213E+02  0.7818608E-02  0.1525496E+00
          2   -1    0    0  502    0  0.00000000000E+00  0.00000000000E+00  0.77152809100E+03  0.77152809100E+03  0.00000000000E+00 0. -1.
          1   -1    0    0  501    0 -0.00000000000E+00 -0.00000000000E+00 -0.80165960610E+02  0.80165960610E+02  0.00000000000E+00 0. -1.
         25    2    1    2    0    0  0.12780286860E+02 -0.28483553823E+02  0.15051470436E+03  0.19812329199E+03  0.12499405598E+03 0.  0.
          2    1    1    2  501    0 -0.39797201639E+02  0.39554736583E+01 -0.48631120967E+02  0.62963870248E+02  0.00000000000E+00 0. -1.
          1    1    1    2  502    0  0.27016914779E+02  0.24528080165E+02  0.58947854699E+03  0.59060688937E+03  0.00000000000E+00 0. -1.
         22    1    3    3    0    0  0.53882568724E+02  0.19715809338E+02  0.10655032469E+03  0.12101659408E+03  0.00000000000E+00 0. -1.
         22    1    3    3    0    0 -0.41102281864E+02 -0.48199363161E+02  0.43964379666E+02  0.77106697912E+02  0.00000000000E+00 0. -1.
</event>
<event>
 7    1  0.3110367E-005  0.6448523E+02  0.7818608E-02  0.1422235E+00
          2   -1    0    0  502    0  0.00000000000E+00  0.00000000000E+00  0.14884808169E+04  0.14884808169E+04  0.00000000000E+00 0. -1.
          1   -1    0    0  501    0 -0.00000000000E+00 -0.00000000000E+00 -0.28934639270E+03  0.28934639270E+03  0.00000000000E+00 0. -1.
         25    2    1    2    0    0 -0.67364065851E+01 -0.39526877386E+02 -0.79176723070E+02  0.15330193958E+03  0.12499911197E+03 0.  0.
          2    1    1    2  501    0 -0.33346397940E+02  0.62394015023E+02 -0.16549481395E+03  0.17998202358E+03  0.00000000000E+00 0. -1.
          1    1    1    2  502    0  0.40082804525E+02 -0.22867137636E+02  0.14438059612E+04  0.14445432465E+04  0.00000000000E+00 0. -1.
         22    1    3    3    0    0  0.25066839487E+02  0.73471582650E+01  0.24080940742E+02  0.35527719930E+02  0.00000000000E+00 0.  1.
         22    1    3    3    0    0 -0.31803246072E+02 -0.46874035651E+02 -0.10325766381E+03  0.11777421965E+03  0.00000000000E+00 0.  1.
</event>
<event>
 7    1  0.3110367E-005  0.2378984E+03  0.7818608E-02  0.1165938E+00
          2   -1    0    0  502    0  0.00000000000E+00  0.00000000000E+00  0.60487776781E+03  0.60487776781E+03  0.00000000000E+00 0. -1.
          1   -1    0    0  501    0 -0.00000000000E+00 -0.00000000000E+00 -0.35449438119E+04  0.35449438119E+04  0.00000000000E+00 0. -1.
         25    2    1    2    0    0 -0.33237295119E+02  0.31428412520E+02 -0.84369661325E+03  0.85413102483E+03  0.12499347772E+03 0.  0.
          2    1    1    2  501    0  0.56111827956E+02 -0.26822458470E+03 -0.26651298998E+04  0.26791809099E+04  0.00000000000E+00 0. -1.
          1    1    1    2  502    0 -0.22874532838E+02  0.23679617218E+03  0.56876046892E+03  0.61650964503E+03  0.00000000000E+00 0. -1.
         22    1    3    3    0    0 -0.80472268185E+02  0.22211347713E+02 -0.47113737175E+03  0.47847628256E+03  0.00000000000E+00 0. -1.
         22    1    3    3    0    0  0.47234973066E+02  0.92170648068E+01 -0.37255924150E+03  0.37565474227E+03  0.00000000000E+00 0. -1.
</event>
<event>
 7    1  0.3110367E-005  0.6328220E+02  0.7818608E-02  0.1436324E+00
          2   -1    0    0  502    0  0.00000000000E+00  0.00000000000E+00  0.42141156131E+03  0.42141156131E+03  0.00000000000E+00 0. -1.
          1   -1    0    0  501    0 -0.00000000000E+00 -0.00000000000E+00 -0.22410504354E+03  0.22410504354E+03  0.00000000000E+00 0. -1.
         25    2    1    2    0    0 -0.16437845909E+02 -0.16625360131E+02 -0.83924689570E+02  0.15236479874E+03  0.12500029199E+03 0.  0.
          2    1    1    2  501    0 -0.14242379210E+02 -0.39783382795E+02 -0.98945334876E+02  0.10759062322E+03  0.00000000000E+00 0. -1.
          1    1    1    2  502    0  0.30680225119E+02  0.56408742926E+02  0.38017654222E+03  0.38556118289E+03  0.00000000000E+00 0. -1.
         22    1    3    3    0    0 -0.53330687282E+02  0.33420283739E+02 -0.55854944232E+02  0.84147800722E+02  0.00000000000E+00 0. -1.
         22    1    3    3    0    0  0.36892841373E+02 -0.50045643870E+02 -0.28069745338E+02  0.68216998016E+02  0.00000000000E+00 0. -1.
</event>
<event>
 7    1  0.3110367E-005  0.4467160E+03  0.7818608E-02  0.1172041E+00
          2   -1    0    0  502    0  0.00000000000E+00  0.00000000000E+00  0.28200372370E+03  0.28200372370E+03  0.00000000000E+00 0. -1.
          1   -1    0    0  501    0 -0.00000000000E+00 -0.00000000000E+00 -0.27107836506E+04  0.27107836506E+04  0.00000000000E+00 0. -1.
         25    2    1    2    0    0 -0.46338610294E+03 -0.21063894789E+03 -0.19266082179E+04  0.19966324366E+04  0.12500565950E+03 0.  0.
          2    1    1    2  501    0  0.65740030315E+02  0.21275869658E+02 -0.54891690549E+03  0.55324875359E+03  0.00000000000E+00 0. -1.
          1    1    1    2  502    0  0.39764607263E+03  0.18936307823E+03  0.46745196532E+02  0.44290618405E+03  0.00000000000E+00 0. -1.
         22    1    3    3    0    0 -0.38076485751E+02 -0.58676857872E+02 -0.33259342275E+03  0.33986935325E+03  0.00000000000E+00 0.  1.
         22    1    3    3    0    0 -0.42530961719E+03 -0.15196209002E+03 -0.15940147952E+04  0.16567630834E+04  0.00000000000E+00 0.  1.
</event>
<event>
 7    1  0.3110367E-005  0.2069993E+03  0.7818608E-02  0.1246719E+00
          2   -1    0    0  502    0  0.00000000000E+00  0.00000000000E+00  0.11652845895E+04  0.11652845895E+04  0.00000000000E+00 0. -1.
          1   -1    0    0  501    0 -0.00000000000E+00 -0.00000000000E+00 -0.53010861320E+03  0.53010861320E+03  0.00000000000E+00 0. -1.
         25    2    1    2    0    0 -0.12288114530E+03  0.21159181605E+03  0.99769905788E+03  0.10348433695E+04  0.12500606727E+03 0.  0.
          2    1    1    2  501    0  0.14391326747E+03 -0.14790131499E+03 -0.48156150767E+03  0.52391536836E+03  0.00000000000E+00 0. -1.
          1    1    1    2  502    0 -0.21032122169E+02 -0.63690501057E+02  0.11903842606E+03  0.13663446478E+03  0.00000000000E+00 0. -1.
         22    1    3    3    0    0 -0.58935988082E+02  0.14109065728E+03  0.37601579222E+03  0.40591612466E+03  0.00000000000E+00 0. -1.
         22    1    3    3    0    0 -0.63945157220E+02  0.70501158763E+02  0.62168326566E+03  0.62892724486E+03  0.00000000000E+00 0. -1.
</event>
<event>
 7    1  0.3110367E-005  0.2224232E+03  0.7818608E-02  0.1210447E+00
          2   -1    0    0  502    0  0.00000000000E+00  0.00000000000E+00  0.32001263168E+03  0.32001263168E+03  0.00000000000E+00 0. -1.
          1   -1    0    0  501    0 -0.00000000000E+00 -0.00000000000E+00 -0.76272928686E+03  0.76272928686E+03  0.00000000000E+00 0. -1.
         25    2    1    2    0    0 -0.38701117878E+02 -0.30100689071E+03 -0.31351009185E+03  0.45388929078E+03  0.12499594321E+03 0.  0.
          2    1    1    2  501    0  0.12154529384E+02  0.90048372532E+02 -0.32643172555E+03  0.33884231352E+03  0.00000000000E+00 0. -1.
          1    1    1    2  502    0  0.26546588494E+02  0.21095851817E+03  0.19722516223E+03  0.29001031424E+03  0.00000000000E+00 0. -1.
         22    1    3    3    0    0 -0.72696283374E+02 -0.26965434879E+03 -0.28756060524E+03  0.40086072285E+03  0.00000000000E+00 0.  1.
         22    1    3    3    0    0  0.33995165496E+02 -0.31352541911E+02 -0.25949486609E+02  0.53028567930E+02  0.00000000000E+00 0.  1.
</event>
<event>
 7    1  0.3110367E-005  0.1111373E+04  0.7818608E-02  0.9775753E-01
          2   -1    0    0  502    0  0.00000000000E+00  0.00000000000E+00  0.18457141117E+04  0.18457141117E+04  0.00000000000E+00 0. -1.
          1   -1    0    0  501    0 -0.00000000000E+00 -0.00000000000E+00 -0.13433473653E+04  0.13433473653E+04  0.00000000000E+00 0. -1.
         25    2    1    2    0    0 -0.11022059754E+04 -0.85303834852E+02 -0.38242680904E+03  0.11764398942E+04  0.12500321549E+03 0.  0.
          2    1    1    2  501    0  0.16794315371E+02  0.39971472623E+03 -0.19903638557E+03  0.44684381407E+03  0.00000000000E+00 0. -1.
          1    1    1    2  502    0  0.10854116600E+04 -0.31441089137E+03  0.10838299410E+04  0.15657777688E+04  0.00000000000E+00 0. -1.
         22    1    3    3    0    0 -0.39707566891E+03  0.10592494924E+02 -0.18338980218E+03  0.43750783688E+03  0.00000000000E+00 0. -1.
         22    1    3    3    0    0 -0.70513030646E+03 -0.95896329775E+02 -0.19903700687E+03  0.73893205727E+03  0.00000000000E+00 0. -1.
</event>
<event>
 7    1  0.3110367E-005  0.3564299E+02  0.7818608E-02  0.1558974E+00
          2   -1    0    0  502    0  0.00000000000E+00  0.00000000000E+00  0.17280990056E+03  0.17280990056E+03  0.00000000000E+00 0. -1.
          1   -1    0    0  501    0 -0.00000000000E+00 -0.00000000000E+00 -0.47322557113E+03  0.47322557113E+03  0.00000000000E+00 0. -1.
         25    2    1    2    0    0 -0.36227592366E+02  0.50835718818E+02  0.34073513874E+02  0.14381690933E+03  0.12500236119E+03 0.  0.
          2    1    1    2  501    0  0.29712465037E+02 -0.19338480748E+02 -0.41448521871E+03  0.41599856243E+03  0.00000000000E+00 0. -1.
          1    1    1    2  502    0  0.65151273291E+01 -0.31497238070E+02  0.79996034270E+02  0.86219999937E+02  0.00000000000E+00 0. -1.
         22    1    3    3    0    0 -0.20848062887E+01 -0.29073778523E+02  0.47656389281E+02  0.55863784818E+02  0.00000000000E+00 0.  1.
         22    1    3    3    0    0 -0.34142786078E+02  0.79909497341E+02 -0.13582875407E+02  0.87953124508E+02  0.00000000000E+00 0.  1.
</event>
<event>
 7    1  0.3110367E-005  0.2489474E+03  0.7818608E-02  0.1146031E+00
          2   -1    0    0  502    0  0.00000000000E+00  0.00000000000E+00  0.87389968892E+03  0.87389968892E+03  0.00000000000E+00 0. -1.
          1   -1    0    0  501    0 -0.00000000000E+00 -0.00000000000E+00 -0.10953939561E+04  0.10953939561E+04  0.00000000000E+00 0. -1.
         25    2    1    2    0    0  0.63314699422E+02  0.23661071262E+03  0.80224419681E+01  0.27510550116E+03  0.12500118681E+03 0.  0.
          2    1    1    2  501    0  0.10456735860E+03 -0.23307775224E+03 -0.93485855123E+03  0.96913367596E+03  0.00000000000E+00 0. -1.
          1    1    1    2  502    0 -0.16788205802E+03 -0.35329603739E+01  0.70534184209E+03  0.72505446790E+03  0.00000000000E+00 0. -1.
         22    1    3    3    0    0  0.85824882633E+02  0.23721771702E+03  0.44483310295E+01  0.25230525836E+03  0.00000000000E+00 0. -1.
         22    1    3    3    0    0 -0.22510183210E+02 -0.60700440466E+00  0.35741109386E+01  0.22800242795E+02  0.00000000000E+00 0. -1.
</event>
<event>
 7    1  0.3110367E-005  0.5596093E+02  0.7818608E-02  0.1534661E+00
          2   -1    0    0  502    0  0.00000000000E+00  0.00000000000E+00  0.99985194428E+03  0.99985194428E+03  0.00000000000E+00 0. -1.
          1   -1    0    0  501    0 -0.00000000000E+00 -0.00000000000E+00 -0.17754294001E+03  0.17754294001E+03  0.00000000000E+00 0. -1.
         25    2    1    2    0    0  0.35034354833E+02  0.23910237862E+02  0.46766843802E+03  0.48594151621E+03  0.12500513494E+03 0.  0.
          2    1    1    2  501    0 -0.55082441578E+02 -0.10780967074E+02 -0.16344507664E+03  0.17281376594E+03  0.00000000000E+00 0. -1.
          1    1    1    2  502    0  0.20048086744E+02 -0.13129270788E+02  0.51808564290E+03  0.51863960214E+03  0.00000000000E+00 0. -1.
         22    1    3    3    0    0  0.57638029366E+02 -0.20299861086E+02  0.38254305893E+03  0.38739310619E+03  0.00000000000E+00 0.  1.
         22    1    3    3    0    0 -0.22603674533E+02  0.44210098948E+02  0.85125379091E+02  0.98548410017E+02  0.00000000000E+00 0.  1.
</event>
<event>
 7    1  0.3110367E-005  0.2653393E+04  0.7818608E-02  0.9570061E-01
          2   -1    0    0  502    0  0.00000000000E+00  0.00000000000E+00  0.18914025110E+04  0.18914025110E+04  0.00000000000E+00 0. -1.
          1   -1    0    0  501    0 -0.00000000000E+00 -0.00000000000E+00 -0.47534876279E+04  0.47534876279E+04  0.00000000000E+00 0. -1.
         25    2    1    2    0    0  0.25078287002E+04  0.80309744281E+03 -0.13600754735E+04  0.29664128109E+04  0.12501751308E+03 0.  0.
          2    1    1    2  501    0  0.10001125038E+03 -0.21492731073E+03 -0.90999568600E+03  0.94036596474E+03  0.00000000000E+00 0. -1.
          1    1    1    2  502    0 -0.26078399506E+04 -0.58817013209E+03 -0.59201395736E+03  0.27381113633E+04  0.00000000000E+00 0. -1.
         22    1    3    3    0    0  0.60216894024E+03  0.23192755656E+03 -0.37715979709E+03  0.74742714470E+03  0.00000000000E+00 0. -1.
         22    1    3    3    0    0  0.19056597600E+04  0.57116988625E+03 -0.98291567641E+03  0.22189856662E+04  0.00000000000E+00 0. -1.
</event>
<event>
 7    1  0.3110367E-005  0.2284190E+03  0.7818608E-02  0.1304910E+00
          2   -1    0    0  502    0  0.00000000000E+00  0.00000000000E+00  0.67925083172E+02  0.67925083172E+02  0.00000000000E+00 0. -1.
          1   -1    0    0  501    0 -0.00000000000E+00 -0.00000000000E+00 -0.10759478742E+04  0.10759478742E+04  0.00000000000E+00 0. -1.
         25    2    1    2    0    0  0.14879244475E+02  0.22549595897E+03 -0.62826738369E+03  0.67927502451E+03  0.12499933636E+03 0.  0.
          2    1    1    2  501    0  0.34797221625E+02 -0.30570648715E+00 -0.72618593732E+02  0.80525773792E+02  0.00000000000E+00 0. -1.
          1    1    1    2  502    0 -0.49676466100E+02 -0.22519025248E+03 -0.30713681361E+03  0.38407215907E+03  0.00000000000E+00 0. -1.
         22    1    3    3    0    0 -0.25247908443E+02  0.17537274210E+03 -0.33401800894E+03  0.37810195166E+03  0.00000000000E+00 0.  1.
         22    1    3    3    0    0  0.40127152918E+02  0.50123216867E+02 -0.29424937475E+03  0.30117307285E+03  0.00000000000E+00 0.  1.
</event>
<event>
 7    1  0.3110367E-005  0.8806457E+02  0.7818608E-02  0.1313109E+00
          2   -1    0    0  502    0  0.00000000000E+00  0.00000000000E+00  0.83773203251E+03  0.83773203251E+03  0.00000000000E+00 0. -1.
          1   -1    0    0  501    0 -0.00000000000E+00 -0.00000000000E+00 -0.23371174486E+03  0.23371174486E+03  0.00000000000E+00 0. -1.
         25    2    1    2    0    0  0.10199440786E+03 -0.10990890227E+03  0.51497322686E+02  0.20189428104E+03  0.12500600162E+03 0.  0.
          2    1    1    2  501    0 -0.79496684584E+02  0.26440401597E+02 -0.14458403122E+03  0.16710284193E+03  0.00000000000E+00 0. -1.
          1    1    1    2  502    0 -0.22497723278E+02  0.83468500672E+02  0.69710699619E+03  0.70244665441E+03  0.00000000000E+00 0. -1.
         22    1    3    3    0    0  0.42836460896E+02 -0.12361919464E+03  0.16665329299E+02  0.13188783442E+03  0.00000000000E+00 0. -1.
         22    1    3    3    0    0  0.59157946966E+02  0.13710292374E+02  0.34831993386E+02  0.70006446628E+02  0.00000000000E+00 0. -1.
</event>
<event>
 7    1  0.3110367E-005  0.5580046E+03  0.7818608E-02  0.1111990E+00
          2   -1    0    0  502    0  0.00000000000E+00  0.00000000000E+00  0.16628872948E+04  0.16628872948E+04  0.00000000000E+00 0. -1.
          1   -1    0    0  501    0 -0.00000000000E+00 -0.00000000000E+00 -0.69799690776E+03  0.69799690776E+03  0.00000000000E+00 0. -1.
         25    2    1    2    0    0  0.29019216527E+03  0.49469799202E+03  0.54872551364E+03  0.80353111943E+03  0.12499989793E+03 0.  0.
          2    1    1    2  501    0  0.78312575983E+02 -0.82691080341E+02 -0.48608099818E+03  0.49924484085E+03  0.00000000000E+00 0. -1.
          1    1    1    2  502    0 -0.36850474125E+03 -0.41200691168E+03  0.90224587158E+03  0.10581082423E+04  0.00000000000E+00 0. -1.
         22    1    3    3    0    0  0.22606487613E+03  0.28190557417E+03  0.29707953911E+03  0.46779518331E+03  0.00000000000E+00 0.  1.
         22    1    3    3    0    0  0.64127289136E+02  0.21279241785E+03  0.25164597454E+03  0.33573593613E+03  0.00000000000E+00 0.  1.
</event>
<event>
 7    1  0.3110367E-005  0.1984501E+03  0.7818608E-02  0.1257883E+00
          2   -1    0    0  502    0  0.00000000000E+00  0.00000000000E+00  0.11620127581E+03  0.11620127581E+03  0.00000000000E+00 0. -1.
          1   -1    0    0  501    0 -0.00000000000E+00 -0.00000000000E+00 -0.13347122092E+04  0.13347122092E+04  0.00000000000E+00 0. -1.
         25    2    1    2    0    0  0.21630087421E+03 -0.87872117009E+02 -0.57875375195E+03  0.63646544000E+03  0.12499909515E+03 0.  0.
          2    1    1    2  501    0 -0.58236212596E+02 -0.22978821246E+02 -0.61686640626E+03  0.62003519727E+03  0.00000000000E+00 0. -1.
          1    1    1    2  502    0 -0.15806466162E+03  0.11085093825E+03 -0.22890775137E+02  0.19441284770E+03  0.00000000000E+00 0. -1.
         22    1    3    3    0    0  0.15849312523E+03 -0.11677169917E+03 -0.38845849732E+03  0.43549478138E+03  0.00000000000E+00 0.  1.
         22    1    3    3    0    0  0.57807748982E+02  0.28899582160E+02 -0.19029525462E+03  0.20097065861E+03  0.00000000000E+00 0.  1.
</event>
<event>
 7    1  0.3110367E-005  0.3915373E+03  0.7818608E-02  0.1259746E+00
          2   -1    0    0  502    0  0.00000000000E+00  0.00000000000E+00  0.57222377296E+03  0.57222377296E+03  0.00000000000E+00 0. -1.
          1   -1    0    0  501    0 -0.00000000000E+00 -0.00000000000E+00 -0.93587891764E+03  0.93587891764E+03  0.00000000000E+00 0. -1.
         25    2    1    2    0    0  0.88149955983E+02  0.40025168670E+03  0.36158003145E+03  0.56065773648E+03  0.12500060351E+03 0.  0.
          2    1    1    2  501    0 -0.60988764349E+02 -0.38499065868E+03 -0.78701506248E+03  0.87825403229E+03  0.00000000000E+00 0. -1.
          1    1    1    2  502    0 -0.27161191633E+02 -0.15261028017E+02  0.61779886354E+02  0.69190921840E+02  0.00000000000E+00 0. -1.
         22    1    3    3    0    0 -0.34587912352E+01  0.14833171253E+03  0.19509860408E+03  0.24510757943E+03  0.00000000000E+00 0.  1.
         22    1    3    3    0    0  0.91608747218E+02  0.25191997417E+03  0.16648142738E+03  0.31555015705E+03  0.00000000000E+00 0.  1.
</event>
<event>
 7    1  0.3110367E-005  0.1212885E+03  0.7818608E-02  0.1267185E+00
          2   -1    0    0  502    0  0.00000000000E+00  0.00000000000E+00  0.84258048618E+03  0.84258048618E+03  0.00000000000E+00 0. -1.
          1   -1    0    0  501    0 -0.00000000000E+00 -0.00000000000E+00 -0.23043270858E+03  0.23043270858E+03  0.00000000000E+00 0. -1.
         25    2    1    2    0    0 -0.66282780384E+02  0.16529171561E+03  0.45154282328E+03  0.50122892224E+03  0.12499901202E+03 0.  0.
          2    1    1    2  501    0  0.72663316008E+02 -0.58874597991E+02 -0.18652268005E+03  0.20865494472E+03  0.00000000000E+00 0. -1.
          1    1    1    2  502    0 -0.63805356241E+01 -0.10641711762E+03  0.34712763438E+03  0.36312932780E+03  0.00000000000E+00 0. -1.
         22    1    3    3    0    0 -0.20555682729E+02  0.52396675140E+02  0.32830299019E+02  0.65159620869E+02  0.00000000000E+00 0.  1.
         22    1    3    3    0    0 -0.45727097655E+02  0.11289504047E+03  0.41871252426E+03  0.43606930137E+03  0.00000000000E+00 0.  1.
</event>
<event>
 7    1  0.3110367E-005  0.1513436E+03  0.7818608E-02  0.1294382E+00
          2   -1    0    0  502    0  0.00000000000E+00  0.00000000000E+00  0.59352481730E+03  0.59352481730E+03  0.00000000000E+00 0. -1.
          1   -1    0    0  501    0 -0.00000000000E+00 -0.00000000000E+00 -0.18191116161E+03  0.18191116161E+03  0.00000000000E+00 0. -1.
         25    2    1    2    0    0 -0.11205844877E+03  0.13657059770E+03 -0.83151987283E+02  0.23183791102E+03  0.12500375955E+03 0.  0.
          2    1    1    2  501    0  0.57785753448E+02  0.32348944341E+01  0.58570033559E+02  0.82341403162E+02  0.00000000000E+00 0. -1.
          1    1    1    2  502    0  0.54272695322E+02 -0.13980549214E+03  0.43619560941E+03  0.46125666473E+03  0.00000000000E+00 0. -1.
         22    1    3    3    0    0 -0.68942558761E+02  0.10011396028E+03 -0.11472600109E+03  0.16714645308E+03  0.00000000000E+00 0.  1.
         22    1    3    3    0    0 -0.43115890010E+02  0.36456637421E+02  0.31574013804E+02  0.64691457945E+02  0.00000000000E+00 0.  1.
</event>
<event>
 7    1  0.3110367E-005  0.4222657E+02  0.7818608E-02  0.1528030E+00
          2   -1    0    0  502    0  0.00000000000E+00  0.00000000000E+00  0.86361798431E+03  0.86361798431E+03  0.00000000000E+00 0. -1.
          1   -1    0    0  501    0 -0.00000000000E+00 -0.00000000000E+00 -0.60475046056E+02  0.60475046056E+02  0.00000000000E+00 0. -1.
         25    2    1    2    0    0  0.34917799189E+02 -0.82624487699E+01  0.73610644076E+03  0.74750596256E+03  0.12499980467E+03 0.  0.
          2    1    1    2  501    0 -0.34365009585E+02 -0.24909780539E+02 -0.43740767112E+02  0.60948386015E+02  0.00000000000E+00 0. -1.
          1    1    1    2  502    0 -0.55278960411E+00  0.33172229309E+02  0.11077726460E+03  0.11563868179E+03  0.00000000000E+00 0. -1.
         22    1    3    3    0    0  0.41915329579E+02  0.51751826744E+02  0.30500334577E+03  0.31218934536E+03  0.00000000000E+00 0.  1.
         22    1    3    3    0    0 -0.69975303902E+01 -0.60014275514E+02  0.43110309500E+03  0.43531661720E+03  0.00000000000E+00 0.  1.
</event>
<event>
 7    1  0.3110367E-005  0.3413302E+03  0.7818608E-02  0.1073869E+00
          2   -1    0    0  502    0  0.00000000000E+00  0.00000000000E+00  0.11974393575E+04  0.11974393575E+04  0.00000000000E+00 0. -1.
          1   -1    0    0  501    0 -0.00000000000E+00 -0.00000000000E+00 -0.17709487890E+04  0.17709487890E+04  0.00000000000E+00 0. -1.
         25    2    1    2    0    0 -0.50776673173E+03 -0.68085470293E+02 -0.16559383124E+03  0.55272878531E+03  0.12500043217E+03 0.  0.
          2    1    1    2  501    0  0.21136535981E+03  0.22314401906E+03 -0.13663677375E+04  0.14005103936E+04  0.00000000000E+00 0. -1.
          1    1    1    2  502    0  0.29640137193E+03 -0.15505854876E+03  0.95845213729E+03  0.10151489675E+04  0.00000000000E+00 0. -1.
         22    1    3    3    0    0 -0.16245635761E+03 -0.79102925367E+02 -0.74404816095E+02  0.19541089424E+03  0.00000000000E+00 0. -1.
         22    1    3    3    0    0 -0.34531037412E+03  0.11017455074E+02 -0.91189015143E+02  0.35731789106E+03  0.00000000000E+00 0. -1.
</event>
<event>
 7    1  0.3110367E-005  0.1073170E+03  0.7818608E-02  0.1365186E+00
          2   -1    0    0  502    0  0.00000000000E+00  0.00000000000E+00  0.39623102948E+03  0.39623102948E+03  0.00000000000E+00 0. -1.
          1   -1    0    0  501    0 -0.00000000000E+00 -0.00000000000E+00 -0.33586561212E+04  0.33586561212E+04  0.00000000000E+00 0. -1.
         25    2    1    2    0    0 -0.10116732081E+03 -0.66328147024E+02 -0.37206846878E+02  0.17788756612E+03  0.12500154734E+03 0.  0.
          2    1    1    2  501    0  0.62634226043E+02  0.87054297836E+02 -0.32487515172E+04  0.32505211763E+04  0.00000000000E+00 0. -1.
          1    1    1    2  502    0  0.38533094769E+02 -0.20726150812E+02  0.32353327237E+03  0.32647840825E+03  0.00000000000E+00 0. -1.
         22    1    3    3    0    0  0.23226236972E+02 -0.28604550002E+02  0.12219443703E+02  0.38820009906E+02  0.00000000000E+00 0.  1.
         22    1    3    3    0    0 -0.12439355778E+03 -0.37723597022E+02 -0.49426290581E+02  0.13906755621E+03  0.00000000000E+00 0.  1.
</event>
<event>
 7    1  0.3110367E-005  0.1850557E+03  0.7818608E-02  0.1181639E+00
          2   -1    0    0  502    0  0.00000000000E+00  0.00000000000E+00  0.64713977073E+03  0.64713977073E+03  0.00000000000E+00 0. -1.
          1   -1    0    0  501    0 -0.00000000000E+00 -0.00000000000E+00 -0.40747136823E+03  0.40747136823E+03  0.00000000000E+00 0. -1.
         25    2    1    2    0    0  0.98399325571E+01 -0.14185820668E+03  0.12839716094E+03  0.22876023283E+03  0.12499935244E+03 0.  0.
          2    1    1    2  501    0  0.13981233712E+03  0.14163152752E+03 -0.31582243941E+03  0.37329719050E+03  0.00000000000E+00 0. -1.
          1    1    1    2  502    0 -0.14965226967E+03  0.22667915491E+00  0.42709368098E+03  0.45255371563E+03  0.00000000000E+00 0. -1.
         22    1    3    3    0    0  0.57586713437E+01 -0.11128347831E+03  0.16448615955E+02  0.11263983224E+03  0.00000000000E+00 0. -1.
         22    1    3    3    0    0  0.40812612134E+01 -0.30574728369E+02  0.11194854499E+03  0.11612040059E+03  0.00000000000E+00 0. -1.
</event>
<event>
 7    1  0.3110367E-005  0.6493326E+02  0.7818608E-02  0.1416195E+00
          2   -1    0    0  502    0  0.00000000000E+00  0.00000000000E+00  0.14703979537E+04  0.14703979537E+04  0.00000000000E+00 0. -1.
          1   -1    0    0  501    0 -0.00000000000E+00 -0.00000000000E+00 -0.69462756309E+02  0.69462756309E+02  0.00000000000E+00 0. -1.
         25    2    1    2    0    0 -0.75581837463E+02 -0.43602109207E+02  0.32763869861E+03  0.36136631494E+03  0.12499895467E+03 0.  0.
          2    1    1    2  501    0  0.11239442805E+02  0.46675967410E+02 -0.40515659932E+02  0.62821092858E+02  0.00000000000E+00 0. -1.
          1    1    1    2  502    0  0.64342394658E+02 -0.30738582027E+01  0.11138121587E+04  0.11156733022E+04  0.00000000000E+00 0. -1.
         22    1    3    3    0    0 -0.88611443056E+02 -0.88323411917E+01  0.11467937202E+03  0.14519420256E+03  0.00000000000E+00 0.  1.
         22    1    3    3    0    0  0.13029605592E+02 -0.34769768015E+02  0.21295932659E+03  0.21617211238E+03  0.00000000000E+00 0.  1.
</event>
<event>
 7    1  0.3110367E-005  0.7166601E+02  0.7818608E-02  0.1495505E+00
          2   -1    0    0  502    0  0.00000000000E+00  0.00000000000E+00  0.15792881502E+04  0.15792881502E+04  0.00000000000E+00 0. -1.
          1   -1    0    0  501    0 -0.00000000000E+00 -0.00000000000E+00 -0.24859034992E+03  0.24859034992E+03  0.00000000000E+00 0. -1.
         25    2    1    2    0    0  0.68787976113E+02 -0.38848392530E+02  0.12493355912E+03  0.19358047047E+03  0.12499608432E+03 0.  0.
          2    1    1    2  501    0 -0.20162486503E+02 -0.13665689291E+02 -0.21266953814E+03  0.21405982663E+03  0.00000000000E+00 0. -1.
          1    1    1    2  502    0 -0.48625489611E+02  0.52514081821E+02  0.14184337793E+04  0.14202382030E+04  0.00000000000E+00 0. -1.
         22    1    3    3    0    0  0.47962173765E+02 -0.82976318150E+02  0.62825965737E+02  0.11459730126E+03  0.00000000000E+00 0.  1.
         22    1    3    3    0    0  0.20825802349E+02  0.44127925620E+02  0.62107593381E+02  0.78983169211E+02  0.00000000000E+00 0.  1.
</event>
<event>
 7    1  0.3110367E-005  0.1116092E+03  0.7818608E-02  0.1316700E+00
          2   -1    0    0  502    0  0.00000000000E+00  0.00000000000E+00  0.96379887385E+03  0.96379887385E+03  0.00000000000E+00 0. -1.
          1   -1    0    0  501    0 -0.00000000000E+00 -0.00000000000E+00 -0.12833351631E+04  0.12833351631E+04  0.00000000000E+00 0. -1.
         25    2    1    2    0    0 -0.20105375007E+02 -0.93661811476E+02  0.27744224526E+03  0.31902264823E+03  0.12499795837E+03 0.  0.
          2    1    1    2  501    0 -0.63360910296E+02  0.90328981408E+01 -0.12564169203E+04  0.12580459752E+04  0.00000000000E+00 0. -1.
          1    1    1    2  502    0  0.83466285303E+02  0.84628913335E+02  0.65943838577E+03  0.67006541351E+03  0.00000000000E+00 0. -1.
         22    1    3    3    0    0 -0.11741793381E+02  0.29334842471E+02  0.35801815159E+02  0.47751153528E+02  0.00000000000E+00 0.  1.
         22    1    3    3    0    0 -0.83635816258E+01 -0.12299665395E+03  0.24164043010E+03  0.27127149470E+03  0.00000000000E+00 0.  1.
</event>
<event>
 7    1  0.3110367E-005  0.8460255E+02  0.7818608E-02  0.1359085E+00
          2   -1    0    0  502    0  0.00000000000E+00  0.00000000000E+00  0.39351382552E+03  0.39351382552E+03  0.00000000000E+00 0. -1.
          1   -1    0    0  501    0 -0.00000000000E+00 -0.00000000000E+00 -0.17169158250E+03  0.17169158250E+03  0.00000000000E+00 0. -1.
         25    2    1    2    0    0 -0.23728716093E+02 -0.45755514263E+02  0.18692895744E+02  0.13649469801E+03  0.12499903671E+03 0.  0.
          2    1    1    2  501    0 -0.78057565237E+01  0.94922906926E+02 -0.89267135489E+02  0.13053700461E+03  0.00000000000E+00 0. -1.
          1    1    1    2  502    0  0.31534472617E+02 -0.49167392662E+02  0.29239648276E+03  0.29817370541E+03  0.00000000000E+00 0. -1.
         22    1    3    3    0    0 -0.41304816649E+02 -0.83292078117E+02  0.60778184853E+01  0.93169727020E+02  0.00000000000E+00 0. -1.
         22    1    3    3    0    0  0.17576100556E+02  0.37536563854E+02  0.12615077259E+02  0.43324970986E+02  0.00000000000E+00 0. -1.
</event>
<event>
 7    1  0.3110367E-005  0.2679321E+03  0.7818608E-02  0.1279747E+00
          2   -1    0    0  502    0  0.00000000000E+00  0.00000000000E+00  0.15406421583E+04  0.15406421583E+04  0.00000000000E+00 0. -1.
          1   -1    0    0  501    0 -0.00000000000E+00 -0.00000000000E+00 -0.16583318541E+04  0.16583318541E+04  0.00000000000E+00 0. -1.
         25    2    1    2    0    0 -0.29227863189E+03  0.34464321554E+02  0.29072127401E+03  0.43215643605E+03  0.12500295173E+03 0.  0.
          2    1    1    2  501    0  0.34376947404E+02  0.15028180646E+02 -0.15727671502E+04  0.15732145847E+04  0.00000000000E+00 0. -1.
          1    1    1    2  502    0  0.25790168449E+03 -0.49492502199E+02  0.11643561805E+04  0.11936029916E+04  0.00000000000E+00 0. -1.
         22    1    3    3    0    0 -0.27558004375E+03  0.66596307658E+02  0.25603703056E+03  0.38201359887E+03  0.00000000000E+00 0.  1.
         22    1    3    3    0    0 -0.16698588147E+02 -0.32131986105E+02  0.34684243446E+02  0.50142837181E+02  0.00000000000E+00 0.  1.
</event>
<event>
 7    1  0.3110367E-005  0.2229314E+03  0.7818608E-02  0.1245283E+00
          2   -1    0    0  502    0  0.00000000000E+00  0.00000000000E+00  0.27524294890E+04  0.27524294890E+04  0.00000000000E+00 0. -1.
          1   -1    0    0  501    0 -0.00000000000E+00 -0.00000000000E+00 -0.15345775412E+03  0.15345775412E+03  0.00000000000E+00 0. -1.
         25    2    1    2    0    0 -0.15253287350E+03 -0.15971790674E+03  0.41463889811E+03  0.48613394825E+03  0.12499885034E+03 0.  0.
          2    1    1    2  501    0 -0.41778635025E+02  0.47402393569E+02 -0.10332434907E+03  0.12111301487E+03  0.00000000000E+00 0. -1.
          1    1    1    2  502    0  0.19431150853E+03  0.11231551318E+03  0.22876571859E+04  0.22986402800E+04  0.00000000000E+00 0. -1.
         22    1    3    3    0    0 -0.10247552641E+03 -0.19424099021E+02  0.15565694654E+03  0.18737025949E+03  0.00000000000E+00 0.  1.
         22    1    3    3    0    0 -0.50057347091E+02 -0.14029380772E+03  0.25898195157E+03  0.29876368876E+03  0.00000000000E+00 0.  1.
</event>
<event>
 7    1  0.3110367E-005  0.4574723E+02  0.7818608E-02  0.1592173E+00
          2   -1    0    0  502    0  0.00000000000E+00  0.00000000000E+00  0.21424772695E+04  0.21424772695E+04  0.00000000000E+00 0. -1.
          1   -1    0    0  501    0 -0.00000000000E+00 -0.00000000000E+00 -0.18823338301E+03  0.18823338301E+03  0.00000000000E+00 0. -1.
         25    2    1    2    0    0 -0.42842149125E+02 -0.38891431322E+02  0.33044148851E+03  0.35800141435E+03  0.12500176870E+03 0.  0.
          2    1    1    2  501    0  0.12320908289E+01  0.20353494220E+02 -0.17356801947E+03  0.17476166673E+03  0.00000000000E+00 0. -1.
          1    1    1    2  502    0  0.41610058296E+02  0.18537937101E+02  0.17973704174E+04  0.17979475714E+04  0.00000000000E+00 0. -1.
         22    1    3    3    0    0 -0.59592560910E+02  0.30082626182E+02  0.15797876874E+03  0.17150372908E+03  0.00000000000E+00 0. -1.
         22    1    3    3    0    0  0.16750411785E+02 -0.68974057504E+02  0.17246271977E+03  0.18649768528E+03  0.00000000000E+00 0. -1.
</event>
<event>
 7    1  0.3110367E-005  0.8593264E+03  0.7818608E-02  0.1121430E+00
          2   -1    0    0  502    0  0.00000000000E+00  0.00000000000E+00  0.13815176183E+04  0.13815176183E+04  0.00000000000E+00 0. -1.
          1   -1    0    0  501    0 -0.00000000000E+00 -0.00000000000E+00 -0.16974547295E+04  0.16974547295E+04  0.00000000000E+00 0. -1.
         25    2    1    2    0    0 -0.77965514750E+03 -0.24655592713E+03  0.83094474246E+02  0.83137316081E+03  0.12499866655E+03 0.  0.
          2    1    1    2  501    0 -0.59323554268E+02 -0.28170885639E+02 -0.11113236260E+04  0.11132623611E+04  0.00000000000E+00 0. -1.
          1    1    1    2  502    0  0.83897870177E+03  0.27472681277E+03  0.71229204051E+03  0.11343368259E+04  0.00000000000E+00 0. -1.
         22    1    3    3    0    0 -0.20924806228E+03 -0.11684479300E+03 -0.55501360150E+01  0.23972538712E+03  0.00000000000E+00 0. -1.
         22    1    3    3    0    0 -0.57040708522E+03 -0.12971113412E+03  0.88644610261E+02  0.59164777369E+03  0.00000000000E+00 0. -1.
</event>
<event>
 7    1  0.3110367E-005  0.2389540E+03  0.7818608E-02  0.1299320E+00
          2   -1    0    0  502    0  0.00000000000E+00  0.00000000000E+00  0.45539962594E+03  0.45539962594E+03  0.00000000000E+00 0. -1.
          1   -1    0    0  501    0 -0.00000000000E+00 -0.00000000000E+00 -0.24779911187E+03  0.24779911187E+03  0.00000000000E+00 0. -1.
         25    2    1    2    0    0 -0.49664434040E+02 -0.23273112781E+03  0.41632096015E+02  0.27200835963E+03  0.12499992972E+03 0.  0.
          2    1    1    2  501    0  0.15453540875E+02  0.24020366422E+03 -0.20397680670E+02  0.24156298890E+03  0.00000000000E+00 0. -1.
          1    1    1    2  502    0  0.34210893165E+02 -0.74725364055E+01  0.18636609872E+03  0.18962738928E+03  0.00000000000E+00 0. -1.
         22    1    3    3    0    0 -0.29955613852E+02 -0.13257968012E+03 -0.39583093047E+02  0.14156811660E+03  0.00000000000E+00 0.  1.
         22    1    3    3    0    0 -0.19708820189E+02 -0.10015144769E+03  0.81215189063E+02  0.13044024303E+03  0.00000000000E+00 0.  1.
</event>
<event>
 7    1  0.3110367E-005  0.2395266E+03  0.7818608E-02  0.1307857E+00
          2   -1    0    0  502    0  0.00000000000E+00  0.00000000000E+00  0.40232552770E+03  0.40232552770E+03  0.00000000000E+00 0. -1.
          1   -1    0    0  501    0 -0.00000000000E+00 -0.00000000000E+00 -0.15899886919E+04  0.15899886919E+04  0.00000000000E+00 0. -1.
         25    2    1    2    0    0 -0.10237300779E+03  0.18588331791E+03 -0.14084766622E+03  0.28371284405E+03  0.12498828824E+03 0.  0.
          2    1    1    2  501    0  0.12439382129E+03 -0.20951914293E+03 -0.13661133548E+04  0.13876735179E+04  0.00000000000E+00 0. -1.
          1    1    1    2  502    0 -0.22020813501E+02  0.23635825018E+02  0.31929785683E+03  0.32092785767E+03  0.00000000000E+00 0. -1.
         22    1    3    3    0    0 -0.32925220427E+02 -0.10838831635E+02 -0.56658722975E+01  0.35123389931E+02  0.00000000000E+00 0.  1.
         22    1    3    3    0    0 -0.69447787360E+02  0.19672214954E+03 -0.13518179393E+03  0.24858945412E+03  0.00000000000E+00 0.  1.
</event>
<event>
 7    1  0.3110367E-005  0.3314811E+03  0.7818608E-02  0.1097098E+00
          2   -1    0    0  502    0  0.00000000000E+00  0.00000000000E+00  0.20706554521E+04  0.20706554521E+04  0.00000000000E+00 0. -1.
          1   -1    0    0  501    0 -0.00000000000E+00 -0.00000000000E+00 -0.16235694076E+04  0.16235694076E+04  0.00000000000E+00 0. -1.
         25    2    1    2    0    0 -0.31619477056E+03  0.31828711291E+02  0.17747591641E+04  0.18073149016E+04  0.12499945308E+03 0.  0.
          2    1    1    2  501    0  0.26884803925E+03  0.19549378115E+03 -0.15380613964E+04  0.15735723517E+04  0.00000000000E+00 0. -1.
          1    1    1    2  502    0  0.47346731308E+02 -0.22732249245E+03  0.21038827687E+03  0.31333760639E+03  0.00000000000E+00 0. -1.
         22    1    3    3    0    0 -0.53792863306E+02  0.52850130503E+02  0.30624131110E+03  0.31538951958E+03  0.00000000000E+00 0.  1.
         22    1    3    3    0    0 -0.26240190725E+03 -0.21021419212E+02  0.14685178530E+04  0.14919253820E+04  0.00000000000E+00 0.  1.
</event>
<event>
 7    1  0.3110367E-005  0.9739876E+03  0.7818608E-02  0.1040494E+00
          2   -1    0    0  502    0  0.00000000000E+00  0.00000000000E+00  0.83396805556E+03  0.83396805556E+03  0.00000000000E+00 0. -1.
          1   -1    0    0  501    0 -0.00000000000E+00 -0.00000000000E+00 -0.21308473142E+04  0.21308473142E+04  0.00000000000E+00 0. -1.
         25    2    1    2    0    0  0.10249036191E+04  0.33943565977E+02 -0.82812964534E+03  0.13240091150E+04  0.12498733104E+03 0.  0.
          2    1    1    2  501    0 -0.92882267402E+03  0.10905859243E+03 -0.82371637900E+03  0.12462399486E+04  0.00000000000E+00 0. -1.
          1    1    1    2  502    0 -0.96080945099E+02 -0.14300215840E+03  0.35496676566E+03  0.39456630627E+03  0.00000000000E+00 0. -1.
         22    1    3    3    0    0  0.10267312855E+04  0.32973394509E+02 -0.81658008719E+03  0.13122756632E+04  0.00000000000E+00 0. -1.
         22    1    3    3    0    0 -0.18276664189E+01  0.97017146744E+00 -0.11549558149E+02  0.11733451779E+02  0.00000000000E+00 0. -1.
</event>
<event>
 7    1  0.3110367E-005  0.5893558E+03  0.7818608E-02  0.1014754E+00
          2   -1    0    0  502    0  0.00000000000E+00  0.00000000000E+00  0.11603062938E+04  0.11603062938E+04  0.00000000000E+00 0. -1.
          1   -1    0    0  501    0 -0.00000000000E+00 -0.00000000000E+00 -0.21267987001E+04  0.21267987001E+04  0.00000000000E+00 0. -1.
         25    2    1    2    0    0  0.70955242371E+03 -0.11453060300E+03  0.44487744088E+03  0.85447214665E+03  0.12499924390E+03 0.  0.
          2    1    1    2  501    0 -0.52761943768E+03 -0.26169555457E+03 -0.17802933830E+04  0.18751830215E+04  0.00000000000E+00 0. -1.
          1    1    1    2  502    0 -0.18193298603E+03  0.37622615757E+03  0.36892353581E+03  0.55744982583E+03  0.00000000000E+00 0. -1.
         22    1    3    3    0    0  0.50005414005E+03 -0.64690810397E+02  0.24471604958E+03  0.56046854403E+03  0.00000000000E+00 0. -1.
         22    1    3    3    0    0  0.20949828367E+03 -0.49839792601E+02  0.20016139129E+03  0.29400360262E+03  0.00000000000E+00 0. -1.
</event>
<event>
 7    1  0.3110367E-005  0.1337733E+03  0.7818608E-02  0.1326358E+00
          2   -1    0    0  502    0  0.00000000000E+00  0.00000000000E+00  0.10615462778E+04  0.10615462778E+04  0.00000000000E+00 0. -1.
          1   -1    0    0  501    0 -0.00000000000E+00 -0.00000000000E+00 -0.62568984317E+03  0.62568984317E+03  0.00000000000E+00 0. -1.
         25    2    1    2    0    0 -0.18143174889E+03 -0.77093279363E+01  0.63678558442E+03  0.67386724883E+03  0.12499710106E+03 0.  0.
          2    1    1    2  501    0  0.13266322305E+03  0.12395634316E+02 -0.59831641839E+03  0.61297285341E+03  0.00000000000E+00 0. -1.
          1    1    1    2  502    0  0.48768525831E+02 -0.46863063799E+01  0.39738726863E+03  0.40039601877E+03  0.00000000000E+00 0. -1.
         22    1    3    3    0    0 -0.49739863157E+02 -0.60591087100E+02  0.21474463593E+03  0.22860575776E+03  0.00000000000E+00 0.  1.
         22    1    3    3    0    0 -0.13169188573E+03  0.52881759163E+02  0.42204094850E+03  0.44526149107E+03  0.00000000000E+00 0.  1.
</event>
<event>
 7    1  0.3110367E-005  0.2125185E+03  0.7818608E-02  0.1174655E+00
          2   -1    0    0  502    0  0.00000000000E+00  0.00000000000E+00  0.23212803016E+04  0.23212803016E+04  0.00000000000E+00 0. -1.
          1   -1    0    0  501    0 -0.00000000000E+00 -0.00000000000E+00 -0.33611860565E+03  0.33611860565E+03  0.00000000000E+00 0. -1.
         25    2    1    2    0    0  0.68510381495E+01 -0.30028224702E+03  0.52601144427E+03  0.61848946512E+03  0.12499925745E+03 0.  0.
          2    1    1    2  501    0 -0.91238317235E+02  0.18733467544E+03 -0.24915103581E+03  0.32479986114E+03  0.00000000000E+00 0. -1.
          1    1    1    2  502    0  0.84387279086E+02  0.11294757157E+03  0.17083012874E+04  0.17141095809E+04  0.00000000000E+00 0. -1.
         22    1    3    3    0    0 -0.18878194135E+02 -0.34047907985E+02  0.16296719337E+03  0.16755283455E+03  0.00000000000E+00 0.  1.
         22    1    3    3    0    0  0.25729232285E+02 -0.26623433903E+03  0.36304425091E+03  0.45093663057E+03  0.00000000000E+00 0.  1.
</event>
<event>
 7    1  0.3110367E-005  0.3587819E+03  0.7818608E-02  0.1095354E+00
          2   -1    0    0  502    0  0.00000000000E+00  0.00000000000E+00  0.74504636550E+03  0.74504636550E+03  0.00000000000E+00 0. -1.
          1   -1    0    0  501    0 -0.00000000000E+00 -0.00000000000E+00 -0.14645926098E+04  0.14645926098E+04  0.00000000000E+00 0. -1.
         25    2    1    2    0    0  0.44382299029E+03 -0.11199651879E+01  0.66362315218E+02  0.46584630153E+03  0.12501487405E+03 0.  0.
          2    1    1    2  501    0 -0.31047589047E+03 -0.17320162626E+03 -0.12127740692E+04  0.12638097265E+04  0.00000000000E+00 0. -1.
          1    1    1    2  502    0 -0.13334709982E+03  0.17432159144E+03  0.42686550970E+03  0.47998294724E+03  0.00000000000E+00 0. -1.
         22    1    3    3    0    0  0.36912430837E+03  0.32359138875E+02  0.18453776722E+02  0.37099920589E+03  0.00000000000E+00 0.  1.
         22    1    3    3    0    0  0.74698681926E+02 -0.33479104063E+02  0.47908538496E+02  0.94847095639E+02  0.00000000000E+00 0.  1.
</event>
<event>
 7    1  0.3110367E-005  0.1194661E+03  0.7818608E-02  0.1306671E+00
          2   -1    0    0  502    0  0.00000000000E+00  0.00000000000E+00  0.53695956966E+03  0.53695956966E+03  0.00000000000E+00 0. -1.
          1   -1    0    0  501    0 -0.00000000000E+00 -0.00000000000E+00 -0.31347193982E+03  0.31347193982E+03  0.00000000000E+00 0. -1.
         25    2    1    2    0    0 -0.35245363823E+02  0.59183728734E+02 -0.72347274705E+02  0.16001397653E+03  0.12500158043E+03 0.  0.
          2    1    1    2  501    0  0.18329238019E+02  0.62855548287E+02 -0.18385117550E+03  0.19516156294E+03  0.00000000000E+00 0. -1.
          1    1    1    2  502    0  0.16916125804E+02 -0.12203927702E+03  0.47968608005E+03  0.49525597002E+03  0.00000000000E+00 0. -1.
         22    1    3    3    0    0 -0.21689941890E+02  0.68073709839E+01 -0.97668737850E+02  0.10027949059E+03  0.00000000000E+00 0.  1.
         22    1    3    3    0    0 -0.13555421933E+02  0.52376357750E+02  0.25321463145E+02  0.59734485942E+02  0.00000000000E+00 0.  1.
</event>
<event>
 7    1  0.3110367E-005  0.3714780E+03  0.7818608E-02  0.1213326E+00
          2   -1    0    0  502    0  0.00000000000E+00  0.00000000000E+00  0.87363575993E+03  0.87363575993E+03  0.00000000000E+00 0. -1.
          1   -1    0    0  501    0 -0.00000000000E+00 -0.00000000000E+00 -0.10659004754E+04  0.10659004754E+04  0.00000000000E+00 0. -1.
         25    2    1    2    0    0 -0.26803416513E+03  0.29757058519E+03 -0.50285232870E+03  0.65488628937E+03  0.12500008269E+03 0.  0.
          2    1    1    2  501    0  0.23171286989E+03 -0.25929793175E+03 -0.42389073862E+03  0.54827878836E+03  0.00000000000E+00 0. -1.
          1    1    1    2  502    0  0.36321295242E+02 -0.38272653439E+02  0.73447835182E+03  0.73637115763E+03  0.00000000000E+00 0. -1.
         22    1    3    3    0    0 -0.16032712618E+03  0.15387145831E+03 -0.18217437598E+03  0.28734772722E+03  0.00000000000E+00 0. -1.
         22    1    3    3    0    0 -0.10770703895E+03  0.14369912688E+03 -0.32067795273E+03  0.36753856215E+03  0.00000000000E+00 0. -1.
</event>
<event>
 7    1  0.3110367E-005  0.1315139E+03  0.7818608E-02  0.1263562E+00
          2   -1    0    0  502    0  0.00000000000E+00  0.00000000000E+00  0.25099040927E+04  0.25099040927E+04  0.00000000000E+00 0. -1.
          1   -1    0    0  501    0 -0.00000000000E+00 -0.00000000000E+00 -0.15331879736E+04  0.15331879736E+04  0.00000000000E+00 0. -1.
         25    2    1    2    0    0 -0.10890930351E+03 -0.15957359962E+03  0.53569417031E+02  0.23626245366E+03  0.12500117793E+03 0.  0.
          2    1    1    2  501    0  0.25291875768E+02  0.12809033693E+03 -0.14380390485E+04  0.14439539876E+04  0.00000000000E+00 0. -1.
          1    1    1    2  502    0  0.83617427738E+02  0.31483262690E+02  0.23611857506E+04  0.23628756249E+04  0.00000000000E+00 0. -1.
         22    1    3    3    0    0 -0.75824242373E+02 -0.16666419160E+03  0.73145431058E+02  0.19717130262E+03  0.00000000000E+00 0.  1.
         22    1    3    3    0    0 -0.33085061134E+02  0.70905919770E+01 -0.19576014027E+02  0.39091151045E+02  0.00000000000E+00 0.  1.
</event>
<event>
 7    1  0.3110367E-005  0.1119953E+03  0.7818608E-02  0.1383574E+00
          2   -1    0    0  502    0  0.00000000000E+00  0.00000000000E+00  0.47574289326E+03  0.47574289326E+03  0.00000000000E+00 0. -1.
          1   -1    0    0  501    0 -0.00000000000E+00 -0.00000000000E+00 -0.12632707135E+04  0.12632707135E+04  0.00000000000E+00 0. -1.
         25    2    1    2    0    0  0.14185495211E+03 -0.27216392512E+02  0.22237200942E+02  0.19230953497E+03  0.12499961870E+03 0.  0.
          2    1    1    2  501    0 -0.33988659260E+02  0.11990627953E+02 -0.11698994333E+04  0.11704544793E+04  0.00000000000E+00 0. -1.
          1    1    1    2  502    0 -0.10786629285E+03  0.15225764559E+02  0.36013441212E+03  0.37624959247E+03  0.00000000000E+00 0. -1.
         22    1    3    3    0    0  0.59204197419E+02  0.23519945327E+02  0.60687202343E+02  0.87984438104E+02  0.00000000000E+00 0. -1.
         22    1    3    3    0    0  0.82650754696E+02 -0.50736337839E+02 -0.38450001402E+02  0.10432509687E+03  0.00000000000E+00 0. -1.
</event>
<event>
 7    1  0.3110367E-005  0.1364775E+03  0.7818608E-02  0.1247167E+00
          2   -1    0    0  502    0  0.00000000000E+00  0.00000000000E+00  0.13558503308E+03  0.13558503308E+03  0.00000000000E+00 0. -1.
          1   -1    0    0  501    0 -0.00000000000E+00 -0.00000000000E+00 -0.48815290311E+03  0.48815290311E+03  0.00000000000E+00 0. -1.
         25    2    1    2    0    0  0.28144542737E+02  0.12543773341E+03 -0.10170150023E+03  0.20614135823E+03  0.12499729667E+03 0.  0.
          2    1    1    2  501    0  0.73051801438E+02 -0.12943296814E+03 -0.27580010507E+03  0.31329723409E+03  0.00000000000E+00 0. -1.
          1    1    1    2  502    0 -0.10119634417E+03  0.39952347245E+01  0.24933735282E+02  0.10429934386E+03  0.00000000000E+00 0. -1.
         22    1    3    3    0    0  0.61814934642E+02  0.13100680907E+03 -0.87047575094E+02  0.16900044526E+03  0.00000000000E+00 0.  1.
         22    1    3    3    0    0 -0.33670391905E+02 -0.55690756586E+01 -0.14653925137E+02  0.37140912976E+02  0.00000000000E+00 0.  1.
</event>
<event>
 7    1  0.3110367E-005  0.5840964E+03  0.7818608E-02  0.1178530E+00
          2   -1    0    0  502    0  0.00000000000E+00  0.00000000000E+00  0.46193519935E+03  0.46193519935E+03  0.00000000000E+00 0. -1.
          1   -1    0    0  501    0 -0.00000000000E+00 -0.00000000000E+00 -0.21462287835E+04  0.21462287835E+04  0.00000000000E+00 0. -1.
         25    2    1    2    0    0 -0.56376861968E+03  0.12009121140E+02 -0.28639049338E+03  0.64468881116E+03  0.12499949203E+03 0.  0.
          2    1    1    2  501    0 -0.34049021306E+02 -0.35374536680E+02 -0.13633184624E+04  0.13642023031E+04  0.00000000000E+00 0. -1.
          1    1    1    2  502    0  0.59781764099E+03  0.23365415539E+02 -0.34584628325E+02  0.59927286860E+03  0.00000000000E+00 0. -1.
         22    1    3    3    0    0 -0.25401841242E+03 -0.99526209592E+01 -0.62266727857E+02  0.26172801514E+03  0.00000000000E+00 0.  1.
         22    1    3    3    0    0 -0.30975020727E+03  0.21961742099E+02 -0.22412376552E+03  0.38296079602E+03  0.00000000000E+00 0.  1.
</event>
<event>
 7    1  0.3110367E-005  0.5885561E+02  0.7818608E-02  0.1463492E+00
          2   -1    0    0  502    0  0.00000000000E+00  0.00000000000E+00  0.11710271222E+04  0.11710271222E+04  0.00000000000E+00 0. -1.
          1   -1    0    0  501    0 -0.00000000000E+00 -0.00000000000E+00 -0.13815042871E+03  0.13815042871E+03  0.00000000000E+00 0. -1.
         25    2    1    2    0    0 -0.52565302850E+02 -0.75644786301E+02 -0.35308713674E+02  0.15923789778E+03  0.12499903227E+03 0.  0.
          2    1    1    2  501    0  0.94236199421E+01  0.35977346159E+02 -0.31472854117E+02  0.48720781970E+02  0.00000000000E+00 0. -1.
          1    1    1    2  502    0  0.43141682908E+02  0.39667440142E+02  0.10996582613E+04  0.11012188712E+04  0.00000000000E+00 0. -1.
         22    1    3    3    0    0  0.32969286183E+02 -0.63524935717E+01  0.16689292285E+02  0.37494806080E+02  0.00000000000E+00 0. -1.
         22    1    3    3    0    0 -0.85534589033E+02 -0.69292292729E+02 -0.51998005959E+02  0.12174309170E+03  0.00000000000E+00 0. -1.
</event>
<event>
 7    1  0.3110367E-005  0.1809705E+03  0.7818608E-02  0.1215340E+00
          2   -1    0    0  502    0  0.00000000000E+00  0.00000000000E+00  0.11618602826E+03  0.11618602826E+03  0.00000000000E+00 0. -1.
          1   -1    0    0  501    0 -0.00000000000E+00 -0.00000000000E+00 -0.95813355828E+03  0.95813355828E+03  0.00000000000E+00 0. -1.
         25    2    1    2    0    0 -0.20761190326E+03  0.14041799166E+03 -0.32285569428E+03  0.42741190817E+03  0.12500090064E+03 0.  0.
          2    1    1    2  501    0  0.52982714456E+02 -0.91832908026E+02 -0.46363169013E+03  0.47559940614E+03  0.00000000000E+00 0. -1.
          1    1    1    2  502    0  0.15462918880E+03 -0.48585083638E+02 -0.55460145612E+02  0.17130827223E+03  0.00000000000E+00 0. -1.
         22    1    3    3    0    0 -0.19867459394E+03  0.12624373658E+03 -0.33302040806E+03  0.40781327527E+03  0.00000000000E+00 0. -1.
         22    1    3    3    0    0 -0.89373093252E+01  0.14174255084E+02  0.10164713786E+02  0.19598632898E+02  0.00000000000E+00 0. -1.
</event>
<event>
 7    1  0.3110367E-005  0.2724390E+03  0.7818608E-02  0.1227985E+00
          2   -1    0    0  502    0  0.00000000000E+00  0.00000000000E+00  0.14070693781E+04  0.14070693781E+04  0.00000000000E+00 0. -1.
          1   -1    0    0  501    0 -0.00000000000E+00 -0.00000000000E+00 -0.32934019454E+03  0.32934019454E+03  0.00000000000E+00 0. -1.
         25    2    1    2    0    0 -0.23681315870E+03 -0.18253311922E+03  0.11572387666E+04  0.12017595923E+04  0.12500297198E+03 0.  0.
          2    1    1    2  501    0  0.17895928863E+03  0.20395624930E+03 -0.24028888541E+03  0.36244079112E+03  0.00000000000E+00 0. -1.
          1    1    1    2  502    0  0.57853870069E+02 -0.21423130079E+02  0.16077930230E+03  0.17220918916E+03  0.00000000000E+00 0. -1.
         22    1    3    3    0    0 -0.71099114720E+02 -0.97796794484E+02  0.65666947202E+03  0.66770808937E+03  0.00000000000E+00 0.  1.
         22    1    3    3    0    0 -0.16571404398E+03 -0.84736324738E+02  0.50056929461E+03  0.53405150296E+03  0.00000000000E+00 0.  1.
</event>
<event>
 7    1  0.3110367E-005  0.3030490E+03  0.7818608E-02  0.1234355E+00
          2   -1    0    0  502    0  0.00000000000E+00  0.00000000000E+00  0.44884990330E+04  0.44884990330E+04  0.00000000000E+00 0. -1.
          1   -1    0    0  501    0 -0.00000000000E+00 -0.00000000000E+00 -0.11424992845E+04  0.11424992845E+04  0.00000000000E+00 0. -1.
         25    2    1    2    0    0  0.23970939578E+03 -0.14545139491E+03  0.25861645787E+04  0.26043212596E+04  0.12500117087E+03 0.  0.
          2    1    1    2  501    0 -0.28102133482E+03  0.11397359936E+03 -0.11127700554E+04  0.11533517105E+04  0.00000000000E+00 0. -1.
          1    1    1    2  502    0  0.41311939039E+02  0.31477795553E+02  0.18726052252E+04  0.18733253474E+04  0.00000000000E+00 0. -1.
         22    1    3    3    0    0  0.15274863282E+03 -0.35123570460E+02  0.16848895466E+04  0.16921638792E+04  0.00000000000E+00 0.  1.
         22    1    3    3    0    0  0.86960762959E+02 -0.11032782445E+03  0.90127503211E+03  0.91215738041E+03  0.00000000000E+00 0.  1.
</event>
<event>
 7    1  0.3110367E-005  0.5954866E+03  0.7818608E-02  0.1139149E+00
          2   -1    0    0  502    0  0.00000000000E+00  0.00000000000E+00  0.16906651629E+04  0.16906651629E+04  0.00000000000E+00 0. -1.
          1   -1    0    0  501    0 -0.00000000000E+00 -0.00000000000E+00 -0.47643758585E+03  0.47643758585E+03  0.00000000000E+00 0. -1.
         25    2    1    2    0    0 -0.13145195747E+03  0.53678092336E+03  0.15740884648E+03  0.58806057826E+03  0.12499728777E+03 0.  0.
          2    1    1    2  501    0 -0.64192807048E+02  0.41142877691E+02 -0.18243676811E+03  0.19772867071E+03  0.00000000000E+00 0. -1.
          1    1    1    2  502    0  0.19564476452E+03 -0.57792380105E+03  0.12392554987E+04  0.13813134998E+04  0.00000000000E+00 0. -1.
         22    1    3    3    0    0 -0.28021668737E+01  0.24813206699E+03  0.96343012324E+02  0.26619419759E+03  0.00000000000E+00 0. -1.
         22    1    3    3    0    0 -0.12864979060E+03  0.28864885636E+03  0.61065834159E+02  0.32186638067E+03  0.00000000000E+00 0. -1.
</event>
<event>
 7    1  0.3110367E-005  0.7857589E+02  0.7818608E-02  0.1351826E+00
          2   -1    0    0  502    0  0.00000000000E+00  0.00000000000E+00  0.29833533235E+04  0.29833533235E+04  0.00000000000E+00 0. -1.
          1   -1    0    0  501    0 -0.00000000000E+00 -0.00000000000E+00 -0.20474210891E+03  0.20474210891E+03  0.00000000000E+00 0. -1.
         25    2    1    2    0    0  0.42915261051E+02  0.97397452224E+00  0.10671700777E+03  0.16986436986E+03  0.12499086424E+03 0.  0.
          2    1    1    2  501    0  0.16724919491E+01 -0.66853684870E+02 -0.16613379415E+03  0.17908838591E+03  0.00000000000E+00 0. -1.
          1    1    1    2  502    0 -0.44587753000E+02  0.65879710347E+02  0.28380280010E+04  0.28391426766E+04  0.00000000000E+00 0. -1.
         22    1    3    3    0    0  0.10228379170E+02  0.12097493505E+01  0.12957094090E+03  0.12997965979E+03  0.00000000000E+00 0. -1.
         22    1    3    3    0    0  0.32686881881E+02 -0.23577482824E+00 -0.22853933136E+02  0.39884710061E+02  0.00000000000E+00 0. -1.
</event>
<event>
 7    1  0.3460316E-005  0.1839704E+03  0.7818608E-02  0.1279869E+00
          2   -1    0    0  502    0  0.00000000000E+00  0.00000000000E+00  0.16507316770E+04  0.16507316770E+04  0.00000000000E+00 0. -1.
          1   -1    0    0  501    0 -0.00000000000E+00 -0.00000000000E+00 -0.14719887467E+04  0.14719887467E+04  0.00000000000E+00 0. -1.
         25    2    1    2    0    0 -0.69535099886E+02 -0.15592498231E+03 -0.77169583495E+03  0.80018020066E+03  0.12500464643E+03 0.  0.
          2    1    1    2  501    0  0.34213126629E+02  0.19753164772E+03 -0.67093659614E+03  0.70024653225E+03  0.00000000000E+00 0. -1.
          1    1    1    2  502    0  0.35321973257E+02 -0.41606665408E+02  0.16213753614E+04  0.16222936907E+04  0.00000000000E+00 0. -1.
         22    1    3    3    0    0  0.21738963300E+02 -0.52096312731E+02 -0.10409470464E+03  0.11841585983E+03  0.00000000000E+00 0. -1.
         22    1    3    3    0    0 -0.91274063186E+02 -0.10382866958E+03 -0.66760113031E+03  0.68176434083E+03  0.00000000000E+00 0. -1.
</event>
<event>
 7    1  0.3110367E-005  0.1225435E+03  0.7818608E-02  0.1262067E+00
          2   -1    0    0  502    0  0.00000000000E+00  0.00000000000E+00  0.61654036471E+03  0.61654036471E+03  0.00000000000E+00 0. -1.
          1   -1    0    0  501    0 -0.00000000000E+00 -0.00000000000E+00 -0.10010411254E+04  0.10010411254E+04  0.00000000000E+00 0. -1.
         25    2    1    2    0    0 -0.17215451965E+03 -0.21167565042E+02 -0.43074300572E+03  0.48088485399E+03  0.12500184548E+03 0.  0.
          2    1    1    2  501    0  0.62304068945E+02  0.74738221368E+02 -0.53447410561E+03  0.54325884098E+03  0.00000000000E+00 0. -1.
          1    1    1    2  502    0  0.10985045071E+03 -0.53570656326E+02  0.58071635066E+03  0.59343779511E+03  0.00000000000E+00 0. -1.
         22    1    3    3    0    0 -0.12069609355E+01 -0.39831640891E+02 -0.10923967645E+03  0.11628122498E+03  0.00000000000E+00 0. -1.
         22    1    3    3    0    0 -0.17094755872E+03  0.18664075850E+02 -0.32150332927E+03  0.36460362901E+03  0.00000000000E+00 0. -1.
</event>
<event>
 7    1  0.3110367E-005  0.8609206E+02  0.7818608E-02  0.1385822E+00
          2   -1    0    0  502    0  0.00000000000E+00  0.00000000000E+00  0.22136771628E+04  0.22136771628E+04  0.00000000000E+00 0. -1.
          1   -1    0    0  501    0 -0.00000000000E+00 -0.00000000000E+00 -0.78306235023E+02  0.78306235023E+02  0.00000000000E+00 0. -1.
         25    2    1    2    0    0 -0.83566856869E+02 -0.32380394700E+02  0.28336442836E+02  0.15640100689E+03  0.12500564561E+03 0.  0.
          2    1    1    2  501    0  0.55177288855E+02  0.68625760004E+02  0.12439177174E+03  0.15240518698E+03  0.00000000000E+00 0. -1.
          1    1    1    2  502    0  0.28389568013E+02 -0.36245365303E+02  0.19826427132E+04  0.19831772039E+04  0.00000000000E+00 0. -1.
         22    1    3    3    0    0 -0.48087666481E+02  0.33456753832E+01  0.74074751022E+02  0.88378085238E+02  0.00000000000E+00 0. -1.
         22    1    3    3    0    0 -0.35479190387E+02 -0.35726070083E+02 -0.45738308186E+02  0.68022921650E+02  0.00000000000E+00 0. -1.
</event>
<event>
 7    1  0.3218973E-005  0.2529261E+03  0.7818608E-02  0.1138200E+00
          2   -1    0    0  502    0  0.00000000000E+00  0.00000000000E+00  0.20065708988E+04  0.20065708988E+04  0.00000000000E+00 0. -1.
          1   -1    0    0  501    0 -0.00000000000E+00 -0.00000000000E+00 -0.13811008516E+04  0.13811008516E+04  0.00000000000E+00 0. -1.
         25    2    1    2    0    0 -0.33967345520E+03 -0.47875214101E+02 -0.59507343363E+03  0.69814631329E+03  0.12500316415E+03 0.  0.
          2    1    1    2  501    0  0.10733041699E+03  0.14646767798E+03 -0.71494774075E+03  0.73764684715E+03  0.00000000000E+00 0. -1.
          1    1    1    2  502    0  0.23234303821E+03 -0.98592463878E+02  0.19354912216E+04  0.19518785900E+04  0.00000000000E+00 0. -1.
         22    1    3    3    0    0 -0.23146657715E+03  0.55192249309E+01 -0.29706488416E+03  0.37663614216E+03  0.00000000000E+00 0. -1.
         22    1    3    3    0    0 -0.10820687804E+03 -0.53394439032E+02 -0.29800854947E+03  0.32151017112E+03  0.00000000000E+00 0. -1.
</event>
<event>
 7    1  0.3110367E-005  0.1149737E+03  0.7818608E-02  0.1341338E+00
          2   -1    0    0  502    0  0.00000000000E+00  0.00000000000E+00  0.11831281785E+04  0.11831281785E+04  0.00000000000E+00 0. -1.
          1   -1    0    0  501    0 -0.00000000000E+00 -0.00000000000E+00 -0.91416715454E+02  0.91416715454E+02  0.00000000000E+00 0. -1.
         25    2    1    2    0    0 -0.81509975963E+02  0.81456995186E+01  0.53842569651E+03  0.55878218669E+03  0.12500029158E+03 0.  0.
          2    1    1    2  501    0  0.11416412455E+03  0.29725636162E+02 -0.36788285948E+02  0.12357361677E+03  0.00000000000E+00 0. -1.
          1    1    1    2  502    0 -0.32654148587E+02 -0.37871335681E+02  0.59007405248E+03  0.59218909049E+03  0.00000000000E+00 0. -1.
         22    1    3    3    0    0 -0.69430785303E+02 -0.52740576124E+02  0.30064793082E+03  0.31303574975E+03  0.00000000000E+00 0.  1.
         22    1    3    3    0    0 -0.12079190660E+02  0.60886275642E+02  0.23777776569E+03  0.24574643693E+03  0.00000000000E+00 0.  1.
</event>
<event>
 7    1  0.3110367E-005  0.1225829E+03  0.7818608E-02  0.1262525E+00
          2   -1    0    0  502    0  0.00000000000E+00  0.00000000000E+00  0.78686667640E+03  0.78686667640E+03  0.00000000000E+00 0. -1.
          1   -1    0    0  501    0 -0.00000000000E+00 -0.00000000000E+00 -0.72112611939E+03  0.72112611939E+03  0.00000000000E+00 0. -1.
         25    2    1    2    0    0 -0.97103179770E+02  0.18603930913E+03  0.53613399216E+03  0.58915600149E+03  0.12500193790E+03 0.  0.
          2    1    1    2  501    0  0.81570486928E+02 -0.90458146808E+02 -0.67847742459E+03  0.68932433320E+03  0.00000000000E+00 0. -1.
          1    1    1    2  502    0  0.15532692842E+02 -0.95581162319E+02  0.20808398945E+03  0.22951246110E+03  0.00000000000E+00 0. -1.
         22    1    3    3    0    0 -0.10848642959E+03  0.19869020263E+03  0.50979284888E+03  0.55779552776E+03  0.00000000000E+00 0. -1.
         22    1    3    3    0    0  0.11383249820E+02 -0.12650893501E+02  0.26341143281E+02  0.31360473724E+02  0.00000000000E+00 0. -1.
</event>
<event>
 7    1  0.3110367E-005  0.4171340E+03  0.7818608E-02  0.1212692E+00
          2   -1    0    0  502    0  0.00000000000E+00  0.00000000000E+00  0.24148860077E+04  0.24148860077E+04  0.00000000000E+00 0. -1.
          1   -1    0    0  501    0 -0.00000000000E+00 -0.00000000000E+00 -0.70583239524E+03  0.70583239524E+03  0.00000000000E+00 0. -1.
         25    2    1    2    0    0  0.17050104117E+03 -0.40587692198E+03  0.36284770432E+02  0.45907253757E+03  0.12499731737E+03 0.  0.
          2    1    1    2  501    0 -0.19010947310E+03  0.36282590830E+03 -0.40928795979E+03  0.57905171230E+03  0.00000000000E+00 0. -1.
          1    1    1    2  502    0  0.19608431931E+02  0.43051013683E+02  0.20820568018E+04  0.20825941531E+04  0.00000000000E+00 0. -1.
         22    1    3    3    0    0  0.74668652098E+02 -0.96435440299E+02  0.56677912189E+02  0.13449010180E+03  0.00000000000E+00 0. -1.
         22    1    3    3    0    0  0.95832389068E+02 -0.30944148168E+03 -0.20393141756E+02  0.32458243577E+03  0.00000000000E+00 0. -1.
</event>
<event>
 7    1  0.3110367E-005  0.5249241E+03  0.7818608E-02  0.1117164E+00
          2   -1    0    0  502    0  0.00000000000E+00  0.00000000000E+00  0.94331523568E+03  0.94331523568E+03  0.00000000000E+00 0. -1.
          1   -1    0    0  501    0 -0.00000000000E+00 -0.00000000000E+00 -0.24210912360E+04  0.24210912360E+04  0.00000000000E+00 0. -1.
         25    2    1    2    0    0  0.51218206619E+03  0.30318211708E+03  0.30494807127E+03  0.68034394827E+03  0.12499878691E+03 0.  0.
          2    1    1    2  501    0 -0.40225887228E+03 -0.33107708071E+03 -0.21952541699E+04  0.22562280700E+04  0.00000000000E+00 0. -1.
          1    1    1    2  502    0 -0.10992319391E+03  0.27894963632E+02  0.41253009825E+03  0.42783445340E+03  0.00000000000E+00 0. -1.
         22    1    3    3    0    0  0.39885571371E+03  0.28461436758E+03  0.27405228643E+03  0.56142307958E+03  0.00000000000E+00 0. -1.
         22    1    3    3    0    0  0.11332635248E+03  0.18567749502E+02  0.30895784847E+02  0.11892086869E+03  0.00000000000E+00 0. -1.
</event>
<event>
 7    1  0.3110367E-005  0.1226700E+03  0.7818608E-02  0.1280155E+00
          2   -1    0    0  502    0  0.00000000000E+00  0.00000000000E+00  0.39060571369E+03  0.39060571369E+03  0.00000000000E+00 0. -1.
          1   -1    0    0  501    0 -0.00000000000E+00 -0.00000000000E+00 -0.52284907909E+03  0.52284907909E+03  0.00000000000E+00 0. -1.
         25    2    1    2    0    0 -0.12635935550E+03 -0.36116283185E+02  0.16127183355E+03  0.24270294494E+03  0.12500017021E+03 0.  0.
          2    1    1    2  501    0  0.73964477631E+02  0.98710787222E+02 -0.46486534716E+03  0.48095150946E+03  0.00000000000E+00 0. -1.
          1    1    1    2  502    0  0.52394877865E+02 -0.62594504037E+02  0.17135014820E+03  0.18980033839E+03  0.00000000000E+00 0. -1.
         22    1    3    3    0    0 -0.12316585045E+03  0.20331130731E+02  0.11159697574E+03  0.16744272629E+03  0.00000000000E+00 0.  1.
         22    1    3    3    0    0 -0.31935050476E+01 -0.56447413916E+02  0.49674857810E+02  0.75260218647E+02  0.00000000000E+00 0.  1.
</event>
<event>
 7    1  0.3110367E-005  0.1823021E+03  0.7818608E-02  0.1205572E+00
          2   -1    0    0  502    0  0.00000000000E+00  0.00000000000E+00  0.12800313226E+03  0.12800313226E+03  0.00000000000E+00 0. -1.
          1   -1    0    0  501    0 -0.00000000000E+00 -0.00000000000E+00 -0.30684651099E+04  0.30684651099E+04  0.00000000000E+00 0. -1.
         25    2    1    2    0    0  0.14768952463E+03 -0.16881640134E+03 -0.11286358812E+04  0.11574775496E+04  0.12499660974E+03 0.  0.
          2    1    1    2  501    0 -0.16872153530E+03  0.53919311514E+02 -0.18901010510E+04  0.18983825304E+04  0.00000000000E+00 0. -1.
          1    1    1    2  502    0  0.21032010671E+02  0.11489708982E+03  0.78274954646E+02  0.14060816209E+03  0.00000000000E+00 0. -1.
         22    1    3    3    0    0  0.10139168437E+02 -0.98222311112E+02 -0.53515905163E+03  0.54419264574E+03  0.00000000000E+00 0. -1.
         22    1    3    3    0    0  0.13755035620E+03 -0.70594090224E+02 -0.59347682959E+03  0.61328490387E+03  0.00000000000E+00 0. -1.
</event>
<event>
 7    1  0.3110367E-005  0.4997044E+03  0.7818608E-02  0.1050785E+00
          2   -1    0    0  502    0  0.00000000000E+00  0.00000000000E+00  0.18406829362E+04  0.18406829362E+04  0.00000000000E+00 0. -1.
          1   -1    0    0  501    0 -0.00000000000E+00 -0.00000000000E+00 -0.79323516601E+03  0.79323516601E+03  0.00000000000E+00 0. -1.
         25    2    1    2    0    0 -0.47851064273E+03 -0.39113433727E+03  0.76868869701E+03  0.99421631008E+03  0.12500101329E+03 0.  0.
          2    1    1    2  501    0  0.30890478143E+02  0.28793218962E+03 -0.58985211442E+03  0.65710325242E+03  0.00000000000E+00 0. -1.
          1    1    1    2  502    0  0.44762016458E+03  0.10320214765E+03  0.86861118760E+03  0.98259853971E+03  0.00000000000E+00 0. -1.
         22    1    3    3    0    0 -0.48374533139E+03 -0.37484610109E+03  0.73492176235E+03  0.95636245321E+03  0.00000000000E+00 0. -1.
         22    1    3    3    0    0  0.52346886631E+01 -0.16288236181E+02  0.33766934658E+02  0.37853856864E+02  0.00000000000E+00 0. -1.
</event>
<event>
 7    1  0.3110367E-005  0.8281364E+03  0.7818608E-02  0.1025493E+00
          2   -1    0    0  502    0  0.00000000000E+00  0.00000000000E+00  0.23176495409E+04  0.23176495409E+04  0.00000000000E+00 0. -1.
          1   -1    0    0  501    0 -0.00000000000E+00 -0.00000000000E+00 -0.46654955115E+03  0.46654955115E+03  0.00000000000E+00 0. -1.
         25    2    1    2    0    0 -0.11465036371E+03 -0.20901836513E+03 -0.86052765418E+01  0.26931947038E+03  0.12500217390E+03 0.  0.
          2    1    1    2  501    0 -0.63422549275E+03  0.56256442231E+03  0.76253005003E+03  0.11402511925E+04  0.00000000000E+00 0. -1.
          1    1    1    2  502    0  0.74887585646E+03 -0.35354605717E+03  0.10971752162E+04  0.13746284291E+04  0.00000000000E+00 0. -1.
         22    1    3    3    0    0 -0.13265946282E+03 -0.19418250798E+03 -0.30723166106E+02  0.23716933279E+03  0.00000000000E+00 0.  1.
         22    1    3    3    0    0  0.18009099112E+02 -0.14835857156E+02  0.22117889564E+02  0.32150137592E+02  0.00000000000E+00 0.  1.
</event>
<event>
 7    1  0.3110367E-005  0.1996908E+03  0.7818608E-02  0.1310096E+00
          2   -1    0    0  502    0  0.00000000000E+00  0.00000000000E+00  0.95890880687E+03  0.95890880687E+03  0.00000000000E+00 0. -1.
          1   -1    0    0  501    0 -0.00000000000E+00 -0.00000000000E+00 -0.10552466202E+04  0.10552466202E+04  0.00000000000E+00 0. -1.
         25    2    1    2    0    0  0.18866027178E+03  0.10227427002E+03  0.10657522249E+03  0.27025152466E+03  0.12499953630E+03 0.  0.
          2    1    1    2  501    0 -0.15668418492E+03 -0.12274635325E+03 -0.96275479490E+03  0.98311413180E+03  0.00000000000E+00 0. -1.
          1    1    1    2  502    0 -0.31976086861E+02  0.20472083228E+02  0.75984175905E+03  0.76078977064E+03  0.00000000000E+00 0. -1.
         22    1    3    3    0    0  0.12652270704E+03  0.52182339347E+01  0.86292789551E+02  0.15323730254E+03  0.00000000000E+00 0. -1.
         22    1    3    3    0    0  0.62137564747E+02  0.97056036083E+02  0.20282432940E+02  0.11701422212E+03  0.00000000000E+00 0. -1.
</event>
<event>
 7    1  0.3110367E-005  0.2821378E+03  0.7818608E-02  0.1133840E+00
          2   -1    0    0  502    0  0.00000000000E+00  0.00000000000E+00  0.52340247626E+03  0.52340247626E+03  0.00000000000E+00 0. -1.
          1   -1    0    0  501    0 -0.00000000000E+00 -0.00000000000E+00 -0.31673905600E+03  0.31673905600E+03  0.00000000000E+00 0. -1.
         25    2    1    2    0    0  0.10648788557E+03  0.37235190588E+03  0.13957880806E+03  0.43022385991E+03  0.12499885757E+03 0.  0.
          2    1    1    2  501    0 -0.10762436890E+03 -0.20071794957E+03  0.69965123901E+02  0.23825578403E+03  0.00000000000E+00 0. -1.
          1    1    1    2  502    0  0.11364833297E+01 -0.17163395631E+03 -0.28805116993E+01  0.17166188831E+03  0.00000000000E+00 0. -1.
         22    1    3    3    0    0  0.91872382205E+02  0.11849002279E+03  0.27947534210E+02  0.15251716225E+03  0.00000000000E+00 0. -1.
         22    1    3    3    0    0  0.14615503370E+02  0.25386188309E+03  0.11163127385E+03  0.27770669766E+03  0.00000000000E+00 0. -1.
</event>
<event>
 7    1  0.3110367E-005  0.3508809E+02  0.7818608E-02  0.1586507E+00
          2   -1    0    0  502    0  0.00000000000E+00  0.00000000000E+00  0.50288994438E+03  0.50288994438E+03  0.00000000000E+00 0. -1.
          1   -1    0    0  501    0 -0.00000000000E+00 -0.00000000000E+00 -0.29181948006E+03  0.29181948006E+03  0.00000000000E+00 0. -1.
         25    2    1    2    0    0 -0.14793697258E+02 -0.12271717033E+02 -0.63388081052E+02  0.14146732259E+03  0.12500202408E+03 0.  0.
          2    1    1    2  501    0  0.35614380122E+02 -0.57240411565E+01 -0.18726081280E+03  0.19070333172E+03  0.00000000000E+00 0. -1.
          1    1    1    2  502    0 -0.20820682863E+02  0.17995758189E+02  0.46171935818E+03  0.46253877012E+03  0.00000000000E+00 0. -1.
         22    1    3    3    0    0 -0.16174269399E+02  0.34910314226E+02 -0.82118165973E+02  0.90684784902E+02  0.00000000000E+00 0.  1.
         22    1    3    3    0    0  0.13805721406E+01 -0.47182031258E+02  0.18730084920E+02  0.50782537690E+02  0.00000000000E+00 0.  1.
</event>
<event>
 7    1  0.3110367E-005  0.2139479E+03  0.7818608E-02  0.1179417E+00
          2   -1    0    0  502    0  0.00000000000E+00  0.00000000000E+00  0.13074635023E+04  0.13074635023E+04  0.00000000000E+00 0. -1.
          1   -1    0    0  501    0 -0.00000000000E+00 -0.00000000000E+00 -0.43121325585E+03  0.43121325585E+03  0.00000000000E+00 0. -1.
         25    2    1    2    0    0  0.18977961251E+03 -0.21329588061E+03 -0.22950302837E+02  0.31250793861E+03  0.12499224489E+03 0.  0.
          2    1    1    2  501    0 -0.18288765553E+03  0.80762414337E+02 -0.22107019969E+03  0.29806458244E+03  0.00000000000E+00 0. -1.
          1    1    1    2  502    0 -0.68919569817E+01  0.13253346627E+03  0.11202707490E+04  0.11281042371E+04  0.00000000000E+00 0. -1.
         22    1    3    3    0    0  0.17221288487E+03 -0.21952638725E+03 -0.46089342166E+02  0.28279557966E+03  0.00000000000E+00 0. -1.
         22    1    3    3    0    0  0.17566727639E+02  0.62305066436E+01  0.23139039328E+02  0.29712358944E+02  0.00000000000E+00 0. -1.
</event>
<event>
 7    1  0.3110367E-005  0.3309964E+03  0.7818608E-02  0.1181232E+00
          2   -1    0    0  502    0  0.00000000000E+00  0.00000000000E+00  0.17194024150E+04  0.17194024150E+04  0.00000000000E+00 0. -1.
          1   -1    0    0  501    0 -0.00000000000E+00 -0.00000000000E+00 -0.10052128007E+04  0.10052128007E+04  0.00000000000E+00 0. -1.
         25    2    1    2    0    0  0.18229419648E+03 -0.20918943467E+03 -0.19728388072E+03  0.36268147749E+03  0.12500212349E+03 0.  0.
          2    1    1    2  501    0 -0.24953786933E+03  0.25961609452E+03 -0.67935271858E+03  0.76888866619E+03  0.00000000000E+00 0. -1.
          1    1    1    2  502    0  0.67243672852E+02 -0.50426659848E+02  0.15908262136E+04  0.15930450720E+04  0.00000000000E+00 0. -1.
         22    1    3    3    0    0  0.15249132135E+03 -0.11010070426E+03 -0.74981679958E+02  0.20247967921E+03  0.00000000000E+00 0.  1.
         22    1    3    3    0    0  0.29802875132E+02 -0.99088730410E+02 -0.12230220077E+03  0.16020179828E+03  0.00000000000E+00 0.  1.
</event>
<event>
 7    1  0.3110367E-005  0.1363852E+03  0.7818608E-02  0.1259249E+00
          2   -1    0    0  502    0  0.00000000000E+00  0.00000000000E+00  0.28180210830E+03  0.28180210830E+03  0.00000000000E+00 0. -1.
          1   -1    0    0  501    0 -0.00000000000E+00 -0.00000000000E+00 -0.62527656903E+03  0.62527656903E+03  0.00000000000E+00 0. -1.
         25    2    1    2    0    0 -0.11540488744E+03  0.18486016722E+03 -0.68597194390E+02  0.26042669098E+03  0.12499966730E+03 0.  0.
          2    1    1    2  501    0  0.61522328810E+02 -0.11292329334E+03 -0.44013380104E+03  0.45853509128E+03  0.00000000000E+00 0. -1.
          1    1    1    2  502    0  0.53882558633E+02 -0.71936873882E+02  0.16525653471E+03  0.18811689507E+03  0.00000000000E+00 0. -1.
         22    1    3    3    0    0  0.36420849341E+01  0.68083280621E+02  0.20711830649E+02  0.71257124638E+02  0.00000000000E+00 0. -1.
         22    1    3    3    0    0 -0.11904697238E+03  0.11677688660E+03 -0.89309025039E+02  0.18916956634E+03  0.00000000000E+00 0. -1.
</event>
<event>
 7    1  0.3110367E-005  0.3073619E+03  0.7818608E-02  0.1304259E+00
          2   -1    0    0  502    0  0.00000000000E+00  0.00000000000E+00  0.22531529541E+03  0.22531529541E+03  0.00000000000E+00 0. -1.
          1   -1    0    0  501    0 -0.00000000000E+00 -0.00000000000E+00 -0.64500433036E+03  0.64500433036E+03  0.00000000000E+00 0. -1.
         25    2    1    2    0    0 -0.20225588480E+03  0.24693495418E+03 -0.28585161717E+03  0.44633703572E+03  0.12498515064E+03 0.  0.
          2    1    1    2  501    0  0.25987705264E+02 -0.12047813987E+01 -0.11834714945E+03  0.12117285219E+03  0.00000000000E+00 0. -1.
          1    1    1    2  502    0  0.17626817954E+03 -0.24573017278E+03 -0.15490268328E+02  0.30280973786E+03  0.00000000000E+00 0. -1.
         22    1    3    3    0    0  0.96018063949E+01 -0.33278940132E+01 -0.26148548726E+02  0.28053808388E+02  0.00000000000E+00 0. -1.
         22    1    3    3    0    0 -0.21185769120E+03  0.25026284819E+03 -0.25970306845E+03  0.41828322733E+03  0.00000000000E+00 0. -1.
</event>
<event>
 7    1  0.3110367E-005  0.3687114E+03  0.7818608E-02  0.1285343E+00
          2   -1    0    0  502    0  0.00000000000E+00  0.00000000000E+00  0.12785800882E+04  0.12785800882E+04  0.00000000000E+00 0. -1.
          1   -1    0    0  501    0 -0.00000000000E+00 -0.00000000000E+00 -0.86305714146E+03  0.86305714146E+03  0.00000000000E+00 0. -1.
         25    2    1    2    0    0 -0.32493386284E+03 -0.22155036495E+03 -0.53958030460E+03  0.67929250355E+03  0.12499928339E+03 0.  0.
          2    1    1    2  501    0  0.22816915344E+02  0.12160976323E+02 -0.22491645707E+03  0.22639768910E+03  0.00000000000E+00 0. -1.
          1    1    1    2  502    0  0.30211694749E+03  0.20938938862E+03  0.11800197084E+04  0.12359470370E+04  0.00000000000E+00 0. -1.
         22    1    3    3    0    0 -0.32023064102E+03 -0.21562973232E+03 -0.46519909884E+03  0.60452795342E+03  0.00000000000E+00 0. -1.
         22    1    3    3    0    0 -0.47032218148E+01 -0.59206326299E+01 -0.74381205760E+02  0.74764550132E+02  0.00000000000E+00 0. -1.
</event>
<event>
 7    1  0.3110367E-005  0.8124757E+02  0.7818608E-02  0.1416657E+00
          2   -1    0    0  502    0  0.00000000000E+00  0.00000000000E+00  0.16729064883E+04  0.16729064883E+04  0.00000000000E+00 0. -1.
          1   -1    0    0  501    0 -0.00000000000E+00 -0.00000000000E+00 -0.68491597721E+03  0.68491597721E+03  0.00000000000E+00 0. -1.
         25    2    1    2    0    0  0.53881313229E+02 -0.10143800082E+02  0.86296104040E+03  0.87368945718E+03  0.12500167093E+03 0.  0.
          2    1    1    2  501    0 -0.67051926368E+02  0.46036703847E+02 -0.67666084230E+03  0.68153153591E+03  0.00000000000E+00 0. -1.
          1    1    1    2  502    0  0.13170613139E+02 -0.35892903765E+02  0.80169031301E+03  0.80260147244E+03  0.00000000000E+00 0. -1.
         22    1    3    3    0    0  0.75922580166E+02 -0.31840406622E+02  0.34042147495E+03  0.35023539267E+03  0.00000000000E+00 0.  1.
         22    1    3    3    0    0 -0.22041266937E+02  0.21696606540E+02  0.52253956546E+03  0.52345406451E+03  0.00000000000E+00 0.  1.
</event>
<event>
 7    1  0.3110367E-005  0.5228024E+03  0.7818608E-02  0.1082021E+00
          2   -1    0    0  502    0  0.00000000000E+00  0.00000000000E+00  0.36470414242E+03  0.36470414242E+03  0.00000000000E+00 0. -1.
          1   -1    0    0  501    0 -0.00000000000E+00 -0.00000000000E+00 -0.11850865104E+04  0.11850865104E+04  0.00000000000E+00 0. -1.
         25    2    1    2    0    0  0.48225942360E+03 -0.31207294300E+03 -0.10382690413E+03  0.59696669196E+03  0.12500212757E+03 0.  0.
          2    1    1    2  501    0 -0.57838768251E+02  0.17016458410E+03 -0.22728208513E+03  0.28975585416E+03  0.00000000000E+00 0. -1.
          1    1    1    2  502    0 -0.42442065535E+03  0.14190835889E+03 -0.48927337871E+03  0.66306810670E+03  0.00000000000E+00 0. -1.
         22    1    3    3    0    0  0.35028405222E+03 -0.15596302143E+03 -0.69493495876E+02  0.38968285472E+03  0.00000000000E+00 0. -1.
         22    1    3    3    0    0  0.13197537138E+03 -0.15610992156E+03 -0.34333408254E+02  0.20728383724E+03  0.00000000000E+00 0. -1.
</event>
<event>
 7    1  0.3110367E-005  0.7022677E+02  0.7818608E-02  0.1360897E+00
          2   -1    0    0  502    0  0.00000000000E+00  0.00000000000E+00  0.14404249624E+03  0.14404249624E+03  0.00000000000E+00 0. -1.
          1   -1    0    0  501    0 -0.00000000000E+00 -0.00000000000E+00 -0.17130418277E+03  0.17130418277E+03  0.00000000000E+00 0. -1.
         25    2    1    2    0    0  0.41266946484E+02  0.10025945053E+01  0.17672751734E+02  0.13281984962E+03  0.12499928092E+03 0.  0.
          2    1    1    2  501    0  0.60385293464E+02  0.34011249111E+02 -0.14756607064E+02  0.70858352965E+02  0.00000000000E+00 0. -1.
          1    1    1    2  502    0 -0.10165223995E+03 -0.35013843616E+02 -0.30177831196E+02  0.11166847642E+03  0.00000000000E+00 0. -1.
         22    1    3    3    0    0 -0.42281880593E+02 -0.16120866011E+02  0.14342136247E+02  0.47469322931E+02  0.00000000000E+00 0. -1.
         22    1    3    3    0    0  0.83548827077E+02  0.17123460516E+02  0.33306154866E+01  0.85350526685E+02  0.00000000000E+00 0. -1.
</event>
<event>
 7    1  0.3110367E-005  0.2688369E+02  0.7818608E-02  0.1677494E+00
          2   -1    0    0  502    0  0.00000000000E+00  0.00000000000E+00  0.71698852241E+03  0.71698852241E+03  0.00000000000E+00 0. -1.
          1   -1    0    0  501    0 -0.00000000000E+00 -0.00000000000E+00 -0.46975354563E+02  0.46975354563E+02  0.00000000000E+00 0. -1.
         25    2    1    2    0    0 -0.40894089154E+02  0.72439384548E+01  0.19832494819E+03  0.23808159665E+03  0.12500104167E+03 0.  0.
          2    1    1    2  501    0  0.21425863754E+02 -0.15705828364E+02 -0.20301460049E+02  0.33434861483E+02  0.00000000000E+00 0. -1.
          1    1    1    2  502    0  0.19468225400E+02  0.84618899096E+01  0.49198967971E+03  0.49244741884E+03  0.00000000000E+00 0. -1.
         22    1    3    3    0    0 -0.57026023929E+02 -0.34527455607E+02  0.50524940861E+02  0.83647368427E+02  0.00000000000E+00 0. -1.
         22    1    3    3    0    0  0.16131934775E+02  0.41771394062E+02  0.14780000732E+03  0.15443422822E+03  0.00000000000E+00 0. -1.
</event>
<event>
 7    1  0.3110367E-005  0.1853613E+03  0.7818608E-02  0.1240635E+00
          2   -1    0    0  502    0  0.00000000000E+00  0.00000000000E+00  0.17946189411E+04  0.17946189411E+04  0.00000000000E+00 0. -1.
          1   -1    0    0  501    0 -0.00000000000E+00 -0.00000000000E+00 -0.13452174994E+04  0.13452174994E+04  0.00000000000E+00 0. -1.
         25    2    1    2    0    0  0.25299181463E+03 -0.14245652138E+02  0.87587446650E+02  0.29581231904E+03  0.12500228163E+03 0.  0.
          2    1    1    2  501    0 -0.18182335487E+03 -0.21513175467E+02 -0.12333535142E+04  0.12468694559E+04  0.00000000000E+00 0. -1.
          1    1    1    2  502    0 -0.71168459762E+02  0.35758827606E+02  0.15951675092E+04  0.15971546656E+04  0.00000000000E+00 0. -1.
         22    1    3    3    0    0  0.23511881887E+03 -0.16837659788E+02  0.32636320616E+02  0.23796952577E+03  0.00000000000E+00 0. -1.
         22    1    3    3    0    0  0.17872995761E+02  0.25920076503E+01  0.54951126034E+02  0.57842793272E+02  0.00000000000E+00 0. -1.
</event>
<event>
 7    1  0.3110367E-005  0.2318236E+03  0.7818608E-02  0.1233469E+00
          2   -1    0    0  502    0  0.00000000000E+00  0.00000000000E+00  0.22139103915E+04  0.22139103915E+04  0.00000000000E+00 0. -1.
          1   -1    0    0  501    0 -0.00000000000E+00 -0.00000000000E+00 -0.30223022550E+03  0.30223022550E+03  0.00000000000E+00 0. -1.
         25    2    1    2    0    0 -0.26795200892E+03 -0.82487982408E+02  0.93226391218E+03  0.98150082917E+03  0.12500131752E+03 0.  0.
          2    1    1    2  501    0  0.68290467181E+02  0.55416466117E+01 -0.26410281793E+03  0.27284537048E+03  0.00000000000E+00 0. -1.
          1    1    1    2  502    0  0.19966154174E+03  0.76946335796E+02  0.12435190717E+04  0.12617944173E+04  0.00000000000E+00 0. -1.
         22    1    3    3    0    0 -0.31553066695E+02  0.27957242378E+02  0.83550954500E+02  0.93584001929E+02  0.00000000000E+00 0. -1.
         22    1    3    3    0    0 -0.23639894222E+03 -0.11044522479E+03  0.84871295768E+03  0.88791682724E+03  0.00000000000E+00 0. -1.
</event>
<event>
 7    1  0.3110367E-005  0.1099826E+03  0.7818608E-02  0.1313173E+00
          2   -1    0    0  502    0  0.00000000000E+00  0.00000000000E+00  0.16023638377E+04  0.16023638377E+04  0.00000000000E+00 0. -1.
          1   -1    0    0  501    0 -0.00000000000E+00 -0.00000000000E+00 -0.49835499220E+02  0.49835499220E+02  0.00000000000E+00 0. -1.
         25    2    1    2    0    0 -0.91008252087E+02 -0.11265264025E+03  0.68051114845E+03  0.70689052065E+03  0.12500266285E+03 0.  0.
          2    1    1    2  501    0 -0.26860947295E+01  0.66990003613E+02 -0.41093458118E-01  0.67043846680E+02  0.00000000000E+00 0. -1.
          1    1    1    2  502    0  0.93694346817E+02  0.45662636634E+02  0.87205828350E+03  0.87826496960E+03  0.00000000000E+00 0. -1.
         22    1    3    3    0    0 -0.10104603217E+03 -0.40959034243E+02  0.29199515723E+03  0.31168752774E+03  0.00000000000E+00 0. -1.
         22    1    3    3    0    0  0.10037780084E+02 -0.71693606003E+02  0.38851599122E+03  0.39520299291E+03  0.00000000000E+00 0. -1.
</event>
<event>
 7    1  0.3110367E-005  0.1818744E+03  0.7818608E-02  0.1227497E+00
          2   -1    0    0  502    0  0.00000000000E+00  0.00000000000E+00  0.14181248549E+04  0.14181248549E+04  0.00000000000E+00 0. -1.
          1   -1    0    0  501    0 -0.00000000000E+00 -0.00000000000E+00 -0.51899039904E+02  0.51899039904E+02  0.00000000000E+00 0. -1.
         25    2    1    2    0    0  0.17307306909E+03  0.11947164506E+03  0.76118496272E+03  0.79953354944E+03  0.12499435187E+03 0.  0.
          2    1    1    2  501    0 -0.57514151421E+01 -0.92703375367E+02  0.94246265909E+02  0.13232291267E+03  0.00000000000E+00 0. -1.
          1    1    1    2  502    0 -0.16732165395E+03 -0.26768269697E+02  0.51079458637E+03  0.53816743269E+03  0.00000000000E+00 0. -1.
         22    1    3    3    0    0  0.11398758098E+03  0.12409504655E+03  0.66936368595E+03  0.69024669015E+03  0.00000000000E+00 0.  1.
         22    1    3    3    0    0  0.59085488110E+02 -0.46234014896E+01  0.91821276765E+02  0.10928685929E+03  0.00000000000E+00 0.  1.
</event>
<event>
 7    1  0.3110367E-005  0.1228204E+03  0.7818608E-02  0.1380877E+00
          2   -1    0    0  502    0  0.00000000000E+00  0.00000000000E+00  0.47695896867E+03  0.47695896867E+03  0.00000000000E+00 0. -1.
          1   -1    0    0  501    0 -0.00000000000E+00 -0.00000000000E+00 -0.16903583745E+03  0.16903583745E+03  0.00000000000E+00 0. -1.
         25    2    1    2    0    0 -0.83836713290E+02  0.75093067934E+02  0.32883743411E+03  0.36936042818E+03  0.12500201794E+03 0.  0.
          2    1    1    2  501    0 -0.14687691990E+02  0.30212664024E+02 -0.10462747196E+03  0.10988831263E+03  0.00000000000E+00 0. -1.
          1    1    1    2  502    0  0.98524405280E+02 -0.10530573196E+03  0.83713169073E+02  0.16674606531E+03  0.00000000000E+00 0. -1.
         22    1    3    3    0    0 -0.18595302313E+02  0.15820662586E+02  0.24973445088E+03  0.25092503779E+03  0.00000000000E+00 0. -1.
         22    1    3    3    0    0 -0.65241410977E+02  0.59272405348E+02  0.79102983228E+02  0.11843539039E+03  0.00000000000E+00 0. -1.
</event>
<event>
 7    1  0.3110367E-005  0.6529514E+02  0.7818608E-02  0.1430266E+00
          2   -1    0    0  502    0  0.00000000000E+00  0.00000000000E+00  0.64998057058E+02  0.64998057058E+02  0.00000000000E+00 0. -1.
          1   -1    0    0  501    0 -0.00000000000E+00 -0.00000000000E+00 -0.25379038294E+04  0.25379038294E+04  0.00000000000E+00 0. -1.
         25    2    1    2    0    0 -0.24965869534E+02 -0.86430904321E+02 -0.34076191179E+03  0.37394810929E+03  0.12499964821E+03 0.  0.
          2    1    1    2  501    0  0.43717415727E+02  0.47881055701E+02 -0.21704775043E+04  0.21714456946E+04  0.00000000000E+00 0. -1.
          1    1    1    2  502    0 -0.18751546193E+02  0.38549848620E+02  0.38333643769E+02  0.57508082544E+02  0.00000000000E+00 0. -1.
         22    1    3    3    0    0  0.32866055266E+02 -0.67304597557E+02 -0.27182477092E+03  0.28195530235E+03  0.00000000000E+00 0.  1.
         22    1    3    3    0    0 -0.57831924800E+02 -0.19126306763E+02 -0.68937140876E+02  0.91992806939E+02  0.00000000000E+00 0.  1.
</event>
<event>
 7    1  0.3110367E-005  0.4710433E+03  0.7818608E-02  0.1234697E+00
          2   -1    0    0  502    0  0.00000000000E+00  0.00000000000E+00  0.43093892710E+04  0.43093892710E+04  0.00000000000E+00 0. -1.
          1   -1    0    0  501    0 -0.00000000000E+00 -0.00000000000E+00 -0.17238481774E+04  0.17238481774E+04  0.00000000000E+00 0. -1.
         25    2    1    2    0    0 -0.62168007131E+01 -0.48423807227E+03 -0.10244214649E+04  0.11399954647E+04  0.12500065025E+03 0.  0.
          2    1    1    2  501    0 -0.29864178894E+02  0.14726865192E+02 -0.62815863258E+03  0.62904055308E+03  0.00000000000E+00 0. -1.
          1    1    1    2  502    0  0.36080979608E+02  0.46951120708E+03  0.42381211911E+04  0.42642014306E+04  0.00000000000E+00 0. -1.
         22    1    3    3    0    0  0.51323229862E+01  0.45985983698E+00 -0.63330932896E+02  0.63540217750E+02  0.00000000000E+00 0.  1.
         22    1    3    3    0    0 -0.11349123699E+02 -0.48469793211E+03 -0.96109053198E+03  0.10764552469E+04  0.00000000000E+00 0.  1.
</event>
<event>
 7    1  0.3110367E-005  0.1494355E+03  0.7818608E-02  0.1208187E+00
          2   -1    0    0  502    0  0.00000000000E+00  0.00000000000E+00  0.97310729429E+03  0.97310729429E+03  0.00000000000E+00 0. -1.
          1   -1    0    0  501    0 -0.00000000000E+00 -0.00000000000E+00 -0.13833315134E+03  0.13833315134E+03  0.00000000000E+00 0. -1.
         25    2    1    2    0    0  0.21689842451E+02 -0.26394303851E+02  0.78483154040E+03  0.79545745690E+03  0.12499964156E+03 0.  0.
          2    1    1    2  501    0 -0.28802774971E+02  0.16476383603E+03  0.58421270667E+02  0.17717157328E+03  0.00000000000E+00 0. -1.
          1    1    1    2  502    0  0.71129325193E+01 -0.13836953218E+03 -0.84786681181E+01  0.13881141545E+03  0.00000000000E+00 0. -1.
         22    1    3    3    0    0 -0.86862671615E+01 -0.28242308826E+02  0.38626638398E+02  0.48632257185E+02  0.00000000000E+00 0.  1.
         22    1    3    3    0    0  0.30376109613E+02  0.18480049747E+01  0.74620490200E+03  0.74682519972E+03  0.00000000000E+00 0.  1.
</event>
<event>
 7    1  0.3110367E-005  0.5439128E+03  0.7818608E-02  0.1010367E+00
          2   -1    0    0  502    0  0.00000000000E+00  0.00000000000E+00  0.31996975315E+04  0.31996975315E+04  0.00000000000E+00 0. -1.
          1   -1    0    0  501    0 -0.00000000000E+00 -0.00000000000E+00 -0.66871212867E+03  0.66871212867E+03  0.00000000000E+00 0. -1.
         25    2    1    2    0    0  0.49959314039E+03 -0.17277269019E+01  0.42650888100E+02  0.51675810400E+03  0.12499419518E+03 0.  0.
          2    1    1    2  501    0 -0.15518922006E+03  0.45886081917E+03 -0.25626830455E+03  0.54800582963E+03  0.00000000000E+00 0. -1.
          1    1    1    2  502    0 -0.34440392033E+03 -0.45713309226E+03  0.27446028193E+04  0.28036457265E+04  0.00000000000E+00 0. -1.
         22    1    3    3    0    0  0.21537032490E+03 -0.48446912121E+02 -0.21075426085E+02  0.22175584260E+03  0.00000000000E+00 0.  1.
         22    1    3    3    0    0  0.28422281549E+03  0.46719185219E+02  0.63726314185E+02  0.29500226140E+03  0.00000000000E+00 0.  1.
</event>
<event>
 7    1  0.3110367E-005  0.4390989E+03  0.7818608E-02  0.1179916E+00
          2   -1    0    0  502    0  0.00000000000E+00  0.00000000000E+00  0.65889455915E+03  0.65889455915E+03  0.00000000000E+00 0. -1.
          1   -1    0    0  501    0 -0.00000000000E+00 -0.00000000000E+00 -0.74750670639E+03  0.74750670639E+03  0.00000000000E+00 0. -1.
         25    2    1    2    0    0 -0.69189227323E+02  0.48327229314E+03 -0.15452230929E+03  0.52710984721E+03  0.12501355311E+03 0.  0.
          2    1    1    2  501    0 -0.32213706125E+01 -0.64220423686E+02 -0.30701471353E+03  0.31367606599E+03  0.00000000000E+00 0. -1.
          1    1    1    2  502    0  0.72410597935E+02 -0.41905186946E+03  0.37292487558E+03  0.56561535235E+03  0.00000000000E+00 0. -1.
         22    1    3    3    0    0 -0.10069894737E+03  0.26741435122E+03 -0.91671043129E+02  0.30009047533E+03  0.00000000000E+00 0. -1.
         22    1    3    3    0    0  0.31509720044E+02  0.21585794193E+03 -0.62851266158E+02  0.22701937188E+03  0.00000000000E+00 0. -1.
</event>
<event>
 7    1  0.3110367E-005  0.2450206E+03  0.7818608E-02  0.1222558E+00
          2   -1    0    0  502    0  0.00000000000E+00  0.00000000000E+00  0.12716598658E+04  0.12716598658E+04  0.00000000000E+00 0. -1.
          1   -1    0    0  501    0 -0.00000000000E+00 -0.00000000000E+00 -0.60210569564E+03  0.60210569564E+03  0.00000000000E+00 0. -1.
         25    2    1    2    0    0  0.25821844734E+03 -0.45433279029E+01 -0.43455502017E+03  0.52073084347E+03  0.12500054963E+03 0.  0.
          2    1    1    2  501    0 -0.21378020121E+03 -0.52844202401E+02 -0.24969318446E+02  0.22162570027E+03  0.00000000000E+00 0. -1.
          1    1    1    2  502    0 -0.44438246132E+02  0.57387530304E+02  0.11290785088E+04  0.11314090177E+04  0.00000000000E+00 0. -1.
         22    1    3    3    0    0  0.12503605125E+03 -0.56721862039E+02 -0.15760310344E+03  0.20902182173E+03  0.00000000000E+00 0. -1.
         22    1    3    3    0    0  0.13318239609E+03  0.52178534136E+02 -0.27695191673E+03  0.31170902174E+03  0.00000000000E+00 0. -1.
</event>
<event>
 7    1  0.3110367E-005  0.7802331E+03  0.7818608E-02  0.1170775E+00
          2   -1    0    0  502    0  0.00000000000E+00  0.00000000000E+00  0.29870072435E+04  0.29870072435E+04  0.00000000000E+00 0. -1.
          1   -1    0    0  501    0 -0.00000000000E+00 -0.00000000000E+00 -0.30996750387E+03  0.30996750387E+03  0.00000000000E+00 0. -1.
         25    2    1    2    0    0  0.80118943217E+03  0.85000293515E+02  0.16872159565E+04  0.18738883200E+04  0.12502078252E+03 0.  0.
          2    1    1    2  501    0 -0.76395582971E+03 -0.99987365940E+02  0.47167270791E+03  0.90338315597E+03  0.00000000000E+00 0. -1.
          1    1    1    2  502    0 -0.37233602456E+02  0.14987072425E+02  0.51815107522E+03  0.51970327134E+03  0.00000000000E+00 0. -1.
         22    1    3    3    0    0  0.66672433891E+03  0.30957999725E+02  0.13209891488E+04  0.14800311055E+04  0.00000000000E+00 0. -1.
         22    1    3    3    0    0  0.13446509326E+03  0.54042293790E+02  0.36622680766E+03  0.39385721458E+03  0.00000000000E+00 0. -1.
</event>
<event>
 7    1  0.3110367E-005  0.4041422E+03  0.7818608E-02  0.1101638E+00
          2   -1    0    0  502    0  0.00000000000E+00  0.00000000000E+00  0.77865008340E+03  0.77865008340E+03  0.00000000000E+00 0. -1.
          1   -1    0    0  501    0 -0.00000000000E+00 -0.00000000000E+00 -0.12266759854E+04  0.12266759854E+04  0.00000000000E+00 0. -1.
         25    2    1    2    0    0  0.38427672238E+03 -0.41107060637E+03  0.44465999562E+02  0.57814335235E+03  0.12499947184E+03 0.  0.
          2    1    1    2  501    0 -0.27385394361E+03  0.26949314388E+03 -0.90179356389E+03  0.98023169145E+03  0.00000000000E+00 0. -1.
          1    1    1    2  502    0 -0.11042277877E+03  0.14157746249E+03  0.40930166234E+03  0.44695102500E+03  0.00000000000E+00 0. -1.
         22    1    3    3    0    0  0.11477536617E+03 -0.56962387213E+02 -0.15717859068E+02  0.12909356812E+03  0.00000000000E+00 0. -1.
         22    1    3    3    0    0  0.26950135621E+03 -0.35410821916E+03  0.60183858629E+02  0.44904978423E+03  0.00000000000E+00 0. -1.
</event>
<event>
 7    1  0.3110367E-005  0.5894525E+03  0.7818608E-02  0.1016572E+00
          2   -1    0    0  502    0  0.00000000000E+00  0.00000000000E+00  0.49836059457E+03  0.49836059457E+03  0.00000000000E+00 0. -1.
          1   -1    0    0  501    0 -0.00000000000E+00 -0.00000000000E+00 -0.23951692579E+04  0.23951692579E+04  0.00000000000E+00 0. -1.
         25    2    1    2    0    0 -0.21946477885E+03  0.56594812425E+03 -0.41757956872E+03  0.74730189947E+03  0.12500145694E+03 0.  0.
          2    1    1    2  501    0  0.53535049081E+03 -0.31025512520E+03 -0.16055440503E+04  0.17206481594E+04  0.00000000000E+00 0. -1.
          1    1    1    2  502    0 -0.31588571195E+03 -0.25569299904E+03  0.12631495567E+03  0.42557979370E+03  0.00000000000E+00 0. -1.
         22    1    3    3    0    0 -0.11503119436E+03  0.24349461388E+03 -0.11455162326E+03  0.29264975151E+03  0.00000000000E+00 0.  1.
         22    1    3    3    0    0 -0.10443358450E+03  0.32245351037E+03 -0.30302794546E+03  0.45465214796E+03  0.00000000000E+00 0.  1.
</event>
<event>
 7    1  0.3110367E-005  0.1342903E+03  0.7818608E-02  0.1239165E+00
          2   -1    0    0  502    0  0.00000000000E+00  0.00000000000E+00  0.57673001535E+03  0.57673001535E+03  0.00000000000E+00 0. -1.
          1   -1    0    0  501    0 -0.00000000000E+00 -0.00000000000E+00 -0.51007513716E+03  0.51007513716E+03  0.00000000000E+00 0. -1.
         25    2    1    2    0    0  0.13863823625E+03  0.76807925638E+01  0.22401719731E+02  0.18816493662E+03  0.12499860479E+03 0.  0.
          2    1    1    2  501    0 -0.87627798973E+02 -0.10693007771E+03 -0.40906204034E+03  0.43179210914E+03  0.00000000000E+00 0. -1.
          1    1    1    2  502    0 -0.51010437281E+02  0.99249285151E+02  0.45331519880E+03  0.46684810675E+03  0.00000000000E+00 0. -1.
         22    1    3    3    0    0  0.12466820171E+03 -0.26035627064E+02  0.55472303546E+02  0.13891432919E+03  0.00000000000E+00 0.  1.
         22    1    3    3    0    0  0.13970034544E+02  0.33716419628E+02 -0.33070583815E+02  0.49250607423E+02  0.00000000000E+00 0.  1.
</event>
<event>
 7    1  0.3110367E-005  0.1920998E+03  0.7818608E-02  0.1281564E+00
          2   -1    0    0  502    0  0.00000000000E+00  0.00000000000E+00  0.33410201514E+03  0.33410201514E+03  0.00000000000E+00 0. -1.
          1   -1    0    0  501    0 -0.00000000000E+00 -0.00000000000E+00 -0.64421821203E+03  0.64421821203E+03  0.00000000000E+00 0. -1.
         25    2    1    2    0    0 -0.88195669907E+02  0.15695423502E+03  0.14038525369E+02  0.21962569410E+03  0.12500102893E+03 0.  0.
          2    1    1    2  501    0  0.13639511205E+03 -0.13900515762E+03 -0.52049217387E+03  0.55573209688E+03  0.00000000000E+00 0. -1.
          1    1    1    2  502    0 -0.48199442138E+02 -0.17949077403E+02  0.19633745161E+03  0.20296243620E+03  0.00000000000E+00 0. -1.
         22    1    3    3    0    0 -0.19113196269E+02  0.87273471823E+02  0.63629533488E+02  0.10968450523E+03  0.00000000000E+00 0.  1.
         22    1    3    3    0    0 -0.69082473638E+02  0.69680763201E+02 -0.49591008119E+02  0.10994118887E+03  0.00000000000E+00 0.  1.
</event>
<event>
 7    1  0.3110367E-005  0.1580295E+03  0.7818608E-02  0.1226760E+00
          2   -1    0    0  502    0  0.00000000000E+00  0.00000000000E+00  0.75462049539E+03  0.75462049539E+03  0.00000000000E+00 0. -1.
          1   -1    0    0  501    0 -0.00000000000E+00 -0.00000000000E+00 -0.89286808315E+02  0.89286808315E+02  0.00000000000E+00 0. -1.
         25    2    1    2    0    0  0.50314604540E+02 -0.67478639904E+02  0.53568252200E+02  0.15993506480E+03  0.12499896414E+03 0.  0.
          2    1    1    2  501    0  0.17171702773E+01 -0.10770327774E+03  0.13071300009E+03  0.16937778219E+03  0.00000000000E+00 0. -1.
          1    1    1    2  502    0 -0.52031774817E+02  0.17518191764E+03  0.48105243479E+03  0.51459445671E+03  0.00000000000E+00 0. -1.
         22    1    3    3    0    0  0.62581294558E+02  0.16424294679E+02  0.33229960107E+02  0.72735178098E+02  0.00000000000E+00 0.  1.
         22    1    3    3    0    0 -0.12266690018E+02 -0.83902934583E+02  0.20338292094E+02  0.87199886703E+02  0.00000000000E+00 0.  1.
</event>
<event>
 7    1  0.3110367E-005  0.8183740E+02  0.7818608E-02  0.1391762E+00
          2   -1    0    0  502    0  0.00000000000E+00  0.00000000000E+00  0.42709306946E+03  0.42709306946E+03  0.00000000000E+00 0. -1.
          1   -1    0    0  501    0 -0.00000000000E+00 -0.00000000000E+00 -0.39411668569E+03  0.39411668569E+03  0.00000000000E+00 0. -1.
         25    2    1    2    0    0 -0.59051002213E+02 -0.44154694040E+02  0.65935543262E+02  0.15940355575E+03  0.12500135941E+03 0.  0.
          2    1    1    2  501    0  0.27615254000E+02  0.77973272369E+02 -0.34071167413E+03  0.35060929586E+03  0.00000000000E+00 0. -1.
          1    1    1    2  502    0  0.31435748213E+02 -0.33818578329E+02  0.30775251463E+03  0.31119690353E+03  0.00000000000E+00 0. -1.
         22    1    3    3    0    0 -0.77224589982E+02 -0.64491007116E+01 -0.43316525792E+01  0.77614376323E+02  0.00000000000E+00 0. -1.
         22    1    3    3    0    0  0.18173587769E+02 -0.37705593329E+02  0.70267195841E+02  0.81789179431E+02  0.00000000000E+00 0. -1.
</event>
<event>
 7    1  0.3110367E-005  0.2229988E+03  0.7818608E-02  0.1254252E+00
          2   -1    0    0  502    0  0.00000000000E+00  0.00000000000E+00  0.10097614620E+04  0.10097614620E+04  0.00000000000E+00 0. -1.
          1   -1    0    0  501    0 -0.00000000000E+00 -0.00000000000E+00 -0.90591746632E+03  0.90591746632E+03  0.00000000000E+00 0. -1.
         25    2    1    2    0    0  0.33726979048E+02 -0.20876181932E+03 -0.30398595324E+03  0.39083416534E+03  0.12499951482E+03 0.  0.
          2    1    1    2  501    0  0.19616429137E+02  0.23089014654E+03 -0.53354930843E+03  0.58169573541E+03  0.00000000000E+00 0. -1.
          1    1    1    2  502    0 -0.53343408185E+02 -0.22128327221E+02  0.94137925733E+03  0.94314902756E+03  0.00000000000E+00 0. -1.
         22    1    3    3    0    0 -0.28608255188E+02 -0.11370951808E+03 -0.87437735320E+02  0.14626566352E+03  0.00000000000E+00 0. -1.
         22    1    3    3    0    0  0.62335234236E+02 -0.95052301246E+02 -0.21654821792E+03  0.24456850182E+03  0.00000000000E+00 0. -1.
</event>
<event>
 7    1  0.3110367E-005  0.1352476E+03  0.7818608E-02  0.1396433E+00
          2   -1    0    0  502    0  0.00000000000E+00  0.00000000000E+00  0.69930598839E+03  0.69930598839E+03  0.00000000000E+00 0. -1.
          1   -1    0    0  501    0 -0.00000000000E+00 -0.00000000000E+00 -0.16471650801E+03  0.16471650801E+03  0.00000000000E+00 0. -1.
         25    2    1    2    0    0  0.11924996088E+03  0.57794897629E+01  0.24074799638E+03  0.29637093866E+03  0.12498871889E+03 0.  0.
          2    1    1    2  501    0  0.22666947901E+02 -0.14513843230E+02 -0.12368459790E+03  0.12657931083E+03  0.00000000000E+00 0. -1.
          1    1    1    2  502    0 -0.14191690878E+03  0.87343534666E+01  0.41752608190E+03  0.44107224692E+03  0.00000000000E+00 0. -1.
         22    1    3    3    0    0  0.10913148166E+03 -0.11564717832E+02  0.83632782805E+02  0.13797777121E+03  0.00000000000E+00 0. -1.
         22    1    3    3    0    0  0.10118479219E+02  0.17344207595E+02  0.15711521357E+03  0.15839316745E+03  0.00000000000E+00 0. -1.
</event>
<event>
 7    1  0.3110367E-005  0.4861300E+03  0.7818608E-02  0.1105012E+00
          2   -1    0    0  502    0  0.00000000000E+00  0.00000000000E+00  0.57170251644E+03  0.57170251644E+03  0.00000000000E+00 0. -1.
          1   -1    0    0  501    0 -0.00000000000E+00 -0.00000000000E+00 -0.91129856647E+03  0.91129856647E+03  0.00000000000E+00 0. -1.
         25    2    1    2    0    0 -0.33694272753E+03 -0.23984146976E+03 -0.37038505292E+03  0.56909124797E+03  0.12500171537E+03 0.  0.
          2    1    1    2  501    0 -0.14655368309E+01 -0.14290425983E+03 -0.28109614466E+03  0.31533921072E+03  0.00000000000E+00 0. -1.
          1    1    1    2  502    0  0.33840826436E+03  0.38274572959E+03  0.31188514756E+03  0.59857062421E+03  0.00000000000E+00 0. -1.
         22    1    3    3    0    0 -0.57172345054E+02 -0.44257499225E+02 -0.10489709769E+02  0.73057766786E+02  0.00000000000E+00 0. -1.
         22    1    3    3    0    0 -0.27977038247E+03 -0.19558397053E+03 -0.35989534315E+03  0.49603348119E+03  0.00000000000E+00 0. -1.
</event>
<event>
 7    1  0.3110367E-005  0.2171100E+03  0.7818608E-02  0.1265428E+00
          2   -1    0    0  502    0  0.00000000000E+00  0.00000000000E+00  0.32113912272E+03  0.32113912272E+03  0.00000000000E+00 0. -1.
          1   -1    0    0  501    0 -0.00000000000E+00 -0.00000000000E+00 -0.25724958840E+03  0.25724958840E+03  0.00000000000E+00 0. -1.
         25    2    1    2    0    0 -0.18979051572E+03 -0.69865610949E+02 -0.48004774671E+02  0.24254878733E+03  0.12499524948E+03 0.  0.
          2    1    1    2  501    0 -0.33226792311E+02  0.41478867535E+02 -0.38264380942E+02  0.65488006751E+02  0.00000000000E+00 0. -1.
          1    1    1    2  502    0  0.22301730803E+03  0.28386743413E+02  0.15015868994E+03  0.27035191704E+03  0.00000000000E+00 0. -1.
         22    1    3    3    0    0 -0.18401811055E+03 -0.33585204874E+02 -0.65696224637E+01  0.18717315763E+03  0.00000000000E+00 0.  1.
         22    1    3    3    0    0 -0.57724051696E+01 -0.36280406075E+02 -0.41435152208E+02  0.55375629702E+02  0.00000000000E+00 0.  1.
</event>
<event>
 7    1  0.3110367E-005  0.2285160E+03  0.7818608E-02  0.1228802E+00
          2   -1    0    0  502    0  0.00000000000E+00  0.00000000000E+00  0.29879041836E+04  0.29879041836E+04  0.00000000000E+00 0. -1.
          1   -1    0    0  501    0 -0.00000000000E+00 -0.00000000000E+00 -0.15787224036E+03  0.15787224036E+03  0.00000000000E+00 0. -1.
         25    2    1    2    0    0  0.15892547035E+03  0.22284932035E+03  0.83094096095E+02  0.31216844858E+03  0.12500154711E+03 0.  0.
          2    1    1    2  501    0  0.10743326556E+02 -0.72135720544E+02 -0.42698588861E+01  0.73056231348E+02  0.00000000000E+00 0. -1.
          1    1    1    2  502    0 -0.16966879690E+03 -0.15071359980E+03  0.27512077061E+04  0.27605517441E+04  0.00000000000E+00 0. -1.
         22    1    3    3    0    0  0.15086245427E+03  0.10826885646E+03  0.44000050423E+02  0.19083403738E+03  0.00000000000E+00 0. -1.
         22    1    3    3    0    0  0.80630160778E+01  0.11458046389E+03  0.39094045671E+02  0.12133441120E+03  0.00000000000E+00 0. -1.
</event>
<event>
 7    1  0.3110367E-005  0.1535174E+03  0.7818608E-02  0.1251942E+00
          2   -1    0    0  502    0  0.00000000000E+00  0.00000000000E+00  0.21800443266E+04  0.21800443266E+04  0.00000000000E+00 0. -1.
          1   -1    0    0  501    0 -0.00000000000E+00 -0.00000000000E+00 -0.58372548981E+03  0.58372548981E+03  0.00000000000E+00 0. -1.
         25    2    1    2    0    0  0.40669599469E+02  0.20863820700E+03  0.94333846576E+03  0.97503610711E+03  0.12499612571E+03 0.  0.
          2    1    1    2  501    0  0.23163768661E+02 -0.15125030294E+03 -0.55601995340E+03  0.57669004057E+03  0.00000000000E+00 0. -1.
          1    1    1    2  502    0 -0.63833368131E+02 -0.57387904063E+02  0.12090003245E+04  0.12120436688E+04  0.00000000000E+00 0. -1.
         22    1    3    3    0    0  0.67295690073E+02  0.15700194697E+03  0.51059506026E+03  0.53841028669E+03  0.00000000000E+00 0. -1.
         22    1    3    3    0    0 -0.26626090604E+02  0.51636260036E+02  0.43274340550E+03  0.43662582042E+03  0.00000000000E+00 0. -1.
</event>
<event>
 7    1  0.3110367E-005  0.1319077E+03  0.7818608E-02  0.1419346E+00
          2   -1    0    0  502    0  0.00000000000E+00  0.00000000000E+00  0.33855345672E+03  0.33855345672E+03  0.00000000000E+00 0. -1.
          1   -1    0    0  501    0 -0.00000000000E+00 -0.00000000000E+00 -0.68576937669E+03  0.68576937669E+03  0.00000000000E+00 0. -1.
         25    2    1    2    0    0 -0.14240282572E+03  0.68053482887E+01 -0.43460851329E+03  0.47416949187E+03  0.12500907831E+03 0.  0.
          2    1    1    2  501    0  0.11435148498E+02 -0.20031890671E+02 -0.21715429473E+03  0.21837588462E+03  0.00000000000E+00 0. -1.
          1    1    1    2  502    0  0.13096767722E+03  0.13226542382E+02  0.30454688805E+03  0.33177745692E+03  0.00000000000E+00 0. -1.
         22    1    3    3    0    0 -0.90648812139E+02  0.52280200913E+02 -0.16099122485E+03  0.19201198147E+03  0.00000000000E+00 0.  1.
         22    1    3    3    0    0 -0.51754013584E+02 -0.45474852624E+02 -0.27361728844E+03  0.28215751040E+03  0.00000000000E+00 0.  1.
</event>
<event>
 7    1  0.3110367E-005  0.2221618E+03  0.7818608E-02  0.1181686E+00
          2   -1    0    0  502    0  0.00000000000E+00  0.00000000000E+00  0.36997809331E+03  0.36997809331E+03  0.00000000000E+00 0. -1.
          1   -1    0    0  501    0 -0.00000000000E+00 -0.00000000000E+00 -0.79753996606E+03  0.79753996606E+03  0.00000000000E+00 0. -1.
         25    2    1    2    0    0  0.26904728509E+03  0.73393867381E+02  0.63032360764E+02  0.31204377547E+03  0.12500055170E+03 0.  0.
          2    1    1    2  501    0 -0.68831098270E+02 -0.10385204123E+03 -0.60850574269E+03  0.62112978148E+03  0.00000000000E+00 0. -1.
          1    1    1    2  502    0 -0.20021618682E+03  0.30458173848E+02  0.11791150918E+03  0.23434450242E+03  0.00000000000E+00 0. -1.
         22    1    3    3    0    0  0.16968845744E+03  0.91944702865E+02  0.13788691690E+00  0.19299746108E+03  0.00000000000E+00 0. -1.
         22    1    3    3    0    0  0.99358827651E+02 -0.18550835483E+02  0.62894473847E+02  0.11904631439E+03  0.00000000000E+00 0. -1.
</event>
<event>
 7    1  0.3110367E-005  0.6069434E+03  0.7818608E-02  0.1198025E+00
          2   -1    0    0  502    0  0.00000000000E+00  0.00000000000E+00  0.74351750456E+03  0.74351750456E+03  0.00000000000E+00 0. -1.
          1   -1    0    0  501    0 -0.00000000000E+00 -0.00000000000E+00 -0.61588536181E+03  0.61588536181E+03  0.00000000000E+00 0. -1.
         25    2    1    2    0    0 -0.50929792238E+03 -0.34156958329E+03 -0.16919602366E+03  0.64831051030E+03  0.12500027746E+03 0.  0.
          2    1    1    2  501    0 -0.12056749473E+02  0.36111595359E+02  0.37850014978E+02  0.53684598918E+02  0.00000000000E+00 0. -1.
          1    1    1    2  502    0  0.52135467186E+03  0.30545798793E+03  0.25897815142E+03  0.65740775716E+03  0.00000000000E+00 0. -1.
         22    1    3    3    0    0 -0.23149999588E+02 -0.15430921705E+02  0.18656407101E+02  0.33497721587E+02  0.00000000000E+00 0. -1.
         22    1    3    3    0    0 -0.48614792279E+03 -0.32613866158E+03 -0.18785243076E+03  0.61481278871E+03  0.00000000000E+00 0. -1.
</event>
<event>
 7    1  0.3110367E-005  0.8492906E+03  0.7818608E-02  0.9679758E-01
          2   -1    0    0  502    0  0.00000000000E+00  0.00000000000E+00  0.30408670439E+04  0.30408670439E+04  0.00000000000E+00 0. -1.
          1   -1    0    0  501    0 -0.00000000000E+00 -0.00000000000E+00 -0.17433054798E+04  0.17433054798E+04  0.00000000000E+00 0. -1.
         25    2    1    2    0    0  0.14118587747E+03  0.13273712264E+04  0.60992522265E+03  0.14729204613E+04  0.12505232197E+03 0.  0.
          2    1    1    2  501    0  0.14386947312E+03 -0.78312206519E+03 -0.11358020118E+04  0.13870922119E+04  0.00000000000E+00 0. -1.
          1    1    1    2  502    0 -0.28505535059E+03 -0.54424916125E+03  0.18234383533E+04  0.19241598506E+04  0.00000000000E+00 0. -1.
         22    1    3    3    0    0  0.93874174880E+02  0.37427763522E+03  0.19510251166E+03  0.43238998484E+03  0.00000000000E+00 0. -1.
         22    1    3    3    0    0  0.47311702592E+02  0.95309359123E+03  0.41482271100E+03  0.10405304764E+04  0.00000000000E+00 0. -1.
</event>
<event>
 7    1  0.3110367E-005  0.2152266E+03  0.7818608E-02  0.1252856E+00
          2   -1    0    0  502    0  0.00000000000E+00  0.00000000000E+00  0.10931193935E+04  0.10931193935E+04  0.00000000000E+00 0. -1.
          1   -1    0    0  501    0 -0.00000000000E+00 -0.00000000000E+00 -0.20254465366E+03  0.20254465366E+03  0.00000000000E+00 0. -1.
         25    2    1    2    0    0  0.26572673137E+03  0.35376107512E+02  0.13672951144E+03  0.32585653150E+03  0.12500142030E+03 0.  0.
          2    1    1    2  501    0 -0.60670977383E+02  0.37220361195E+00 -0.85611060605E+02  0.10493026127E+03  0.00000000000E+00 0. -1.
          1    1    1    2  502    0 -0.20505575399E+03 -0.35748311124E+02  0.83945628897E+03  0.86487725434E+03  0.00000000000E+00 0. -1.
         22    1    3    3    0    0  0.69720043455E+02  0.66897542627E+02  0.34853876747E+02  0.10271785820E+03  0.00000000000E+00 0.  1.
         22    1    3    3    0    0  0.19600668792E+03 -0.31521435115E+02  0.10187563469E+03  0.22313867330E+03  0.00000000000E+00 0.  1.
</event>
<event>
 7    1  0.3110367E-005  0.1724784E+03  0.7818608E-02  0.1215539E+00
          2   -1    0    0  502    0  0.00000000000E+00  0.00000000000E+00  0.36222195248E+03  0.36222195248E+03  0.00000000000E+00 0. -1.
          1   -1    0    0  501    0 -0.00000000000E+00 -0.00000000000E+00 -0.27621164732E+03  0.27621164732E+03  0.00000000000E+00 0. -1.
         25    2    1    2    0    0 -0.40389807450E+02 -0.19918265850E+03 -0.67544369127E+02  0.24797786068E+03  0.12500283834E+03 0.  0.
          2    1    1    2  501    0 -0.59995803613E+02  0.15179763364E+03 -0.39342229705E+02  0.16789827000E+03  0.00000000000E+00 0. -1.
          1    1    1    2  502    0  0.10038561106E+03  0.47385024860E+02  0.19289690399E+03  0.22255746911E+03  0.00000000000E+00 0. -1.
         22    1    3    3    0    0  0.18633754603E+02 -0.85203216108E+02  0.23837642061E+02  0.90415916877E+02  0.00000000000E+00 0. -1.
         22    1    3    3    0    0 -0.59023562053E+02 -0.11397944240E+03 -0.91382011188E+02  0.15756194380E+03  0.00000000000E+00 0. -1.
</event>
<event>
 7    1  0.3110367E-005  0.1927553E+03  0.7818608E-02  0.1263435E+00
          2   -1    0    0  502    0  0.00000000000E+00  0.00000000000E+00  0.62491704874E+03  0.62491704874E+03  0.00000000000E+00 0. -1.
          1   -1    0    0  501    0 -0.00000000000E+00 -0.00000000000E+00 -0.13922135496E+03  0.13922135496E+03  0.00000000000E+00 0. -1.
         25    2    1    2    0    0  0.11811868732E+03 -0.12805986518E+03  0.11820310964E+01  0.21442384356E+03  0.12499933650E+03 0.  0.
          2    1    1    2  501    0 -0.33036344170E+02 -0.51323448560E+02  0.10746625400E+03  0.12359001641E+03  0.00000000000E+00 0. -1.
          1    1    1    2  502    0 -0.85082343149E+02  0.17938331375E+03  0.37704740869E+03  0.42612454372E+03  0.00000000000E+00 0. -1.
         22    1    3    3    0    0  0.13963649857E+03 -0.10516438280E+03 -0.20852557854E+02  0.17604751720E+03  0.00000000000E+00 0.  1.
         22    1    3    3    0    0 -0.21517811253E+02 -0.22895482385E+02  0.22034588951E+02  0.38376326361E+02  0.00000000000E+00 0.  1.
</event>
<event>
 7    1  0.3110367E-005  0.2130743E+03  0.7818608E-02  0.1188746E+00
          2   -1    0    0  502    0  0.00000000000E+00  0.00000000000E+00  0.17667024580E+04  0.17667024580E+04  0.00000000000E+00 0. -1.
          1   -1    0    0  501    0 -0.00000000000E+00 -0.00000000000E+00 -0.13318952547E+04  0.13318952547E+04  0.00000000000E+00 0. -1.
         25    2    1    2    0    0 -0.19801558340E+03 -0.10027512235E+03  0.73932490866E+03  0.78197937536E+03  0.12500060596E+03 0.  0.
          2    1    1    2  501    0 -0.21310813610E+02  0.11817419564E+03 -0.12957252773E+04  0.13012775590E+04  0.00000000000E+00 0. -1.
          1    1    1    2  502    0  0.21932639701E+03 -0.17899073288E+02  0.99120757196E+03  0.10153407782E+04  0.00000000000E+00 0. -1.
         22    1    3    3    0    0 -0.53071326056E+02  0.34262987454E+01  0.62408708878E+02  0.81994829814E+02  0.00000000000E+00 0.  1.
         22    1    3    3    0    0 -0.14494425735E+03 -0.10370142110E+03  0.67691619979E+03  0.69998454555E+03  0.00000000000E+00 0.  1.
</event>
<event>
 7    1  0.3110367E-005  0.5987484E+03  0.7818608E-02  0.1036970E+00
          2   -1    0    0  502    0  0.00000000000E+00  0.00000000000E+00  0.22598098459E+04  0.22598098459E+04  0.00000000000E+00 0. -1.
          1   -1    0    0  501    0 -0.00000000000E+00 -0.00000000000E+00 -0.92899775884E+03  0.92899775884E+03  0.00000000000E+00 0. -1.
         25    2    1    2    0    0 -0.72126379919E+03  0.11743951533E+02  0.99671952046E+02  0.73886368476E+03  0.12500263281E+03 0.  0.
          2    1    1    2  501    0  0.53057356236E+03  0.21337626404E+03 -0.45959208854E+03  0.73366383513E+03  0.00000000000E+00 0. -1.
          1    1    1    2  502    0  0.19069023683E+03 -0.22512021557E+03  0.16907322236E+04  0.17162800849E+04  0.00000000000E+00 0. -1.
         22    1    3    3    0    0 -0.28932873764E+03  0.78230425768E+01 -0.21514718727E+02  0.29023301250E+03  0.00000000000E+00 0.  1.
         22    1    3    3    0    0 -0.43193506155E+03  0.39209089563E+01  0.12118667077E+03  0.44863067226E+03  0.00000000000E+00 0.  1.
</event>
<event>
 7    1  0.3110367E-005  0.3369897E+03  0.7818608E-02  0.1131541E+00
          2   -1    0    0  502    0  0.00000000000E+00  0.00000000000E+00  0.10691149580E+04  0.10691149580E+04  0.00000000000E+00 0. -1.
          1   -1    0    0  501    0 -0.00000000000E+00 -0.00000000000E+00 -0.64299942983E+03  0.64299942983E+03  0.00000000000E+00 0. -1.
         25    2    1    2    0    0 -0.42911031873E+03 -0.11239234184E+03  0.39167960299E+03  0.60481764800E+03  0.12499508705E+03 0.  0.
          2    1    1    2  501    0  0.14660846401E+03  0.18677674800E+02 -0.48588248010E+03  0.50786285720E+03  0.00000000000E+00 0. -1.
          1    1    1    2  502    0  0.28250185472E+03  0.93714667044E+02  0.52031840526E+03  0.59943388259E+03  0.00000000000E+00 0. -1.
         22    1    3    3    0    0 -0.37698927992E+03 -0.51553959306E+02  0.33096575505E+03  0.50429858111E+03  0.00000000000E+00 0.  1.
         22    1    3    3    0    0 -0.52121038815E+02 -0.60838382538E+02  0.60713847935E+02  0.10051906689E+03  0.00000000000E+00 0.  1.
</event>
<event>
 7    1  0.3110367E-005  0.4541192E+03  0.7818608E-02  0.1069607E+00
          2   -1    0    0  502    0  0.00000000000E+00  0.00000000000E+00  0.46104141196E+03  0.46104141196E+03  0.00000000000E+00 0. -1.
          1   -1    0    0  501    0 -0.00000000000E+00 -0.00000000000E+00 -0.10095088252E+04  0.10095088252E+04  0.00000000000E+00 0. -1.
         25    2    1    2    0    0 -0.53796161933E+03 -0.59957811189E+02  0.11569750175E+03  0.56745800075E+03  0.12500011084E+03 0.  0.
          2    1    1    2  501    0  0.23078650154E+03 -0.81908665288E+02 -0.41877393613E+03  0.48512168404E+03  0.00000000000E+00 0. -1.
          1    1    1    2  502    0  0.30717511779E+03  0.14186647648E+03 -0.24539097885E+03  0.41797055236E+03  0.00000000000E+00 0. -1.
         22    1    3    3    0    0 -0.81064979141E+02  0.24738133614E+02 -0.11876094963E+02  0.85583571609E+02  0.00000000000E+00 0. -1.
         22    1    3    3    0    0 -0.45689664019E+03 -0.84695944803E+02  0.12757359671E+03  0.48187442914E+03  0.00000000000E+00 0. -1.
</event>
<event>
 7    1  0.3110367E-005  0.1582894E+03  0.7818608E-02  0.1215617E+00
          2   -1    0    0  502    0  0.00000000000E+00  0.00000000000E+00  0.11466147101E+04  0.11466147101E+04  0.00000000000E+00 0. -1.
          1   -1    0    0  501    0 -0.00000000000E+00 -0.00000000000E+00 -0.62093591730E+02  0.62093591730E+02  0.00000000000E+00 0. -1.
         25    2    1    2    0    0  0.75464130404E+02 -0.20482218473E+03  0.64975066514E+03  0.69674103159E+03  0.12500070366E+03 0.  0.
          2    1    1    2  501    0  0.24748967103E+02  0.11829705576E+03  0.11921250970E+03  0.16975961606E+03  0.00000000000E+00 0. -1.
          1    1    1    2  502    0 -0.10021309751E+03  0.86525128964E+02  0.31555794350E+03  0.34220765415E+03  0.00000000000E+00 0. -1.
         22    1    3    3    0    0  0.12619404276E+02  0.54430520032E+01  0.15370850237E+03  0.15432167664E+03  0.00000000000E+00 0.  1.
         22    1    3    3    0    0  0.62844726128E+02 -0.21026523673E+03  0.49604216277E+03  0.54241935495E+03  0.00000000000E+00 0.  1.
</event>
<event>
 7    1  0.3110367E-005  0.2126118E+03  0.7818608E-02  0.1216785E+00
          2   -1    0    0  502    0  0.00000000000E+00  0.00000000000E+00  0.26432543952E+04  0.26432543952E+04  0.00000000000E+00 0. -1.
          1   -1    0    0  501    0 -0.00000000000E+00 -0.00000000000E+00 -0.31559596939E+02  0.31559596939E+02  0.00000000000E+00 0. -1.
         25    2    1    2    0    0 -0.10611067975E+03  0.22367824469E+03  0.10386530671E+04  0.10750431927E+04  0.12500495529E+03 0.  0.
          2    1    1    2  501    0  0.84533576806E+02 -0.27437028406E+02  0.63411316404E+03  0.64031103454E+03  0.00000000000E+00 0. -1.
          1    1    1    2  502    0  0.21577102943E+02 -0.19624121628E+03  0.93892856711E+03  0.95945976490E+03  0.00000000000E+00 0. -1.
         22    1    3    3    0    0 -0.52301747199E+02  0.33349389494E+02  0.11721287621E+03  0.13261415041E+03  0.00000000000E+00 0.  1.
         22    1    3    3    0    0 -0.53808932551E+02  0.19032885519E+03  0.92144019091E+03  0.94242904230E+03  0.00000000000E+00 0.  1.
</event>
<event>
 7    1  0.3110367E-005  0.7482533E+02  0.7818608E-02  0.1361890E+00
          2   -1    0    0  502    0  0.00000000000E+00  0.00000000000E+00  0.14439341038E+04  0.14439341038E+04  0.00000000000E+00 0. -1.
          1   -1    0    0  501    0 -0.00000000000E+00 -0.00000000000E+00 -0.29770544254E+03  0.29770544254E+03  0.00000000000E+00 0. -1.
         25    2    1    2    0    0 -0.98592725817E+01 -0.12321563981E+03  0.43176951381E+02  0.18102221874E+03  0.12500198158E+03 0.  0.
          2    1    1    2  501    0 -0.24446085007E+02  0.68588165369E+02 -0.22218473361E+03  0.23381189737E+03  0.00000000000E+00 0. -1.
          1    1    1    2  502    0  0.34305357588E+02  0.54627474437E+02  0.13252364435E+04  0.13268054302E+04  0.00000000000E+00 0. -1.
         22    1    3    3    0    0  0.19495478781E+02 -0.76323213024E+02 -0.34220479922E+02  0.85885666937E+02  0.00000000000E+00 0. -1.
         22    1    3    3    0    0 -0.29354751363E+02 -0.46892426782E+02  0.77397431303E+02  0.95136551805E+02  0.00000000000E+00 0. -1.
</event>
<event>
 7    1  0.3110367E-005  0.1264651E+03  0.7818608E-02  0.1277427E+00
          2   -1    0    0  502    0  0.00000000000E+00  0.00000000000E+00  0.61962404405E+03  0.61962404405E+03  0.00000000000E+00 0. -1.
          1   -1    0    0  501    0 -0.00000000000E+00 -0.00000000000E+00 -0.55820343514E+03  0.55820343514E+03  0.00000000000E+00 0. -1.
         25    2    1    2    0    0  0.65493789193E+02 -0.11141305499E+03  0.27226233463E+03  0.32627121755E+03  0.12499529309E+03 0.  0.
          2    1    1    2  501    0 -0.11729812521E+03  0.48800367430E+02 -0.51824644551E+03  0.53359132707E+03  0.00000000000E+00 0. -1.
          1    1    1    2  502    0  0.51804336020E+02  0.62612687556E+02  0.30740471978E+03  0.31796493457E+03  0.00000000000E+00 0. -1.
         22    1    3    3    0    0  0.10138747808E+03 -0.93510518048E+02  0.22856218022E+03  0.26695375615E+03  0.00000000000E+00 0.  1.
         22    1    3    3    0    0 -0.35893688883E+02 -0.17902536938E+02  0.43700154410E+02  0.59317461392E+02  0.00000000000E+00 0.  1.
</event>
<event>
 7    1  0.3110367E-005  0.3215043E+03  0.7818608E-02  0.1188056E+00
          2   -1    0    0  502    0  0.00000000000E+00  0.00000000000E+00  0.56326277723E+03  0.56326277723E+03  0.00000000000E+00 0. -1.
          1   -1    0    0  501    0 -0.00000000000E+00 -0.00000000000E+00 -0.13860209464E+04  0.13860209464E+04  0.00000000000E+00 0. -1.
         25    2    1    2    0    0 -0.33476038131E+03 -0.21494982961E+02 -0.38214982572E+02  0.36000589089E+03  0.12496923378E+03 0.  0.
          2    1    1    2  501    0  0.31576821590E+03 -0.56416073943E+02 -0.11609368564E+04  0.12044362682E+04  0.00000000000E+00 0. -1.
          1    1    1    2  502    0  0.18992165408E+02  0.77911056903E+02  0.37639366981E+03  0.38484156455E+03  0.00000000000E+00 0. -1.
         22    1    3    3    0    0 -0.32337975576E+03 -0.50017401783E+02 -0.36398201247E+02  0.32924312593E+03  0.00000000000E+00 0. -1.
         22    1    3    3    0    0 -0.11380625547E+02  0.28522418822E+02 -0.18167813246E+01  0.30762764955E+02  0.00000000000E+00 0. -1.
</event>
<event>
 7    1  0.3110367E-005  0.3163112E+03  0.7818608E-02  0.1268751E+00
          2   -1    0    0  502    0  0.00000000000E+00  0.00000000000E+00  0.34234746223E+03  0.34234746223E+03  0.00000000000E+00 0. -1.
          1   -1    0    0  501    0 -0.00000000000E+00 -0.00000000000E+00 -0.16094990934E+04  0.16094990934E+04  0.00000000000E+00 0. -1.
         25    2    1    2    0    0  0.32013475762E+03  0.63587884481E+01 -0.82659264812E+03  0.89521337560E+03  0.12499953879E+03 0.  0.
          2    1    1    2  501    0 -0.53152417792E+01 -0.34917542826E+02 -0.66690579606E+03  0.66784042062E+03  0.00000000000E+00 0. -1.
          1    1    1    2  502    0 -0.31481951584E+03  0.28558754378E+02  0.22634681302E+03  0.38879275941E+03  0.00000000000E+00 0. -1.
         22    1    3    3    0    0  0.97419027520E+02  0.54234740254E+02 -0.34266223228E+03  0.36034605507E+03  0.00000000000E+00 0.  1.
         22    1    3    3    0    0  0.22271573010E+03 -0.47875951805E+02 -0.48393041584E+03  0.53486732053E+03  0.00000000000E+00 0.  1.
</event>
<event>
 7    1  0.3110367E-005  0.2737464E+03  0.7818608E-02  0.1286913E+00
          2   -1    0    0  502    0  0.00000000000E+00  0.00000000000E+00  0.69532597361E+03  0.69532597361E+03  0.00000000000E+00 0. -1.
          1   -1    0    0  501    0 -0.00000000000E+00 -0.00000000000E+00 -0.36361668492E+03  0.36361668492E+03  0.00000000000E+00 0. -1.
         25    2    1    2    0    0 -0.10241887291E+03  0.25231984692E+03 -0.91557427863E+01  0.29977308327E+03  0.12500057261E+03 0.  0.
          2    1    1    2  501    0  0.13457747520E+03 -0.24035189378E+03 -0.11753248331E+03  0.29948958965E+03  0.00000000000E+00 0. -1.
          1    1    1    2  502    0 -0.32158602295E+02 -0.11967953132E+02  0.45839751479E+03  0.45967998561E+03  0.00000000000E+00 0. -1.
         22    1    3    3    0    0 -0.11401685446E+01  0.14203008728E+03  0.29634236464E+02  0.14509318953E+03  0.00000000000E+00 0.  1.
         22    1    3    3    0    0 -0.10127870436E+03  0.11028975964E+03 -0.38789979250E+02  0.15467989374E+03  0.00000000000E+00 0.  1.
</event>
<event>
 7    1  0.3110367E-005  0.9328595E+02  0.7818608E-02  0.1460944E+00
          2   -1    0    0  502    0  0.00000000000E+00  0.00000000000E+00  0.38922113608E+03  0.38922113608E+03  0.00000000000E+00 0. -1.
          1   -1    0    0  501    0 -0.00000000000E+00 -0.00000000000E+00 -0.88991662753E+03  0.88991662753E+03  0.00000000000E+00 0. -1.
         25    2    1    2    0    0 -0.24332501381E+02  0.79805923379E+02 -0.23055339592E+03  0.27521105679E+03  0.12500080550E+03 0.  0.
          2    1    1    2  501    0  0.48122342648E+02 -0.82112031035E+02 -0.63308431939E+03  0.64019832940E+03  0.00000000000E+00 0. -1.
          1    1    1    2  502    0 -0.23789841267E+02  0.23061076566E+01  0.36294222386E+03  0.36372837742E+03  0.00000000000E+00 0. -1.
         22    1    3    3    0    0 -0.30007509922E+02  0.10489041763E+03 -0.22324092409E+03  0.24847325923E+03  0.00000000000E+00 0. -1.
         22    1    3    3    0    0  0.56750085405E+01 -0.25084494254E+02 -0.73124718278E+01  0.26737797556E+02  0.00000000000E+00 0. -1.
</event>
<event>
 7    1  0.3460502E-005  0.2724689E+03  0.7818608E-02  0.1240197E+00
          2   -1    0    0  502    0  0.00000000000E+00  0.00000000000E+00  0.16364138718E+04  0.16364138718E+04  0.00000000000E+00 0. -1.
          1   -1    0    0  501    0 -0.00000000000E+00 -0.00000000000E+00 -0.15264113628E+04  0.15264113628E+04  0.00000000000E+00 0. -1.
         25    2    1    2    0    0 -0.19225624789E+03  0.25205442956E+03 -0.99191724296E+03  0.10488176739E+04  0.12499918315E+03 0.  0.
          2    1    1    2  501    0  0.50689597852E+02 -0.19815308665E+02 -0.49303424261E+03  0.49602907795E+03  0.00000000000E+00 0. -1.
          1    1    1    2  502    0  0.14156665004E+03 -0.23223912089E+03  0.15949539946E+04  0.16179784827E+04  0.00000000000E+00 0. -1.
         22    1    3    3    0    0 -0.13985688742E+03  0.16565332235E+03 -0.47527381060E+03  0.52238507560E+03  0.00000000000E+00 0. -1.
         22    1    3    3    0    0 -0.52399360473E+02  0.86401107212E+02 -0.51664343236E+03  0.52643259826E+03  0.00000000000E+00 0. -1.
</event>
<event>
 7    1  0.3110367E-005  0.2485641E+03  0.7818608E-02  0.1168322E+00
          2   -1    0    0  502    0  0.00000000000E+00  0.00000000000E+00  0.26591181290E+04  0.26591181290E+04  0.00000000000E+00 0. -1.
          1   -1    0    0  501    0 -0.00000000000E+00 -0.00000000000E+00 -0.57255873469E+03  0.57255873469E+03  0.00000000000E+00 0. -1.
         25    2    1    2    0    0 -0.16012095986E+03  0.25924191170E+03  0.44696619452E+03  0.55520482109E+03  0.12501409419E+03 0.  0.
          2    1    1    2  501    0  0.20481839738E+03 -0.13761983218E+03 -0.48699328601E+03  0.54594162209E+03  0.00000000000E+00 0. -1.
          1    1    1    2  502    0 -0.44697437515E+02 -0.12162207952E+03  0.21265864858E+04  0.21305304205E+04  0.00000000000E+00 0. -1.
         22    1    3    3    0    0 -0.15319731260E+02  0.19922190713E+02  0.13025053122E+03  0.13265288814E+03  0.00000000000E+00 0.  1.
         22    1    3    3    0    0 -0.14480122860E+03  0.23931972099E+03  0.31671566329E+03  0.42255193295E+03  0.00000000000E+00 0.  1.
</event>
<event>
 7    1  0.3110367E-005  0.3142050E+03  0.7818608E-02  0.1089166E+00
          2   -1    0    0  502    0  0.00000000000E+00  0.00000000000E+00  0.37912089252E+03  0.37912089252E+03  0.00000000000E+00 0. -1.
          1   -1    0    0  501    0 -0.00000000000E+00 -0.00000000000E+00 -0.17677335555E+04  0.17677335555E+04  0.00000000000E+00 0. -1.
         25    2    1    2    0    0  0.24666640913E+03 -0.34898223783E+03 -0.33506386174E+03  0.55724842347E+03  0.12500037723E+03 0.  0.
          2    1    1    2  501    0 -0.26843018424E+03  0.43172179470E+02 -0.12136542273E+04  0.12437343704E+04  0.00000000000E+00 0. -1.
          1    1    1    2  502    0  0.21763775104E+02  0.30581005836E+03  0.16010542599E+03  0.34587165413E+03  0.00000000000E+00 0. -1.
         22    1    3    3    0    0  0.78073204215E+02 -0.19963486314E+03 -0.20781894196E+03  0.29856023921E+03  0.00000000000E+00 0. -1.
         22    1    3    3    0    0  0.16859320492E+03 -0.14934737468E+03 -0.12724491978E+03  0.25868818426E+03  0.00000000000E+00 0. -1.
</event>
<event>
 7    1  0.3110367E-005  0.2267293E+03  0.7818608E-02  0.1138381E+00
          2   -1    0    0  502    0  0.00000000000E+00  0.00000000000E+00  0.48013563548E+03  0.48013563548E+03  0.00000000000E+00 0. -1.
          1   -1    0    0  501    0 -0.00000000000E+00 -0.00000000000E+00 -0.78995825484E+03  0.78995825484E+03  0.00000000000E+00 0. -1.
         25    2    1    2    0    0  0.29251268955E+03 -0.13721464499E+03  0.31327158843E+03  0.46707239878E+03  0.12500402090E+03 0.  0.
          2    1    1    2  501    0 -0.21901836805E+03 -0.51073628920E+02 -0.53912171331E+03  0.58414876776E+03  0.00000000000E+00 0. -1.
          1    1    1    2  502    0 -0.73494321496E+02  0.18828827391E+03 -0.83972494472E+02  0.21887272378E+03  0.00000000000E+00 0. -1.
         22    1    3    3    0    0  0.29623742759E+03 -0.12835971432E+03  0.26450204463E+03  0.41736574055E+03  0.00000000000E+00 0. -1.
         22    1    3    3    0    0 -0.37247380487E+01 -0.88549306730E+01  0.48769543796E+02  0.49706658235E+02  0.00000000000E+00 0. -1.
</event>
<event>
 7    1  0.3110367E-005  0.9531135E+02  0.7818608E-02  0.1327076E+00
          2   -1    0    0  502    0  0.00000000000E+00  0.00000000000E+00  0.21469188015E+02  0.21469188015E+02  0.00000000000E+00 0. -1.
          1   -1    0    0  501    0 -0.00000000000E+00 -0.00000000000E+00 -0.18109637156E+04  0.18109637156E+04  0.00000000000E+00 0. -1.
         25    2    1    2    0    0 -0.48352321176E+02 -0.73454101781E+02 -0.11249581541E+04  0.11352924807E+04  0.12499886449E+03 0.  0.
          2    1    1    2  501    0 -0.48125391057E+02  0.48505769033E+02 -0.50097396995E+03  0.50561228373E+03  0.00000000000E+00 0. -1.
          1    1    1    2  502    0  0.96477712232E+02  0.24948332749E+02 -0.16356240352E+03  0.19152813921E+03  0.00000000000E+00 0. -1.
         22    1    3    3    0    0 -0.10765513572E+02 -0.83038507068E+02 -0.37076967681E+03  0.38010714697E+03  0.00000000000E+00 0. -1.
         22    1    3    3    0    0 -0.37586807604E+02  0.95844052862E+01 -0.75418847734E+03  0.75518533373E+03  0.00000000000E+00 0. -1.
</event>
<event>
 7    1  0.3110367E-005  0.1617053E+03  0.7818608E-02  0.1215883E+00
          2   -1    0    0  502    0  0.00000000000E+00  0.00000000000E+00  0.74348983356E+03  0.74348983356E+03  0.00000000000E+00 0. -1.
          1   -1    0    0  501    0 -0.00000000000E+00 -0.00000000000E+00 -0.16249489521E+04  0.16249489521E+04  0.00000000000E+00 0. -1.
         25    2    1    2    0    0 -0.65299892112E+02 -0.24438863478E+03  0.28739093362E+03  0.40275345218E+03  0.12500765495E+03 0.  0.
          2    1    1    2  501    0 -0.17038489826E+02  0.15990218930E+03 -0.15542945684E+04  0.15625909976E+04  0.00000000000E+00 0. -1.
          1    1    1    2  502    0  0.82338381938E+02  0.84486445482E+02  0.38544451620E+03  0.40309433596E+03  0.00000000000E+00 0. -1.
         22    1    3    3    0    0  0.19644656156E+01 -0.76034851559E+00  0.68114694570E+02  0.68147258723E+02  0.00000000000E+00 0. -1.
         22    1    3    3    0    0 -0.67264357727E+02 -0.24362828626E+03  0.21927623905E+03  0.33460619346E+03  0.00000000000E+00 0. -1.
</event>
<event>
 7    1  0.3110367E-005  0.3422181E+02  0.7818608E-02  0.1597222E+00
          2   -1    0    0  502    0  0.00000000000E+00  0.00000000000E+00  0.40797238885E+02  0.40797238885E+02  0.00000000000E+00 0. -1.
          1   -1    0    0  501    0 -0.00000000000E+00 -0.00000000000E+00 -0.59790828494E+03  0.59790828494E+03  0.00000000000E+00 0. -1.
         25    2    1    2    0    0  0.43635691101E+01 -0.16593868912E+02 -0.26901596703E+03  0.29713512402E+03  0.12500117675E+03 0.  0.
          2    1    1    2  501    0 -0.22841997539E+02 -0.13309984071E+02 -0.30244760691E+03  0.30360083572E+03  0.00000000000E+00 0. -1.
          1    1    1    2  502    0  0.18478428429E+02  0.29903852982E+02  0.14352527878E+02  0.37969564086E+02  0.00000000000E+00 0. -1.
         22    1    3    3    0    0 -0.22044542976E+02 -0.72491395660E+01  0.32495917118E+01  0.23432279995E+02  0.00000000000E+00 0.  1.
         22    1    3    3    0    0  0.26408112086E+02 -0.93447293455E+01 -0.27226555874E+03  0.27370284402E+03  0.00000000000E+00 0.  1.
</event>
<event>
 7    1  0.3110367E-005  0.3340839E+03  0.7818608E-02  0.1083153E+00
          2   -1    0    0  502    0  0.00000000000E+00  0.00000000000E+00  0.22232688035E+04  0.22232688035E+04  0.00000000000E+00 0. -1.
          1   -1    0    0  501    0 -0.00000000000E+00 -0.00000000000E+00 -0.39909329185E+03  0.39909329185E+03  0.00000000000E+00 0. -1.
         25    2    1    2    0    0 -0.10809076311E+03  0.57877755464E+03  0.86942241566E+03  0.10574423874E+04  0.12498797972E+03 0.  0.
          2    1    1    2  501    0  0.61412096504E+02 -0.30572510005E+03 -0.20458006572E+03  0.37295078186E+03  0.00000000000E+00 0. -1.
          1    1    1    2  502    0  0.46678666603E+02 -0.27305245458E+03  0.11593331617E+04  0.11919689261E+04  0.00000000000E+00 0. -1.
         22    1    3    3    0    0 -0.11234175217E+03  0.55791271379E+03  0.78018523531E+03  0.96569988448E+03  0.00000000000E+00 0. -1.
         22    1    3    3    0    0  0.42509890619E+01  0.20864840845E+02  0.89237180356E+02  0.91742502961E+02  0.00000000000E+00 0. -1.
</event>
<event>
 7    1  0.3110367E-005  0.3155384E+03  0.7818608E-02  0.1195355E+00
          2   -1    0    0  502    0  0.00000000000E+00  0.00000000000E+00  0.14262035067E+04  0.14262035067E+04  0.00000000000E+00 0. -1.
          1   -1    0    0  501    0 -0.00000000000E+00 -0.00000000000E+00 -0.21522718750E+03  0.21522718750E+03  0.00000000000E+00 0. -1.
         25    2    1    2    0    0  0.25133372308E+02  0.34576848441E+03  0.40179926012E+03  0.54521007456E+03  0.12499539497E+03 0.  0.
          2    1    1    2  501    0  0.56100780013E+02 -0.50372554677E+02 -0.10659347897E+03  0.13056363024E+03  0.00000000000E+00 0. -1.
          1    1    1    2  502    0 -0.81234152321E+02 -0.29539592973E+03  0.91577053804E+03  0.96565698938E+03  0.00000000000E+00 0. -1.
         22    1    3    3    0    0 -0.45405511166E+02  0.17947046432E+03  0.17002228649E+03  0.25135410462E+03  0.00000000000E+00 0. -1.
         22    1    3    3    0    0  0.70538883474E+02  0.16629802009E+03  0.23177697363E+03  0.29385596994E+03  0.00000000000E+00 0. -1.
</event>
<event>
 7    1  0.3110367E-005  0.1136987E+03  0.7818608E-02  0.1330819E+00
          2   -1    0    0  502    0  0.00000000000E+00  0.00000000000E+00  0.23489312477E+03  0.23489312477E+03  0.00000000000E+00 0. -1.
          1   -1    0    0  501    0 -0.00000000000E+00 -0.00000000000E+00 -0.85544480869E+03  0.85544480869E+03  0.00000000000E+00 0. -1.
         25    2    1    2    0    0  0.11583993234E+03 -0.44715595885E+01 -0.27508912258E+03  0.32363291864E+03  0.12500142359E+03 0.  0.
          2    1    1    2  501    0 -0.16960173140E+02 -0.52761726468E+02 -0.53906460151E+03  0.54190598064E+03  0.00000000000E+00 0. -1.
          1    1    1    2  502    0 -0.98879759196E+02  0.57233286057E+02  0.19360204016E+03  0.22479903417E+03  0.00000000000E+00 0. -1.
         22    1    3    3    0    0  0.21364199059E+02 -0.41407695241E+02 -0.23127961514E+02  0.52018543140E+02  0.00000000000E+00 0.  1.
         22    1    3    3    0    0  0.94475733277E+02  0.36936135653E+02 -0.25196116106E+03  0.27161437550E+03  0.00000000000E+00 0.  1.
</event>
<event>
 7    1  0.3110367E-005  0.4201857E+03  0.7818608E-02  0.1163299E+00
          2   -1    0    0  502    0  0.00000000000E+00  0.00000000000E+00  0.81320541562E+03  0.81320541562E+03  0.00000000000E+00 0. -1.
          1   -1    0    0  501    0 -0.00000000000E+00 -0.00000000000E+00 -0.14245755100E+04  0.14245755100E+04  0.00000000000E+00 0. -1.
         25    2    1    2    0    0 -0.30905929092E+03 -0.21789507321E+03  0.15687181134E+03  0.42805314672E+03  0.12499929196E+03 0.  0.
          2    1    1    2  501    0 -0.80663528322E+02 -0.94686133066E+01 -0.11896052023E+04  0.11923744364E+04  0.00000000000E+00 0. -1.
          1    1    1    2  502    0  0.38972281925E+03  0.22736368651E+03  0.42136329653E+03  0.61735334246E+03  0.00000000000E+00 0. -1.
         22    1    3    3    0    0 -0.78285750698E+02 -0.75390243705E+02 -0.10741599335E+02  0.10921414544E+03  0.00000000000E+00 0.  1.
         22    1    3    3    0    0 -0.23077354023E+03 -0.14250482950E+03  0.16761341067E+03  0.31883900128E+03  0.00000000000E+00 0.  1.
</event>
<event>
 7    1  0.3110367E-005  0.3416014E+03  0.7818608E-02  0.1152197E+00
          2   -1    0    0  502    0  0.00000000000E+00  0.00000000000E+00  0.28103824379E+04  0.28103824379E+04  0.00000000000E+00 0. -1.
          1   -1    0    0  501    0 -0.00000000000E+00 -0.00000000000E+00 -0.87495397006E+03  0.87495397006E+03  0.00000000000E+00 0. -1.
         25    2    1    2    0    0  0.30625830941E+03  0.34334639780E+01  0.25880757898E+04  0.26091315775E+04  0.12500141649E+03 0.  0.
          2    1    1    2  501    0 -0.32201292963E+03 -0.11607799691E+03 -0.81155350992E+03  0.88078687983E+03  0.00000000000E+00 0. -1.
          1    1    1    2  502    0  0.15754620228E+02  0.11264453294E+03  0.15890618788E+03  0.19541795057E+03  0.00000000000E+00 0. -1.
         22    1    3    3    0    0  0.20661261285E+03  0.92510023608E+01  0.12188596859E+04  0.12362820417E+04  0.00000000000E+00 0.  1.
         22    1    3    3    0    0  0.99645696554E+02 -0.58175383828E+01  0.13692161040E+04  0.13728495358E+04  0.00000000000E+00 0.  1.
</event>
<event>
 7    1  0.3110367E-005  0.3065429E+03  0.7818608E-02  0.1094411E+00
          2   -1    0    0  502    0  0.00000000000E+00  0.00000000000E+00  0.11105473133E+04  0.11105473133E+04  0.00000000000E+00 0. -1.
          1   -1    0    0  501    0 -0.00000000000E+00 -0.00000000000E+00 -0.42847051583E+03  0.42847051583E+03  0.00000000000E+00 0. -1.
         25    2    1    2    0    0 -0.18835075067E+03 -0.20316021620E+03 -0.12421165980E+03  0.32834090993E+03  0.12501655081E+03 0.  0.
          2    1    1    2  501    0 -0.13301279203E+03  0.22348365660E+03 -0.76422114451E+02  0.27106768008E+03  0.00000000000E+00 0. -1.
          1    1    1    2  502    0  0.32136354270E+03 -0.20323440397E+02  0.88271057170E+03  0.93960923910E+03  0.00000000000E+00 0. -1.
         22    1    3    3    0    0 -0.11886136545E+03 -0.16292105022E+03 -0.14129715168E+03  0.24624414282E+03  0.00000000000E+00 0. -1.
         22    1    3    3    0    0 -0.69489385220E+02 -0.40239165982E+02  0.17085491871E+02  0.82096767109E+02  0.00000000000E+00 0. -1.
</event>
<event>
 7    1  0.3110367E-005  0.2105333E+03  0.7818608E-02  0.1233362E+00
          2   -1    0    0  502    0  0.00000000000E+00  0.00000000000E+00  0.14709319423E+04  0.14709319423E+04  0.00000000000E+00 0. -1.
          1   -1    0    0  501    0 -0.00000000000E+00 -0.00000000000E+00 -0.33524005003E+03  0.33524005003E+03  0.00000000000E+00 0. -1.
         25    2    1    2    0    0  0.13993211813E+02  0.20429586689E+03  0.41487198676E+03  0.47924566665E+03  0.12500012958E+03 0.  0.
          2    1    1    2  501    0  0.75152684592E+02 -0.75093004430E+01 -0.28671209930E+03  0.29649307492E+03  0.00000000000E+00 0. -1.
          1    1    1    2  502    0 -0.89145896405E+02 -0.19678656644E+03  0.10075320048E+04  0.10304332508E+04  0.00000000000E+00 0. -1.
         22    1    3    3    0    0 -0.88094271430E+01  0.14712171160E+03  0.16209696556E+03  0.21908407125E+03  0.00000000000E+00 0.  1.
         22    1    3    3    0    0  0.22802638956E+02  0.57174155286E+02  0.25277502120E+03  0.26016159540E+03  0.00000000000E+00 0.  1.
</event>
<event>
 7    1  0.3110367E-005  0.7246343E+03  0.7818608E-02  0.1115363E+00
          2   -1    0    0  502    0  0.00000000000E+00  0.00000000000E+00  0.22055517701E+04  0.22055517701E+04  0.00000000000E+00 0. -1.
          1   -1    0    0  501    0 -0.00000000000E+00 -0.00000000000E+00 -0.71282679431E+03  0.71282679431E+03  0.00000000000E+00 0. -1.
         25    2    1    2    0    0  0.41939097952E+03 -0.50591616247E+03  0.12979680331E+04  0.14602007576E+04  0.12500112131E+03 0.  0.
          2    1    1    2  501    0 -0.49403011242E+03  0.54453111723E+03 -0.41390626688E+03  0.84374065173E+03  0.00000000000E+00 0. -1.
          1    1    1    2  502    0  0.74639132898E+02 -0.38614954753E+02  0.60866320964E+03  0.61443715518E+03  0.00000000000E+00 0. -1.
         22    1    3    3    0    0  0.28061549592E+03 -0.33683287684E+03  0.98719313932E+03  0.10801628293E+04  0.00000000000E+00 0.  1.
         22    1    3    3    0    0  0.13877548360E+03 -0.16908328563E+03  0.31077489375E+03  0.38003792826E+03  0.00000000000E+00 0.  1.
</event>
<event>
 7    1  0.3110367E-005  0.1557744E+03  0.7818608E-02  0.1197039E+00
          2   -1    0    0  502    0  0.00000000000E+00  0.00000000000E+00  0.14904200583E+04  0.14904200583E+04  0.00000000000E+00 0. -1.
          1   -1    0    0  501    0 -0.00000000000E+00 -0.00000000000E+00 -0.14943963654E+03  0.14943963654E+03  0.00000000000E+00 0. -1.
         25    2    1    2    0    0  0.11930800453E+03  0.50493402888E+02 -0.42138009116E+02  0.18489166529E+03  0.12500132959E+03 0.  0.
          2    1    1    2  501    0  0.60785404986E+01 -0.14981598666E+03  0.15202447867E+03  0.21352569080E+03  0.00000000000E+00 0. -1.
          1    1    1    2  502    0 -0.12538654503E+03  0.99322583777E+02  0.12310939522E+04  0.12414423388E+04  0.00000000000E+00 0. -1.
         22    1    3    3    0    0  0.13309641674E+03  0.68795142210E+01 -0.22709786754E+02  0.13519511189E+03  0.00000000000E+00 0.  1.
         22    1    3    3    0    0 -0.13788412201E+02  0.43613888667E+02 -0.19428222362E+02  0.49696553400E+02  0.00000000000E+00 0.  1.
</event>
<event>
 7    1  0.3110367E-005  0.3177151E+02  0.7818608E-02  0.1606421E+00
          2   -1    0    0  502    0  0.00000000000E+00  0.00000000000E+00  0.21066658717E+04  0.21066658717E+04  0.00000000000E+00 0. -1.
          1   -1    0    0  501    0 -0.00000000000E+00 -0.00000000000E+00 -0.91334384276E+02  0.91334384276E+02  0.00000000000E+00 0. -1.
         25    2    1    2    0    0 -0.10647695865E+02 -0.56954192428E+02  0.11454234069E+03  0.17917314559E+03  0.12500365925E+03 0.  0.
          2    1    1    2  501    0  0.68713252388E+01  0.30274045437E+02 -0.54837434528E+02  0.63014896360E+02  0.00000000000E+00 0. -1.
          1    1    1    2  502    0  0.37763706264E+01  0.26680146992E+02  0.19556265812E+04  0.19558122140E+04  0.00000000000E+00 0. -1.
         22    1    3    3    0    0  0.46041565646E+02 -0.65729525582E+02  0.71079364300E+02  0.10720294926E+03  0.00000000000E+00 0.  1.
         22    1    3    3    0    0 -0.56689261511E+02  0.87753331537E+01  0.43462976394E+02  0.71970196329E+02  0.00000000000E+00 0.  1.
</event>
<event>
 7    1  0.3110367E-005  0.2903779E+03  0.7818608E-02  0.1123140E+00
          2   -1    0    0  502    0  0.00000000000E+00  0.00000000000E+00  0.18461151974E+04  0.18461151974E+04  0.00000000000E+00 0. -1.
          1   -1    0    0  501    0 -0.00000000000E+00 -0.00000000000E+00 -0.15625302821E+04  0.15625302821E+04  0.00000000000E+00 0. -1.
         25    2    1    2    0    0  0.47073969443E+03  0.33377387930E+02  0.11539052502E+04  0.12529293561E+04  0.12499894079E+03 0.  0.
          2    1    1    2  501    0 -0.28773233572E+03  0.18626439140E+02 -0.14847591288E+04  0.15124967807E+04  0.00000000000E+00 0. -1.
          1    1    1    2  502    0 -0.18300735870E+03 -0.52003827070E+02  0.61443879390E+03  0.64321934269E+03  0.00000000000E+00 0. -1.
         22    1    3    3    0    0  0.36065776679E+03 -0.17547395417E+02  0.94097627811E+03  0.10078781136E+04  0.00000000000E+00 0. -1.
         22    1    3    3    0    0  0.11008192764E+03  0.50924783347E+02  0.21292897206E+03  0.24505124258E+03  0.00000000000E+00 0. -1.
</event>
<event>
 7    1  0.3110367E-005  0.9233962E+02  0.7818608E-02  0.1351582E+00
          2   -1    0    0  502    0  0.00000000000E+00  0.00000000000E+00  0.35150943890E+03  0.35150943890E+03  0.00000000000E+00 0. -1.
          1   -1    0    0  501    0 -0.00000000000E+00 -0.00000000000E+00 -0.13835093335E+03  0.13835093335E+03  0.00000000000E+00 0. -1.
         25    2    1    2    0    0  0.93798958195E+02 -0.10865330506E+03  0.18257478584E+03  0.26374626438E+03  0.12499901715E+03 0.  0.
          2    1    1    2  501    0 -0.63228343425E+02  0.60515036886E+02 -0.68939310731E+02  0.11141149701E+03  0.00000000000E+00 0. -1.
          1    1    1    2  502    0 -0.30570614770E+02  0.48138268173E+02  0.99523030437E+02  0.11470261086E+03  0.00000000000E+00 0. -1.
         22    1    3    3    0    0  0.12181243312E+03 -0.10722909154E+03  0.15623608293E+03  0.22526886280E+03  0.00000000000E+00 0.  1.
         22    1    3    3    0    0 -0.28013474923E+02 -0.14242135151E+01  0.26338702909E+02  0.38477401580E+02  0.00000000000E+00 0.  1.
</event>
<event>
 7    1  0.3110367E-005  0.6337487E+02  0.7818608E-02  0.1450006E+00
          2   -1    0    0  502    0  0.00000000000E+00  0.00000000000E+00  0.15667304038E+04  0.15667304038E+04  0.00000000000E+00 0. -1.
          1   -1    0    0  501    0 -0.00000000000E+00 -0.00000000000E+00 -0.14627039941E+04  0.14627039941E+04  0.00000000000E+00 0. -1.
         25    2    1    2    0    0 -0.63349428112E+01 -0.10026048892E+03  0.30907096072E+02  0.16331871156E+03  0.12500182327E+03 0.  0.
          2    1    1    2  501    0 -0.20073662789E+01  0.63073921187E+02 -0.13955379461E+04  0.13969640325E+04  0.00000000000E+00 0. -1.
          1    1    1    2  502    0  0.83423090900E+01  0.37186567730E+02  0.14686572598E+04  0.14691516537E+04  0.00000000000E+00 0. -1.
         22    1    3    3    0    0 -0.86590516571E+01 -0.12013821860E+02  0.66505252714E+02  0.68134130433E+02  0.00000000000E+00 0. -1.
         22    1    3    3    0    0  0.23241088459E+01 -0.88246667056E+02 -0.35598156641E+02  0.95184581129E+02  0.00000000000E+00 0. -1.
</event>
<event>
 7    1  0.3110367E-005  0.1234926E+03  0.7818608E-02  0.1241361E+00
          2   -1    0    0  502    0  0.00000000000E+00  0.00000000000E+00  0.10881405152E+03  0.10881405152E+03  0.00000000000E+00 0. -1.
          1   -1    0    0  501    0 -0.00000000000E+00 -0.00000000000E+00 -0.11489592681E+04  0.11489592681E+04  0.00000000000E+00 0. -1.
         25    2    1    2    0    0 -0.13485017371E+03 -0.21013352360E+02 -0.50135238744E+03  0.53442058285E+03  0.12500005059E+03 0.  0.
          2    1    1    2  501    0  0.56373905076E+02  0.11636473298E+03 -0.57916922275E+03  0.59342712850E+03  0.00000000000E+00 0. -1.
          1    1    1    2  502    0  0.78476268635E+02 -0.95351380621E+02  0.40376393608E+02  0.12992560828E+03  0.00000000000E+00 0. -1.
         22    1    3    3    0    0 -0.40323371021E+02 -0.62616126724E+02 -0.28669653470E+03  0.29621218170E+03  0.00000000000E+00 0.  1.
         22    1    3    3    0    0 -0.94526802690E+02  0.41602774365E+02 -0.21465585274E+03  0.23820840115E+03  0.00000000000E+00 0.  1.
</event>
<event>
 7    1  0.3110367E-005  0.5708544E+03  0.7818608E-02  0.1023186E+00
          2   -1    0    0  502    0  0.00000000000E+00  0.00000000000E+00  0.24233068777E+04  0.24233068777E+04  0.00000000000E+00 0. -1.
          1   -1    0    0  501    0 -0.00000000000E+00 -0.00000000000E+00 -0.94141285146E+03  0.94141285146E+03  0.00000000000E+00 0. -1.
         25    2    1    2    0    0  0.48903042255E+03  0.26198208802E+03  0.50675880794E+03  0.76171799413E+03  0.12499777813E+03 0.  0.
          2    1    1    2  501    0 -0.23439311324E+03 -0.54358258929E+03 -0.68191695589E+03  0.90301323226E+03  0.00000000000E+00 0. -1.
          1    1    1    2  502    0 -0.25463730931E+03  0.28160050127E+03  0.16570521741E+04  0.16999885027E+04  0.00000000000E+00 0. -1.
         22    1    3    3    0    0  0.34194480473E+03  0.16793449450E+03  0.41908511760E+03  0.56635728981E+03  0.00000000000E+00 0.  1.
         22    1    3    3    0    0  0.14708561781E+03  0.94047593513E+02  0.87673690334E+02  0.19536070431E+03  0.00000000000E+00 0.  1.
</event>
<event>
 7    1  0.3110367E-005  0.3859419E+03  0.7818608E-02  0.1059161E+00
          2   -1    0    0  502    0  0.00000000000E+00  0.00000000000E+00  0.15308742908E+04  0.15308742908E+04  0.00000000000E+00 0. -1.
          1   -1    0    0  501    0 -0.00000000000E+00 -0.00000000000E+00 -0.11844518454E+04  0.11844518454E+04  0.00000000000E+00 0. -1.
         25    2    1    2    0    0  0.25472842887E+03 -0.42241997624E+02 -0.88980436330E+03  0.93490394292E+03  0.12499047449E+03 0.  0.
          2    1    1    2  501    0 -0.97752959661E+02 -0.31842952515E+03 -0.13085408924E+03  0.35787678925E+03  0.00000000000E+00 0. -1.
          1    1    1    2  502    0 -0.15697546921E+03  0.36067152278E+03  0.13670808979E+04  0.14225454040E+04  0.00000000000E+00 0. -1.
         22    1    3    3    0    0  0.15442990324E+03  0.34423264456E+02 -0.43404802637E+03  0.46198619606E+03  0.00000000000E+00 0.  1.
         22    1    3    3    0    0  0.10029852563E+03 -0.76665262080E+02 -0.45575633692E+03  0.47291774687E+03  0.00000000000E+00 0.  1.
</event>
<event>
 7    1  0.3110367E-005  0.4425850E+02  0.7818608E-02  0.1492338E+00
          2   -1    0    0  502    0  0.00000000000E+00  0.00000000000E+00  0.15327119297E+03  0.15327119297E+03  0.00000000000E+00 0. -1.
          1   -1    0    0  501    0 -0.00000000000E+00 -0.00000000000E+00 -0.75868235588E+03  0.75868235588E+03  0.00000000000E+00 0. -1.
         25    2    1    2    0    0  0.66412715753E+00  0.43124408146E+02 -0.42003471336E+03  0.44035909752E+03  0.12500727456E+03 0.  0.
          2    1    1    2  501    0  0.37054763586E+02 -0.28888762518E+02 -0.32391705478E+03  0.32730700341E+03  0.00000000000E+00 0. -1.
          1    1    1    2  502    0 -0.37718890744E+02 -0.14235645628E+02  0.13854060524E+03  0.14428744791E+03  0.00000000000E+00 0. -1.
         22    1    3    3    0    0 -0.25639813618E+02 -0.37912775218E+02 -0.11893636425E+03  0.12743875905E+03  0.00000000000E+00 0.  1.
         22    1    3    3    0    0  0.26303940775E+02  0.81037183364E+02 -0.30109834912E+03  0.31292033847E+03  0.00000000000E+00 0.  1.
</event>
<event>
 7    1  0.3110367E-005  0.1805450E+03  0.7818608E-02  0.1230515E+00
          2   -1    0    0  502    0  0.00000000000E+00  0.00000000000E+00  0.72555777184E+03  0.72555777184E+03  0.00000000000E+00 0. -1.
          1   -1    0    0  501    0 -0.00000000000E+00 -0.00000000000E+00 -0.64429538041E+03  0.64429538041E+03  0.00000000000E+00 0. -1.
         25    2    1    2    0    0 -0.14856798136E+03 -0.12455301416E+03  0.46656614504E+03  0.52047599354E+03  0.12500157495E+03 0.  0.
          2    1    1    2  501    0  0.68565077302E+02  0.16726472911E+03 -0.59449580991E+03  0.62137261561E+03  0.00000000000E+00 0. -1.
          1    1    1    2  502    0  0.80002904057E+02 -0.42711714947E+02  0.20919205630E+03  0.22800454310E+03  0.00000000000E+00 0. -1.
         22    1    3    3    0    0 -0.15791660938E+03 -0.74894508296E+02  0.40303737715E+03  0.43930168480E+03  0.00000000000E+00 0. -1.
         22    1    3    3    0    0  0.93486280227E+01 -0.49658505863E+02  0.63528767890E+02  0.81174308745E+02  0.00000000000E+00 0. -1.
</event>
<event>
 7    1  0.3110367E-005  0.7552858E+03  0.7818608E-02  0.1057737E+00
          2   -1    0    0  502    0  0.00000000000E+00  0.00000000000E+00  0.22226627427E+04  0.22226627427E+04  0.00000000000E+00 0. -1.
          1   -1    0    0  501    0 -0.00000000000E+00 -0.00000000000E+00 -0.20622621126E+04  0.20622621126E+04  0.00000000000E+00 0. -1.
         25    2    1    2    0    0 -0.49657637728E+03  0.70960023587E+03  0.35097205244E+03  0.94282898090E+03  0.12499804960E+03 0.  0.
          2    1    1    2  501    0  0.16027253461E+03 -0.66816924631E+02 -0.16781210389E+04  0.16870809133E+04  0.00000000000E+00 0. -1.
          1    1    1    2  502    0  0.33630384267E+03 -0.64278331124E+03  0.14875496166E+04  0.16550149612E+04  0.00000000000E+00 0. -1.
         22    1    3    3    0    0 -0.29563408168E+03  0.37925853778E+03  0.13281950956E+03  0.49887630817E+03  0.00000000000E+00 0. -1.
         22    1    3    3    0    0 -0.20094229560E+03  0.33034169809E+03  0.21815254288E+03  0.44395267273E+03  0.00000000000E+00 0. -1.
</event>
<event>
 7    1  0.3110367E-005  0.3810031E+03  0.7818608E-02  0.1182313E+00
          2   -1    0    0  502    0  0.00000000000E+00  0.00000000000E+00  0.13036909208E+04  0.13036909208E+04  0.00000000000E+00 0. -1.
          1   -1    0    0  501    0 -0.00000000000E+00 -0.00000000000E+00 -0.18523959342E+03  0.18523959342E+03  0.00000000000E+00 0. -1.
         25    2    1    2    0    0 -0.38737237887E+03  0.81906171219E+02  0.16511225585E+03  0.44683063033E+03  0.12501829615E+03 0.  0.
          2    1    1    2  501    0  0.32113406808E+03 -0.11048296070E+03  0.85628337495E+03  0.92117033849E+03  0.00000000000E+00 0. -1.
          1    1    1    2  502    0  0.66238310796E+02  0.28576789483E+02  0.97055696564E+02  0.12092954540E+03  0.00000000000E+00 0. -1.
         22    1    3    3    0    0 -0.29914793946E+03  0.90991409740E+02  0.17376346015E+03  0.35771869732E+03  0.00000000000E+00 0. -1.
         22    1    3    3    0    0 -0.88224439416E+02 -0.90852385212E+01 -0.86512043028E+01  0.89111933012E+02  0.00000000000E+00 0. -1.
</event>
<event>
 7    1  0.3110367E-005  0.6762050E+02  0.7818608E-02  0.1373419E+00
          2   -1    0    0  502    0  0.00000000000E+00  0.00000000000E+00  0.21668555463E+04  0.21668555463E+04  0.00000000000E+00 0. -1.
          1   -1    0    0  501    0 -0.00000000000E+00 -0.00000000000E+00 -0.24664275368E+02  0.24664275368E+02  0.00000000000E+00 0. -1.
         25    2    1    2    0    0  0.48886387157E+02  0.60873122959E-01  0.19611808936E+04  0.19657684157E+04  0.12500033767E+03 0.  0.
          2    1    1    2  501    0 -0.31516141778E+02 -0.62551382805E+02  0.94467385182E+02  0.11760114603E+03  0.00000000000E+00 0. -1.
          1    1    1    2  502    0 -0.17370245379E+02  0.62490509682E+02  0.86542992204E+02  0.10815025994E+03  0.00000000000E+00 0. -1.
         22    1    3    3    0    0  0.56484940536E+02  0.38829825263E+02  0.17206466080E+04  0.17220113396E+04  0.00000000000E+00 0.  1.
         22    1    3    3    0    0 -0.75985533783E+01 -0.38768952140E+02  0.24053428553E+03  0.24375707617E+03  0.00000000000E+00 0.  1.
</event>
<event>
 7    1  0.3110367E-005  0.5204880E+03  0.7818608E-02  0.1066597E+00
          2   -1    0    0  502    0  0.00000000000E+00  0.00000000000E+00  0.33993451477E+04  0.33993451477E+04  0.00000000000E+00 0. -1.
          1   -1    0    0  501    0 -0.00000000000E+00 -0.00000000000E+00 -0.73541631598E+03  0.73541631598E+03  0.00000000000E+00 0. -1.
         25    2    1    2    0    0  0.38484378418E+02 -0.46188876588E+03  0.22996756091E+03  0.53228981710E+03  0.12500036356E+03 0.  0.
          2    1    1    2  501    0 -0.25999985442E+03  0.48493873211E+03 -0.44944995933E+03  0.71047221208E+03  0.00000000000E+00 0. -1.
          1    1    1    2  502    0  0.22151547600E+03 -0.23049966237E+02  0.28834112302E+04  0.28919994345E+04  0.00000000000E+00 0. -1.
         22    1    3    3    0    0 -0.98716649227E+01 -0.35001104755E+03  0.12613301369E+03  0.37217565788E+03  0.00000000000E+00 0.  1.
         22    1    3    3    0    0  0.48356043341E+02 -0.11187771832E+03  0.10383454722E+03  0.16011415921E+03  0.00000000000E+00 0.  1.
</event>
<event>
 7    1  0.3110367E-005  0.1025117E+03  0.7818608E-02  0.1409215E+00
          2   -1    0    0  502    0  0.00000000000E+00  0.00000000000E+00  0.87818044216E+03  0.87818044216E+03  0.00000000000E+00 0. -1.
          1   -1    0    0  501    0 -0.00000000000E+00 -0.00000000000E+00 -0.28695531880E+03  0.28695531880E+03  0.00000000000E+00 0. -1.
         25    2    1    2    0    0  0.11232848302E+03 -0.56790995022E+02  0.34439070840E+03  0.38739234040E+03  0.12499984062E+03 0.  0.
          2    1    1    2  501    0 -0.98007390312E+02  0.28056037957E+02 -0.25513516412E+03  0.27474814247E+03  0.00000000000E+00 0. -1.
          1    1    1    2  502    0 -0.14321092712E+02  0.28734957065E+02  0.50196957908E+03  0.50299527809E+03  0.00000000000E+00 0. -1.
         22    1    3    3    0    0 -0.12361843394E+02 -0.44018831298E+02  0.14348008086E+03  0.15058886507E+03  0.00000000000E+00 0. -1.
         22    1    3    3    0    0  0.12469032642E+03 -0.12772163724E+02  0.20091062754E+03  0.23680347533E+03  0.00000000000E+00 0. -1.
</event>
<event>
 7    1  0.3110367E-005  0.2959444E+03  0.7818608E-02  0.1142640E+00
          2   -1    0    0  502    0  0.00000000000E+00  0.00000000000E+00  0.47175116565E+03  0.47175116565E+03  0.00000000000E+00 0. -1.
          1   -1    0    0  501    0 -0.00000000000E+00 -0.00000000000E+00 -0.38897212037E+03  0.38897212037E+03  0.00000000000E+00 0. -1.
         25    2    1    2    0    0 -0.16004628430E+02  0.31968623940E+03 -0.14535341094E+03  0.37310631777E+03  0.12500108197E+03 0.  0.
          2    1    1    2  501    0  0.13818174632E+03 -0.23775690623E+03  0.10025413141E+03  0.29270024315E+03  0.00000000000E+00 0. -1.
          1    1    1    2  502    0 -0.12217711789E+03 -0.81929333164E+02  0.12787832481E+03  0.19491672510E+03  0.00000000000E+00 0. -1.
         22    1    3    3    0    0  0.26896775236E+02  0.81650957349E+02 -0.91036932120E+02  0.12521197372E+03  0.00000000000E+00 0. -1.
         22    1    3    3    0    0 -0.42901403667E+02  0.23803528205E+03 -0.54316478817E+02  0.24789434404E+03  0.00000000000E+00 0. -1.
</event>
<event>
 7    1  0.3110367E-005  0.4199995E+03  0.7818608E-02  0.1040770E+00
          2   -1    0    0  502    0  0.00000000000E+00  0.00000000000E+00  0.23565922680E+04  0.23565922680E+04  0.00000000000E+00 0. -1.
          1   -1    0    0  501    0 -0.00000000000E+00 -0.00000000000E+00 -0.23600734032E+03  0.23600734032E+03  0.00000000000E+00 0. -1.
         25    2    1    2    0    0  0.47876537651E+03 -0.10401264537E+03  0.64392868379E+03  0.81871609407E+03  0.12496790281E+03 0.  0.
          2    1    1    2  501    0 -0.35096764480E+03 -0.27283199130E+03  0.31193960605E+03  0.54306712384E+03  0.00000000000E+00 0. -1.
          1    1    1    2  502    0 -0.12779773171E+03  0.37684463667E+03  0.11647166379E+04  0.12308163904E+04  0.00000000000E+00 0. -1.
         22    1    3    3    0    0  0.50707695432E+00 -0.12450509536E+01  0.46713467931E+02  0.46732808230E+02  0.00000000000E+00 0. -1.
         22    1    3    3    0    0  0.47825829956E+03 -0.10276759442E+03  0.59721521586E+03  0.77198328584E+03  0.00000000000E+00 0. -1.
</event>
<event>
 7    1  0.3110367E-005  0.3802421E+03  0.7818608E-02  0.1149878E+00
          2   -1    0    0  502    0  0.00000000000E+00  0.00000000000E+00  0.12709468258E+04  0.12709468258E+04  0.00000000000E+00 0. -1.
          1   -1    0    0  501    0 -0.00000000000E+00 -0.00000000000E+00 -0.32581847933E+03  0.32581847933E+03  0.00000000000E+00 0. -1.
         25    2    1    2    0    0 -0.25739923740E+03  0.19583314888E+03  0.24729031519E+03  0.42589009316E+03  0.12499952741E+03 0.  0.
          2    1    1    2  501    0 -0.26005747819E+02  0.10175255838E+03 -0.17615746803E+03  0.20508860426E+03  0.00000000000E+00 0. -1.
          1    1    1    2  502    0  0.28340498522E+03 -0.29758570726E+03  0.87399549926E+03  0.96578660767E+03  0.00000000000E+00 0. -1.
         22    1    3    3    0    0 -0.18944425733E+03  0.71911905327E+02  0.11885570039E+03  0.23491940379E+03  0.00000000000E+00 0. -1.
         22    1    3    3    0    0 -0.67954980067E+02  0.12392124355E+03  0.12843461480E+03  0.19097068936E+03  0.00000000000E+00 0. -1.
</event>
<event>
 7    1  0.3110367E-005  0.6123097E+02  0.7818608E-02  0.1438304E+00
          2   -1    0    0  502    0  0.00000000000E+00  0.00000000000E+00  0.11442341286E+04  0.11442341286E+04  0.00000000000E+00 0. -1.
          1   -1    0    0  501    0 -0.00000000000E+00 -0.00000000000E+00 -0.21414293626E+03  0.21414293626E+03  0.00000000000E+00 0. -1.
         25    2    1    2    0    0 -0.95284964868E+02 -0.31043161165E+02 -0.21131965955E+02  0.16160573817E+03  0.12500780871E+03 0.  0.
          2    1    1    2  501    0  0.53327542300E+02  0.21504882003E+02 -0.11558406812E+03  0.12909672157E+03  0.00000000000E+00 0. -1.
          1    1    1    2  502    0  0.41957422569E+02  0.95382791624E+01  0.10668072264E+04  0.10676746051E+04  0.00000000000E+00 0. -1.
         22    1    3    3    0    0 -0.75532964819E+02 -0.78007650907E+02 -0.73843221765E+01  0.10883451010E+03  0.00000000000E+00 0. -1.
         22    1    3    3    0    0 -0.19752000049E+02  0.46964489742E+02 -0.13747643778E+02  0.52771228071E+02  0.00000000000E+00 0. -1.
</event>
<event>
 7    1  0.3110367E-005  0.2988003E+03  0.7818608E-02  0.1158130E+00
          2   -1    0    0  502    0  0.00000000000E+00  0.00000000000E+00  0.15682181956E+04  0.15682181956E+04  0.00000000000E+00 0. -1.
          1   -1    0    0  501    0 -0.00000000000E+00 -0.00000000000E+00 -0.37652473237E+03  0.37652473237E+03  0.00000000000E+00 0. -1.
         25    2    1    2    0    0 -0.29567040877E+03  0.19231498968E+03  0.60137637342E+03  0.70830363617E+03  0.12503780480E+03 0.  0.
          2    1    1    2  501    0  0.28620144084E+03 -0.71399883939E+02 -0.25045849088E+03  0.38696080399E+03  0.00000000000E+00 0. -1.
          1    1    1    2  502    0  0.94689679284E+01 -0.12091510574E+03  0.84077558074E+03  0.84947848785E+03  0.00000000000E+00 0. -1.
         22    1    3    3    0    0 -0.45018734867E+02  0.88376953398E+02  0.20776585197E+03  0.23022558855E+03  0.00000000000E+00 0. -1.
         22    1    3    3    0    0 -0.25065167391E+03  0.10393803628E+03  0.39361052145E+03  0.47807804762E+03  0.00000000000E+00 0. -1.
</event>
<event>
 7    1  0.3110367E-005  0.3751556E+03  0.7818608E-02  0.1164771E+00
          2   -1    0    0  502    0  0.00000000000E+00  0.00000000000E+00  0.22556907209E+04  0.22556907209E+04  0.00000000000E+00 0. -1.
          1   -1    0    0  501    0 -0.00000000000E+00 -0.00000000000E+00 -0.16193860996E+04  0.16193860996E+04  0.00000000000E+00 0. -1.
         25    2    1    2    0    0 -0.16428945889E+02  0.39199420899E+03 -0.11727456379E+04  0.12429346921E+04  0.12499978969E+03 0.  0.
          2    1    1    2  501    0  0.86290492980E+02 -0.23495173186E+02 -0.39061913722E+03  0.40072606941E+03  0.00000000000E+00 0. -1.
          1    1    1    2  502    0 -0.69861547091E+02 -0.36849903580E+03  0.21996693964E+04  0.22314160590E+04  0.00000000000E+00 0. -1.
         22    1    3    3    0    0 -0.11509177795E+02  0.37286073942E+03 -0.11620738195E+04  0.12204807062E+04  0.00000000000E+00 0. -1.
         22    1    3    3    0    0 -0.49197680937E+01  0.19133469573E+02 -0.10671818435E+02  0.22453985943E+02  0.00000000000E+00 0. -1.
</event>
<event>
 7    1  0.3110367E-005  0.1645089E+03  0.7818608E-02  0.1397497E+00
          2   -1    0    0  502    0  0.00000000000E+00  0.00000000000E+00  0.14576028147E+03  0.14576028147E+03  0.00000000000E+00 0. -1.
          1   -1    0    0  501    0 -0.00000000000E+00 -0.00000000000E+00 -0.16607996808E+04  0.16607996808E+04  0.00000000000E+00 0. -1.
         25    2    1    2    0    0  0.16620550671E+03 -0.24339225577E+02  0.33001126838E+02  0.21196904022E+03  0.12500052511E+03 0.  0.
          2    1    1    2  501    0 -0.16441648862E+03  0.24706233935E+01 -0.15606468585E+04  0.15692856664E+04  0.00000000000E+00 0. -1.
          1    1    1    2  502    0 -0.17890180888E+01  0.21868602184E+02  0.12606332368E+02  0.25305255639E+02  0.00000000000E+00 0. -1.
         22    1    3    3    0    0  0.32657625515E+02  0.45625904234E+02 -0.54630518658E+01  0.56374538376E+02  0.00000000000E+00 0.  1.
         22    1    3    3    0    0  0.13354788119E+03 -0.69965129811E+02  0.38464178704E+02  0.15559450184E+03  0.00000000000E+00 0.  1.
</event>
<event>
 7    1  0.3110367E-005  0.2071235E+03  0.7818608E-02  0.1235242E+00
          2   -1    0    0  502    0  0.00000000000E+00  0.00000000000E+00  0.43667710702E+03  0.43667710702E+03  0.00000000000E+00 0. -1.
          1   -1    0    0  501    0 -0.00000000000E+00 -0.00000000000E+00 -0.22297182756E+03  0.22297182756E+03  0.00000000000E+00 0. -1.
         25    2    1    2    0    0 -0.18556343897E+03 -0.10948503122E+03  0.12083807283E+03  0.27685230714E+03  0.12499839271E+03 0.  0.
          2    1    1    2  501    0  0.13084510735E+03  0.16122228889E+03 -0.56788418098E+02  0.21526261400E+03  0.00000000000E+00 0. -1.
          1    1    1    2  502    0  0.54718331616E+02 -0.51737257674E+02  0.14965562473E+03  0.16753401344E+03  0.00000000000E+00 0. -1.
         22    1    3    3    0    0 -0.40774150822E+02  0.27777403105E+02  0.28880880100E+02  0.57168354304E+02  0.00000000000E+00 0. -1.
         22    1    3    3    0    0 -0.14478928815E+03 -0.13726243433E+03  0.91957192730E+02  0.21968395284E+03  0.00000000000E+00 0. -1.
</event>
<event>
 7    1  0.3110367E-005  0.9606239E+02  0.7818608E-02  0.1329437E+00
          2   -1    0    0  502    0  0.00000000000E+00  0.00000000000E+00  0.30653750538E+03  0.30653750538E+03  0.00000000000E+00 0. -1.
          1   -1    0    0  501    0 -0.00000000000E+00 -0.00000000000E+00 -0.41047408943E+03  0.41047408943E+03  0.00000000000E+00 0. -1.
         25    2    1    2    0    0  0.11185674446E+03 -0.65285151978E+02 -0.10870055734E+03  0.21027243654E+03  0.12499841620E+03 0.  0.
          2    1    1    2  501    0 -0.92611868663E+02  0.17380299079E+01 -0.23782548657E+03  0.25522723410E+03  0.00000000000E+00 0. -1.
          1    1    1    2  502    0 -0.19244875794E+02  0.63547122070E+02  0.24258945986E+03  0.25151192417E+03  0.00000000000E+00 0. -1.
         22    1    3    3    0    0  0.43204638999E+02  0.36436265465E+02 -0.25480963210E+02  0.61996143091E+02  0.00000000000E+00 0. -1.
         22    1    3    3    0    0  0.68652105458E+02 -0.10172141744E+03 -0.83219594134E+02  0.14827629345E+03  0.00000000000E+00 0. -1.
</event>
<event>
 7    1  0.3110367E-005  0.4055552E+03  0.7818608E-02  0.1196981E+00
          2   -1    0    0  502    0  0.00000000000E+00  0.00000000000E+00  0.16287775719E+04  0.16287775719E+04  0.00000000000E+00 0. -1.
          1   -1    0    0  501    0 -0.00000000000E+00 -0.00000000000E+00 -0.23423392571E+03  0.23423392571E+03  0.00000000000E+00 0. -1.
         25    2    1    2    0    0  0.75386441920E+02  0.40337914432E+03  0.18961653311E+03  0.46901899742E+03  0.12500616232E+03 0.  0.
          2    1    1    2  501    0 -0.17801384564E+02 -0.40113515824E+03  0.33715485428E+03  0.52430878328E+03  0.00000000000E+00 0. -1.
          1    1    1    2  502    0 -0.57585057356E+02 -0.22439860855E+01  0.86777225881E+03  0.86968371691E+03  0.00000000000E+00 0. -1.
         22    1    3    3    0    0  0.10062457647E+03  0.38048027252E+03  0.18411947406E+03  0.43450031518E+03  0.00000000000E+00 0.  1.
         22    1    3    3    0    0 -0.25238134552E+02  0.22898871803E+02  0.54970590503E+01  0.34518682241E+02  0.00000000000E+00 0.  1.
</event>
<event>
 7    1  0.3110367E-005  0.1957800E+03  0.7818608E-02  0.1245198E+00
          2   -1    0    0  502    0  0.00000000000E+00  0.00000000000E+00  0.77624180789E+03  0.77624180789E+03  0.00000000000E+00 0. -1.
          1   -1    0    0  501    0 -0.00000000000E+00 -0.00000000000E+00 -0.35240681723E+03  0.35240681723E+03  0.00000000000E+00 0. -1.
         25    2    1    2    0    0  0.26354732391E+02  0.13180710138E+03 -0.46542103312E+02  0.18936847051E+03  0.12500626524E+03 0.  0.
          2    1    1    2  501    0  0.37306192989E+02  0.61592388575E+02 -0.21372045382E+03  0.22552562326E+03  0.00000000000E+00 0. -1.
          1    1    1    2  502    0 -0.63660925380E+02 -0.19339948996E+03  0.68409754779E+03  0.71375453136E+03  0.00000000000E+00 0. -1.
         22    1    3    3    0    0  0.36767805955E+02  0.14484671118E+03 -0.66316383724E+02  0.16349404896E+03  0.00000000000E+00 0. -1.
         22    1    3    3    0    0 -0.10413073564E+02 -0.13039609799E+02  0.19774280412E+02  0.25874421550E+02  0.00000000000E+00 0. -1.
</event>
<event>
 7    1  0.3110367E-005  0.5098529E+02  0.7818608E-02  0.1443292E+00
          2   -1    0    0  502    0  0.00000000000E+00  0.00000000000E+00  0.54503679788E+03  0.54503679788E+03  0.00000000000E+00 0. -1.
          1   -1    0    0  501    0 -0.00000000000E+00 -0.00000000000E+00 -0.17218862939E+03  0.17218862939E+03  0.00000000000E+00 0. -1.
         25    2    1    2    0    0 -0.95396761624E+02  0.31003712752E+02 -0.10773125623E+03  0.19311520187E+03  0.12500274113E+03 0.  0.
          2    1    1    2  501    0  0.47034366043E+02 -0.16322011944E+02  0.99447330669E+01  0.50769453205E+02  0.00000000000E+00 0. -1.
          1    1    1    2  502    0  0.48362395581E+02 -0.14681700808E+02  0.47063469165E+03  0.47334077220E+03  0.00000000000E+00 0. -1.
         22    1    3    3    0    0 -0.72442308969E+02 -0.34714404544E+02 -0.91265367213E+02  0.12158266844E+03  0.00000000000E+00 0.  1.
         22    1    3    3    0    0 -0.22954452655E+02  0.65718117297E+02 -0.16465889016E+02  0.71532533429E+02  0.00000000000E+00 0.  1.
</event>
<event>
 7    1  0.3110367E-005  0.9455002E+02  0.7818608E-02  0.1425042E+00
          2   -1    0    0  502    0  0.00000000000E+00  0.00000000000E+00  0.51220340838E+03  0.51220340838E+03  0.00000000000E+00 0. -1.
          1   -1    0    0  501    0 -0.00000000000E+00 -0.00000000000E+00 -0.20544629458E+03  0.20544629458E+03  0.00000000000E+00 0. -1.
         25    2    1    2    0    0 -0.50981962466E+02  0.10994325626E+03  0.93703321271E+02  0.19771732687E+03  0.12500059533E+03 0.  0.
          2    1    1    2  501    0  0.19431328858E+02 -0.23902898908E+02 -0.14607885670E+03  0.14929151849E+03  0.00000000000E+00 0. -1.
          1    1    1    2  502    0  0.31550633607E+02 -0.86040357353E+02  0.35913264924E+03  0.37064085760E+03  0.00000000000E+00 0. -1.
         22    1    3    3    0    0 -0.49289349191E+02  0.47546952015E+00 -0.59808559135E+01  0.49653163569E+02  0.00000000000E+00 0.  1.
         22    1    3    3    0    0 -0.16926132750E+01  0.10946778674E+03  0.99684177184E+02  0.14806416330E+03  0.00000000000E+00 0.  1.
</event>
<event>
 7    1  0.3110367E-005  0.5207617E+02  0.7818608E-02  0.1463218E+00
          2   -1    0    0  502    0  0.00000000000E+00  0.00000000000E+00  0.31623216313E+03  0.31623216313E+03  0.00000000000E+00 0. -1.
          1   -1    0    0  501    0 -0.00000000000E+00 -0.00000000000E+00 -0.20794330073E+04  0.20794330073E+04  0.00000000000E+00 0. -1.
         25    2    1    2    0    0  0.80458055011E+02  0.33135037157E+02 -0.19051320938E+04  0.19112111522E+04  0.12501337624E+03 0.  0.
          2    1    1    2  501    0 -0.28457664896E+02 -0.31047270915E+02 -0.16645853724E+03  0.17170386234E+03  0.00000000000E+00 0. -1.
          1    1    1    2  502    0 -0.52000390115E+02 -0.20877662419E+01  0.30838978688E+03  0.31275015587E+03  0.00000000000E+00 0. -1.
         22    1    3    3    0    0  0.20702435400E+02 -0.47467247623E+02 -0.69484210885E+03  0.69676917746E+03  0.00000000000E+00 0. -1.
         22    1    3    3    0    0  0.59755619611E+02  0.80602284779E+02 -0.12102899850E+04  0.12144419748E+04  0.00000000000E+00 0. -1.
</event>
<event>
 7    1  0.3110367E-005  0.7665816E+02  0.7818608E-02  0.1420510E+00
          2   -1    0    0  502    0  0.00000000000E+00  0.00000000000E+00  0.34702089321E+04  0.34702089321E+04  0.00000000000E+00 0. -1.
          1   -1    0    0  501    0 -0.00000000000E+00 -0.00000000000E+00 -0.11097511876E+04  0.11097511876E+04  0.00000000000E+00 0. -1.
         25    2    1    2    0    0  0.52248912978E+02  0.88560009265E+02  0.54815956833E+03  0.57155652926E+03  0.12500051856E+03 0.  0.
          2    1    1    2  501    0  0.50719539241E+01 -0.39008143302E+02 -0.10972070332E+04  0.10979119425E+04  0.00000000000E+00 0. -1.
          1    1    1    2  502    0 -0.57320866902E+02 -0.49551865963E+02  0.29095052093E+04  0.29104916479E+04  0.00000000000E+00 0. -1.
         22    1    3    3    0    0 -0.17023076001E+02  0.46395366239E+02  0.39657820410E+03  0.39964557685E+03  0.00000000000E+00 0. -1.
         22    1    3    3    0    0  0.69271988978E+02  0.42164643026E+02  0.15158136423E+03  0.17191095241E+03  0.00000000000E+00 0. -1.
</event>
<event>
 7    1  0.3110367E-005  0.5183788E+02  0.7818608E-02  0.1492742E+00
          2   -1    0    0  502    0  0.00000000000E+00  0.00000000000E+00  0.15969151326E+04  0.15969151326E+04  0.00000000000E+00 0. -1.
          1   -1    0    0  501    0 -0.00000000000E+00 -0.00000000000E+00 -0.65904440245E+02  0.65904440245E+02  0.00000000000E+00 0. -1.
         25    2    1    2    0    0  0.32175531469E+02  0.28454829513E+02  0.14760071747E+03  0.19812993384E+03  0.12499822693E+03 0.  0.
          2    1    1    2  501    0 -0.25220555536E+02  0.23283294675E+02 -0.32824395488E+02  0.47493464515E+02  0.00000000000E+00 0. -1.
          1    1    1    2  502    0 -0.69549759328E+01 -0.51738124188E+02  0.14162343704E+04  0.14171961745E+04  0.00000000000E+00 0. -1.
         22    1    3    3    0    0  0.18329236672E+02 -0.45085101828E+02  0.94743295015E+02  0.10651253107E+03  0.00000000000E+00 0.  1.
         22    1    3    3    0    0  0.13846294797E+02  0.73539931341E+02  0.52857422459E+02  0.91617402769E+02  0.00000000000E+00 0.  1.
</event>
<event>
 7    1  0.3110367E-005  0.5383374E+03  0.7818608E-02  0.1024686E+00
          2   -1    0    0  502    0  0.00000000000E+00  0.00000000000E+00  0.13934032467E+04  0.13934032467E+04  0.00000000000E+00 0. -1.
          1   -1    0    0  501    0 -0.00000000000E+00 -0.00000000000E+00 -0.22886028627E+04  0.22886028627E+04  0.00000000000E+00 0. -1.
         25    2    1    2    0    0 -0.67859353574E+03 -0.41815431381E+03 -0.62251556798E+03  0.10190641786E+04  0.12499580306E+03 0.  0.
          2    1    1    2  501    0  0.48759004275E+03  0.73980459196E+02 -0.13918150391E+04  0.14766063325E+04  0.00000000000E+00 0. -1.
          1    1    1    2  502    0  0.19100349300E+03  0.34417385462E+03  0.11191309911E+04  0.11863355983E+04  0.00000000000E+00 0. -1.
         22    1    3    3    0    0 -0.33735224882E+03 -0.27974949805E+03 -0.32374124153E+03  0.54486210449E+03  0.00000000000E+00 0.  1.
         22    1    3    3    0    0 -0.34124128692E+03 -0.13840481576E+03 -0.29877432645E+03  0.47420207409E+03  0.00000000000E+00 0.  1.
</event>
<event>
 7    1  0.3110367E-005  0.2144194E+03  0.7818608E-02  0.1287767E+00
          2   -1    0    0  502    0  0.00000000000E+00  0.00000000000E+00  0.26368969345E+04  0.26368969345E+04  0.00000000000E+00 0. -1.
          1   -1    0    0  501    0 -0.00000000000E+00 -0.00000000000E+00 -0.29064767178E+02  0.29064767178E+02  0.00000000000E+00 0. -1.
         25    2    1    2    0    0  0.48237473042E+02 -0.19728873315E+03  0.92289589888E+03  0.95321137414E+03  0.12500154234E+03 0.  0.
          2    1    1    2  501    0 -0.36460643040E+02 -0.23646197823E+02  0.67683142819E+02  0.80433382275E+02  0.00000000000E+00 0. -1.
          1    1    1    2  502    0 -0.11776830001E+02  0.22093493098E+03  0.16172531256E+04  0.16323169452E+04  0.00000000000E+00 0. -1.
         22    1    3    3    0    0  0.46479414088E+02 -0.16758198517E+03  0.50210388063E+03  0.53136838881E+03  0.00000000000E+00 0.  1.
         22    1    3    3    0    0  0.17580589537E+01 -0.29706747987E+02  0.42079201826E+03  0.42184298533E+03  0.00000000000E+00 0.  1.
</event>
<event>
 7    1  0.3110367E-005  0.1666857E+03  0.7818608E-02  0.1232671E+00
          2   -1    0    0  502    0  0.00000000000E+00  0.00000000000E+00  0.12819158429E+04  0.12819158429E+04  0.00000000000E+00 0. -1.
          1   -1    0    0  501    0 -0.00000000000E+00 -0.00000000000E+00 -0.33563588805E+03  0.33563588805E+03  0.00000000000E+00 0. -1.
         25    2    1    2    0    0  0.15532877421E+03  0.68966539723E+02 -0.81750491619E+02  0.22625415479E+03  0.12499755191E+03 0.  0.
          2    1    1    2  501    0  0.10124785417E+02 -0.95539196218E+02 -0.16263784683E+03  0.18889499336E+03  0.00000000000E+00 0. -1.
          1    1    1    2  502    0 -0.16545355962E+03  0.26572656496E+02  0.11906682933E+04  0.12024025828E+04  0.00000000000E+00 0. -1.
         22    1    3    3    0    0  0.13984530129E+03  0.10013443390E+02 -0.23912875991E+02  0.14222799647E+03  0.00000000000E+00 0.  1.
         22    1    3    3    0    0  0.15483472912E+02  0.58953096332E+02 -0.57837615628E+02  0.84026158321E+02  0.00000000000E+00 0.  1.
</event>
<event>
 7    1  0.3110367E-005  0.4954046E+03  0.7818608E-02  0.1140292E+00
          2   -1    0    0  502    0  0.00000000000E+00  0.00000000000E+00  0.27711643747E+03  0.27711643747E+03  0.00000000000E+00 0. -1.
          1   -1    0    0  501    0 -0.00000000000E+00 -0.00000000000E+00 -0.24434716474E+04  0.24434716474E+04  0.00000000000E+00 0. -1.
         25    2    1    2    0    0 -0.22530908748E+03 -0.42921770712E+03 -0.20417559720E+04  0.21022338952E+04  0.12501150305E+03 0.  0.
          2    1    1    2  501    0 -0.82131241951E+02  0.37756214144E+02 -0.76242940187E+02  0.11825421151E+03  0.00000000000E+00 0. -1.
          1    1    1    2  502    0  0.30744032943E+03  0.39146149298E+03 -0.48356297759E+02  0.50009997818E+03  0.00000000000E+00 0. -1.
         22    1    3    3    0    0 -0.21318685735E+03 -0.40607838827E+03 -0.20071072729E+04  0.20588413971E+04  0.00000000000E+00 0.  1.
         22    1    3    3    0    0 -0.12122230132E+02 -0.23139318849E+02 -0.34648699130E+02  0.43392498103E+02  0.00000000000E+00 0.  1.
</event>
<event>
 7    1  0.3110367E-005  0.2409782E+03  0.7818608E-02  0.1151216E+00
          2   -1    0    0  502    0  0.00000000000E+00  0.00000000000E+00  0.83461337401E+03  0.83461337401E+03  0.00000000000E+00 0. -1.
          1   -1    0    0  501    0 -0.00000000000E+00 -0.00000000000E+00 -0.85205271988E+03  0.85205271988E+03  0.00000000000E+00 0. -1.
         25    2    1    2    0    0 -0.16948717370E+03  0.51870287391E+02  0.59034003878E+03  0.62892183546E+03  0.12499953988E+03 0.  0.
          2    1    1    2  501    0  0.22165821418E+03  0.10267474265E+03 -0.78189122863E+03  0.81916320724E+03  0.00000000000E+00 0. -1.
          1    1    1    2  502    0 -0.52171040479E+02 -0.15454503004E+03  0.17411184397E+03  0.23858105119E+03  0.00000000000E+00 0. -1.
         22    1    3    3    0    0 -0.11813736487E+03 -0.28323111079E+02  0.31816178644E+03  0.34056652500E+03  0.00000000000E+00 0. -1.
         22    1    3    3    0    0 -0.51349808835E+02  0.80193398470E+02  0.27217825234E+03  0.28835531046E+03  0.00000000000E+00 0. -1.
</event>
<event>
 7    1  0.3110367E-005  0.1013659E+03  0.7818608E-02  0.1326541E+00
          2   -1    0    0  502    0  0.00000000000E+00  0.00000000000E+00  0.60837859802E+03  0.60837859802E+03  0.00000000000E+00 0. -1.
          1   -1    0    0  501    0 -0.00000000000E+00 -0.00000000000E+00 -0.55588984421E+03  0.55588984421E+03  0.00000000000E+00 0. -1.
         25    2    1    2    0    0 -0.96129790396E+02  0.14357816496E+02  0.22008304999E+03  0.27112073896E+03  0.12499129053E+03 0.  0.
          2    1    1    2  501    0  0.88854188940E+02  0.49782865769E+02 -0.52254329553E+03  0.53237664893E+03  0.00000000000E+00 0. -1.
          1    1    1    2  502    0  0.72756014563E+01 -0.64140682265E+02  0.35494899936E+03  0.36077105433E+03  0.00000000000E+00 0. -1.
         22    1    3    3    0    0  0.44527500076E-01  0.11145908241E+02  0.15396309866E+03  0.15436602282E+03  0.00000000000E+00 0.  1.
         22    1    3    3    0    0 -0.96174317896E+02  0.32119082550E+01  0.66119951330E+02  0.11675471614E+03  0.00000000000E+00 0.  1.
</event>
<event>
 7    1  0.3110367E-005  0.1079874E+03  0.7818608E-02  0.1326016E+00
          2   -1    0    0  502    0  0.00000000000E+00  0.00000000000E+00  0.45725411854E+03  0.45725411854E+03  0.00000000000E+00 0. -1.
          1   -1    0    0  501    0 -0.00000000000E+00 -0.00000000000E+00 -0.94902660279E+03  0.94902660279E+03  0.00000000000E+00 0. -1.
         25    2    1    2    0    0 -0.69476588839E+02  0.10304735287E+03 -0.13769479340E+03  0.22367481431E+03  0.12499925239E+03 0.  0.
          2    1    1    2  501    0  0.60706143469E+02  0.45438464542E+01 -0.76007188229E+03  0.76250583515E+03  0.00000000000E+00 0. -1.
          1    1    1    2  502    0  0.87704453698E+01 -0.10759119932E+03  0.40599419145E+03  0.42010007186E+03  0.00000000000E+00 0. -1.
         22    1    3    3    0    0  0.21551519670E+02  0.70818467907E+02 -0.32400935055E+02  0.80805593799E+02  0.00000000000E+00 0.  1.
         22    1    3    3    0    0 -0.91028108509E+02  0.32228884962E+02 -0.10529385835E+03  0.14286922051E+03  0.00000000000E+00 0.  1.
</event>
<event>
 7    1  0.3110367E-005  0.3910463E+02  0.7818608E-02  0.1581454E+00
          2   -1    0    0  502    0  0.00000000000E+00  0.00000000000E+00  0.21470751520E+04  0.21470751520E+04  0.00000000000E+00 0. -1.
          1   -1    0    0  501    0 -0.00000000000E+00 -0.00000000000E+00 -0.15338846456E+03  0.15338846456E+03  0.00000000000E+00 0. -1.
         25    2    1    2    0    0  0.44010123519E+02 -0.33663779684E+02  0.42381873895E+02  0.14314476061E+03  0.12499623283E+03 0.  0.
          2    1    1    2  501    0 -0.59757999287E+01  0.24760821644E+02 -0.10124367057E+03  0.10439870356E+03  0.00000000000E+00 0. -1.
          1    1    1    2  502    0 -0.38034323590E+02  0.89029580399E+01  0.20525484841E+04  0.20529201524E+04  0.00000000000E+00 0. -1.
         22    1    3    3    0    0  0.62927502465E+02  0.13605936554E+02  0.61234521225E+02  0.88851891739E+02  0.00000000000E+00 0. -1.
         22    1    3    3    0    0 -0.18917378946E+02 -0.47269716237E+02 -0.18852647330E+02  0.54292868875E+02  0.00000000000E+00 0. -1.
</event>
<event>
 7    1  0.3110367E-005  0.3374141E+03  0.7818608E-02  0.1077078E+00
          2   -1    0    0  502    0  0.00000000000E+00  0.00000000000E+00  0.18112529809E+04  0.18112529809E+04  0.00000000000E+00 0. -1.
          1   -1    0    0  501    0 -0.00000000000E+00 -0.00000000000E+00 -0.24372686940E+04  0.24372686940E+04  0.00000000000E+00 0. -1.
         25    2    1    2    0    0  0.43288568984E+03  0.12708866679E+03  0.55530710156E+03  0.72631355710E+03  0.12499542585E+03 0.  0.
          2    1    1    2  501    0 -0.13427946033E+03 -0.26565339958E+03 -0.23189163130E+04  0.23379425932E+04  0.00000000000E+00 0. -1.
          1    1    1    2  502    0 -0.29860622951E+03  0.13856473279E+03  0.11375934984E+04  0.11842655247E+04  0.00000000000E+00 0. -1.
         22    1    3    3    0    0  0.36977583382E+03  0.58134445132E+02  0.45545842166E+03  0.58953893413E+03  0.00000000000E+00 0.  1.
         22    1    3    3    0    0  0.63109856018E+02  0.68954221654E+02  0.99848679899E+02  0.13677462297E+03  0.00000000000E+00 0.  1.
</event>
<event>
 7    1  0.3110367E-005  0.3142236E+03  0.7818608E-02  0.1262170E+00
          2   -1    0    0  502    0  0.00000000000E+00  0.00000000000E+00  0.54882896822E+03  0.54882896822E+03  0.00000000000E+00 0. -1.
          1   -1    0    0  501    0 -0.00000000000E+00 -0.00000000000E+00 -0.26178564343E+03  0.26178564343E+03  0.00000000000E+00 0. -1.
         25    2    1    2    0    0 -0.13918809086E+03 -0.27506195852E+03  0.23438968675E+03  0.40693165183E+03  0.12498975294E+03 0.  0.
          2    1    1    2  501    0  0.25723822180E+02 -0.27844329500E+02 -0.51428380382E+02  0.63889748955E+02  0.00000000000E+00 0. -1.
          1    1    1    2  502    0  0.11346426868E+03  0.30290628802E+03  0.10408201842E+03  0.33979321086E+03  0.00000000000E+00 0. -1.
         22    1    3    3    0    0 -0.61638429355E+02 -0.26069502643E+02  0.21536023160E+02  0.70304446765E+02  0.00000000000E+00 0. -1.
         22    1    3    3    0    0 -0.77549661505E+02 -0.24899245588E+03  0.21285366359E+03  0.33662720506E+03  0.00000000000E+00 0. -1.
</event>
<event>
 7    1  0.3110367E-005  0.5907377E+03  0.7818608E-02  0.1095767E+00
          2   -1    0    0  502    0  0.00000000000E+00  0.00000000000E+00  0.13857315265E+04  0.13857315265E+04  0.00000000000E+00 0. -1.
          1   -1    0    0  501    0 -0.00000000000E+00 -0.00000000000E+00 -0.13561308469E+04  0.13561308469E+04  0.00000000000E+00 0. -1.
         25    2    1    2    0    0 -0.42514735851E+03 -0.46799158488E+03  0.77317372343E+03  0.10065729702E+04  0.12500055140E+03 0.  0.
          2    1    1    2  501    0 -0.67842128492E+00  0.13257903784E+03 -0.10860439346E+04  0.10941065256E+04  0.00000000000E+00 0. -1.
          1    1    1    2  502    0  0.42582577979E+03  0.33541254703E+03  0.34247089077E+03  0.64118287755E+03  0.00000000000E+00 0. -1.
         22    1    3    3    0    0 -0.35263477266E+03 -0.33264650745E+03  0.52366328810E+03  0.71360228497E+03  0.00000000000E+00 0.  1.
         22    1    3    3    0    0 -0.72512585849E+02 -0.13534507743E+03  0.24951043533E+03  0.29297068527E+03  0.00000000000E+00 0.  1.
</event>
<event>
 7    1  0.3110367E-005  0.8776854E+03  0.7818608E-02  0.1035737E+00
          2   -1    0    0  502    0  0.00000000000E+00  0.00000000000E+00  0.98778774285E+03  0.98778774285E+03  0.00000000000E+00 0. -1.
          1   -1    0    0  501    0 -0.00000000000E+00 -0.00000000000E+00 -0.25701545937E+04  0.25701545937E+04  0.00000000000E+00 0. -1.
         25    2    1    2    0    0  0.34447672397E+03  0.98159411257E+03 -0.91255242967E+03  0.13894491036E+04  0.12500263710E+03 0.  0.
          2    1    1    2  501    0 -0.15345028549E+02 -0.20436183033E+03 -0.11697035850E+04  0.11875208227E+04  0.00000000000E+00 0. -1.
          1    1    1    2  502    0 -0.32913169543E+03 -0.77723228224E+03  0.49988916387E+03  0.98097241024E+03  0.00000000000E+00 0. -1.
         22    1    3    3    0    0  0.62032697320E+02  0.35320687550E+03 -0.32564664622E+03  0.48440570871E+03  0.00000000000E+00 0.  1.
         22    1    3    3    0    0  0.28244402665E+03  0.62838723707E+03 -0.58690578344E+03  0.90504339484E+03  0.00000000000E+00 0.  1.
</event>
<event>
 7    1  0.3110367E-005  0.7227694E+02  0.7818608E-02  0.1405335E+00
          2   -1    0    0  502    0  0.00000000000E+00  0.00000000000E+00  0.89524255882E+03  0.89524255882E+03  0.00000000000E+00 0. -1.
          1   -1    0    0  501    0 -0.00000000000E+00 -0.00000000000E+00 -0.50063632491E+03  0.50063632491E+03  0.00000000000E+00 0. -1.
         25    2    1    2    0    0  0.88959592826E+02 -0.57581410476E+01  0.54793370389E+03  0.56903772289E+03  0.12500248341E+03 0.  0.
          2    1    1    2  501    0 -0.63821552858E+02 -0.33885530841E+02 -0.48576285072E+03  0.49110789746E+03  0.00000000000E+00 0. -1.
          1    1    1    2  502    0 -0.25138039968E+02  0.39643671889E+02  0.33243538074E+03  0.33573326338E+03  0.00000000000E+00 0. -1.
         22    1    3    3    0    0  0.43164059917E+02  0.27296530917E+02  0.64284343437E+02  0.82101848211E+02  0.00000000000E+00 0.  1.
         22    1    3    3    0    0  0.45795532909E+02 -0.33054671965E+02  0.48364936046E+03  0.48693587467E+03  0.00000000000E+00 0.  1.
</event>
<event>
 7    1  0.3110367E-005  0.1608604E+03  0.7818608E-02  0.1195134E+00
          2   -1    0    0  502    0  0.00000000000E+00  0.00000000000E+00  0.29757076309E+04  0.29757076309E+04  0.00000000000E+00 0. -1.
          1   -1    0    0  501    0 -0.00000000000E+00 -0.00000000000E+00 -0.18855218859E+04  0.18855218859E+04  0.00000000000E+00 0. -1.
         25    2    1    2    0    0 -0.22282221790E+03 -0.16222132724E+03  0.19706410292E+02  0.30327980452E+03  0.12499918969E+03 0.  0.
          2    1    1    2  501    0  0.66138053564E+02  0.13268464675E+03 -0.17383189721E+04  0.17446295614E+04  0.00000000000E+00 0. -1.
          1    1    1    2  502    0  0.15668416433E+03  0.29536680485E+02  0.28087983069E+04  0.28133201509E+04  0.00000000000E+00 0. -1.
         22    1    3    3    0    0 -0.23876147917E+02  0.21282611958E+02  0.18607534959E+01  0.32038764250E+02  0.00000000000E+00 0.  1.
         22    1    3    3    0    0 -0.19894606998E+03 -0.18350393919E+03  0.17845656796E+02  0.27124104027E+03  0.00000000000E+00 0.  1.
</event>
<event>
 7    1  0.3110367E-005  0.1660804E+03  0.7818608E-02  0.1267219E+00
          2   -1    0    0  502    0  0.00000000000E+00  0.00000000000E+00  0.21442820099E+04  0.21442820099E+04  0.00000000000E+00 0. -1.
          1   -1    0    0  501    0 -0.00000000000E+00 -0.00000000000E+00 -0.51793702460E+03  0.51793702460E+03  0.00000000000E+00 0. -1.
         25    2    1    2    0    0  0.10942300993E+03  0.17002944387E+03  0.39619123978E+03  0.46203635161E+03  0.12500673919E+03 0.  0.
          2    1    1    2  501    0 -0.41917609398E+02 -0.15980337918E+03 -0.47024072247E+03  0.49841804045E+03  0.00000000000E+00 0. -1.
          1    1    1    2  502    0 -0.67505400534E+02 -0.10226064699E+02  0.17003944680E+04  0.17017646424E+04  0.00000000000E+00 0. -1.
         22    1    3    3    0    0  0.81768596234E+02  0.16068112320E+03  0.22474645346E+03  0.28812409657E+03  0.00000000000E+00 0.  1.
         22    1    3    3    0    0  0.27654413698E+02  0.93483206793E+01  0.17144478633E+03  0.17391225505E+03  0.00000000000E+00 0.  1.
</event>
<event>
 7    1  0.3110367E-005  0.1342593E+03  0.7818608E-02  0.1249806E+00
          2   -1    0    0  502    0  0.00000000000E+00  0.00000000000E+00  0.32856573246E+04  0.32856573246E+04  0.00000000000E+00 0. -1.
          1   -1    0    0  501    0 -0.00000000000E+00 -0.00000000000E+00 -0.10180116678E+04  0.10180116678E+04  0.00000000000E+00 0. -1.
         25    2    1    2    0    0 -0.21618939844E+03 -0.67988445482E+02  0.28592344979E+03  0.38566413162E+03  0.12499727421E+03 0.  0.
          2    1    1    2  501    0  0.11596292514E+03  0.65261118845E+02 -0.96271172954E+03  0.97186433612E+03  0.00000000000E+00 0. -1.
          1    1    1    2  502    0  0.10022647331E+03  0.27273266370E+01  0.29444339366E+04  0.29461405247E+04  0.00000000000E+00 0. -1.
         22    1    3    3    0    0 -0.76848942131E+02  0.35501556901E+02  0.10620796283E+03  0.13581697912E+03  0.00000000000E+00 0.  1.
         22    1    3    3    0    0 -0.13934045631E+03 -0.10349000238E+03  0.17971548696E+03  0.24984715250E+03  0.00000000000E+00 0.  1.
</event>
<event>
 7    1  0.3110367E-005  0.4295700E+03  0.7818608E-02  0.1141029E+00
          2   -1    0    0  502    0  0.00000000000E+00  0.00000000000E+00  0.57088586749E+03  0.57088586749E+03  0.00000000000E+00 0. -1.
          1   -1    0    0  501    0 -0.00000000000E+00 -0.00000000000E+00 -0.47566827979E+03  0.47566827979E+03  0.00000000000E+00 0. -1.
         25    2    1    2    0    0 -0.31737468433E+03  0.33923913553E+03  0.92796914958E+02  0.48994544072E+03  0.12500154451E+03 0.  0.
          2    1    1    2  501    0  0.10322221868E+03  0.46476744241E+01 -0.94539555995E+02  0.14005054429E+03  0.00000000000E+00 0. -1.
          1    1    1    2  502    0  0.21415246565E+03 -0.34388680995E+03  0.96960228741E+02  0.41655816228E+03  0.00000000000E+00 0. -1.
         22    1    3    3    0    0 -0.14100813368E+03  0.23735488184E+03  0.71265407410E+02  0.28513048240E+03  0.00000000000E+00 0. -1.
         22    1    3    3    0    0 -0.17636655064E+03  0.10188425368E+03  0.21531507547E+02  0.20481495832E+03  0.00000000000E+00 0. -1.
</event>
<event>
 7    1  0.3110367E-005  0.8320614E+02  0.7818608E-02  0.1362494E+00
          2   -1    0    0  502    0  0.00000000000E+00  0.00000000000E+00  0.63154551167E+03  0.63154551167E+03  0.00000000000E+00 0. -1.
          1   -1    0    0  501    0 -0.00000000000E+00 -0.00000000000E+00 -0.49591539792E+03  0.49591539792E+03  0.00000000000E+00 0. -1.
         25    2    1    2    0    0  0.50886330148E+02 -0.86711976472E+02  0.65840759537E+02  0.17339976602E+03  0.12499635107E+03 0.  0.
          2    1    1    2  501    0 -0.57591162761E+02  0.37960401578E+01 -0.43684579608E+03  0.44064203329E+03  0.00000000000E+00 0. -1.
          1    1    1    2  502    0  0.67048326136E+01  0.82915936315E+02  0.50663515030E+03  0.51341911027E+03  0.00000000000E+00 0. -1.
         22    1    3    3    0    0  0.47704878784E+02 -0.35169768667E+02  0.96570954499E+02  0.11330762261E+03  0.00000000000E+00 0. -1.
         22    1    3    3    0    0  0.31814513637E+01 -0.51542207806E+02 -0.30730194962E+02  0.60092143419E+02  0.00000000000E+00 0. -1.
</event>
<event>
 7    1  0.3110367E-005  0.2076970E+04  0.7818608E-02  0.9774862E-01
          2   -1    0    0  502    0  0.00000000000E+00  0.00000000000E+00  0.19652210034E+04  0.19652210034E+04  0.00000000000E+00 0. -1.
          1   -1    0    0  501    0 -0.00000000000E+00 -0.00000000000E+00 -0.26357236964E+04  0.26357236964E+04  0.00000000000E+00 0. -1.
         25    2    1    2    0    0 -0.17839732039E+04 -0.92503505336E+03  0.15900488977E+03  0.20196929534E+04  0.12500731453E+03 0.  0.
          2    1    1    2  501    0 -0.21082041143E+03  0.38952084926E+02 -0.23688396258E+03  0.31949416665E+03  0.00000000000E+00 0. -1.
          1    1    1    2  502    0  0.19947936153E+04  0.88608296844E+03 -0.59262362019E+03  0.22617575798E+04  0.00000000000E+00 0. -1.
         22    1    3    3    0    0 -0.10429087310E+04 -0.58029963255E+03  0.14488135460E+03  0.12022466018E+04  0.00000000000E+00 0.  1.
         22    1    3    3    0    0 -0.74106447289E+03 -0.34473542082E+03  0.14123535168E+02  0.81744635150E+03  0.00000000000E+00 0.  1.
</event>
<event>
 7    1  0.3110367E-005  0.2550545E+03  0.7818608E-02  0.1213864E+00
          2   -1    0    0  502    0  0.00000000000E+00  0.00000000000E+00  0.11315616412E+04  0.11315616412E+04  0.00000000000E+00 0. -1.
          1   -1    0    0  501    0 -0.00000000000E+00 -0.00000000000E+00 -0.12917921022E+04  0.12917921022E+04  0.00000000000E+00 0. -1.
         25    2    1    2    0    0 -0.29532514176E+02 -0.22380553368E+03 -0.57036996652E+03  0.62602526090E+03  0.12499856909E+03 0.  0.
          2    1    1    2  501    0 -0.11219245147E+02  0.28844268020E+03 -0.66214217646E+03  0.72232770477E+03  0.00000000000E+00 0. -1.
          1    1    1    2  502    0  0.40751759323E+02 -0.64637146517E+02  0.10722816820E+04  0.10750007777E+04  0.00000000000E+00 0. -1.
         22    1    3    3    0    0  0.47644554980E+02 -0.11306819984E+03 -0.28831517016E+03  0.31333697320E+03  0.00000000000E+00 0. -1.
         22    1    3    3    0    0 -0.77177069156E+02 -0.11073733384E+03 -0.28205479636E+03  0.31268828769E+03  0.00000000000E+00 0. -1.
</event>
<event>
 7    1  0.3110367E-005  0.3838385E+03  0.7818608E-02  0.1238590E+00
          2   -1    0    0  502    0  0.00000000000E+00  0.00000000000E+00  0.66175692285E+03  0.66175692285E+03  0.00000000000E+00 0. -1.
          1   -1    0    0  501    0 -0.00000000000E+00 -0.00000000000E+00 -0.52001556289E+03  0.52001556289E+03  0.00000000000E+00 0. -1.
         25    2    1    2    0    0 -0.33297532096E+03  0.17140621439E+03 -0.34703752099E+03  0.52565563453E+03  0.12500460168E+03 0.  0.
          2    1    1    2  501    0  0.93555057469E+01  0.38139460725E+02  0.83976328692E+01  0.40157990363E+02  0.00000000000E+00 0. -1.
          1    1    1    2  502    0  0.32361981521E+03 -0.20954567512E+03  0.48038124808E+03  0.61595886085E+03  0.00000000000E+00 0. -1.
         22    1    3    3    0    0 -0.15396764836E+03  0.14015019412E+03 -0.14384138002E+03  0.25305820725E+03  0.00000000000E+00 0.  1.
         22    1    3    3    0    0 -0.17900767259E+03  0.31256020272E+02 -0.20319614097E+03  0.27259742727E+03  0.00000000000E+00 0.  1.
</event>
<event>
 7    1  0.3110367E-005  0.1152202E+03  0.7818608E-02  0.1396402E+00
          2   -1    0    0  502    0  0.00000000000E+00  0.00000000000E+00  0.47448196798E+03  0.47448196798E+03  0.00000000000E+00 0. -1.
          1   -1    0    0  501    0 -0.00000000000E+00 -0.00000000000E+00 -0.10757741351E+04  0.10757741351E+04  0.00000000000E+00 0. -1.
         25    2    1    2    0    0  0.93589469169E+02 -0.62602916087E+02  0.25247096538E+01  0.16825616982E+03  0.12500260270E+03 0.  0.
          2    1    1    2  501    0 -0.18462556551E+02 -0.25647772830E+02 -0.98401860445E+03  0.98452592050E+03  0.00000000000E+00 0. -1.
          1    1    1    2  502    0 -0.75126912617E+02  0.88250688917E+02  0.38020172767E+03  0.39747401276E+03  0.00000000000E+00 0. -1.
         22    1    3    3    0    0  0.10189905815E+03 -0.91421415632E+02 -0.61418657813E+01  0.13703654915E+03  0.00000000000E+00 0.  1.
         22    1    3    3    0    0 -0.83095889785E+01  0.28818499545E+02  0.86665754351E+01  0.31219620670E+02  0.00000000000E+00 0.  1.
</event>
<event>
 7    1  0.3110367E-005  0.4457468E+03  0.7818608E-02  0.1189090E+00
          2   -1    0    0  502    0  0.00000000000E+00  0.00000000000E+00  0.28579080666E+04  0.28579080666E+04  0.00000000000E+00 0. -1.
          1   -1    0    0  501    0 -0.00000000000E+00 -0.00000000000E+00 -0.15639996903E+03  0.15639996903E+03  0.00000000000E+00 0. -1.
         25    2    1    2    0    0  0.41151954586E+03 -0.26607452821E+03  0.17483675325E+04  0.18200438184E+04  0.12500592409E+03 0.  0.
          2    1    1    2  501    0 -0.37525236913E+03  0.22186443735E+03  0.27871073239E+03  0.51741457406E+03  0.00000000000E+00 0. -1.
          1    1    1    2  502    0 -0.36267176726E+02  0.44210090867E+02  0.67442983275E+03  0.67684964323E+03  0.00000000000E+00 0. -1.
         22    1    3    3    0    0  0.25129874551E+03 -0.92965893542E+02  0.10084338574E+04  0.10434234815E+04  0.00000000000E+00 0. -1.
         22    1    3    3    0    0  0.16022080035E+03 -0.17310863467E+03  0.73993367503E+03  0.77662033691E+03  0.00000000000E+00 0. -1.
</event>
<event>
 7    1  0.3110367E-005  0.4989335E+03  0.7818608E-02  0.1119140E+00
          2   -1    0    0  502    0  0.00000000000E+00  0.00000000000E+00  0.68771769105E+03  0.68771769105E+03  0.00000000000E+00 0. -1.
          1   -1    0    0  501    0 -0.00000000000E+00 -0.00000000000E+00 -0.61960018732E+03  0.61960018732E+03  0.00000000000E+00 0. -1.
         25    2    1    2    0    0 -0.23842294296E+03  0.47228681205E+03 -0.32669558542E+03  0.63423624431E+03  0.12500110203E+03 0.  0.
          2    1    1    2  501    0  0.23108561862E+03 -0.35612508399E+03  0.27372822908E+03  0.50512650097E+03  0.00000000000E+00 0. -1.
          1    1    1    2  502    0  0.73373243378E+01 -0.11616172805E+03  0.12108486007E+03  0.16795513309E+03  0.00000000000E+00 0. -1.
         22    1    3    3    0    0 -0.10834447334E+03  0.13542659263E+03 -0.53708595800E+02  0.18155853094E+03  0.00000000000E+00 0.  1.
         22    1    3    3    0    0 -0.13007846961E+03  0.33686021942E+03 -0.27298698962E+03  0.45267771337E+03  0.00000000000E+00 0.  1.
</event>
<event>
 7    1  0.3110367E-005  0.1267493E+03  0.7818608E-02  0.1294200E+00
          2   -1    0    0  502    0  0.00000000000E+00  0.00000000000E+00  0.19938827117E+04  0.19938827117E+04  0.00000000000E+00 0. -1.
          1   -1    0    0  501    0 -0.00000000000E+00 -0.00000000000E+00 -0.99024396661E+03  0.99024396661E+03  0.00000000000E+00 0. -1.
         25    2    1    2    0    0 -0.81235964066E+02 -0.80330415306E+02  0.10727784561E+03  0.20047915069E+03  0.12502438251E+03 0.  0.
          2    1    1    2  501    0  0.27934926037E+02  0.12450013338E+03 -0.93867447670E+03  0.94730692836E+03  0.00000000000E+00 0. -1.
          1    1    1    2  502    0  0.53301038030E+02 -0.44169718073E+02  0.18350353762E+04  0.18363405993E+04  0.00000000000E+00 0. -1.
         22    1    3    3    0    0 -0.11001058258E+02 -0.17776777406E+02  0.10430517649E+03  0.10637954193E+03  0.00000000000E+00 0.  1.
         22    1    3    3    0    0 -0.70234905808E+02 -0.62553637900E+02  0.29726691187E+01  0.94099608767E+02  0.00000000000E+00 0.  1.
</event>
<event>
 7    1  0.3110367E-005  0.3270110E+03  0.7818608E-02  0.1269059E+00
          2   -1    0    0  502    0  0.00000000000E+00  0.00000000000E+00  0.10484406420E+03  0.10484406420E+03  0.00000000000E+00 0. -1.
          1   -1    0    0  501    0 -0.00000000000E+00 -0.00000000000E+00 -0.26568957086E+04  0.26568957086E+04  0.00000000000E+00 0. -1.
         25    2    1    2    0    0 -0.22879204921E+03 -0.24642659361E+03 -0.55264530227E+03  0.65887284726E+03  0.12499892365E+03 0.  0.
          2    1    1    2  501    0  0.19697675646E+03  0.25859266272E+03 -0.20307351169E+04  0.20565882239E+04  0.00000000000E+00 0. -1.
          1    1    1    2  502    0  0.31815292754E+02 -0.12166069112E+02  0.31328774789E+02  0.46278701586E+02  0.00000000000E+00 0. -1.
         22    1    3    3    0    0 -0.16367809316E+03 -0.20779161116E+03 -0.32541121191E+03  0.41935704201E+03  0.00000000000E+00 0. -1.
         22    1    3    3    0    0 -0.65113956055E+02 -0.38634982449E+02 -0.22723409036E+03  0.23951580525E+03  0.00000000000E+00 0. -1.
</event>
<event>
 7    1  0.3110367E-005  0.4758906E+03  0.7818608E-02  0.1200629E+00
          2   -1    0    0  502    0  0.00000000000E+00  0.00000000000E+00  0.27153453459E+04  0.27153453459E+04  0.00000000000E+00 0. -1.
          1   -1    0    0  501    0 -0.00000000000E+00 -0.00000000000E+00 -0.24912150249E+03  0.24912150249E+03  0.00000000000E+00 0. -1.
         25    2    1    2    0    0  0.48597696845E+02 -0.48807762287E+03  0.15635944968E+04  0.16434823813E+04  0.12500034039E+03 0.  0.
          2    1    1    2  501    0 -0.37239484699E+02  0.29000565854E+02 -0.15816540293E+03  0.16505788901E+03  0.00000000000E+00 0. -1.
          1    1    1    2  502    0 -0.11358212145E+02  0.45907705702E+03  0.10607947496E+04  0.11559265781E+04  0.00000000000E+00 0. -1.
         22    1    3    3    0    0  0.18687670685E+02 -0.41535542469E+03  0.11590745375E+04  0.12313907346E+04  0.00000000000E+00 0.  1.
         22    1    3    3    0    0  0.29910026160E+02 -0.72722198185E+02  0.40451995929E+03  0.41209164665E+03  0.00000000000E+00 0.  1.
</event>
<event>
 7    1  0.3110367E-005  0.9590253E+03  0.7818608E-02  0.1029625E+00
          2   -1    0    0  502    0  0.00000000000E+00  0.00000000000E+00  0.33997564870E+04  0.33997564870E+04  0.00000000000E+00 0. -1.
          1   -1    0    0  501    0 -0.00000000000E+00 -0.00000000000E+00 -0.89531123825E+03  0.89531123825E+03  0.00000000000E+00 0. -1.
         25    2    1    2    0    0  0.51304070277E+03 -0.99388817048E+03  0.15097290602E+03  0.11355364663E+04  0.12500315964E+03 0.  0.
          2    1    1    2  501    0 -0.13951688920E+02  0.20478489274E+03 -0.29041000433E+03  0.35562546666E+03  0.00000000000E+00 0. -1.
          1    1    1    2  502    0 -0.49908901385E+03  0.78910327774E+03  0.26438823471E+04  0.28039057923E+04  0.00000000000E+00 0. -1.
         22    1    3    3    0    0  0.21189765195E+02 -0.10095756383E+03 -0.93260865611E+01  0.10357804659E+03  0.00000000000E+00 0. -1.
         22    1    3    3    0    0  0.49185093758E+03 -0.89293060665E+03  0.16029899258E+03  0.10319584198E+04  0.00000000000E+00 0. -1.
</event>
<event>
 7    1  0.3110367E-005  0.2483657E+03  0.7818608E-02  0.1337958E+00
          2   -1    0    0  502    0  0.00000000000E+00  0.00000000000E+00  0.38543401976E+03  0.38543401976E+03  0.00000000000E+00 0. -1.
          1   -1    0    0  501    0 -0.00000000000E+00 -0.00000000000E+00 -0.95891420172E+03  0.95891420172E+03  0.00000000000E+00 0. -1.
         25    2    1    2    0    0  0.10326855980E+03  0.24223113885E+03 -0.27751167304E+03  0.40246699380E+03  0.12500652926E+03 0.  0.
          2    1    1    2  501    0 -0.10570390191E+03 -0.21851925715E+03 -0.59463079863E+03  0.64226923273E+03  0.00000000000E+00 0. -1.
          1    1    1    2  502    0  0.24353421111E+01 -0.23711881691E+02  0.29866228970E+03  0.29961199495E+03  0.00000000000E+00 0. -1.
         22    1    3    3    0    0  0.66184205748E+02  0.16639556891E+03 -0.26087945504E+03  0.31642680750E+03  0.00000000000E+00 0. -1.
         22    1    3    3    0    0  0.37084354056E+02  0.75835569939E+02 -0.16632217999E+02  0.86040186305E+02  0.00000000000E+00 0. -1.
</event>
<event>
 7    1  0.3110367E-005  0.8255971E+02  0.7818608E-02  0.1363415E+00
          2   -1    0    0  502    0  0.00000000000E+00  0.00000000000E+00  0.12225196665E+04  0.12225196665E+04  0.00000000000E+00 0. -1.
          1   -1    0    0  501    0 -0.00000000000E+00 -0.00000000000E+00 -0.22161407747E+02  0.22161407747E+02  0.00000000000E+00 0. -1.
         25    2    1    2    0    0 -0.11233749748E+03 -0.44143685934E+02  0.80136626290E+03  0.81998882782E+03  0.12500164837E+03 0.  0.
          2    1    1    2  501    0  0.44078000492E+02  0.37267610502E+02  0.81483248826E+02  0.99856220432E+02  0.00000000000E+00 0. -1.
          1    1    1    2  502    0  0.68259496988E+02  0.68760754328E+01  0.31750874702E+03  0.32483602599E+03  0.00000000000E+00 0. -1.
         22    1    3    3    0    0 -0.99101766536E+02  0.12172712389E+02  0.65564703353E+03  0.66320612756E+03  0.00000000000E+00 0. -1.
         22    1    3    3    0    0 -0.13235730944E+02 -0.56316398324E+02  0.14571922937E+03  0.15678270026E+03  0.00000000000E+00 0. -1.
</event>
<event>
 7    1  0.3110367E-005  0.2951913E+03  0.7818608E-02  0.1214260E+00
          2   -1    0    0  502    0  0.00000000000E+00  0.00000000000E+00  0.49102222159E+03  0.49102222159E+03  0.00000000000E+00 0. -1.
          1   -1    0    0  501    0 -0.00000000000E+00 -0.00000000000E+00 -0.34447673557E+03  0.34447673557E+03  0.00000000000E+00 0. -1.
         25    2    1    2    0    0  0.20253276374E+03 -0.21203904417E+03 -0.14436676634E+03  0.34992449928E+03  0.12500126133E+03 0.  0.
          2    1    1    2  501    0 -0.25469196198E+03  0.17201668068E+03  0.28570315284E+03  0.41962367125E+03  0.00000000000E+00 0. -1.
          1    1    1    2  502    0  0.52159198236E+02  0.40022363486E+02  0.52090995170E+01  0.65950786632E+02  0.00000000000E+00 0. -1.
         22    1    3    3    0    0  0.18314285713E+03 -0.22799578650E+03 -0.14075681988E+03  0.32455487536E+03  0.00000000000E+00 0. -1.
         22    1    3    3    0    0  0.19389906614E+02  0.15956742332E+02 -0.36099464581E+01  0.25369623919E+02  0.00000000000E+00 0. -1.
</event>
<event>
 7    1  0.3110367E-005  0.4437342E+03  0.7818608E-02  0.1043791E+00
          2   -1    0    0  502    0  0.00000000000E+00  0.00000000000E+00  0.16369335571E+04  0.16369335571E+04  0.00000000000E+00 0. -1.
          1   -1    0    0  501    0 -0.00000000000E+00 -0.00000000000E+00 -0.18514961163E+04  0.18514961163E+04  0.00000000000E+00 0. -1.
         25    2    1    2    0    0 -0.61972226414E+03 -0.14804296540E+02  0.21708933471E+03  0.66860161548E+03  0.12500195643E+03 0.  0.
          2    1    1    2  501    0  0.35425181372E+03  0.25872854999E+03 -0.15677153010E+04  0.16279330684E+04  0.00000000000E+00 0. -1.
          1    1    1    2  502    0  0.26547045042E+03 -0.24392425346E+03  0.11360634070E+04  0.11918949896E+04  0.00000000000E+00 0. -1.
         22    1    3    3    0    0 -0.24253920669E+03  0.71474855364E+01  0.14886427212E+03  0.28466985236E+03  0.00000000000E+00 0. -1.
         22    1    3    3    0    0 -0.37718305745E+03 -0.21951782076E+02  0.68225062587E+02  0.38393176312E+03  0.00000000000E+00 0. -1.
</event>
<event>
 7    1  0.3110367E-005  0.9508791E+02  0.7818608E-02  0.1388626E+00
          2   -1    0    0  502    0  0.00000000000E+00  0.00000000000E+00  0.85263283080E+03  0.85263283080E+03  0.00000000000E+00 0. -1.
          1   -1    0    0  501    0 -0.00000000000E+00 -0.00000000000E+00 -0.14058386692E+03  0.14058386692E+03  0.00000000000E+00 0. -1.
         25    2    1    2    0    0  0.20224357471E+02 -0.55645226744E+02 -0.20406970536E+01  0.13832718084E+03  0.12499931448E+03 0.  0.
          2    1    1    2  501    0 -0.70709581417E+01 -0.40133898386E+02 -0.61237601489E+02  0.73557950521E+02  0.00000000000E+00 0. -1.
          1    1    1    2  502    0 -0.13153399329E+02  0.95779125129E+02  0.77532726243E+03  0.78133156636E+03  0.00000000000E+00 0. -1.
         22    1    3    3    0    0  0.46929871924E+02 -0.51882400515E+02  0.45652719681E+02  0.83536621767E+02  0.00000000000E+00 0.  1.
         22    1    3    3    0    0 -0.26705514453E+02 -0.37628262281E+01 -0.47693416735E+02  0.54790559071E+02  0.00000000000E+00 0.  1.
</event>
<event>
 7    1  0.3110367E-005  0.3428972E+03  0.7818608E-02  0.1149545E+00
          2   -1    0    0  502    0  0.00000000000E+00  0.00000000000E+00  0.11713801625E+04  0.11713801625E+04  0.00000000000E+00 0. -1.
          1   -1    0    0  501    0 -0.00000000000E+00 -0.00000000000E+00 -0.94864977784E+03  0.94864977784E+03  0.00000000000E+00 0. -1.
         25    2    1    2    0    0  0.24534464151E+03 -0.32234331563E+03 -0.54721176616E+03  0.69221740181E+03  0.12500003239E+03 0.  0.
          2    1    1    2  501    0 -0.17633925867E+03  0.22795644526E+03 -0.26186569283E+03  0.38940122774E+03  0.00000000000E+00 0. -1.
          1    1    1    2  502    0 -0.69005382843E+02  0.94386870373E+02  0.10318078436E+04  0.10384113108E+04  0.00000000000E+00 0. -1.
         22    1    3    3    0    0  0.12026767745E+03 -0.15240724175E+03 -0.16138779609E+03  0.25246445750E+03  0.00000000000E+00 0.  1.
         22    1    3    3    0    0  0.12507696407E+03 -0.16993607388E+03 -0.38582397007E+03  0.43975294431E+03  0.00000000000E+00 0.  1.
</event>
<event>
 7    1  0.3110367E-005  0.3827891E+03  0.7818608E-02  0.1135793E+00
          2   -1    0    0  502    0  0.00000000000E+00  0.00000000000E+00  0.10266896270E+04  0.10266896270E+04  0.00000000000E+00 0. -1.
          1   -1    0    0  501    0 -0.00000000000E+00 -0.00000000000E+00 -0.43300229748E+03  0.43300229748E+03  0.00000000000E+00 0. -1.
         25    2    1    2    0    0 -0.25760270867E+03 -0.23231250818E+03  0.55032090708E+03  0.66242427329E+03  0.12499824040E+03 0.  0.
          2    1    1    2  501    0 -0.92396374845E+02 -0.81997768313E+02 -0.22427344576E+03  0.25604550878E+03  0.00000000000E+00 0. -1.
          1    1    1    2  502    0  0.34999908351E+03  0.31431027649E+03  0.26763986820E+03  0.54122214240E+03  0.00000000000E+00 0. -1.
         22    1    3    3    0    0 -0.22198575524E+00 -0.51188376270E+02  0.51468634928E+02  0.72590078690E+02  0.00000000000E+00 0. -1.
         22    1    3    3    0    0 -0.25738072291E+03 -0.18112413191E+03  0.49885227215E+03  0.58983419460E+03  0.00000000000E+00 0. -1.
</event>
<event>
 7    1  0.3110367E-005  0.6115875E+03  0.7818608E-02  0.1101841E+00
          2   -1    0    0  502    0  0.00000000000E+00  0.00000000000E+00  0.70722581134E+03  0.70722581134E+03  0.00000000000E+00 0. -1.
          1   -1    0    0  501    0 -0.00000000000E+00 -0.00000000000E+00 -0.33405801534E+04  0.33405801534E+04  0.00000000000E+00 0. -1.
         25    2    1    2    0    0  0.23663031060E+02 -0.51301102268E+03 -0.24621316574E+03  0.58308245118E+03  0.12499589380E+03 0.  0.
          2    1    1    2  501    0 -0.18150275452E+02  0.63121727384E+03 -0.28848425843E+04  0.29531477131E+04  0.00000000000E+00 0. -1.
          1    1    1    2  502    0 -0.55127556076E+01 -0.11820625115E+03  0.49770140789E+03  0.51157580054E+03  0.00000000000E+00 0. -1.
         22    1    3    3    0    0  0.45324003238E+02 -0.49457169691E+03 -0.21599203915E+03  0.54157916285E+03  0.00000000000E+00 0.  1.
         22    1    3    3    0    0 -0.21660972178E+02 -0.18439325769E+02 -0.30221126585E+02  0.41503288335E+02  0.00000000000E+00 0.  1.
</event>
<event>
 7    1  0.3110367E-005  0.6061229E+02  0.7818608E-02  0.1497990E+00
          2   -1    0    0  502    0  0.00000000000E+00  0.00000000000E+00  0.18125928579E+04  0.18125928579E+04  0.00000000000E+00 0. -1.
          1   -1    0    0  501    0 -0.00000000000E+00 -0.00000000000E+00 -0.75928422538E+03  0.75928422538E+03  0.00000000000E+00 0. -1.
         25    2    1    2    0    0 -0.45775997656E+02  0.25454971320E+02  0.55616001875E+03  0.57242916481E+03  0.12497113561E+03 0.  0.
          2    1    1    2  501    0  0.60628121439E+02 -0.13542415403E+01 -0.74976473680E+03  0.75221324345E+03  0.00000000000E+00 0. -1.
          1    1    1    2  502    0 -0.14852123783E+02 -0.24100729780E+02  0.12469133506E+04  0.12472346751E+04  0.00000000000E+00 0. -1.
         22    1    3    3    0    0  0.32035617447E+02 -0.63816796572E+01  0.32164941270E+03  0.32330380652E+03  0.00000000000E+00 0. -1.
         22    1    3    3    0    0 -0.77811615103E+02  0.31836650978E+02  0.23451060606E+03  0.24912535829E+03  0.00000000000E+00 0. -1.
</event>
<event>
 7    1  0.3110367E-005  0.1235110E+03  0.7818608E-02  0.1282371E+00
          2   -1    0    0  502    0  0.00000000000E+00  0.00000000000E+00  0.15465729149E+04  0.15465729149E+04  0.00000000000E+00 0. -1.
          1   -1    0    0  501    0 -0.00000000000E+00 -0.00000000000E+00 -0.13315034328E+03  0.13315034328E+03  0.00000000000E+00 0. -1.
         25    2    1    2    0    0  0.42378282792E+02  0.86016847317E+02  0.64327078007E+02  0.17016927892E+03  0.12499917459E+03 0.  0.
          2    1    1    2  501    0  0.11522999396E+02 -0.14429711336E+03 -0.12823467354E+02  0.14532335584E+03  0.00000000000E+00 0. -1.
          1    1    1    2  502    0 -0.53901282188E+02  0.58280266043E+02  0.13619189610E+04  0.13642306234E+04  0.00000000000E+00 0. -1.
         22    1    3    3    0    0  0.61359611498E+02 -0.74503639217E+01  0.19732992278E+02  0.64883748582E+02  0.00000000000E+00 0. -1.
         22    1    3    3    0    0 -0.18981328706E+02  0.93467211238E+02  0.44594085729E+02  0.10528553034E+03  0.00000000000E+00 0. -1.
</event>
<event>
 7    1  0.3110367E-005  0.2037827E+03  0.7818608E-02  0.1338647E+00
          2   -1    0    0  502    0  0.00000000000E+00  0.00000000000E+00  0.17332147371E+04  0.17332147371E+04  0.00000000000E+00 0. -1.
          1   -1    0    0  501    0 -0.00000000000E+00 -0.00000000000E+00 -0.91019186366E+03  0.91019186366E+03  0.00000000000E+00 0. -1.
         25    2    1    2    0    0  0.15521821666E+03  0.12628888986E+03 -0.38687893918E+03  0.45314774304E+03  0.12500393976E+03 0.  0.
          2    1    1    2  501    0 -0.14106283543E+03 -0.15145978587E+03 -0.46820018764E+03  0.51190839608E+03  0.00000000000E+00 0. -1.
          1    1    1    2  502    0 -0.14155381238E+02  0.25170896008E+02  0.16781020002E+04  0.16783504616E+04  0.00000000000E+00 0. -1.
         22    1    3    3    0    0  0.10480631913E+02  0.75663167777E+02 -0.18086167792E+03  0.19633060165E+03  0.00000000000E+00 0.  1.
         22    1    3    3    0    0  0.14473758475E+03  0.50625722082E+02 -0.20601726126E+03  0.25681714139E+03  0.00000000000E+00 0.  1.
</event>
<event>
 7    1  0.3110367E-005  0.6441867E+03  0.7818608E-02  0.1102242E+00
          2   -1    0    0  502    0  0.00000000000E+00  0.00000000000E+00  0.12547409427E+04  0.12547409427E+04  0.00000000000E+00 0. -1.
          1   -1    0    0  501    0 -0.00000000000E+00 -0.00000000000E+00 -0.11567537614E+04  0.11567537614E+04  0.00000000000E+00 0. -1.
         25    2    1    2    0    0 -0.56991275918E+03  0.54736873163E+02  0.11714961672E+02  0.58614510055E+03  0.12502863758E+03 0.  0.
          2    1    1    2  501    0  0.67597191818E+03 -0.19479823341E+02 -0.73368907566E+03  0.99780617227E+03  0.00000000000E+00 0. -1.
          1    1    1    2  502    0 -0.10605915901E+03 -0.35257049822E+02  0.81996129532E+03  0.82754343125E+03  0.00000000000E+00 0. -1.
         22    1    3    3    0    0 -0.12604092234E+03  0.21467965844E+02  0.54478481062E+02  0.13897874860E+03  0.00000000000E+00 0. -1.
         22    1    3    3    0    0 -0.44387183684E+03  0.33268907320E+02 -0.42763519390E+02  0.44716635195E+03  0.00000000000E+00 0. -1.
</event>
<event>
 7    1  0.3110367E-005  0.1218226E+03  0.7818608E-02  0.1345789E+00
          2   -1    0    0  502    0  0.00000000000E+00  0.00000000000E+00  0.77697257037E+03  0.77697257037E+03  0.00000000000E+00 0. -1.
          1   -1    0    0  501    0 -0.00000000000E+00 -0.00000000000E+00 -0.34864918535E+03  0.34864918535E+03  0.00000000000E+00 0. -1.
         25    2    1    2    0    0 -0.13749838023E+03 -0.28656769917E+02  0.83815926329E+02  0.20585714768E+03  0.12500016288E+03 0.  0.
          2    1    1    2  501    0  0.10472194702E+03  0.60097620175E+02 -0.27408802836E+03  0.29950401905E+03  0.00000000000E+00 0. -1.
          1    1    1    2  502    0  0.32776433210E+02 -0.31440850259E+02  0.61859548706E+03  0.62026058898E+03  0.00000000000E+00 0. -1.
         22    1    3    3    0    0 -0.59286123909E+01 -0.51070917846E+02  0.70648520816E+01  0.51897005978E+02  0.00000000000E+00 0. -1.
         22    1    3    3    0    0 -0.13156976784E+03  0.22414147929E+02  0.76751074248E+02  0.15396014171E+03  0.00000000000E+00 0. -1.
</event>
<event>
 7    1  0.3110367E-005  0.7678460E+02  0.7818608E-02  0.1502093E+00
          2   -1    0    0  502    0  0.00000000000E+00  0.00000000000E+00  0.73160709742E+03  0.73160709742E+03  0.00000000000E+00 0. -1.
          1   -1    0    0  501    0 -0.00000000000E+00 -0.00000000000E+00 -0.16052121723E+04  0.16052121723E+04  0.00000000000E+00 0. -1.
         25    2    1    2    0    0  0.57021933285E+02 -0.64123800552E+02 -0.14201900373E+04  0.14282614577E+04  0.12501074656E+03 0.  0.
          2    1    1    2  501    0 -0.42770658663E+02  0.47725252129E+02 -0.17514471601E+03  0.18650120772E+03  0.00000000000E+00 0. -1.
          1    1    1    2  502    0 -0.14251274623E+02  0.16398548423E+02  0.72172967840E+03  0.72205660436E+03  0.00000000000E+00 0. -1.
         22    1    3    3    0    0  0.59396470817E+02 -0.10449260741E+02 -0.26305194304E+03  0.26987673581E+03  0.00000000000E+00 0. -1.
         22    1    3    3    0    0 -0.23745375319E+01 -0.53674539811E+02 -0.11571380943E+04  0.11583847219E+04  0.00000000000E+00 0. -1.
</event>
<event>
 7    1  0.3110367E-005  0.1139639E+03  0.7818608E-02  0.1345261E+00
          2   -1    0    0  502    0  0.00000000000E+00  0.00000000000E+00  0.35716338674E+04  0.35716338674E+04  0.00000000000E+00 0. -1.
          1   -1    0    0  501    0 -0.00000000000E+00 -0.00000000000E+00 -0.11533280524E+03  0.11533280524E+03  0.00000000000E+00 0. -1.
         25    2    1    2    0    0  0.34835556785E+02  0.11978561297E+03  0.57604465594E+02  0.18576007246E+03  0.12500568376E+03 0.  0.
          2    1    1    2  501    0  0.13134698986E+02 -0.11098351930E+03  0.10049965390E+02  0.11220901781E+03  0.00000000000E+00 0. -1.
          1    1    1    2  502    0 -0.47970255771E+02 -0.88020936762E+01  0.33886466311E+04  0.33889975823E+04  0.00000000000E+00 0. -1.
         22    1    3    3    0    0 -0.12325458846E+02  0.10601104425E+03  0.78381849784E+02  0.13241590846E+03  0.00000000000E+00 0. -1.
         22    1    3    3    0    0  0.47161015631E+02  0.13774568724E+02 -0.20777384189E+02  0.53344163998E+02  0.00000000000E+00 0. -1.
</event>
<event>
 7    1  0.3110367E-005  0.3124748E+03  0.7818608E-02  0.1168752E+00
          2   -1    0    0  502    0  0.00000000000E+00  0.00000000000E+00  0.18702961582E+04  0.18702961582E+04  0.00000000000E+00 0. -1.
          1   -1    0    0  501    0 -0.00000000000E+00 -0.00000000000E+00 -0.10547924081E+04  0.10547924081E+04  0.00000000000E+00 0. -1.
         25    2    1    2    0    0  0.11601762876E+03  0.31021778409E+03 -0.86311638838E+03  0.93289345737E+03  0.12500055669E+03 0.  0.
          2    1    1    2  501    0 -0.27105722821E+02 -0.25908661166E+03 -0.45997358595E+02  0.26453043217E+03  0.00000000000E+00 0. -1.
          1    1    1    2  502    0 -0.88911905938E+02 -0.51131172430E+02  0.17246174971E+04  0.17276646767E+04  0.00000000000E+00 0. -1.
         22    1    3    3    0    0  0.40473692818E+02  0.25976100033E+03 -0.65694456398E+03  0.70759455711E+03  0.00000000000E+00 0. -1.
         22    1    3    3    0    0  0.75543935942E+02  0.50456783751E+02 -0.20617182440E+03  0.22529890026E+03  0.00000000000E+00 0. -1.
</event>
<event>
 7    1  0.3110367E-005  0.1347150E+03  0.7818608E-02  0.1373155E+00
          2   -1    0    0  502    0  0.00000000000E+00  0.00000000000E+00  0.14898639193E+04  0.14898639193E+04  0.00000000000E+00 0. -1.
          1   -1    0    0  501    0 -0.00000000000E+00 -0.00000000000E+00 -0.50875986711E+03  0.50875986711E+03  0.00000000000E+00 0. -1.
         25    2    1    2    0    0 -0.37526072325E+02  0.12118918051E+03  0.72234663209E+02  0.19219170222E+03  0.12499912103E+03 0.  0.
          2    1    1    2  501    0  0.69778017557E+02 -0.11625319804E+03 -0.43833837592E+03  0.45882928153E+03  0.00000000000E+00 0. -1.
          1    1    1    2  502    0 -0.32251945232E+02 -0.49359824779E+01  0.13472077649E+04  0.13476028027E+04  0.00000000000E+00 0. -1.
         22    1    3    3    0    0 -0.97216940966E+01 -0.23263245027E+02  0.29911881421E+02  0.39120462107E+02  0.00000000000E+00 0. -1.
         22    1    3    3    0    0 -0.27804378228E+02  0.14445242554E+03  0.42322781787E+02  0.15307124012E+03  0.00000000000E+00 0. -1.
</event>
<event>
 7    1  0.3110367E-005  0.1402919E+03  0.7818608E-02  0.1221520E+00
          2   -1    0    0  502    0  0.00000000000E+00  0.00000000000E+00  0.41728256275E+04  0.41728256275E+04  0.00000000000E+00 0. -1.
          1   -1    0    0  501    0 -0.00000000000E+00 -0.00000000000E+00 -0.84874651339E+03  0.84874651339E+03  0.00000000000E+00 0. -1.
         25    2    1    2    0    0  0.20706381234E+03 -0.13462372790E+03 -0.42178237914E+02  0.28000454954E+03  0.12499829405E+03 0.  0.
          2    1    1    2  501    0 -0.13141656501E+03  0.31183886318E+02 -0.67999868500E+03  0.69328274169E+03  0.00000000000E+00 0. -1.
          1    1    1    2  502    0 -0.75647247335E+02  0.10343984158E+03  0.40462560370E+04  0.40482848496E+04  0.00000000000E+00 0. -1.
         22    1    3    3    0    0  0.11012357007E+03 -0.82462399541E+02 -0.85190880791E+02  0.16181697745E+03  0.00000000000E+00 0. -1.
         22    1    3    3    0    0  0.96940242273E+02 -0.52161328361E+02  0.43012642876E+02  0.11818757209E+03  0.00000000000E+00 0. -1.
</event>
<event>
 7    1  0.3110367E-005  0.1964611E+03  0.7818608E-02  0.1157948E+00
          2   -1    0    0  502    0  0.00000000000E+00  0.00000000000E+00  0.67802739311E+03  0.67802739311E+03  0.00000000000E+00 0. -1.
          1   -1    0    0  501    0 -0.00000000000E+00 -0.00000000000E+00 -0.14193395794E+04  0.14193395794E+04  0.00000000000E+00 0. -1.
         25    2    1    2    0    0  0.17598055238E+02 -0.19548334029E+03  0.65973459822E+02  0.24187035870E+03  0.12500138055E+03 0.  0.
          2    1    1    2  501    0 -0.17685619558E+03  0.53790761279E+02 -0.13029188558E+04  0.13159669847E+04  0.00000000000E+00 0. -1.
          1    1    1    2  502    0  0.15925814035E+03  0.14169257901E+03  0.49563320968E+03  0.53952962916E+03  0.00000000000E+00 0. -1.
         22    1    3    3    0    0  0.18583329545E+02 -0.16712426541E+03  0.10149168333E+03  0.19640881348E+03  0.00000000000E+00 0.  1.
         22    1    3    3    0    0 -0.98527430727E+00 -0.28359074879E+02 -0.35518223507E+02  0.45461545228E+02  0.00000000000E+00 0.  1.
</event>
<event>
 7    1  0.3110367E-005  0.3259761E+03  0.7818608E-02  0.1187771E+00
          2   -1    0    0  502    0  0.00000000000E+00  0.00000000000E+00  0.80371580392E+03  0.80371580392E+03  0.00000000000E+00 0. -1.
          1   -1    0    0  501    0 -0.00000000000E+00 -0.00000000000E+00 -0.61610703718E+03  0.61610703718E+03  0.00000000000E+00 0. -1.
         25    2    1    2    0    0 -0.15458503344E+03  0.26859054902E+03  0.31269566367E+03  0.45764650972E+03  0.12499733674E+03 0.  0.
          2    1    1    2  501    0  0.22765814547E+03 -0.23767771728E+03 -0.48915158119E+03  0.58956610984E+03  0.00000000000E+00 0. -1.
          1    1    1    2  502    0 -0.73073112029E+02 -0.30912831743E+02  0.36406468426E+03  0.37261022154E+03  0.00000000000E+00 0. -1.
         22    1    3    3    0    0 -0.13326037114E+03  0.27781914913E+03  0.30396668018E+03  0.43282507876E+03  0.00000000000E+00 0. -1.
         22    1    3    3    0    0 -0.21324662299E+02 -0.92286001096E+01  0.87289834849E+01  0.24821430959E+02  0.00000000000E+00 0. -1.
</event>
<event>
 7    1  0.3110367E-005  0.4887130E+03  0.7818608E-02  0.1051926E+00
          2   -1    0    0  502    0  0.00000000000E+00  0.00000000000E+00  0.26048372444E+04  0.26048372444E+04  0.00000000000E+00 0. -1.
          1   -1    0    0  501    0 -0.00000000000E+00 -0.00000000000E+00 -0.34626809140E+03  0.34626809140E+03  0.00000000000E+00 0. -1.
         25    2    1    2    0    0  0.22635223080E+03  0.13827796863E+03  0.16935729485E+04  0.17187700808E+04  0.12500051984E+03 0.  0.
          2    1    1    2  501    0 -0.31146600303E+03 -0.41689518094E+03 -0.78198728765E+02  0.52623920808E+03  0.00000000000E+00 0. -1.
          1    1    1    2  502    0  0.85113772229E+02  0.27861721231E+03  0.64319493329E+03  0.70609604689E+03  0.00000000000E+00 0. -1.
         22    1    3    3    0    0  0.18187625103E+02 -0.17409190744E+02  0.30777744056E+03  0.30880547687E+03  0.00000000000E+00 0.  1.
         22    1    3    3    0    0  0.20816460570E+03  0.15568715938E+03  0.13857955079E+04  0.14099646040E+04  0.00000000000E+00 0.  1.
</event>
<event>
 7    1  0.3110367E-005  0.6999276E+02  0.7818608E-02  0.1428108E+00
          2   -1    0    0  502    0  0.00000000000E+00  0.00000000000E+00  0.14020901713E+04  0.14020901713E+04  0.00000000000E+00 0. -1.
          1   -1    0    0  501    0 -0.00000000000E+00 -0.00000000000E+00 -0.10349910339E+03  0.10349910339E+03  0.00000000000E+00 0. -1.
         25    2    1    2    0    0  0.14685778677E+02  0.77516465225E+02  0.55085133131E+02  0.15775456296E+03  0.12501062262E+03 0.  0.
          2    1    1    2  501    0  0.24215545342E+02 -0.65715289606E+02 -0.28185414476E+02  0.75493771355E+02  0.00000000000E+00 0. -1.
          1    1    1    2  502    0 -0.38901324019E+02 -0.11801175619E+02  0.12716913493E+04  0.12723409404E+04  0.00000000000E+00 0. -1.
         22    1    3    3    0    0  0.64244068333E+02  0.53113075777E+02  0.59384677602E+02  0.10234666125E+03  0.00000000000E+00 0.  1.
         22    1    3    3    0    0 -0.49558289656E+02  0.24403389448E+02 -0.42995444716E+01  0.55407901718E+02  0.00000000000E+00 0.  1.
</event>
<event>
 7    1  0.3110367E-005  0.2551106E+03  0.7818608E-02  0.1252569E+00
          2   -1    0    0  502    0  0.00000000000E+00  0.00000000000E+00  0.18372833545E+03  0.18372833545E+03  0.00000000000E+00 0. -1.
          1   -1    0    0  501    0 -0.00000000000E+00 -0.00000000000E+00 -0.16894109380E+04  0.16894109380E+04  0.00000000000E+00 0. -1.
         25    2    1    2    0    0  0.14978682332E+02  0.22374673683E+03 -0.45517755261E+03  0.52258451765E+03  0.12498404109E+03 0.  0.
          2    1    1    2  501    0  0.38884426127E+02  0.33511853504E+02 -0.10843352882E+04  0.10855496581E+04  0.00000000000E+00 0. -1.
          1    1    1    2  502    0 -0.53863108459E+02 -0.25725859033E+03  0.33830238341E+02  0.26500509764E+03  0.00000000000E+00 0. -1.
         22    1    3    3    0    0  0.20792345908E+02 -0.32491431274E+01 -0.91108070180E+02  0.93506999905E+02  0.00000000000E+00 0. -1.
         22    1    3    3    0    0 -0.58136635760E+01  0.22699587995E+03 -0.36406948243E+03  0.42907751775E+03  0.00000000000E+00 0. -1.
</event>
<event>
 7    1  0.3110367E-005  0.1225697E+03  0.7818608E-02  0.1371824E+00
          2   -1    0    0  502    0  0.00000000000E+00  0.00000000000E+00  0.48227713597E+03  0.48227713597E+03  0.00000000000E+00 0. -1.
          1   -1    0    0  501    0 -0.00000000000E+00 -0.00000000000E+00 -0.16788264128E+04  0.16788264128E+04  0.00000000000E+00 0. -1.
         25    2    1    2    0    0 -0.63497542189E+02  0.64920659794E+02  0.12663909975E+03  0.19977448114E+03  0.12500300715E+03 0.  0.
          2    1    1    2  501    0  0.98751571377E+02 -0.73386050061E+02 -0.16389154610E+04  0.16435270833E+04  0.00000000000E+00 0. -1.
          1    1    1    2  502    0 -0.35254029188E+02  0.84653902670E+01  0.31572708443E+03  0.31780198434E+03  0.00000000000E+00 0. -1.
         22    1    3    3    0    0 -0.55317428918E+01 -0.12657097381E+02 -0.19841253744E+02  0.24175972445E+02  0.00000000000E+00 0. -1.
         22    1    3    3    0    0 -0.57965799297E+02  0.77577757175E+02  0.14648035349E+03  0.17559850869E+03  0.00000000000E+00 0. -1.
</event>
<event>
 7    1  0.3110367E-005  0.2808609E+03  0.7818608E-02  0.1152121E+00
          2   -1    0    0  502    0  0.00000000000E+00  0.00000000000E+00  0.12315989551E+03  0.12315989551E+03  0.00000000000E+00 0. -1.
          1   -1    0    0  501    0 -0.00000000000E+00 -0.00000000000E+00 -0.30916144135E+04  0.30916144135E+04  0.00000000000E+00 0. -1.
         25    2    1    2    0    0  0.18308996675E+02  0.22517021531E+03 -0.10741158131E+04  0.11047112935E+04  0.12500166737E+03 0.  0.
          2    1    1    2  501    0  0.69609574066E+02 -0.33213982562E+03 -0.19359609326E+04  0.19654788448E+04  0.00000000000E+00 0. -1.
          1    1    1    2  502    0 -0.87918570741E+02  0.10696961031E+03  0.41622227666E+02  0.14458417080E+03  0.00000000000E+00 0. -1.
         22    1    3    3    0    0  0.11764484846E+02  0.23140587301E+03 -0.10699622436E+04  0.10947631177E+04  0.00000000000E+00 0. -1.
         22    1    3    3    0    0  0.65445118295E+01 -0.62356577033E+01 -0.41535694847E+01  0.99481757897E+01  0.00000000000E+00 0. -1.
</event>
<event>
 7    1  0.3110367E-005  0.1699452E+03  0.7818608E-02  0.1261214E+00
          2   -1    0    0  502    0  0.00000000000E+00  0.00000000000E+00  0.11202420826E+03  0.11202420826E+03  0.00000000000E+00 0. -1.
          1   -1    0    0  501    0 -0.00000000000E+00 -0.00000000000E+00 -0.49969441597E+03  0.49969441597E+03  0.00000000000E+00 0. -1.
         25    2    1    2    0    0  0.18371843384E+03  0.23169331572E+02 -0.13961058924E+03  0.26344551308E+03  0.12499256328E+03 0.  0.
          2    1    1    2  501    0 -0.25892827272E+02 -0.65842250896E+02 -0.12503377188E+03  0.14366309414E+03  0.00000000000E+00 0. -1.
          1    1    1    2  502    0 -0.15782560657E+03  0.42672919324E+02 -0.12302584659E+03  0.20461001701E+03  0.00000000000E+00 0. -1.
         22    1    3    3    0    0  0.77571342562E+01 -0.27741689687E+02 -0.54100443970E+02  0.61291373915E+02  0.00000000000E+00 0.  1.
         22    1    3    3    0    0  0.17596129958E+03  0.50911021260E+02 -0.85510145272E+02  0.20215413916E+03  0.00000000000E+00 0.  1.
</event>
<event>
 7    1  0.3110367E-005  0.1976298E+03  0.7818608E-02  0.1357947E+00
          2   -1    0    0  502    0  0.00000000000E+00  0.00000000000E+00  0.31744956579E+04  0.31744956579E+04  0.00000000000E+00 0. -1.
          1   -1    0    0  501    0 -0.00000000000E+00 -0.00000000000E+00 -0.11489781220E+04  0.11489781220E+04  0.00000000000E+00 0. -1.
         25    2    1    2    0    0  0.10447420512E+03 -0.19627627225E+03 -0.35608212600E+03  0.43801643145E+03  0.12499871674E+03 0.  0.
          2    1    1    2  501    0 -0.83244403516E+01  0.23833802439E+02 -0.74860584104E+03  0.74903140901E+03  0.00000000000E+00 0. -1.
          1    1    1    2  502    0 -0.96149764766E+02  0.17244246981E+03  0.31302055030E+04  0.31364259394E+04  0.00000000000E+00 0. -1.
         22    1    3    3    0    0  0.55074973940E+02 -0.12675650777E+03 -0.31367392586E+03  0.34277076418E+03  0.00000000000E+00 0.  1.
         22    1    3    3    0    0  0.49399231178E+02 -0.69519764486E+02 -0.42408200140E+02  0.95245667272E+02  0.00000000000E+00 0.  1.
</event>
<event>
 7    1  0.3110367E-005  0.2460007E+03  0.7818608E-02  0.1149015E+00
          2   -1    0    0  502    0  0.00000000000E+00  0.00000000000E+00  0.28804240146E+04  0.28804240146E+04  0.00000000000E+00 0. -1.
          1   -1    0    0  501    0 -0.00000000000E+00 -0.00000000000E+00 -0.17505650490E+04  0.17505650490E+04  0.00000000000E+00 0. -1.
         25    2    1    2    0    0 -0.17966525108E+03  0.11628687971E+03 -0.15927598713E+03  0.29461086617E+03  0.12499792619E+03 0.  0.
          2    1    1    2  501    0  0.25657147594E+03  0.28566013411E+02 -0.15102691212E+04  0.15321741931E+04  0.00000000000E+00 0. -1.
          1    1    1    2  502    0 -0.76906224864E+02 -0.14485289312E+03  0.27994040740E+04  0.28042040043E+04  0.00000000000E+00 0. -1.
         22    1    3    3    0    0 -0.27886376780E+02  0.64832774698E+02 -0.10278564900E+03  0.12468291112E+03  0.00000000000E+00 0. -1.
         22    1    3    3    0    0 -0.15177887430E+03  0.51454105011E+02 -0.56490338136E+02  0.16992795506E+03  0.00000000000E+00 0. -1.
</event>
<event>
 7    1  0.3110367E-005  0.1055411E+03  0.7818608E-02  0.1306657E+00
          2   -1    0    0  502    0  0.00000000000E+00  0.00000000000E+00  0.69501858375E+03  0.69501858375E+03  0.00000000000E+00 0. -1.
          1   -1    0    0  501    0 -0.00000000000E+00 -0.00000000000E+00 -0.16017409261E+03  0.16017409261E+03  0.00000000000E+00 0. -1.
         25    2    1    2    0    0 -0.46179217077E+02  0.88294405315E+02  0.34847059154E+02  0.16361232241E+03  0.12500500955E+03 0.  0.
          2    1    1    2  501    0  0.72298949092E+02  0.16334693624E+02 -0.75655311685E+02  0.10591358006E+03  0.00000000000E+00 0. -1.
          1    1    1    2  502    0 -0.26119732016E+02 -0.10462909894E+03  0.57565274367E+03  0.58566677389E+03  0.00000000000E+00 0. -1.
         22    1    3    3    0    0  0.46279884096E+01  0.67708999434E+02  0.70784916474E+02  0.98063404394E+02  0.00000000000E+00 0.  1.
         22    1    3    3    0    0 -0.50807205486E+02  0.20585405881E+02 -0.35937857319E+02  0.65548918018E+02  0.00000000000E+00 0.  1.
</event>
<event>
 7    1  0.3110367E-005  0.2714565E+02  0.7818608E-02  0.1645821E+00
          2   -1    0    0  502    0  0.00000000000E+00  0.00000000000E+00  0.11088149783E+03  0.11088149783E+03  0.00000000000E+00 0. -1.
          1   -1    0    0  501    0 -0.00000000000E+00 -0.00000000000E+00 -0.77445485411E+03  0.77445485411E+03  0.00000000000E+00 0. -1.
         25    2    1    2    0    0 -0.50528906471E+02 -0.79446594024E+00 -0.35055873738E+03  0.37559279565E+03  0.12499887287E+03 0.  0.
          2    1    1    2  501    0  0.26004410630E+02 -0.44337177905E+01 -0.40934950520E+03  0.41019861608E+03  0.00000000000E+00 0. -1.
          1    1    1    2  502    0  0.24524495841E+02  0.52281837307E+01  0.96334886305E+02  0.99544940207E+02  0.00000000000E+00 0. -1.
         22    1    3    3    0    0  0.41375931833E+02 -0.47296420833E+01 -0.87283430947E+02  0.96709537105E+02  0.00000000000E+00 0. -1.
         22    1    3    3    0    0 -0.91904838303E+02  0.39351761430E+01 -0.26327530644E+03  0.27888325854E+03  0.00000000000E+00 0. -1.
</event>
<event>
 7    1  0.3110367E-005  0.3453914E+03  0.7818608E-02  0.1188015E+00
          2   -1    0    0  502    0  0.00000000000E+00  0.00000000000E+00  0.13578045228E+04  0.13578045228E+04  0.00000000000E+00 0. -1.
          1   -1    0    0  501    0 -0.00000000000E+00 -0.00000000000E+00 -0.17621602951E+03  0.17621602951E+03  0.00000000000E+00 0. -1.
         25    2    1    2    0    0 -0.25737615888E+03  0.18862177207E+03  0.19772555927E+03  0.39565210173E+03  0.12499811502E+03 0.  0.
          2    1    1    2  501    0  0.30206725107E+03 -0.24845401803E+03  0.43714961053E+03  0.58657804701E+03  0.00000000000E+00 0. -1.
          1    1    1    2  502    0 -0.44691092192E+02  0.59832245954E+02  0.54671332353E+03  0.55179040360E+03  0.00000000000E+00 0. -1.
         22    1    3    3    0    0  0.70459714871E+01  0.36821116695E+02  0.16479800380E+02  0.40951485558E+02  0.00000000000E+00 0. -1.
         22    1    3    3    0    0 -0.26442213037E+03  0.15180065538E+03  0.18124575889E+03  0.35470061618E+03  0.00000000000E+00 0. -1.
</event>
<event>
 7    1  0.3110367E-005  0.1871902E+03  0.7818608E-02  0.1170008E+00
          2   -1    0    0  502    0  0.00000000000E+00  0.00000000000E+00  0.31114172480E+03  0.31114172480E+03  0.00000000000E+00 0. -1.
          1   -1    0    0  501    0 -0.00000000000E+00 -0.00000000000E+00 -0.12439090341E+04  0.12439090341E+04  0.00000000000E+00 0. -1.
         25    2    1    2    0    0  0.12831580826E+03 -0.22266150593E+03 -0.33313098256E+03  0.43891293979E+03  0.12500089720E+03 0.  0.
          2    1    1    2  501    0  0.35006480064E+02  0.18013960480E+03 -0.81903313349E+03  0.83933962413E+03  0.00000000000E+00 0. -1.
          1    1    1    2  502    0 -0.16332228832E+03  0.42521901129E+02  0.21939680675E+03  0.27679819499E+03  0.00000000000E+00 0. -1.
         22    1    3    3    0    0  0.14904086030E+03 -0.20878450390E+03 -0.27725436517E+03  0.37772229232E+03  0.00000000000E+00 0. -1.
         22    1    3    3    0    0 -0.20725052039E+02 -0.13877002032E+02 -0.55876617389E+02  0.61190647474E+02  0.00000000000E+00 0. -1.
</event>
<event>
 7    1  0.3110367E-005  0.4898143E+03  0.7818608E-02  0.1196810E+00
          2   -1    0    0  502    0  0.00000000000E+00  0.00000000000E+00  0.18402126266E+03  0.18402126266E+03  0.00000000000E+00 0. -1.
          1   -1    0    0  501    0 -0.00000000000E+00 -0.00000000000E+00 -0.31677463483E+04  0.31677463483E+04  0.00000000000E+00 0. -1.
         25    2    1    2    0    0 -0.46873722588E+03 -0.23655405508E+03 -0.39450933864E+03  0.66853269512E+03  0.12500375306E+03 0.  0.
          2    1    1    2  501    0  0.44239172585E+03  0.19666457222E+03 -0.25905611525E+04  0.26354116335E+04  0.00000000000E+00 0. -1.
          1    1    1    2  502    0  0.26345500032E+02  0.39889482852E+02  0.13454055426E+01  0.47823282302E+02  0.00000000000E+00 0. -1.
         22    1    3    3    0    0 -0.77829149186E+02 -0.71891182121E+01 -0.10435872712E+03  0.13038329575E+03  0.00000000000E+00 0.  1.
         22    1    3    3    0    0 -0.39090807669E+03 -0.22936493686E+03 -0.29015061152E+03  0.53814939938E+03  0.00000000000E+00 0.  1.
</event>
<event>
 7    1  0.4496779E-005  0.5082569E+02  0.7818608E-02  0.1446169E+00
          2   -1    0    0  502    0  0.00000000000E+00  0.00000000000E+00  0.80451003079E+03  0.80451003079E+03  0.00000000000E+00 0. -1.
          1   -1    0    0  501    0 -0.00000000000E+00 -0.00000000000E+00 -0.19707244253E+04  0.19707244253E+04  0.00000000000E+00 0. -1.
         25    2    1    2    0    0  0.45404271301E+02  0.62567828220E+02 -0.30375515717E+03  0.33745070595E+03  0.12501800854E+03 0.  0.
          2    1    1    2  501    0 -0.47439454134E+02 -0.11808300337E+02 -0.16489397598E+04  0.16496642898E+04  0.00000000000E+00 0. -1.
          1    1    1    2  502    0  0.20351828329E+01 -0.50759527883E+02  0.78648052241E+03  0.78811946034E+03  0.00000000000E+00 0. -1.
         22    1    3    3    0    0 -0.23295520537E+02  0.70195854215E+02 -0.19536443411E+03  0.20889567095E+03  0.00000000000E+00 0. -1.
         22    1    3    3    0    0  0.68699791839E+02 -0.76280259953E+01 -0.10839072305E+03  0.12855503500E+03  0.00000000000E+00 0. -1.
</event>
<event>
 7    1  0.3110367E-005  0.1085541E+03  0.7818608E-02  0.1291225E+00
          2   -1    0    0  502    0  0.00000000000E+00  0.00000000000E+00  0.12058348180E+04  0.12058348180E+04  0.00000000000E+00 0. -1.
          1   -1    0    0  501    0 -0.00000000000E+00 -0.00000000000E+00 -0.44485494810E+02  0.44485494810E+02  0.00000000000E+00 0. -1.
         25    2    1    2    0    0  0.12361998870E+03  0.64140560066E+02  0.32346863856E+03  0.37370243331E+03  0.12500254188E+03 0.  0.
          2    1    1    2  501    0 -0.45328078658E+02 -0.91998838837E+02  0.13861278095E+03  0.17242947575E+03  0.00000000000E+00 0. -1.
          1    1    1    2  502    0 -0.78291910042E+02  0.27858278771E+02  0.69926790372E+03  0.70418840380E+03  0.00000000000E+00 0. -1.
         22    1    3    3    0    0  0.83116895218E+02  0.65714262740E+02  0.97053707495E+02  0.14368787261E+03  0.00000000000E+00 0.  1.
         22    1    3    3    0    0  0.40503093482E+02 -0.15737026736E+01  0.22641493107E+03  0.23001456070E+03  0.00000000000E+00 0.  1.
</event>
<event>
 7    1  0.3110367E-005  0.1252821E+03  0.7818608E-02  0.1240663E+00
          2   -1    0    0  502    0  0.00000000000E+00  0.00000000000E+00  0.28162112555E+04  0.28162112555E+04  0.00000000000E+00 0. -1.
          1   -1    0    0  501    0 -0.00000000000E+00 -0.00000000000E+00 -0.26331834084E+02  0.26331834084E+02  0.00000000000E+00 0. -1.
         25    2    1    2    0    0 -0.84936118777E+02 -0.10511288811E+02  0.10905517777E+04  0.11010233395E+04  0.12499833127E+03 0.  0.
          2    1    1    2  501    0 -0.37056759452E+02  0.11967627808E+03  0.22007498766E+03  0.25323628324E+03  0.00000000000E+00 0. -1.
          1    1    1    2  502    0  0.12199287823E+03 -0.10916498927E+03  0.14792526561E+04  0.14882834669E+04  0.00000000000E+00 0. -1.
         22    1    3    3    0    0 -0.11170021177E+03 -0.33023820625E+02  0.84884057103E+03  0.85679508931E+03  0.00000000000E+00 0.  1.
         22    1    3    3    0    0  0.26764092994E+02  0.22512531814E+02  0.24171120663E+03  0.24422825015E+03  0.00000000000E+00 0.  1.
</event>
<event>
 7    1  0.3110367E-005  0.2374459E+03  0.7818608E-02  0.1256114E+00
          2   -1    0    0  502    0  0.00000000000E+00  0.00000000000E+00  0.19197137793E+04  0.19197137793E+04  0.00000000000E+00 0. -1.
          1   -1    0    0  501    0 -0.00000000000E+00 -0.00000000000E+00 -0.96962796821E+03  0.96962796821E+03  0.00000000000E+00 0. -1.
         25    2    1    2    0    0 -0.23712706299E+03 -0.16658826501E+03  0.96666147390E+03  0.10168780341E+04  0.12500254857E+03 0.  0.
          2    1    1    2  501    0  0.19181984100E+03  0.13861671600E+03 -0.92890640835E+03  0.95858049262E+03  0.00000000000E+00 0. -1.
          1    1    1    2  502    0  0.45307221987E+02  0.27971549006E+02  0.91233074555E+03  0.91388322076E+03  0.00000000000E+00 0. -1.
         22    1    3    3    0    0 -0.16655595205E+03 -0.66547877862E+02  0.42033556284E+03  0.45700272494E+03  0.00000000000E+00 0.  1.
         22    1    3    3    0    0 -0.70571110945E+02 -0.10004038714E+03  0.54632591106E+03  0.55987530920E+03  0.00000000000E+00 0.  1.
</event>
<event>
 7    1  0.3110367E-005  0.6189991E+03  0.7818608E-02  0.1125973E+00
          2   -1    0    0  502    0  0.00000000000E+00  0.00000000000E+00  0.22914964516E+04  0.22914964516E+04  0.00000000000E+00 0. -1.
          1   -1    0    0  501    0 -0.00000000000E+00 -0.00000000000E+00 -0.59889504297E+03  0.59889504297E+03  0.00000000000E+00 0. -1.
         25    2    1    2    0    0  0.46519257430E+03 -0.44441873349E+03  0.74703753667E+02  0.65963468995E+03  0.12500052605E+03 0.  0.
          2    1    1    2  501    0 -0.48183056117E+03  0.35987292946E+03 -0.91204636807E+01  0.60145855875E+03  0.00000000000E+00 0. -1.
          1    1    1    2  502    0  0.16637986868E+02  0.84545804036E+02  0.16270181187E+04  0.16292982459E+04  0.00000000000E+00 0. -1.
         22    1    3    3    0    0  0.25022531583E+03 -0.32120347665E+03  0.58265515613E+02  0.41131405568E+03  0.00000000000E+00 0.  1.
         22    1    3    3    0    0  0.21496725847E+03 -0.12321525685E+03  0.16438238054E+02  0.24832063427E+03  0.00000000000E+00 0.  1.
</event>
<event>
 7    1  0.3110367E-005  0.3418342E+03  0.7818608E-02  0.1185180E+00
          2   -1    0    0  502    0  0.00000000000E+00  0.00000000000E+00  0.10535363590E+04  0.10535363590E+04  0.00000000000E+00 0. -1.
          1   -1    0    0  501    0 -0.00000000000E+00 -0.00000000000E+00 -0.52024102538E+03  0.52024102538E+03  0.00000000000E+00 0. -1.
         25    2    1    2    0    0  0.34779365455E+03 -0.40216740182E+02  0.86818502437E+02  0.38175874043E+03  0.12499788476E+03 0.  0.
          2    1    1    2  501    0 -0.33922074835E+03 -0.37182627203E+02 -0.29219325527E+03  0.44925511939E+03  0.00000000000E+00 0. -1.
          1    1    1    2  502    0 -0.85729062038E+01  0.77399367385E+02  0.73867008642E+03  0.74276352452E+03  0.00000000000E+00 0. -1.
         22    1    3    3    0    0  0.39293644774E+01 -0.23752372618E+02  0.19496849173E+02  0.30979706872E+02  0.00000000000E+00 0.  1.
         22    1    3    3    0    0  0.34386429007E+03 -0.16464367564E+02  0.67321653264E+02  0.35077903356E+03  0.00000000000E+00 0.  1.
</event>
<event>
 7    1  0.3110367E-005  0.1578306E+03  0.7818608E-02  0.1214751E+00
          2   -1    0    0  502    0  0.00000000000E+00  0.00000000000E+00  0.19022081664E+04  0.19022081664E+04  0.00000000000E+00 0. -1.
          1   -1    0    0  501    0 -0.00000000000E+00 -0.00000000000E+00 -0.24862781157E+03  0.24862781157E+03  0.00000000000E+00 0. -1.
         25    2    1    2    0    0 -0.23955083688E+03 -0.11205667439E+03  0.57782397049E+03  0.64764703551E+03  0.12499936003E+03 0.  0.
          2    1    1    2  501    0  0.11805342724E+03  0.97854916226E+02 -0.18286013602E+03  0.23864204503E+03  0.00000000000E+00 0. -1.
          1    1    1    2  502    0  0.12149740964E+03  0.14201758162E+02  0.12586165204E+04  0.12645468975E+04  0.00000000000E+00 0. -1.
         22    1    3    3    0    0 -0.22893119110E+03 -0.13345895164E+03  0.49527428343E+03  0.56170935354E+03  0.00000000000E+00 0.  1.
         22    1    3    3    0    0 -0.10619645780E+02  0.21402277251E+02  0.82549687061E+02  0.85937681967E+02  0.00000000000E+00 0.  1.
</event>
<event>
 7    1  0.3110367E-005  0.2022990E+03  0.7818608E-02  0.1171705E+00
          2   -1    0    0  502    0  0.00000000000E+00  0.00000000000E+00  0.35851598624E+04  0.35851598624E+04  0.00000000000E+00 0. -1.
          1   -1    0    0  501    0 -0.00000000000E+00 -0.00000000000E+00 -0.27118441002E+03  0.27118441002E+03  0.00000000000E+00 0. -1.
         25    2    1    2    0    0  0.91112852739E+02  0.16462467517E+03  0.87939278210E+03  0.90794423881E+03  0.12501295923E+03 0.  0.
          2    1    1    2  501    0  0.11819210625E+03 -0.97418279057E+02 -0.22914249771E+03  0.27561926516E+03  0.00000000000E+00 0. -1.
          1    1    1    2  502    0 -0.20930495899E+03 -0.67206396114E+02  0.26637251680E+04  0.26727807684E+04  0.00000000000E+00 0. -1.
         22    1    3    3    0    0 -0.26463530813E+02  0.48048079165E+02  0.14282906678E+03  0.15300025717E+03  0.00000000000E+00 0.  1.
         22    1    3    3    0    0  0.11757638355E+03  0.11657659601E+03  0.73656371531E+03  0.75494398164E+03  0.00000000000E+00 0.  1.
</event>
<event>
 7    1  0.3110367E-005  0.8600520E+02  0.7818608E-02  0.1337857E+00
          2   -1    0    0  502    0  0.00000000000E+00  0.00000000000E+00  0.24908880655E+02  0.24908880655E+02  0.00000000000E+00 0. -1.
          1   -1    0    0  501    0 -0.00000000000E+00 -0.00000000000E+00 -0.16673737752E+04  0.16673737752E+04  0.00000000000E+00 0. -1.
         25    2    1    2    0    0  0.12186409543E+02  0.50801625236E+02 -0.13180287183E+04  0.13249731003E+04  0.12499880173E+03 0.  0.
          2    1    1    2  501    0  0.68371327020E+02 -0.84869227793E+01 -0.21054872525E+03  0.22153426805E+03  0.00000000000E+00 0. -1.
          1    1    1    2  502    0 -0.80557736563E+02 -0.42314702456E+02 -0.11388745097E+03  0.14577528752E+03  0.00000000000E+00 0. -1.
         22    1    3    3    0    0 -0.22198231309E+02  0.76333568258E+02 -0.54593394103E+03  0.55169143829E+03  0.00000000000E+00 0.  1.
         22    1    3    3    0    0  0.34384640852E+02 -0.25531943022E+02 -0.77209477731E+03  0.77328166201E+03  0.00000000000E+00 0.  1.
</event>
<event>
 7    1  0.3110367E-005  0.2258480E+03  0.7818608E-02  0.1165526E+00
          2   -1    0    0  502    0  0.00000000000E+00  0.00000000000E+00  0.69029184091E+03  0.69029184091E+03  0.00000000000E+00 0. -1.
          1   -1    0    0  501    0 -0.00000000000E+00 -0.00000000000E+00 -0.70199672488E+03  0.70199672488E+03  0.00000000000E+00 0. -1.
         25    2    1    2    0    0  0.13291187892E+03 -0.33051920552E+03 -0.27831238478E+03  0.46902943772E+03  0.12498926814E+03 0.  0.
          2    1    1    2  501    0 -0.91256640527E+02  0.11558371735E+03 -0.28994078578E+03  0.32519690868E+03  0.00000000000E+00 0. -1.
          1    1    1    2  502    0 -0.41655238392E+02  0.21493548818E+03  0.55654828658E+03  0.59806221939E+03  0.00000000000E+00 0. -1.
         22    1    3    3    0    0  0.13831105636E+03 -0.33962549078E+03 -0.26757971051E+03  0.45395409875E+03  0.00000000000E+00 0.  1.
         22    1    3    3    0    0 -0.53991774392E+01  0.91062852533E+01 -0.10732674268E+02  0.15075338971E+02  0.00000000000E+00 0.  1.
</event>
<event>
 7    1  0.3110367E-005  0.5642585E+03  0.7818608E-02  0.1075656E+00
          2   -1    0    0  502    0  0.00000000000E+00  0.00000000000E+00  0.28296486591E+04  0.28296486591E+04  0.00000000000E+00 0. -1.
          1   -1    0    0  501    0 -0.00000000000E+00 -0.00000000000E+00 -0.20098963893E+04  0.20098963893E+04  0.00000000000E+00 0. -1.
         25    2    1    2    0    0  0.13454353821E+03  0.46152580279E+03  0.11421573800E+02  0.49685290631E+03  0.12499731138E+03 0.  0.
          2    1    1    2  501    0  0.19381458385E-01 -0.58326461583E+03 -0.17157074963E+04  0.18121395711E+04  0.00000000000E+00 0. -1.
          1    1    1    2  502    0 -0.13456291967E+03  0.12173881304E+03  0.25240381923E+04  0.25305525709E+04  0.00000000000E+00 0. -1.
         22    1    3    3    0    0  0.67009204470E+02  0.39573692228E+03  0.22041544175E+02  0.40197484351E+03  0.00000000000E+00 0.  1.
         22    1    3    3    0    0  0.67534333737E+02  0.65788880502E+02 -0.10619970375E+02  0.94878062806E+02  0.00000000000E+00 0.  1.
</event>
<event>
 7    1  0.3110367E-005  0.2208686E+03  0.7818608E-02  0.1230692E+00
          2   -1    0    0  502    0  0.00000000000E+00  0.00000000000E+00  0.12286774191E+04  0.12286774191E+04  0.00000000000E+00 0. -1.
          1   -1    0    0  501    0 -0.00000000000E+00 -0.00000000000E+00 -0.17809952100E+03  0.17809952100E+03  0.00000000000E+00 0. -1.
         25    2    1    2    0    0 -0.11550718658E+03  0.20008271748E+03  0.16113242518E+03  0.30816165644E+03  0.12499977627E+03 0.  0.
          2    1    1    2  501    0  0.16507088864E+03 -0.14513618771E+03  0.14213834165E+02  0.22026108222E+03  0.00000000000E+00 0. -1.
          1    1    1    2  502    0 -0.49563702059E+02 -0.54946529771E+02  0.87523163872E+03  0.87835420139E+03  0.00000000000E+00 0. -1.
         22    1    3    3    0    0 -0.13443898156E+03  0.14488437332E+03  0.92943573916E+02  0.21841206315E+03  0.00000000000E+00 0.  1.
         22    1    3    3    0    0  0.18931794981E+02  0.55198344160E+02  0.68188851260E+02  0.89749593288E+02  0.00000000000E+00 0.  1.
</event>
<event>
 7    1  0.3110367E-005  0.5314563E+02  0.7818608E-02  0.1484760E+00
          2   -1    0    0  502    0  0.00000000000E+00  0.00000000000E+00  0.11130764933E+04  0.11130764933E+04  0.00000000000E+00 0. -1.
          1   -1    0    0  501    0 -0.00000000000E+00 -0.00000000000E+00 -0.77008581634E+03  0.77008581634E+03  0.00000000000E+00 0. -1.
         25    2    1    2    0    0  0.61283787110E+02 -0.86696066570E+01 -0.77833233225E+02  0.15973104063E+03  0.12500051402E+03 0.  0.
          2    1    1    2  501    0 -0.22310969744E+02 -0.27481565079E+02 -0.65016301101E+03  0.65112591461E+03  0.00000000000E+00 0. -1.
          1    1    1    2  502    0 -0.38972817366E+02  0.36151171736E+02  0.10709869212E+04  0.10723053544E+04  0.00000000000E+00 0. -1.
         22    1    3    3    0    0  0.24953666215E+01  0.47689704787E+02 -0.99660784571E+00  0.47765343341E+02  0.00000000000E+00 0. -1.
         22    1    3    3    0    0  0.58788420488E+02 -0.56359311444E+02 -0.76836625379E+02  0.11196569729E+03  0.00000000000E+00 0. -1.
</event>
<event>
 7    1  0.3110367E-005  0.1301249E+03  0.7818608E-02  0.1267428E+00
          2   -1    0    0  502    0  0.00000000000E+00  0.00000000000E+00  0.68758134640E+03  0.68758134640E+03  0.00000000000E+00 0. -1.
          1   -1    0    0  501    0 -0.00000000000E+00 -0.00000000000E+00 -0.85211790102E+02  0.85211790102E+02  0.00000000000E+00 0. -1.
         25    2    1    2    0    0  0.54211798184E+02 -0.97000822801E+02  0.76868693473E+02  0.18406815453E+03  0.12499684312E+03 0.  0.
          2    1    1    2  501    0 -0.77828860803E+02 -0.38802175268E+02  0.66509776583E+02  0.10948283318E+03  0.00000000000E+00 0. -1.
          1    1    1    2  502    0  0.23617062619E+02  0.13580299807E+03  0.45899108624E+03  0.47924214880E+03  0.00000000000E+00 0. -1.
         22    1    3    3    0    0  0.37872738570E+02 -0.48836511433E+02 -0.27747352420E+02  0.67744112232E+02  0.00000000000E+00 0. -1.
         22    1    3    3    0    0  0.16339059614E+02 -0.48164311368E+02  0.10461604589E+03  0.11632404230E+03  0.00000000000E+00 0. -1.
</event>
<event>
 7    1  0.3110367E-005  0.1116519E+03  0.7818608E-02  0.1309932E+00
          2   -1    0    0  502    0  0.00000000000E+00  0.00000000000E+00  0.52438145452E+03  0.52438145452E+03  0.00000000000E+00 0. -1.
          1   -1    0    0  501    0 -0.00000000000E+00 -0.00000000000E+00 -0.24059164810E+03  0.24059164810E+03  0.00000000000E+00 0. -1.
         25    2    1    2    0    0  0.18727385291E+02 -0.10097684244E+03  0.38272006005E+02  0.16624161185E+03  0.12499795757E+03 0.  0.
          2    1    1    2  501    0 -0.67945086547E+02 -0.29169602962E+01 -0.16179440319E+03  0.17550633136E+03  0.00000000000E+00 0. -1.
          1    1    1    2  502    0  0.49217701257E+02  0.10389380273E+03  0.40731220360E+03  0.42322515942E+03  0.00000000000E+00 0. -1.
         22    1    3    3    0    0 -0.47001556316E+02 -0.12698965700E+02 -0.28002701127E+01  0.48767320397E+02  0.00000000000E+00 0. -1.
         22    1    3    3    0    0  0.65728941606E+02 -0.88277876738E+02  0.41072276118E+02  0.11747429145E+03  0.00000000000E+00 0. -1.
</event>
<event>
 7    1  0.3110367E-005  0.2439457E+03  0.7818608E-02  0.1195963E+00
          2   -1    0    0  502    0  0.00000000000E+00  0.00000000000E+00  0.16937435552E+04  0.16937435552E+04  0.00000000000E+00 0. -1.
          1   -1    0    0  501    0 -0.00000000000E+00 -0.00000000000E+00 -0.52855683175E+03  0.52855683175E+03  0.00000000000E+00 0. -1.
         25    2    1    2    0    0 -0.20016891030E+03 -0.10784137213E+03 -0.89865387512E+02  0.27458651811E+03  0.12499845545E+03 0.  0.
          2    1    1    2  501    0 -0.44580651979E+02  0.86011403902E+02 -0.32989836769E+03  0.34382892423E+03  0.00000000000E+00 0. -1.
          1    1    1    2  502    0  0.24474956227E+03  0.21829968233E+02  0.15849504786E+04  0.16038849446E+04  0.00000000000E+00 0. -1.
         22    1    3    3    0    0 -0.12946535022E+03 -0.11286636394E+03 -0.10607973888E+03  0.20187373285E+03  0.00000000000E+00 0.  1.
         22    1    3    3    0    0 -0.70703560080E+02  0.50249918027E+01  0.16214351364E+02  0.72712785264E+02  0.00000000000E+00 0.  1.
</event>
<event>
 7    1  0.3110367E-005  0.2523201E+03  0.7818608E-02  0.1136228E+00
          2   -1    0    0  502    0  0.00000000000E+00  0.00000000000E+00  0.14117612210E+04  0.14117612210E+04  0.00000000000E+00 0. -1.
          1   -1    0    0  501    0 -0.00000000000E+00 -0.00000000000E+00 -0.38291535409E+03  0.38291535409E+03  0.00000000000E+00 0. -1.
         25    2    1    2    0    0 -0.65518832303E+02  0.40474532925E+03  0.12480272450E+03  0.44644472827E+03  0.12500270567E+03 0.  0.
          2    1    1    2  501    0 -0.29347389359E+02 -0.18410056933E+03 -0.16718489060E+03  0.25040981717E+03  0.00000000000E+00 0. -1.
          1    1    1    2  502    0  0.94866221662E+02 -0.22064475991E+03  0.10712280330E+04  0.10978220296E+04  0.00000000000E+00 0. -1.
         22    1    3    3    0    0 -0.18568930968E+02  0.23990951055E+02  0.45514884142E+02  0.54698954362E+02  0.00000000000E+00 0.  1.
         22    1    3    3    0    0 -0.46949901335E+02  0.38075437819E+03  0.79287840358E+02  0.39174577391E+03  0.00000000000E+00 0.  1.
</event>
<event>
 7    1  0.3110367E-005  0.1429569E+03  0.7818608E-02  0.1232921E+00
          2   -1    0    0  502    0  0.00000000000E+00  0.00000000000E+00  0.66941324963E+03  0.66941324963E+03  0.00000000000E+00 0. -1.
          1   -1    0    0  501    0 -0.00000000000E+00 -0.00000000000E+00 -0.11577468822E+03  0.11577468822E+03  0.00000000000E+00 0. -1.
         25    2    1    2    0    0  0.70728968750E+02 -0.76163630841E+02  0.21680499405E+03  0.27099065163E+03  0.12501216797E+03 0.  0.
          2    1    1    2  501    0  0.62237825526E+02  0.12869782202E+03 -0.56521900387E+01  0.14306859744E+03  0.00000000000E+00 0. -1.
          1    1    1    2  502    0 -0.13296679428E+03 -0.52534191183E+02  0.34248575740E+03  0.37112868879E+03  0.00000000000E+00 0. -1.
         22    1    3    3    0    0  0.57202177069E+02 -0.10762505128E+03  0.19634362277E+03  0.23109750956E+03  0.00000000000E+00 0. -1.
         22    1    3    3    0    0  0.13526791681E+02  0.31461420439E+02  0.20461371288E+02  0.39893142070E+02  0.00000000000E+00 0. -1.
</event>
<event>
 7    1  0.3110367E-005  0.1020044E+04  0.7818608E-02  0.1127403E+00
          2   -1    0    0  502    0  0.00000000000E+00  0.00000000000E+00  0.13490177014E+04  0.13490177014E+04  0.00000000000E+00 0. -1.
          1   -1    0    0  501    0 -0.00000000000E+00 -0.00000000000E+00 -0.14101182010E+04  0.14101182010E+04  0.00000000000E+00 0. -1.
         25    2    1    2    0    0  0.80247235493E+03  0.67910733873E+03  0.70808409981E+02  0.10610309801E+04  0.12499700733E+03 0.  0.
          2    1    1    2  501    0 -0.75293648246E+03 -0.66548779500E+03 -0.63741578102E+03  0.11899942142E+04  0.00000000000E+00 0. -1.
          1    1    1    2  502    0 -0.49535872470E+02 -0.13619543738E+02  0.50550687140E+03  0.50811070808E+03  0.00000000000E+00 0. -1.
         22    1    3    3    0    0  0.40357716982E+03  0.38250558020E+03  0.91484452481E+02  0.56351970323E+03  0.00000000000E+00 0.  1.
         22    1    3    3    0    0  0.39889518511E+03  0.29660175853E+03 -0.20676042500E+02  0.49751127686E+03  0.00000000000E+00 0.  1.
</event>
<event>
 7    1  0.3110367E-005  0.3250396E+03  0.7818608E-02  0.1203406E+00
          2   -1    0    0  502    0  0.00000000000E+00  0.00000000000E+00  0.16641780419E+04  0.16641780419E+04  0.00000000000E+00 0. -1.
          1   -1    0    0  501    0 -0.00000000000E+00 -0.00000000000E+00 -0.25997269478E+03  0.25997269478E+03  0.00000000000E+00 0. -1.
         25    2    1    2    0    0 -0.30702933568E+03 -0.24467036994E+02  0.67884472037E+03  0.75585789304E+03  0.12500140489E+03 0.  0.
          2    1    1    2  501    0  0.31605286837E+03  0.90916284839E+02 -0.97254893259E+02  0.34294853946E+03  0.00000000000E+00 0. -1.
          1    1    1    2  502    0 -0.90235326855E+01 -0.66449247845E+02  0.82261552001E+03  0.82534430418E+03  0.00000000000E+00 0. -1.
         22    1    3    3    0    0 -0.22398098759E+03 -0.71514561027E+01  0.59824790978E+03  0.63884206787E+03  0.00000000000E+00 0.  1.
         22    1    3    3    0    0 -0.83048348091E+02 -0.17315580892E+02  0.80596810593E+02  0.11701582517E+03  0.00000000000E+00 0.  1.
</event>
<event>
 7    1  0.3110367E-005  0.1578173E+03  0.7818608E-02  0.1245812E+00
          2   -1    0    0  502    0  0.00000000000E+00  0.00000000000E+00  0.51995370739E+03  0.51995370739E+03  0.00000000000E+00 0. -1.
          1   -1    0    0  501    0 -0.00000000000E+00 -0.00000000000E+00 -0.15169600133E+03  0.15169600133E+03  0.00000000000E+00 0. -1.
         25    2    1    2    0    0  0.14379124838E+02  0.19080623694E+03  0.40448564299E+03  0.46459525034E+03  0.12500532776E+03 0.  0.
          2    1    1    2  501    0  0.11030159055E+02 -0.88093700937E+02 -0.47425939582E+02  0.10065477782E+03  0.00000000000E+00 0. -1.
          1    1    1    2  502    0 -0.25409283894E+02 -0.10271253600E+03  0.11198002651E+02  0.10639968056E+03  0.00000000000E+00 0. -1.
         22    1    3    3    0    0  0.62222854406E+00  0.17932478790E+03  0.24239922700E+03  0.30152139555E+03  0.00000000000E+00 0. -1.
         22    1    3    3    0    0  0.13756896294E+02  0.11481449037E+02  0.16208641599E+03  0.16307385479E+03  0.00000000000E+00 0. -1.
</event>
<event>
 7    1  0.3110367E-005  0.6555565E+02  0.7818608E-02  0.1447640E+00
          2   -1    0    0  502    0  0.00000000000E+00  0.00000000000E+00  0.89614663005E+03  0.89614663005E+03  0.00000000000E+00 0. -1.
          1   -1    0    0  501    0 -0.00000000000E+00 -0.00000000000E+00 -0.76974034899E+02  0.76974034899E+02  0.00000000000E+00 0. -1.
         25    2    1    2    0    0 -0.49040398980E+02  0.50412488299E+02  0.14671542507E+03  0.20517514041E+03  0.12500017032E+03 0.  0.
          2    1    1    2  501    0  0.34834388027E+02  0.13864097767E+02 -0.38621555127E+02  0.53826316208E+02  0.00000000000E+00 0. -1.
          1    1    1    2  502    0  0.14206010953E+02 -0.64276586067E+02  0.71107872520E+03  0.71411920833E+03  0.00000000000E+00 0. -1.
         22    1    3    3    0    0  0.38417003150E+02 -0.49540708980E+01  0.28771429507E+02  0.48251467390E+02  0.00000000000E+00 0. -1.
         22    1    3    3    0    0 -0.87457402129E+02  0.55366559197E+02  0.11794399556E+03  0.15692367302E+03  0.00000000000E+00 0. -1.
</event>
<event>
 7    1  0.3110367E-005  0.1190428E+03  0.7818608E-02  0.1254347E+00
          2   -1    0    0  502    0  0.00000000000E+00  0.00000000000E+00  0.36667962983E+03  0.36667962983E+03  0.00000000000E+00 0. -1.
          1   -1    0    0  501    0 -0.00000000000E+00 -0.00000000000E+00 -0.34639103176E+03  0.34639103176E+03  0.00000000000E+00 0. -1.
         25    2    1    2    0    0  0.17877046302E+03 -0.10956389487E+02 -0.74947699701E+02  0.23091186614E+03  0.12499684523E+03 0.  0.
          2    1    1    2  501    0 -0.88206491544E+02 -0.62460383294E+02 -0.16485908532E+03  0.19712991312E+03  0.00000000000E+00 0. -1.
          1    1    1    2  502    0 -0.90563971471E+02  0.73416772780E+02  0.26009538310E+03  0.28502888233E+03  0.00000000000E+00 0. -1.
         22    1    3    3    0    0  0.19518880315E+03  0.41185621565E+01 -0.60670649880E+02  0.20444206804E+03  0.00000000000E+00 0. -1.
         22    1    3    3    0    0 -0.16418340134E+02 -0.15074951643E+02 -0.14277049822E+02  0.26469798099E+02  0.00000000000E+00 0. -1.
</event>
<event>
 7    1  0.3110367E-005  0.1468388E+03  0.7818608E-02  0.1308520E+00
          2   -1    0    0  502    0  0.00000000000E+00  0.00000000000E+00  0.46464596939E+03  0.46464596939E+03  0.00000000000E+00 0. -1.
          1   -1    0    0  501    0 -0.00000000000E+00 -0.00000000000E+00 -0.96981157015E+03  0.96981157015E+03  0.00000000000E+00 0. -1.
         25    2    1    2    0    0 -0.70102493915E+02 -0.17512392848E+03  0.27330947155E+02  0.22791947766E+03  0.12497022702E+03 0.  0.
          2    1    1    2  501    0  0.95311211091E+00  0.52370014999E+02 -0.85395500268E+03  0.85555985968E+03  0.00000000000E+00 0. -1.
          1    1    1    2  502    0  0.69149381804E+02  0.12275391348E+03  0.32145845477E+03  0.35097820220E+03  0.00000000000E+00 0. -1.
         22    1    3    3    0    0 -0.12428522753E+01 -0.97086706251E+02 -0.38857060787E+02  0.10458128124E+03  0.00000000000E+00 0. -1.
         22    1    3    3    0    0 -0.68859641640E+02 -0.78037222230E+02  0.66188007942E+02  0.12333819642E+03  0.00000000000E+00 0. -1.
</event>
<event>
 7    1  0.3110367E-005  0.1491724E+03  0.7818608E-02  0.1229495E+00
          2   -1    0    0  502    0  0.00000000000E+00  0.00000000000E+00  0.19355421474E+04  0.19355421474E+04  0.00000000000E+00 0. -1.
          1   -1    0    0  501    0 -0.00000000000E+00 -0.00000000000E+00 -0.21214416673E+04  0.21214416673E+04  0.00000000000E+00 0. -1.
         25    2    1    2    0    0 -0.13025362817E+03 -0.39737240184E+02  0.65138220413E+03  0.67710370710E+03  0.12500239356E+03 0.  0.
          2    1    1    2  501    0 -0.20227896592E+02  0.10906539170E+03 -0.21017138637E+04  0.21046390646E+04  0.00000000000E+00 0. -1.
          1    1    1    2  502    0  0.15048152476E+03 -0.69328151514E+02  0.12644321396E+04  0.12752410430E+04  0.00000000000E+00 0. -1.
         22    1    3    3    0    0 -0.59437132595E+02 -0.42069710228E+02  0.54138975523E+03  0.54626504585E+03  0.00000000000E+00 0. -1.
         22    1    3    3    0    0 -0.70816495570E+02  0.23324700439E+01  0.10999244890E+03  0.13083866125E+03  0.00000000000E+00 0. -1.
</event>
<event>
 7    1  0.3110367E-005  0.1951816E+03  0.7818608E-02  0.1336170E+00
          2   -1    0    0  502    0  0.00000000000E+00  0.00000000000E+00  0.17828979576E+03  0.17828979576E+03  0.00000000000E+00 0. -1.
          1   -1    0    0  501    0 -0.00000000000E+00 -0.00000000000E+00 -0.73508540245E+03  0.73508540245E+03  0.00000000000E+00 0. -1.
         25    2    1    2    0    0  0.33633910217E+02 -0.17084978567E+03 -0.71003855379E+02  0.22580401400E+03  0.12500006432E+03 0.  0.
          2    1    1    2  501    0 -0.56088125232E+02  0.19194241864E+03 -0.56672646237E+03  0.60097142445E+03  0.00000000000E+00 0. -1.
          1    1    1    2  502    0  0.22454215015E+02 -0.21092632962E+02  0.80934711048E+02  0.86599759755E+02  0.00000000000E+00 0. -1.
         22    1    3    3    0    0 -0.15325265835E+02 -0.55071306897E+02 -0.81625339432E+02  0.99651435783E+02  0.00000000000E+00 0. -1.
         22    1    3    3    0    0  0.48959176052E+02 -0.11577847878E+03  0.10621484053E+02  0.12615257822E+03  0.00000000000E+00 0. -1.
</event>
<event>
 7    1  0.3110367E-005  0.2107876E+03  0.7818608E-02  0.1176212E+00
          2   -1    0    0  502    0  0.00000000000E+00  0.00000000000E+00  0.11312982366E+04  0.11312982366E+04  0.00000000000E+00 0. -1.
          1   -1    0    0  501    0 -0.00000000000E+00 -0.00000000000E+00 -0.48768530455E+03  0.48768530455E+03  0.00000000000E+00 0. -1.
         25    2    1    2    0    0  0.14971437947E+03 -0.23441431650E+02  0.60915631669E+02  0.20567306709E+03  0.12500720062E+03 0.  0.
          2    1    1    2  501    0  0.75090619981E+01 -0.13945950690E+03 -0.39018825409E+03  0.41442998650E+03  0.00000000000E+00 0. -1.
          1    1    1    2  502    0 -0.15722344147E+03  0.16290093855E+03  0.97288555445E+03  0.99888048754E+03  0.00000000000E+00 0. -1.
         22    1    3    3    0    0  0.15429010546E+03 -0.42559042927E+02  0.79422307392E+02  0.17867459722E+03  0.00000000000E+00 0. -1.
         22    1    3    3    0    0 -0.45757259953E+01  0.19117611276E+02 -0.18506675723E+02  0.26998469876E+02  0.00000000000E+00 0. -1.
</event>
<event>
 7    1  0.3110367E-005  0.3011516E+02  0.7818608E-02  0.1611000E+00
          2   -1    0    0  502    0  0.00000000000E+00  0.00000000000E+00  0.26351381657E+03  0.26351381657E+03  0.00000000000E+00 0. -1.
          1   -1    0    0  501    0 -0.00000000000E+00 -0.00000000000E+00 -0.19213425366E+04  0.19213425366E+04  0.00000000000E+00 0. -1.
         25    2    1    2    0    0  0.50547584736E+02 -0.23643357274E+02 -0.31393712308E+03  0.34248331391E+03  0.12499694555E+03 0.  0.
          2    1    1    2  501    0 -0.23336328477E+02  0.18657650802E+02 -0.15922240930E+04  0.15925043970E+04  0.00000000000E+00 0. -1.
          1    1    1    2  502    0 -0.27211256260E+02  0.49857064713E+01  0.24833249610E+03  0.24986864220E+03  0.00000000000E+00 0. -1.
         22    1    3    3    0    0 -0.31235144848E+02  0.16226212723E+02 -0.15862893644E+03  0.16248711866E+03  0.00000000000E+00 0. -1.
         22    1    3    3    0    0  0.81782729584E+02 -0.39869569997E+02 -0.15530818664E+03  0.17999619526E+03  0.00000000000E+00 0. -1.
</event>
<event>
 7    1  0.3110367E-005  0.3436458E+03  0.7818608E-02  0.1169626E+00
          2   -1    0    0  502    0  0.00000000000E+00  0.00000000000E+00  0.23195818560E+04  0.23195818560E+04  0.00000000000E+00 0. -1.
          1   -1    0    0  501    0 -0.00000000000E+00 -0.00000000000E+00 -0.85227501334E+02  0.85227501334E+02  0.00000000000E+00 0. -1.
         25    2    1    2    0    0  0.39747435080E+03 -0.97498762445E+02  0.13633830562E+04  0.14289626102E+04  0.12501566048E+03 0.  0.
          2    1    1    2  501    0 -0.31226670217E+03  0.61930105071E+02  0.49369164715E+03  0.58743278225E+03  0.00000000000E+00 0. -1.
          1    1    1    2  502    0 -0.85207648628E+02  0.35568657374E+02  0.37727965137E+03  0.38841396487E+03  0.00000000000E+00 0. -1.
         22    1    3    3    0    0  0.38200215638E+03 -0.91300108730E+02  0.13540438691E+04  0.14098567859E+04  0.00000000000E+00 0.  1.
         22    1    3    3    0    0  0.15472194419E+02 -0.61986537149E+01  0.93391870823E+01  0.19105824331E+02  0.00000000000E+00 0.  1.
</event>
<event>
 7    1  0.3110367E-005  0.7416984E+02  0.7818608E-02  0.1401177E+00
          2   -1    0    0  502    0  0.00000000000E+00  0.00000000000E+00  0.46777194371E+03  0.46777194371E+03  0.00000000000E+00 0. -1.
          1   -1    0    0  501    0 -0.00000000000E+00 -0.00000000000E+00 -0.48054220643E+03  0.48054220643E+03  0.00000000000E+00 0. -1.
         25    2    1    2    0    0  0.19037920750E+02  0.11539743819E+03 -0.19026590747E+03  0.25593905272E+03  0.12499868797E+03 0.  0.
          2    1    1    2  501    0 -0.21967026166E+02 -0.41853069922E+02 -0.25211367344E+03  0.25650640155E+03  0.00000000000E+00 0. -1.
          1    1    1    2  502    0  0.29291054152E+01 -0.73544368266E+02  0.42960931819E+03  0.43586869587E+03  0.00000000000E+00 0. -1.
         22    1    3    3    0    0  0.59632315918E+02  0.33822105534E+02 -0.12916592546E+03  0.14623195350E+03  0.00000000000E+00 0.  1.
         22    1    3    3    0    0 -0.40594395168E+02  0.81575332653E+02 -0.61099982005E+02  0.10970709921E+03  0.00000000000E+00 0.  1.
</event>
<event>
 7    1  0.3110367E-005  0.2515775E+03  0.7818608E-02  0.1318272E+00
          2   -1    0    0  502    0  0.00000000000E+00  0.00000000000E+00  0.70739225208E+03  0.70739225208E+03  0.00000000000E+00 0. -1.
          1   -1    0    0  501    0 -0.00000000000E+00 -0.00000000000E+00 -0.46621269959E+03  0.46621269959E+03  0.00000000000E+00 0. -1.
         25    2    1    2    0    0  0.18934778652E+03  0.18773690996E+03  0.21756338525E+02  0.29529145711E+03  0.12500389895E+03 0.  0.
          2    1    1    2  501    0  0.11552481895E+01 -0.27972159657E+02 -0.30060511316E+03  0.30190596280E+03  0.00000000000E+00 0. -1.
          1    1    1    2  502    0 -0.19050303471E+03 -0.15976475031E+03  0.52002832712E+03  0.57640753177E+03  0.00000000000E+00 0. -1.
         22    1    3    3    0    0  0.62718402060E+02  0.37582390103E+02 -0.47302474518E+02  0.87083627039E+02  0.00000000000E+00 0. -1.
         22    1    3    3    0    0  0.12662938446E+03  0.15015451986E+03  0.69058813043E+02  0.20820783007E+03  0.00000000000E+00 0. -1.
</event>
<event>
 7    1  0.3110367E-005  0.4369233E+03  0.7818608E-02  0.1138555E+00
          2   -1    0    0  502    0  0.00000000000E+00  0.00000000000E+00  0.11280806252E+04  0.11280806252E+04  0.00000000000E+00 0. -1.
          1   -1    0    0  501    0 -0.00000000000E+00 -0.00000000000E+00 -0.76483299546E+03  0.76483299546E+03  0.00000000000E+00 0. -1.
         25    2    1    2    0    0  0.34062087906E+03  0.50032141830E+02  0.50560919320E+03  0.62433315409E+03  0.12500173034E+03 0.  0.
          2    1    1    2  501    0 -0.44277550098E+03 -0.72818862262E+02 -0.62797289419E+03  0.77181778083E+03  0.00000000000E+00 0. -1.
          1    1    1    2  502    0  0.10215462192E+03  0.22786720432E+02  0.48561133068E+03  0.49676268569E+03  0.00000000000E+00 0. -1.
         22    1    3    3    0    0  0.22620424296E+03  0.68423619157E+02  0.25186187143E+03  0.34537595960E+03  0.00000000000E+00 0.  1.
         22    1    3    3    0    0  0.11441663610E+03 -0.18391477328E+02  0.25374732177E+03  0.27895719449E+03  0.00000000000E+00 0.  1.
</event>
<event>
 7    1  0.3110367E-005  0.5356812E+02  0.7818608E-02  0.1474556E+00
          2   -1    0    0  502    0  0.00000000000E+00  0.00000000000E+00  0.24947288508E+04  0.24947288508E+04  0.00000000000E+00 0. -1.
          1   -1    0    0  501    0 -0.00000000000E+00 -0.00000000000E+00 -0.31047076900E+02  0.31047076900E+02  0.00000000000E+00 0. -1.
         25    2    1    2    0    0 -0.71809415859E+02 -0.50760441678E+02  0.13506737485E+04  0.13592899936E+04  0.12496598426E+03 0.  0.
          2    1    1    2  501    0  0.36012520539E+02  0.38791978976E+02  0.93317766790E-01  0.52931351547E+02  0.00000000000E+00 0. -1.
          1    1    1    2  502    0  0.35796895320E+02  0.11968462702E+02  0.11129147077E+04  0.11135545826E+04  0.00000000000E+00 0. -1.
         22    1    3    3    0    0  0.14021316090E+02 -0.47470653989E+02  0.22678969619E+03  0.23212847002E+03  0.00000000000E+00 0. -1.
         22    1    3    3    0    0 -0.85830731949E+02 -0.32897876888E+01  0.11238840523E+04  0.11271615236E+04  0.00000000000E+00 0. -1.
</event>
<event>
 7    1  0.3110367E-005  0.1470066E+03  0.7818608E-02  0.1393712E+00
          2   -1    0    0  502    0  0.00000000000E+00  0.00000000000E+00  0.17578516151E+04  0.17578516151E+04  0.00000000000E+00 0. -1.
          1   -1    0    0  501    0 -0.00000000000E+00 -0.00000000000E+00 -0.28592596016E+04  0.28592596016E+04  0.00000000000E+00 0. -1.
         25    2    1    2    0    0  0.12616299320E+03  0.10814485422E+03  0.13299672785E+04  0.13461243868E+04  0.12500197037E+03 0.  0.
          2    1    1    2  501    0 -0.10088835235E+03 -0.10688725385E+03 -0.28489034585E+04  0.28526924581E+04  0.00000000000E+00 0. -1.
          1    1    1    2  502    0 -0.25274640850E+02 -0.12576003743E+01  0.41752819353E+03  0.41829437174E+03  0.00000000000E+00 0. -1.
         22    1    3    3    0    0  0.59919986366E+02  0.28161512809E+02  0.94742685972E+03  0.94973740059E+03  0.00000000000E+00 0. -1.
         22    1    3    3    0    0  0.66243006833E+02  0.79983341414E+02  0.38254041877E+03  0.39638698623E+03  0.00000000000E+00 0. -1.
</event>
<event>
 7    1  0.3110367E-005  0.4499624E+02  0.7818608E-02  0.1527756E+00
          2   -1    0    0  502    0  0.00000000000E+00  0.00000000000E+00  0.47173612936E+03  0.47173612936E+03  0.00000000000E+00 0. -1.
          1   -1    0    0  501    0 -0.00000000000E+00 -0.00000000000E+00 -0.15376619009E+03  0.15376619009E+03  0.00000000000E+00 0. -1.
         25    2    1    2    0    0 -0.41907727692E+02 -0.48244368816E+02  0.17448028326E+03  0.22394946192E+03  0.12500486184E+03 0.  0.
          2    1    1    2  501    0  0.11102069176E+02  0.43355835364E+02 -0.12421790090E+03  0.13203435653E+03  0.00000000000E+00 0. -1.
          1    1    1    2  502    0  0.30805658516E+02  0.48885334512E+01  0.26770755691E+03  0.26951850100E+03  0.00000000000E+00 0. -1.
         22    1    3    3    0    0 -0.58707664088E+02 -0.73017878357E+02  0.16940743180E+03  0.19358997477E+03  0.00000000000E+00 0. -1.
         22    1    3    3    0    0  0.16799936396E+02  0.24773509541E+02  0.50728514624E+01  0.30359487148E+02  0.00000000000E+00 0. -1.
</event>
<event>
 7    1  0.3110367E-005  0.1976225E+03  0.7818608E-02  0.1161159E+00
          2   -1    0    0  502    0  0.00000000000E+00  0.00000000000E+00  0.18873421216E+03  0.18873421216E+03  0.00000000000E+00 0. -1.
          1   -1    0    0  501    0 -0.00000000000E+00 -0.00000000000E+00 -0.22135211803E+04  0.22135211803E+04  0.00000000000E+00 0. -1.
         25    2    1    2    0    0 -0.10348473658E+03  0.22120267883E+03 -0.36574569810E+03  0.45720271517E+03  0.12499876504E+03 0.  0.
          2    1    1    2  501    0  0.18868991084E+03 -0.66033574282E+02 -0.17392530425E+04  0.17507042758E+04  0.00000000000E+00 0. -1.
          1    1    1    2  502    0 -0.85205174253E+02 -0.15516910455E+03  0.80211772461E+02  0.19434840150E+03  0.00000000000E+00 0. -1.
         22    1    3    3    0    0 -0.34630052988E+02 -0.64507302669E+01 -0.63313343343E+02  0.72452963613E+02  0.00000000000E+00 0.  1.
         22    1    3    3    0    0 -0.68854683595E+02  0.22765340910E+03 -0.30243235475E+03  0.38474975156E+03  0.00000000000E+00 0.  1.
</event>
<event>
 7    1  0.3110367E-005  0.1528776E+03  0.7818608E-02  0.1209747E+00
          2   -1    0    0  502    0  0.00000000000E+00  0.00000000000E+00  0.26747025867E+04  0.26747025867E+04  0.00000000000E+00 0. -1.
          1   -1    0    0  501    0 -0.00000000000E+00 -0.00000000000E+00 -0.44386412133E+03  0.44386412133E+03  0.00000000000E+00 0. -1.
         25    2    1    2    0    0  0.15954093540E+03 -0.40765564712E+02  0.14473270957E+03  0.25236447444E+03  0.12500051761E+03 0.  0.
          2    1    1    2  501    0 -0.90440488391E+02 -0.97778206669E+02 -0.37617525164E+03  0.39905874202E+03  0.00000000000E+00 0. -1.
          1    1    1    2  502    0 -0.69100447011E+02  0.13854377138E+03  0.24622810074E+04  0.24671434916E+04  0.00000000000E+00 0. -1.
         22    1    3    3    0    0  0.48212996702E+02 -0.71439005581E+02  0.34858809893E+02  0.92968603284E+02  0.00000000000E+00 0. -1.
         22    1    3    3    0    0  0.11132793870E+03  0.30673440869E+02  0.10987389968E+03  0.15939587115E+03  0.00000000000E+00 0. -1.
</event>
<event>
 7    1  0.3110367E-005  0.2009826E+03  0.7818608E-02  0.1190526E+00
          2   -1    0    0  502    0  0.00000000000E+00  0.00000000000E+00  0.13553078206E+04  0.13553078206E+04  0.00000000000E+00 0. -1.
          1   -1    0    0  501    0 -0.00000000000E+00 -0.00000000000E+00 -0.28624009270E+03  0.28624009270E+03  0.00000000000E+00 0. -1.
         25    2    1    2    0    0  0.17108788367E+03 -0.20164695188E+03  0.50234659524E+03  0.58129997096E+03  0.12499998941E+03 0.  0.
          2    1    1    2  501    0 -0.12330512311E+03  0.19416778180E+02 -0.21909867150E+03  0.25216144137E+03  0.00000000000E+00 0. -1.
          1    1    1    2  502    0 -0.47782760553E+02  0.18223017370E+03  0.78581980419E+03  0.80808650099E+03  0.00000000000E+00 0. -1.
         22    1    3    3    0    0  0.74465238921E+02 -0.51963826819E+02  0.29121650869E+03  0.30504485906E+03  0.00000000000E+00 0.  1.
         22    1    3    3    0    0  0.96622644745E+02 -0.14968312507E+03  0.21113008655E+03  0.27625511190E+03  0.00000000000E+00 0.  1.
</event>
<event>
 7    1  0.3110367E-005  0.1435610E+03  0.7818608E-02  0.1270307E+00
          2   -1    0    0  502    0  0.00000000000E+00  0.00000000000E+00  0.30333528785E+04  0.30333528785E+04  0.00000000000E+00 0. -1.
          1   -1    0    0  501    0 -0.00000000000E+00 -0.00000000000E+00 -0.96496000411E+03  0.96496000411E+03  0.00000000000E+00 0. -1.
         25    2    1    2    0    0 -0.88977506191E+02  0.11197984580E+03  0.52274970504E+03  0.55619939117E+03  0.12503609934E+03 0.  0.
          2    1    1    2  501    0  0.13464407936E+03 -0.50409193336E+02 -0.94219176671E+03  0.95309781247E+03  0.00000000000E+00 0. -1.
          1    1    1    2  502    0 -0.45666573164E+02 -0.61570652464E+02  0.24878349360E+04  0.24890156790E+04  0.00000000000E+00 0. -1.
         22    1    3    3    0    0 -0.96286471707E+00 -0.23062911214E+01  0.22830767795E+03  0.22832135664E+03  0.00000000000E+00 0. -1.
         22    1    3    3    0    0 -0.88014641474E+02  0.11428613692E+03  0.29444202709E+03  0.32787803452E+03  0.00000000000E+00 0. -1.
</event>
<event>
 7    1  0.3110367E-005  0.3268065E+03  0.7818608E-02  0.1091204E+00
          2   -1    0    0  502    0  0.00000000000E+00  0.00000000000E+00  0.10821694512E+04  0.10821694512E+04  0.00000000000E+00 0. -1.
          1   -1    0    0  501    0 -0.00000000000E+00 -0.00000000000E+00 -0.82925499780E+03  0.82925499780E+03  0.00000000000E+00 0. -1.
         25    2    1    2    0    0 -0.60363245509E+02  0.23685148214E+03  0.84268190555E+02  0.28717262279E+03  0.12499856535E+03 0.  0.
          2    1    1    2  501    0  0.31008191163E+03 -0.18799671147E+03 -0.66237982796E+03  0.75514276262E+03  0.00000000000E+00 0. -1.
          1    1    1    2  502    0 -0.24971866612E+03 -0.48854770669E+02  0.83102609084E+03  0.86910906363E+03  0.00000000000E+00 0. -1.
         22    1    3    3    0    0 -0.75917862958E+02  0.13903847228E+03  0.20126229949E+01  0.15842748922E+03  0.00000000000E+00 0.  1.
         22    1    3    3    0    0  0.15554617450E+02  0.97813009861E+02  0.82255567560E+02  0.12874513357E+03  0.00000000000E+00 0.  1.
</event>
<event>
 7    1  0.3110367E-005  0.2123691E+03  0.7818608E-02  0.1265845E+00
          2   -1    0    0  502    0  0.00000000000E+00  0.00000000000E+00  0.29949282878E+03  0.29949282878E+03  0.00000000000E+00 0. -1.
          1   -1    0    0  501    0 -0.00000000000E+00 -0.00000000000E+00 -0.39434769955E+03  0.39434769955E+03  0.00000000000E+00 0. -1.
         25    2    1    2    0    0 -0.23410127040E+03  0.17064371337E+02 -0.25542556462E+03  0.36873012724E+03  0.12500036041E+03 0.  0.
          2    1    1    2  501    0  0.26716579786E+02 -0.47056935812E+02 -0.98675901421E+01  0.55004546891E+02  0.00000000000E+00 0. -1.
          1    1    1    2  502    0  0.20738469061E+03  0.29992564475E+02  0.17043828399E+03  0.27010585420E+03  0.00000000000E+00 0. -1.
         22    1    3    3    0    0 -0.10263875941E+03 -0.44601839812E+02 -0.15895363306E+03  0.19439726467E+03  0.00000000000E+00 0. -1.
         22    1    3    3    0    0 -0.13146251099E+03  0.61666211148E+02 -0.96471931555E+02  0.17433286257E+03  0.00000000000E+00 0. -1.
</event>
<event>
 7    1  0.3110367E-005  0.1066793E+04  0.7818608E-02  0.1015062E+00
          2   -1    0    0  502    0  0.00000000000E+00  0.00000000000E+00  0.15245584895E+04  0.15245584895E+04  0.00000000000E+00 0. -1.
          1   -1    0    0  501    0 -0.00000000000E+00 -0.00000000000E+00 -0.23302172127E+04  0.23302172127E+04  0.00000000000E+00 0. -1.
         25    2    1    2    0    0  0.78053962031E+03  0.61059825368E+03 -0.19599567175E+02  0.99904051713E+03  0.12500194224E+03 0.  0.
          2    1    1    2  501    0 -0.71659247629E+03 -0.83130946506E+03 -0.16389145213E+04  0.19724657188E+04  0.00000000000E+00 0. -1.
          1    1    1    2  502    0 -0.63947144026E+02  0.22071121138E+03  0.85285536529E+03  0.88326946633E+03  0.00000000000E+00 0. -1.
         22    1    3    3    0    0  0.63114418469E+03  0.43703639892E+03 -0.42704521511E+02  0.76887415876E+03  0.00000000000E+00 0.  1.
         22    1    3    3    0    0  0.14939543562E+03  0.17356185476E+03  0.23104954336E+02  0.23016635837E+03  0.00000000000E+00 0.  1.
</event>
<event>
 7    1  0.3110367E-005  0.3297849E+03  0.7818608E-02  0.1106865E+00
          2   -1    0    0  502    0  0.00000000000E+00  0.00000000000E+00  0.56245864717E+03  0.56245864717E+03  0.00000000000E+00 0. -1.
          1   -1    0    0  501    0 -0.00000000000E+00 -0.00000000000E+00 -0.75421036203E+03  0.75421036203E+03  0.00000000000E+00 0. -1.
         25    2    1    2    0    0  0.15153513129E+03  0.19372086603E+03 -0.66888634037E+01  0.27597098253E+03  0.12499828940E+03 0.  0.
          2    1    1    2  501    0 -0.35122782430E+03 -0.14431790438E+03 -0.52225552319E+03  0.64570850512E+03  0.00000000000E+00 0. -1.
          1    1    1    2  502    0  0.19969269301E+03 -0.49402961656E+02  0.33719267173E+03  0.39498952154E+03  0.00000000000E+00 0. -1.
         22    1    3    3    0    0  0.16902033366E+03  0.14177982197E+03 -0.11808620242E+02  0.22092721566E+03  0.00000000000E+00 0. -1.
         22    1    3    3    0    0 -0.17485202373E+02  0.51941044063E+02  0.51197568385E+01  0.55043766863E+02  0.00000000000E+00 0. -1.
</event>
<event>
 7    1  0.3110367E-005  0.1554807E+03  0.7818608E-02  0.1247927E+00
          2   -1    0    0  502    0  0.00000000000E+00  0.00000000000E+00  0.69455774232E+02  0.69455774232E+02  0.00000000000E+00 0. -1.
          1   -1    0    0  501    0 -0.00000000000E+00 -0.00000000000E+00 -0.16534313286E+04  0.16534313286E+04  0.00000000000E+00 0. -1.
         25    2    1    2    0    0  0.63677483654E+02  0.15763460850E+03 -0.19065141873E+03  0.28438856832E+03  0.12500161042E+03 0.  0.
          2    1    1    2  501    0  0.57431903081E+02 -0.66968464603E+02 -0.11402094280E+04  0.11436173916E+04  0.00000000000E+00 0. -1.
          1    1    1    2  502    0 -0.12110938673E+03 -0.90666143901E+02 -0.25311470770E+03  0.29488114294E+03  0.00000000000E+00 0. -1.
         22    1    3    3    0    0  0.85201150777E+02  0.13168612263E+03 -0.95953026842E+02  0.18386803514E+03  0.00000000000E+00 0. -1.
         22    1    3    3    0    0 -0.21523667123E+02  0.25948485877E+02 -0.94698391886E+02  0.10052053318E+03  0.00000000000E+00 0. -1.
</event>
<event>
 7    1  0.3110367E-005  0.4171113E+03  0.7818608E-02  0.1160724E+00
          2   -1    0    0  502    0  0.00000000000E+00  0.00000000000E+00  0.35659682268E+03  0.35659682268E+03  0.00000000000E+00 0. -1.
          1   -1    0    0  501    0 -0.00000000000E+00 -0.00000000000E+00 -0.27490864654E+04  0.27490864654E+04  0.00000000000E+00 0. -1.
         25    2    1    2    0    0 -0.39628936131E+03  0.11055033219E+03 -0.19119230085E+04  0.19596789566E+04  0.12500155514E+03 0.  0.
          2    1    1    2  501    0  0.43523717460E+03 -0.35790893201E+02 -0.74769724088E+03  0.86588887867E+03  0.00000000000E+00 0. -1.
          1    1    1    2  502    0 -0.38947813287E+02 -0.74759438985E+02  0.26713060665E+03  0.28011545278E+03  0.00000000000E+00 0. -1.
         22    1    3    3    0    0 -0.16558922813E+03  0.14887292720E+02 -0.10195336049E+04  0.10330005786E+04  0.00000000000E+00 0. -1.
         22    1    3    3    0    0 -0.23070013318E+03  0.95663039466E+02 -0.89238940364E+03  0.92667837802E+03  0.00000000000E+00 0. -1.
</event>
<event>
 7    1  0.3110367E-005  0.3693867E+03  0.7818608E-02  0.1293452E+00
          2   -1    0    0  502    0  0.00000000000E+00  0.00000000000E+00  0.14243017645E+04  0.14243017645E+04  0.00000000000E+00 0. -1.
          1   -1    0    0  501    0 -0.00000000000E+00 -0.00000000000E+00 -0.10374888725E+04  0.10374888725E+04  0.00000000000E+00 0. -1.
         25    2    1    2    0    0  0.14433296886E+03 -0.34753983973E+03 -0.21503293945E+03  0.45108850587E+03  0.12500291589E+03 0.  0.
          2    1    1    2  501    0 -0.16041102011E+03  0.32983074453E+03 -0.65656594095E+03  0.75206306266E+03  0.00000000000E+00 0. -1.
          1    1    1    2  502    0  0.16078051251E+02  0.17709095206E+02  0.12584117723E+04  0.12586390684E+04  0.00000000000E+00 0. -1.
         22    1    3    3    0    0  0.15219755384E+03 -0.28023464532E+03 -0.21262655568E+03  0.38328266856E+03  0.00000000000E+00 0. -1.
         22    1    3    3    0    0 -0.78645849800E+01 -0.67305194410E+02 -0.24063837649E+01  0.67805837317E+02  0.00000000000E+00 0. -1.
</event>
<event>
 7    1  0.3110367E-005  0.1248969E+03  0.7818608E-02  0.1379082E+00
          2   -1    0    0  502    0  0.00000000000E+00  0.00000000000E+00  0.17443621348E+04  0.17443621348E+04  0.00000000000E+00 0. -1.
          1   -1    0    0  501    0 -0.00000000000E+00 -0.00000000000E+00 -0.89974933014E+03  0.89974933014E+03  0.00000000000E+00 0. -1.
         25    2    1    2    0    0  0.13355839909E+03  0.21058420566E+02  0.25642897319E+03  0.31569082893E+03  0.12499431242E+03 0.  0.
          2    1    1    2  501    0 -0.11483422266E+03 -0.48863882790E+02 -0.86544932580E+03  0.87440100255E+03  0.00000000000E+00 0. -1.
          1    1    1    2  502    0 -0.18724176431E+02  0.27805462224E+02  0.14536331573E+04  0.14540196334E+04  0.00000000000E+00 0. -1.
         22    1    3    3    0    0  0.92574211337E+02 -0.42780520824E+01  0.25056279492E+03  0.26715164332E+03  0.00000000000E+00 0. -1.
         22    1    3    3    0    0  0.40984187754E+02  0.25336472648E+02  0.58661782702E+01  0.48539185610E+02  0.00000000000E+00 0. -1.
</event>
<event>
 7    1  0.8247255E-005  0.1056827E+03  0.7818608E-02  0.1269274E+00
          2   -1    0    0  502    0  0.00000000000E+00  0.00000000000E+00  0.12755402633E+04  0.12755402633E+04  0.00000000000E+00 0. -1.
          1   -1    0    0  501    0 -0.00000000000E+00 -0.00000000000E+00 -0.13360545969E+04  0.13360545969E+04  0.00000000000E+00 0. -1.
         25    2    1    2    0    0  0.50394019029E+02  0.11753915326E+03 -0.54042530589E+03  0.56924445657E+03  0.12499892152E+03 0.  0.
          2    1    1    2  501    0  0.52692459858E+02 -0.96663627183E+02 -0.77513032124E+03  0.78290955228E+03  0.00000000000E+00 0. -1.
          1    1    1    2  502    0 -0.10308647889E+03 -0.20875526075E+02  0.12550412935E+04  0.12594408514E+04  0.00000000000E+00 0. -1.
         22    1    3    3    0    0  0.16345264485E+02  0.22479907325E+02 -0.10383062179E+02  0.29670218817E+02  0.00000000000E+00 0.  1.
         22    1    3    3    0    0  0.34048754543E+02  0.95059245933E+02 -0.53004224371E+03  0.53957423775E+03  0.00000000000E+00 0.  1.
</event>
<event>
 7    1  0.3110367E-005  0.2816300E+03  0.7818608E-02  0.1148044E+00
          2   -1    0    0  502    0  0.00000000000E+00  0.00000000000E+00  0.33661053606E+03  0.33661053606E+03  0.00000000000E+00 0. -1.
          1   -1    0    0  501    0 -0.00000000000E+00 -0.00000000000E+00 -0.21603326971E+04  0.21603326971E+04  0.00000000000E+00 0. -1.
         25    2    1    2    0    0 -0.36703373457E+03 -0.18522161847E+02  0.41185773415E+02  0.39035655094E+03  0.12500054458E+03 0.  0.
          2    1    1    2  501    0  0.25556139504E+03  0.11112130065E+03 -0.19283569807E+04  0.19483891333E+04  0.00000000000E+00 0. -1.
          1    1    1    2  502    0  0.11147233953E+03 -0.92599138804E+02  0.63449046235E+02  0.15819754883E+03  0.00000000000E+00 0. -1.
         22    1    3    3    0    0 -0.68643265699E+02 -0.53149282526E+02 -0.22260981680E+01  0.86842959829E+02  0.00000000000E+00 0. -1.
         22    1    3    3    0    0 -0.29839046887E+03  0.34627120679E+02  0.43411871583E+02  0.30351359112E+03  0.00000000000E+00 0. -1.
</event>
<event>
 7    1  0.3110367E-005  0.1136956E+04  0.7818608E-02  0.9493423E-01
          2   -1    0    0  502    0  0.00000000000E+00  0.00000000000E+00  0.26103802374E+04  0.26103802374E+04  0.00000000000E+00 0. -1.
          1   -1    0    0  501    0 -0.00000000000E+00 -0.00000000000E+00 -0.19306541026E+04  0.19306541026E+04  0.00000000000E+00 0. -1.
         25    2    1    2    0    0  0.10970588996E+04  0.26217973431E+02 -0.10537903999E+03  0.11094841946E+04  0.12499929883E+03 0.  0.
          2    1    1    2  501    0 -0.10311567909E+04 -0.65481326274E+03 -0.97403735424E+03  0.15623103097E+04  0.00000000000E+00 0. -1.
          1    1    1    2  502    0 -0.65902108673E+02  0.62859528931E+03  0.17591425290E+04  0.18692398356E+04  0.00000000000E+00 0. -1.
         22    1    3    3    0    0  0.10138506918E+04  0.57718184275E+02 -0.97791343538E+02  0.10201900611E+04  0.00000000000E+00 0.  1.
         22    1    3    3    0    0  0.83208207809E+02 -0.31500210844E+02 -0.75876964505E+01  0.89294133444E+02  0.00000000000E+00 0.  1.
</event>
<event>
 7    1  0.3110367E-005  0.3581411E+02  0.7818608E-02  0.1576356E+00
          2   -1    0    0  502    0  0.00000000000E+00  0.00000000000E+00  0.79066416015E+02  0.79066416015E+02  0.00000000000E+00 0. -1.
          1   -1    0    0  501    0 -0.00000000000E+00 -0.00000000000E+00 -0.21454547919E+04  0.21454547919E+04  0.00000000000E+00 0. -1.
         25    2    1    2    0    0  0.29275682718E+01 -0.97937376439E+01 -0.27612211003E+03  0.30327101651E+03  0.12500160740E+03 0.  0.
          2    1    1    2  501    0  0.26041606136E+02 -0.12069463309E+02 -0.18506102381E+04  0.18508328100E+04  0.00000000000E+00 0. -1.
          1    1    1    2  502    0 -0.28969174408E+02  0.21863200953E+02  0.60343972232E+02  0.70417381423E+02  0.00000000000E+00 0. -1.
         22    1    3    3    0    0  0.36911377503E+02  0.46479009425E+02 -0.12010777895E+03  0.13397248475E+03  0.00000000000E+00 0.  1.
         22    1    3    3    0    0 -0.33983809231E+02 -0.56272747069E+02 -0.15601433108E+03  0.16929853176E+03  0.00000000000E+00 0.  1.
</event>
<event>
 7    1  0.3110367E-005  0.3236963E+03  0.7818608E-02  0.1254564E+00
          2   -1    0    0  502    0  0.00000000000E+00  0.00000000000E+00  0.13977752054E+04  0.13977752054E+04  0.00000000000E+00 0. -1.
          1   -1    0    0  501    0 -0.00000000000E+00 -0.00000000000E+00 -0.68053280823E+03  0.68053280823E+03  0.00000000000E+00 0. -1.
         25    2    1    2    0    0  0.28392299239E+03 -0.78300806098E+02  0.23967286241E+03  0.39976434792E+03  0.12500068419E+03 0.  0.
          2    1    1    2  501    0  0.34474395132E+02 -0.19612362643E+02 -0.57405405297E+03  0.57542261376E+03  0.00000000000E+00 0. -1.
          1    1    1    2  502    0 -0.31839738752E+03  0.97913168741E+02  0.10516235878E+04  0.11031210520E+04  0.00000000000E+00 0. -1.
         22    1    3    3    0    0  0.21377226667E+03 -0.51514979245E-01  0.17589237476E+03  0.27683336531E+03  0.00000000000E+00 0.  1.
         22    1    3    3    0    0  0.70150725719E+02 -0.78249291119E+02  0.63780487650E+02  0.12293098261E+03  0.00000000000E+00 0.  1.
</event>
<event>
 7    1  0.3110367E-005  0.1555582E+03  0.7818608E-02  0.1320100E+00
          2   -1    0    0  502    0  0.00000000000E+00  0.00000000000E+00  0.57981542200E+02  0.57981542200E+02  0.00000000000E+00 0. -1.
          1   -1    0    0  501    0 -0.00000000000E+00 -0.00000000000E+00 -0.11849319097E+04  0.11849319097E+04  0.00000000000E+00 0. -1.
         25    2    1    2    0    0  0.86083027570E+02  0.15889108922E+03 -0.40463174039E+03  0.46044407858E+03  0.12500095321E+03 0.  0.
          2    1    1    2  501    0  0.39984895447E+01 -0.44362619758E+02 -0.56978719666E+03  0.57152557198E+03  0.00000000000E+00 0. -1.
          1    1    1    2  502    0 -0.90081517115E+02 -0.11452846946E+03 -0.15253143041E+03  0.21094380130E+03  0.00000000000E+00 0. -1.
         22    1    3    3    0    0  0.52462129975E+01  0.79055078806E+02 -0.28352192081E+03  0.29438394626E+03  0.00000000000E+00 0.  1.
         22    1    3    3    0    0  0.80836814573E+02  0.79836010412E+02 -0.12110981958E+03  0.16606013232E+03  0.00000000000E+00 0.  1.
</event>
<event>
 7    1  0.3110367E-005  0.3182184E+03  0.7818608E-02  0.1275323E+00
          2   -1    0    0  502    0  0.00000000000E+00  0.00000000000E+00  0.43921733894E+03  0.43921733894E+03  0.00000000000E+00 0. -1.
          1   -1    0    0  501    0 -0.00000000000E+00 -0.00000000000E+00 -0.12126019181E+04  0.12126019181E+04  0.00000000000E+00 0. -1.
         25    2    1    2    0    0  0.24997189443E+03  0.16545472811E+03  0.11643825894E+03  0.34502736450E+03  0.12499919619E+03 0.  0.
          2    1    1    2  501    0 -0.25132194450E+03 -0.19838039647E+03 -0.10734742980E+04  0.11202073781E+04  0.00000000000E+00 0. -1.
          1    1    1    2  502    0  0.13500500695E+01  0.32925668356E+02  0.18365145994E+03  0.18658451439E+03  0.00000000000E+00 0. -1.
         22    1    3    3    0    0  0.10917962219E+03  0.16201034759E+02  0.26506445824E+01  0.11040692617E+03  0.00000000000E+00 0. -1.
         22    1    3    3    0    0  0.14079227224E+03  0.14925369335E+03  0.11378761436E+03  0.23462043833E+03  0.00000000000E+00 0. -1.
</event>
<event>
 7    1  0.3110367E-005  0.1576663E+03  0.7818608E-02  0.1226242E+00
          2   -1    0    0  502    0  0.00000000000E+00  0.00000000000E+00  0.35311559098E+03  0.35311559098E+03  0.00000000000E+00 0. -1.
          1   -1    0    0  501    0 -0.00000000000E+00 -0.00000000000E+00 -0.52100363806E+03  0.52100363806E+03  0.00000000000E+00 0. -1.
         25    2    1    2    0    0  0.19787803329E+03 -0.14154263741E+03 -0.34997401814E+03  0.44418042989E+03  0.12499762663E+03 0.  0.
          2    1    1    2  501    0 -0.10712305955E+03  0.17522573741E+02 -0.73935346901E+02  0.13133478595E+03  0.00000000000E+00 0. -1.
          1    1    1    2  502    0 -0.90754973734E+02  0.12402006367E+03  0.25602131797E+03  0.29860401321E+03  0.00000000000E+00 0. -1.
         22    1    3    3    0    0  0.12128118518E+03 -0.12313106049E+03 -0.31212652861E+03  0.35678194152E+03  0.00000000000E+00 0.  1.
         22    1    3    3    0    0  0.76596848110E+02 -0.18411576920E+02 -0.37847489530E+02  0.87398488367E+02  0.00000000000E+00 0.  1.
</event>
<event>
 7    1  0.3110367E-005  0.2018707E+03  0.7818608E-02  0.1154080E+00
          2   -1    0    0  502    0  0.00000000000E+00  0.00000000000E+00  0.26625870407E+04  0.26625870407E+04  0.00000000000E+00 0. -1.
          1   -1    0    0  501    0 -0.00000000000E+00 -0.00000000000E+00 -0.12015345216E+04  0.12015345216E+04  0.00000000000E+00 0. -1.
         25    2    1    2    0    0  0.15245343237E+03 -0.43856759289E+02  0.39342839592E+03  0.44223929810E+03  0.12499691872E+03 0.  0.
          2    1    1    2  501    0 -0.14497902083E+03 -0.14424088808E+03 -0.11642540322E+04  0.11820794397E+04  0.00000000000E+00 0. -1.
          1    1    1    2  502    0 -0.74744115386E+01  0.18809764737E+03  0.22318781554E+04  0.22398028244E+04  0.00000000000E+00 0. -1.
         22    1    3    3    0    0  0.35143032172E+02  0.34051214024E+02  0.45204192803E+02  0.66617842458E+02  0.00000000000E+00 0. -1.
         22    1    3    3    0    0  0.11731040019E+03 -0.77907973314E+02  0.34822420312E+03  0.37562145564E+03  0.00000000000E+00 0. -1.
</event>
<event>
 7    1  0.3110367E-005  0.2526226E+03  0.7818608E-02  0.1172714E+00
          2   -1    0    0  502    0  0.00000000000E+00  0.00000000000E+00  0.26335316848E+03  0.26335316848E+03  0.00000000000E+00 0. -1.
          1   -1    0    0  501    0 -0.00000000000E+00 -0.00000000000E+00 -0.71759288708E+03  0.71759288708E+03  0.00000000000E+00 0. -1.
         25    2    1    2    0    0 -0.15510258412E+03 -0.14159646733E+02  0.12709567948E+03  0.23671871024E+03  0.12500051535E+03 0.  0.
          2    1    1    2  501    0  0.25777466679E+03  0.78661996330E+02 -0.55949546875E+03  0.62102388687E+03  0.00000000000E+00 0. -1.
          1    1    1    2  502    0 -0.10267208267E+03 -0.64502349597E+02 -0.21839929329E+02  0.12320345846E+03  0.00000000000E+00 0. -1.
         22    1    3    3    0    0  0.31427098371E+01  0.18876268124E+02  0.57710471747E+02  0.60800400267E+02  0.00000000000E+00 0.  1.
         22    1    3    3    0    0 -0.15824529396E+03 -0.33035914857E+02  0.69385207735E+02  0.17591830997E+03  0.00000000000E+00 0.  1.
</event>
<event>
 7    1  0.3110367E-005  0.3763538E+03  0.7818608E-02  0.1143212E+00
          2   -1    0    0  502    0  0.00000000000E+00  0.00000000000E+00  0.32700487249E+03  0.32700487249E+03  0.00000000000E+00 0. -1.
          1   -1    0    0  501    0 -0.00000000000E+00 -0.00000000000E+00 -0.73314292107E+03  0.73314292107E+03  0.00000000000E+00 0. -1.
         25    2    1    2    0    0  0.57002104311E+01 -0.35136062966E+03 -0.42914382370E+01  0.37300263825E+03  0.12500306888E+03 0.  0.
          2    1    1    2  501    0 -0.11632511884E+03  0.38234950783E+03 -0.18210984988E+03  0.43918865745E+03  0.00000000000E+00 0. -1.
          1    1    1    2  502    0  0.11062490841E+03 -0.30988878178E+02 -0.21973676046E+03  0.24795649786E+03  0.00000000000E+00 0. -1.
         22    1    3    3    0    0 -0.30029967394E+02 -0.55356796830E+02  0.35359508522E+02  0.72225125406E+02  0.00000000000E+00 0.  1.
         22    1    3    3    0    0  0.35730177826E+02 -0.29600383283E+03 -0.39650946759E+02  0.30077751285E+03  0.00000000000E+00 0.  1.
</event>
<event>
 7    1  0.3110367E-005  0.1137557E+03  0.7818608E-02  0.1308286E+00
          2   -1    0    0  502    0  0.00000000000E+00  0.00000000000E+00  0.32097915079E+04  0.32097915079E+04  0.00000000000E+00 0. -1.
          1   -1    0    0  501    0 -0.00000000000E+00 -0.00000000000E+00 -0.31637571274E+02  0.31637571274E+02  0.00000000000E+00 0. -1.
         25    2    1    2    0    0  0.61083834052E+02 -0.61283189799E+02  0.17912762607E+03  0.23494393773E+03  0.12500033327E+03 0.  0.
          2    1    1    2  501    0 -0.42251270641E+02 -0.52969083304E+02  0.47545531729E+03  0.48025894307E+03  0.00000000000E+00 0. -1.
          1    1    1    2  502    0 -0.18832563411E+02  0.11425227310E+03  0.25235709933E+04  0.25262261984E+04  0.00000000000E+00 0. -1.
         22    1    3    3    0    0  0.22067245159E+01 -0.23324475266E+02 -0.15500817105E+02  0.28092278485E+02  0.00000000000E+00 0.  1.
         22    1    3    3    0    0  0.58877109536E+02 -0.37958714533E+02  0.19462844318E+03  0.20685165924E+03  0.00000000000E+00 0.  1.
</event>
<event>
 7    1  0.3110367E-005  0.1009402E+03  0.7818608E-02  0.1302835E+00
          2   -1    0    0  502    0  0.00000000000E+00  0.00000000000E+00  0.21719624658E+04  0.21719624658E+04  0.00000000000E+00 0. -1.
          1   -1    0    0  501    0 -0.00000000000E+00 -0.00000000000E+00 -0.54279797947E+03  0.54279797947E+03  0.00000000000E+00 0. -1.
         25    2    1    2    0    0 -0.16759051525E+03 -0.50623221238E+02  0.22616149076E+03  0.31212627084E+03  0.12499799087E+03 0.  0.
          2    1    1    2  501    0  0.69297929988E+02  0.40485375276E+02 -0.49530041945E+03  0.50176067424E+03  0.00000000000E+00 0. -1.
          1    1    1    2  502    0  0.98292585259E+02  0.10137845962E+02  0.18983034150E+04  0.19008735002E+04  0.00000000000E+00 0. -1.
         22    1    3    3    0    0 -0.17250161944E+03 -0.43678815181E+02  0.23823602357E+03  0.29735677314E+03  0.00000000000E+00 0. -1.
         22    1    3    3    0    0  0.49111041908E+01 -0.69444060569E+01 -0.12074532814E+02  0.14769497707E+02  0.00000000000E+00 0. -1.
</event>
<event>
 7    1  0.3110367E-005  0.1780083E+03  0.7818608E-02  0.1199604E+00
          2   -1    0    0  502    0  0.00000000000E+00  0.00000000000E+00  0.45136573310E+03  0.45136573310E+03  0.00000000000E+00 0. -1.
          1   -1    0    0  501    0 -0.00000000000E+00 -0.00000000000E+00 -0.68088933948E+03  0.68088933948E+03  0.00000000000E+00 0. -1.
         25    2    1    2    0    0 -0.78500308319E+02 -0.23756505859E+02 -0.23631673515E+03  0.27964519280E+03  0.12501665716E+03 0.  0.
          2    1    1    2  501    0  0.82877088063E+02  0.20171103698E+03 -0.37362149977E+03  0.43260718817E+03  0.00000000000E+00 0. -1.
          1    1    1    2  502    0 -0.43767797443E+01 -0.17795453112E+03  0.38041462854E+03  0.42000269160E+03  0.00000000000E+00 0. -1.
         22    1    3    3    0    0 -0.23032977101E+02  0.34280248533E+02 -0.14538083002E+02  0.43783665116E+02  0.00000000000E+00 0.  1.
         22    1    3    3    0    0 -0.55467331218E+02 -0.58036754393E+02 -0.22177865215E+03  0.23586152768E+03  0.00000000000E+00 0.  1.
</event>
<event>
 7    1  0.3110367E-005  0.6035841E+03  0.7818608E-02  0.1189675E+00
          2   -1    0    0  502    0  0.00000000000E+00  0.00000000000E+00  0.81657063662E+03  0.81657063662E+03  0.00000000000E+00 0. -1.
          1   -1    0    0  501    0 -0.00000000000E+00 -0.00000000000E+00 -0.83322786688E+03  0.83322786688E+03  0.00000000000E+00 0. -1.
         25    2    1    2    0    0 -0.47999928730E+03 -0.36829238743E+03 -0.41461607806E+03  0.74401720831E+03  0.12496605790E+03 0.  0.
          2    1    1    2  501    0  0.45068487356E+03  0.39830958712E+03  0.10589823905E+03  0.61072237513E+03  0.00000000000E+00 0. -1.
          1    1    1    2  502    0  0.29314413744E+02 -0.30017199696E+02  0.29206060874E+03  0.29505892006E+03  0.00000000000E+00 0. -1.
         22    1    3    3    0    0 -0.12058715955E+03 -0.74554666547E+02 -0.16300561175E+03  0.21603354095E+03  0.00000000000E+00 0.  1.
         22    1    3    3    0    0 -0.35941212775E+03 -0.29373772088E+03 -0.25161046630E+03  0.52798366736E+03  0.00000000000E+00 0.  1.
</event>
<event>
 7    1  0.3110367E-005  0.1441654E+03  0.7818608E-02  0.1313876E+00
          2   -1    0    0  502    0  0.00000000000E+00  0.00000000000E+00  0.79338812399E+03  0.79338812399E+03  0.00000000000E+00 0. -1.
          1   -1    0    0  501    0 -0.00000000000E+00 -0.00000000000E+00 -0.14854272615E+04  0.14854272615E+04  0.00000000000E+00 0. -1.
         25    2    1    2    0    0 -0.17280154460E+03 -0.76775636345E+02 -0.11576563155E+03  0.25453600918E+03  0.12502810231E+03 0.  0.
          2    1    1    2  501    0  0.12222814786E+03  0.71738088312E+02 -0.12955151724E+04  0.13032442731E+04  0.00000000000E+00 0. -1.
          1    1    1    2  502    0  0.50573396737E+02  0.50375480325E+01  0.71924166643E+03  0.72103510322E+03  0.00000000000E+00 0. -1.
         22    1    3    3    0    0 -0.36000222836E+02  0.24382448790E+02  0.79119908380E+01  0.44194111059E+02  0.00000000000E+00 0. -1.
         22    1    3    3    0    0 -0.13680132176E+03 -0.10115808513E+03 -0.12367762239E+03  0.21034189812E+03  0.00000000000E+00 0. -1.
</event>
<event>
 7    1  0.3110367E-005  0.8280172E+02  0.7818608E-02  0.1439950E+00
          2   -1    0    0  502    0  0.00000000000E+00  0.00000000000E+00  0.26460533228E+03  0.26460533228E+03  0.00000000000E+00 0. -1.
          1   -1    0    0  501    0 -0.00000000000E+00 -0.00000000000E+00 -0.69955044594E+03  0.69955044594E+03  0.00000000000E+00 0. -1.
         25    2    1    2    0    0 -0.10709119928E+03 -0.22792065411E+02 -0.50776536440E+03  0.53426364990E+03  0.12499591640E+03 0.  0.
          2    1    1    2  501    0  0.30467575522E+02 -0.77146668902E+01 -0.17029389045E+03  0.17316985410E+03  0.00000000000E+00 0. -1.
          1    1    1    2  502    0  0.76623623759E+02  0.30506732301E+02  0.24311414119E+03  0.25672227422E+03  0.00000000000E+00 0. -1.
         22    1    3    3    0    0 -0.47644027024E+02 -0.25074359610E+02 -0.44324285630E+03  0.44650073514E+03  0.00000000000E+00 0. -1.
         22    1    3    3    0    0 -0.59447172258E+02  0.22822941988E+01 -0.64522508099E+02  0.87762914763E+02  0.00000000000E+00 0. -1.
</event>
<event>
 7    1  0.3110367E-005  0.6577820E+02  0.7818608E-02  0.1398626E+00
          2   -1    0    0  502    0  0.00000000000E+00  0.00000000000E+00  0.12985819415E+04  0.12985819415E+04  0.00000000000E+00 0. -1.
          1   -1    0    0  501    0 -0.00000000000E+00 -0.00000000000E+00 -0.42992454001E+03  0.42992454001E+03  0.00000000000E+00 0. -1.
         25    2    1    2    0    0 -0.95347771110E+02 -0.67793006774E+02 -0.89199237076E+02  0.19305211033E+03  0.12500209673E+03 0.  0.
          2    1    1    2  501    0  0.35518028149E+02  0.41185192475E+02 -0.28536922520E+03  0.29050532713E+03  0.00000000000E+00 0. -1.
          1    1    1    2  502    0  0.59829742961E+02  0.26607814299E+02  0.12432258638E+04  0.12449490441E+04  0.00000000000E+00 0. -1.
         22    1    3    3    0    0 -0.59187563040E+02 -0.58581376843E+02  0.12971440069E+02  0.84280505390E+02  0.00000000000E+00 0. -1.
         22    1    3    3    0    0 -0.36160208070E+02 -0.92116299312E+01 -0.10217067714E+03  0.10877160494E+03  0.00000000000E+00 0. -1.
</event>
<event>
 7    1  0.3110367E-005  0.2681139E+03  0.7818608E-02  0.1207878E+00
          2   -1    0    0  502    0  0.00000000000E+00  0.00000000000E+00  0.11960206445E+04  0.11960206445E+04  0.00000000000E+00 0. -1.
          1   -1    0    0  501    0 -0.00000000000E+00 -0.00000000000E+00 -0.13380244561E+04  0.13380244561E+04  0.00000000000E+00 0. -1.
         25    2    1    2    0    0 -0.28247686613E+03 -0.81384471185E+02  0.78005699976E+03  0.84292954909E+03  0.12499875921E+03 0.  0.
          2    1    1    2  501    0  0.42754173434E+02  0.64615101472E+02 -0.12677447404E+04  0.12701101360E+04  0.00000000000E+00 0. -1.
          1    1    1    2  502    0  0.23972269270E+03  0.16769369713E+02  0.34568392899E+03  0.42100541554E+03  0.00000000000E+00 0. -1.
         22    1    3    3    0    0 -0.29186893716E+03 -0.77828747145E+02  0.70202289500E+03  0.76425187959E+03  0.00000000000E+00 0.  1.
         22    1    3    3    0    0  0.93920710235E+01 -0.35557240396E+01  0.78034104760E+02  0.78677669495E+02  0.00000000000E+00 0.  1.
</event>
<event>
 7    1  0.3110367E-005  0.4825089E+03  0.7818608E-02  0.1169524E+00
          2   -1    0    0  502    0  0.00000000000E+00  0.00000000000E+00  0.25640294110E+04  0.25640294110E+04  0.00000000000E+00 0. -1.
          1   -1    0    0  501    0 -0.00000000000E+00 -0.00000000000E+00 -0.10897967502E+04  0.10897967502E+04  0.00000000000E+00 0. -1.
         25    2    1    2    0    0  0.48097719389E+03  0.95894222385E+01 -0.50046108791E+03  0.70534915000E+03  0.12500041932E+03 0.  0.
          2    1    1    2  501    0 -0.48075284388E+03 -0.75426489159E+02 -0.36471871937E+03  0.60813830370E+03  0.00000000000E+00 0. -1.
          1    1    1    2  502    0 -0.22435000911E+00  0.65837066921E+02  0.23394124681E+04  0.23403387075E+04  0.00000000000E+00 0. -1.
         22    1    3    3    0    0  0.91871423480E+02  0.49215063693E+02 -0.82453450535E+02  0.13289489250E+03  0.00000000000E+00 0. -1.
         22    1    3    3    0    0  0.38910577041E+03 -0.39625641455E+02 -0.41800763738E+03  0.57245425750E+03  0.00000000000E+00 0. -1.
</event>
<event>
 7    1  0.3110367E-005  0.1348980E+03  0.7818608E-02  0.1267286E+00
          2   -1    0    0  502    0  0.00000000000E+00  0.00000000000E+00  0.92963563770E+03  0.92963563770E+03  0.00000000000E+00 0. -1.
          1   -1    0    0  501    0 -0.00000000000E+00 -0.00000000000E+00 -0.26120842642E+03  0.26120842642E+03  0.00000000000E+00 0. -1.
         25    2    1    2    0    0 -0.22506769314E+02  0.14086209586E+03  0.88708713687E+03  0.90713716459E+03  0.12500224910E+03 0.  0.
          2    1    1    2  501    0  0.55579092720E+02 -0.62988709016E+02 -0.16013886504E+03  0.18083436926E+03  0.00000000000E+00 0. -1.
          1    1    1    2  502    0 -0.33072323406E+02 -0.77873386843E+02 -0.58521060551E+02  0.10287253026E+03  0.00000000000E+00 0. -1.
         22    1    3    3    0    0 -0.74720695375E+02  0.83619498045E+02  0.51438108033E+03  0.52646300779E+03  0.00000000000E+00 0. -1.
         22    1    3    3    0    0  0.52213926061E+02  0.57242597814E+02  0.37270605654E+03  0.38067415680E+03  0.00000000000E+00 0. -1.
</event>
<event>
 7    1  0.3110367E-005  0.8663313E+02  0.7818608E-02  0.1389692E+00
          2   -1    0    0  502    0  0.00000000000E+00  0.00000000000E+00  0.48290711935E+03  0.48290711935E+03  0.00000000000E+00 0. -1.
          1   -1    0    0  501    0 -0.00000000000E+00 -0.00000000000E+00 -0.75140248140E+03  0.75140248140E+03  0.00000000000E+00 0. -1.
         25    2    1    2    0    0  0.81156432537E+02 -0.84459588618E+02 -0.89360649292E+02  0.19321124067E+03  0.12500187689E+03 0.  0.
          2    1    1    2  501    0 -0.43767149707E+02  0.71502958230E+01 -0.60501905808E+03  0.60664219336E+03  0.00000000000E+00 0. -1.
          1    1    1    2  502    0 -0.37389282830E+02  0.77309292795E+02  0.42588434531E+03  0.43445616673E+03  0.00000000000E+00 0. -1.
         22    1    3    3    0    0  0.32762676596E+02 -0.90702001514E+02 -0.10442535591E+03  0.14214394469E+03  0.00000000000E+00 0. -1.
         22    1    3    3    0    0  0.48393755941E+02  0.62424128958E+01  0.15064706616E+02  0.51067295975E+02  0.00000000000E+00 0. -1.
</event>
<event>
 7    1  0.3110367E-005  0.6658879E+03  0.7818608E-02  0.1072095E+00
          2   -1    0    0  502    0  0.00000000000E+00  0.00000000000E+00  0.31659018685E+04  0.31659018685E+04  0.00000000000E+00 0. -1.
          1   -1    0    0  501    0 -0.00000000000E+00 -0.00000000000E+00 -0.16361279000E+04  0.16361279000E+04  0.00000000000E+00 0. -1.
         25    2    1    2    0    0  0.45022580992E+03 -0.55868496194E+03 -0.44179404577E+03  0.85184359877E+03  0.12499348494E+03 0.  0.
          2    1    1    2  501    0 -0.50113424524E+03  0.40551170595E+03 -0.88176893555E+03  0.10922873849E+04  0.00000000000E+00 0. -1.
          1    1    1    2  502    0  0.50908435319E+02  0.15317325598E+03  0.28533369498E+04  0.28578987848E+04  0.00000000000E+00 0. -1.
         22    1    3    3    0    0  0.23198873469E+03 -0.38277554629E+03 -0.25738315975E+03  0.51631577816E+03  0.00000000000E+00 0.  1.
         22    1    3    3    0    0  0.21823707523E+03 -0.17590941565E+03 -0.18441088602E+03  0.33552782061E+03  0.00000000000E+00 0.  1.
</event>
<event>
 7    1  0.3110367E-005  0.1171750E+03  0.7818608E-02  0.1275413E+00
          2   -1    0    0  502    0  0.00000000000E+00  0.00000000000E+00  0.58097333725E+03  0.58097333725E+03  0.00000000000E+00 0. -1.
          1   -1    0    0  501    0 -0.00000000000E+00 -0.00000000000E+00 -0.43809278964E+03  0.43809278964E+03  0.00000000000E+00 0. -1.
         25    2    1    2    0    0  0.13688312506E+03 -0.87915570879E+02  0.39120540096E+03  0.44173842792E+03  0.12500014174E+03 0.  0.
          2    1    1    2  501    0 -0.11674368764E+03  0.79749680475E+00 -0.39149381923E+03  0.40853045799E+03  0.00000000000E+00 0. -1.
          1    1    1    2  502    0 -0.20139437427E+02  0.87118074074E+02  0.14316896589E+03  0.16879724099E+03  0.00000000000E+00 0. -1.
         22    1    3    3    0    0  0.10285115137E+03  0.55460542170E+01  0.23461244197E+03  0.25622668866E+03  0.00000000000E+00 0.  1.
         22    1    3    3    0    0  0.34031973693E+02 -0.93461625096E+02  0.15659295899E+03  0.18551173927E+03  0.00000000000E+00 0.  1.
</event>
<event>
 7    1  0.3110367E-005  0.4606131E+03  0.7818608E-02  0.1186085E+00
          2   -1    0    0  502    0  0.00000000000E+00  0.00000000000E+00  0.11180730087E+04  0.11180730087E+04  0.00000000000E+00 0. -1.
          1   -1    0    0  501    0 -0.00000000000E+00 -0.00000000000E+00 -0.32679711229E+03  0.32679711229E+03  0.00000000000E+00 0. -1.
         25    2    1    2    0    0  0.39703229406E+02  0.43178721449E+03  0.20820335671E+03  0.49698030725E+03  0.12499697208E+03 0.  0.
          2    1    1    2  501    0  0.44646627903E+02  0.35776582589E+02 -0.10036879622E+03  0.11552999827E+03  0.00000000000E+00 0. -1.
          1    1    1    2  502    0 -0.84349857309E+02 -0.46756379708E+03  0.68344133593E+03  0.83235981547E+03  0.00000000000E+00 0. -1.
         22    1    3    3    0    0  0.37604721970E+02  0.41112602204E+03  0.15693290473E+03  0.44166351185E+03  0.00000000000E+00 0. -1.
         22    1    3    3    0    0  0.20985074365E+01  0.20661192446E+02  0.51270451981E+02  0.55316795398E+02  0.00000000000E+00 0. -1.
</event>
<event>
 7    1  0.3110367E-005  0.1653853E+03  0.7818608E-02  0.1229949E+00
          2   -1    0    0  502    0  0.00000000000E+00  0.00000000000E+00  0.28096871171E+03  0.28096871171E+03  0.00000000000E+00 0. -1.
          1   -1    0    0  501    0 -0.00000000000E+00 -0.00000000000E+00 -0.38022198359E+03  0.38022198359E+03  0.00000000000E+00 0. -1.
         25    2    1    2    0    0 -0.14120942981E+03  0.20443374501E+03  0.15611704798E+02  0.27857106712E+03  0.12499941977E+03 0.  0.
          2    1    1    2  501    0  0.99401863094E+02 -0.11405173137E+03 -0.20057242557E+03  0.25123261276E+03  0.00000000000E+00 0. -1.
          1    1    1    2  502    0  0.41807566718E+02 -0.90382013638E+02  0.85707448893E+02  0.13138701542E+03  0.00000000000E+00 0. -1.
         22    1    3    3    0    0 -0.72193082755E+02  0.19514227984E+03  0.18369913482E+02  0.20887748634E+03  0.00000000000E+00 0.  1.
         22    1    3    3    0    0 -0.69016347057E+02  0.92914651646E+01 -0.27582086843E+01  0.69693580774E+02  0.00000000000E+00 0.  1.
</event>
<event>
 7    1  0.3110367E-005  0.7661742E+03  0.7818608E-02  0.1139898E+00
          2   -1    0    0  502    0  0.00000000000E+00  0.00000000000E+00  0.11103919148E+04  0.11103919148E+04  0.00000000000E+00 0. -1.
          1   -1    0    0  501    0 -0.00000000000E+00 -0.00000000000E+00 -0.16265092998E+04  0.16265092998E+04  0.00000000000E+00 0. -1.
         25    2    1    2    0    0  0.63131998462E+03  0.45068402792E+03  0.72203120412E+03  0.10670682842E+04  0.12499858959E+03 0.  0.
          2    1    1    2  501    0 -0.13415241683E+02 -0.57173643368E+02 -0.82835840462E+03  0.83043749958E+03  0.00000000000E+00 0. -1.
          1    1    1    2  502    0 -0.61790474294E+03 -0.39351038455E+03 -0.40979018449E+03  0.83939543089E+03  0.00000000000E+00 0. -1.
         22    1    3    3    0    0  0.27612758536E+03  0.14811704893E+03  0.35431178025E+03  0.47299253822E+03  0.00000000000E+00 0.  1.
         22    1    3    3    0    0  0.35519239926E+03  0.30256697899E+03  0.36771942387E+03  0.59407574598E+03  0.00000000000E+00 0.  1.
</event>
<event>
 7    1  0.3110367E-005  0.4819121E+02  0.7818608E-02  0.1563811E+00
          2   -1    0    0  502    0  0.00000000000E+00  0.00000000000E+00  0.13281605121E+04  0.13281605121E+04  0.00000000000E+00 0. -1.
          1   -1    0    0  501    0 -0.00000000000E+00 -0.00000000000E+00 -0.14827475747E+03  0.14827475747E+03  0.00000000000E+00 0. -1.
         25    2    1    2    0    0 -0.50745725802E+02 -0.15835512880E+02 -0.64309503448E+02  0.15028860391E+03  0.12500024031E+03 0.  0.
          2    1    1    2  501    0  0.15529590737E+02 -0.17063245576E+02 -0.37238661100E+02  0.43806853557E+02  0.00000000000E+00 0. -1.
          1    1    1    2  502    0  0.35216135065E+02  0.32898758456E+02  0.12814339192E+04  0.12823398121E+04  0.00000000000E+00 0. -1.
         22    1    3    3    0    0 -0.90310490522E+02  0.65576630559E+00 -0.29308053750E+02  0.94949337767E+02  0.00000000000E+00 0.  1.
         22    1    3    3    0    0  0.39564764720E+02 -0.16491279186E+02 -0.35001449698E+02  0.55339266146E+02  0.00000000000E+00 0.  1.
</event>
<event>
 7    1  0.3110367E-005  0.1174352E+03  0.7818608E-02  0.1304217E+00
          2   -1    0    0  502    0  0.00000000000E+00  0.00000000000E+00  0.12650562180E+03  0.12650562180E+03  0.00000000000E+00 0. -1.
          1   -1    0    0  501    0 -0.00000000000E+00 -0.00000000000E+00 -0.30843429097E+03  0.30843429097E+03  0.00000000000E+00 0. -1.
         25    2    1    2    0    0 -0.11489103150E+03 -0.78073049264E+02 -0.13615620675E+03  0.23119552357E+03  0.12497002577E+03 0.  0.
          2    1    1    2  501    0  0.22738428785E+00  0.68115830958E+02 -0.56020857924E+02  0.88193847026E+02  0.00000000000E+00 0. -1.
          1    1    1    2  502    0  0.11466364721E+03  0.99572183060E+01  0.10248395511E+02  0.11555054218E+03  0.00000000000E+00 0. -1.
         22    1    3    3    0    0 -0.12941808222E+03 -0.58955310019E+02 -0.14727884121E+03  0.20473354794E+03  0.00000000000E+00 0. -1.
         22    1    3    3    0    0  0.14527050722E+02 -0.19117739245E+02  0.11122634462E+02  0.26461975623E+02  0.00000000000E+00 0. -1.
</event>
<event>
 7    1  0.3110367E-005  0.4097439E+02  0.7818608E-02  0.1560965E+00
          2   -1    0    0  502    0  0.00000000000E+00  0.00000000000E+00  0.16834182871E+04  0.16834182871E+04  0.00000000000E+00 0. -1.
          1   -1    0    0  501    0 -0.00000000000E+00 -0.00000000000E+00 -0.56556612403E+02  0.56556612403E+02  0.00000000000E+00 0. -1.
         25    2    1    2    0    0 -0.10506102615E+02 -0.20847255243E+02  0.49262883365E+03  0.50877634591E+03  0.12500086466E+03 0.  0.
          2    1    1    2  501    0 -0.27476929214E+02  0.28861633883E+01 -0.44141833855E+02  0.52075071524E+02  0.00000000000E+00 0. -1.
          1    1    1    2  502    0  0.37983031829E+02  0.17961091855E+02  0.11783746749E+04  0.11791234821E+04  0.00000000000E+00 0. -1.
         22    1    3    3    0    0 -0.65585110111E+02 -0.76216959821E+01  0.19701854304E+03  0.20778788035E+03  0.00000000000E+00 0. -1.
         22    1    3    3    0    0  0.55079007496E+02 -0.13225559261E+02  0.29561029061E+03  0.30098846555E+03  0.00000000000E+00 0. -1.
</event>
<event>
 7    1  0.3110367E-005  0.2118910E+03  0.7818608E-02  0.1151217E+00
          2   -1    0    0  502    0  0.00000000000E+00  0.00000000000E+00  0.55029119506E+03  0.55029119506E+03  0.00000000000E+00 0. -1.
          1   -1    0    0  501    0 -0.00000000000E+00 -0.00000000000E+00 -0.69273077272E+03  0.69273077272E+03  0.00000000000E+00 0. -1.
         25    2    1    2    0    0  0.24622073437E+03  0.11721071549E+03 -0.58259001141E+01  0.30003711667E+03  0.12500131363E+03 0.  0.
          2    1    1    2  501    0 -0.78716797342E+02 -0.19692051990E+03 -0.49550902157E+03  0.53898350234E+03  0.00000000000E+00 0. -1.
          1    1    1    2  502    0 -0.16750393703E+03  0.79709804415E+02  0.35889534403E+03  0.40400134877E+03  0.00000000000E+00 0. -1.
         22    1    3    3    0    0  0.62884960782E+02  0.74896315141E+02  0.41158974144E+02  0.10610389939E+03  0.00000000000E+00 0.  1.
         22    1    3    3    0    0  0.18333577359E+03  0.42314400346E+02 -0.46984874258E+02  0.19393321727E+03  0.00000000000E+00 0.  1.
</event>
<event>
 7    1  0.3110367E-005  0.1138848E+03  0.7818608E-02  0.1311241E+00
          2   -1    0    0  502    0  0.00000000000E+00  0.00000000000E+00  0.32327192575E+04  0.32327192575E+04  0.00000000000E+00 0. -1.
          1   -1    0    0  501    0 -0.00000000000E+00 -0.00000000000E+00 -0.19267682807E+03  0.19267682807E+03  0.00000000000E+00 0. -1.
         25    2    1    2    0    0 -0.12124011548E+03  0.73398657379E+02  0.13164335799E+04  0.13299283045E+04  0.12500158472E+03 0.  0.
          2    1    1    2  501    0  0.62809159463E+02  0.19904021866E+02 -0.17845033833E+03  0.19022535017E+03  0.00000000000E+00 0. -1.
          1    1    1    2  502    0  0.58430956015E+02 -0.93302679245E+02  0.19020591879E+04  0.19052424310E+04  0.00000000000E+00 0. -1.
         22    1    3    3    0    0 -0.61469864255E+02  0.42041085574E+02  0.23787769868E+03  0.24926250544E+03  0.00000000000E+00 0. -1.
         22    1    3    3    0    0 -0.59770251223E+02  0.31357571806E+02  0.10785558812E+04  0.10806657990E+04  0.00000000000E+00 0. -1.
</event>
<event>
 7    1  0.3110367E-005  0.1058751E+03  0.7818608E-02  0.1338954E+00
          2   -1    0    0  502    0  0.00000000000E+00  0.00000000000E+00  0.34959743802E+04  0.34959743802E+04  0.00000000000E+00 0. -1.
          1   -1    0    0  501    0 -0.00000000000E+00 -0.00000000000E+00 -0.53307118015E+03  0.53307118015E+03  0.00000000000E+00 0. -1.
         25    2    1    2    0    0 -0.49016612974E+02 -0.13343467988E+03  0.16540086805E+04  0.16648056752E+04  0.12500311524E+03 0.  0.
          2    1    1    2  501    0  0.97148986293E+00  0.10578096236E+03 -0.52194709078E+03  0.53255921865E+03  0.00000000000E+00 0. -1.
          1    1    1    2  502    0  0.48045123111E+02  0.27653717516E+02  0.18308416103E+04  0.18316806665E+04  0.00000000000E+00 0. -1.
         22    1    3    3    0    0 -0.82038979394E+02 -0.87948427058E+02  0.13712403344E+04  0.13765047674E+04  0.00000000000E+00 0.  1.
         22    1    3    3    0    0  0.33022366420E+02 -0.45486252821E+02  0.28276834608E+03  0.28830090777E+03  0.00000000000E+00 0.  1.
</event>
<event>
 7    1  0.3110367E-005  0.3124403E+03  0.7818608E-02  0.1097238E+00
          2   -1    0    0  502    0  0.00000000000E+00  0.00000000000E+00  0.32650776600E+03  0.32650776600E+03  0.00000000000E+00 0. -1.
          1   -1    0    0  501    0 -0.00000000000E+00 -0.00000000000E+00 -0.15850634863E+04  0.15850634863E+04  0.00000000000E+00 0. -1.
         25    2    1    2    0    0  0.37810286280E+03  0.11032103966E+03 -0.10000607718E+04  0.10820721441E+04  0.12500428442E+03 0.  0.
          2    1    1    2  501    0 -0.15804563594E+03 -0.22005883339E+03 -0.44491879931E+03  0.52091942867E+03  0.00000000000E+00 0. -1.
          1    1    1    2  502    0 -0.22005722686E+03  0.10973779373E+03  0.18642385080E+03  0.30857967952E+03  0.00000000000E+00 0. -1.
         22    1    3    3    0    0  0.71435014576E+02  0.38066226203E+02 -0.10117881579E+03  0.12957295879E+03  0.00000000000E+00 0.  1.
         22    1    3    3    0    0  0.30666784822E+03  0.72254813454E+02 -0.89888195600E+03  0.95249918531E+03  0.00000000000E+00 0.  1.
</event>
<event>
 7    1  0.3110367E-005  0.7659071E+02  0.7818608E-02  0.1478776E+00
          2   -1    0    0  502    0  0.00000000000E+00  0.00000000000E+00  0.36467609842E+03  0.36467609842E+03  0.00000000000E+00 0. -1.
          1   -1    0    0  501    0 -0.00000000000E+00 -0.00000000000E+00 -0.57823636861E+03  0.57823636861E+03  0.00000000000E+00 0. -1.
         25    2    1    2    0    0  0.56225926396E+02 -0.30145381808E+02 -0.37637631272E+02  0.14529881837E+03  0.12500022595E+03 0.  0.
          2    1    1    2  501    0  0.19912746698E+02  0.16120627444E+02 -0.48160180969E+03  0.48228279588E+03  0.00000000000E+00 0. -1.
          1    1    1    2  502    0 -0.76138673095E+02  0.14024754364E+02  0.30567917076E+03  0.31533085278E+03  0.00000000000E+00 0. -1.
         22    1    3    3    0    0  0.70990830641E+02 -0.66720230349E+02 -0.11772825629E+02  0.98131985592E+02  0.00000000000E+00 0.  1.
         22    1    3    3    0    0 -0.14764904245E+02  0.36574848541E+02 -0.25864805643E+02  0.47166832776E+02  0.00000000000E+00 0.  1.
</event>
<event>
 7    1  0.3110367E-005  0.6974567E+03  0.7818608E-02  0.1032857E+00
          2   -1    0    0  502    0  0.00000000000E+00  0.00000000000E+00  0.15081208743E+04  0.15081208743E+04  0.00000000000E+00 0. -1.
          1   -1    0    0  501    0 -0.00000000000E+00 -0.00000000000E+00 -0.17697874749E+04  0.17697874749E+04  0.00000000000E+00 0. -1.
         25    2    1    2    0    0 -0.45959312266E+03  0.11793032960E+02 -0.78229344265E+03  0.91595437849E+03  0.12499791621E+03 0.  0.
          2    1    1    2  501    0 -0.25882660204E+03  0.73483284993E+02 -0.80663536288E+03  0.85032441559E+03  0.00000000000E+00 0. -1.
          1    1    1    2  502    0  0.71841972470E+03 -0.85276317953E+02  0.13272622050E+04  0.15116295551E+04  0.00000000000E+00 0. -1.
         22    1    3    3    0    0 -0.46073008389E+02  0.46976938526E+01 -0.17629455734E+03  0.18227605816E+03  0.00000000000E+00 0.  1.
         22    1    3    3    0    0 -0.41352011427E+03  0.70953391076E+01 -0.60599888531E+03  0.73367832034E+03  0.00000000000E+00 0.  1.
</event>
<event>
 7    1  0.3110367E-005  0.6604125E+02  0.7818608E-02  0.1469164E+00
          2   -1    0    0  502    0  0.00000000000E+00  0.00000000000E+00  0.34925021139E+02  0.34925021139E+02  0.00000000000E+00 0. -1.
          1   -1    0    0  501    0 -0.00000000000E+00 -0.00000000000E+00 -0.50668966172E+03  0.50668966172E+03  0.00000000000E+00 0. -1.
         25    2    1    2    0    0 -0.56513808644E+02  0.11531244599E+02 -0.16637535986E+03  0.21594680372E+03  0.12500192598E+03 0.  0.
          2    1    1    2  501    0 -0.11147552218E+02  0.29801545682E+02 -0.61969330463E+02  0.69660591180E+02  0.00000000000E+00 0. -1.
          1    1    1    2  502    0  0.67661360862E+02 -0.41332790281E+02 -0.24341995026E+03  0.25600728796E+03  0.00000000000E+00 0. -1.
         22    1    3    3    0    0  0.50145389230E+01  0.56826055122E+02 -0.98108416815E+02  0.11348835884E+03  0.00000000000E+00 0.  1.
         22    1    3    3    0    0 -0.61528347567E+02 -0.45294810523E+02 -0.68266943045E+02  0.10245844488E+03  0.00000000000E+00 0.  1.
</event>
<event>
 7    1  0.3110367E-005  0.3234731E+02  0.7818608E-02  0.1596149E+00
          2   -1    0    0  502    0  0.00000000000E+00  0.00000000000E+00  0.24364201906E+03  0.24364201906E+03  0.00000000000E+00 0. -1.
          1   -1    0    0  501    0 -0.00000000000E+00 -0.00000000000E+00 -0.10274276207E+04  0.10274276207E+04  0.00000000000E+00 0. -1.
         25    2    1    2    0    0 -0.10611554839E+01 -0.45022202038E+01 -0.74758685577E+02  0.14572141099E+03  0.12499789004E+03 0.  0.
          2    1    1    2  501    0 -0.12550462955E+02 -0.25198318908E+02 -0.91568799065E+03  0.91612060648E+03  0.00000000000E+00 0. -1.
          1    1    1    2  502    0  0.13611618439E+02  0.29700539111E+02  0.20666107459E+03  0.20922762229E+03  0.00000000000E+00 0. -1.
         22    1    3    3    0    0  0.23152382436E+01 -0.60216065257E+02 -0.65742380954E+02  0.89181811467E+02  0.00000000000E+00 0. -1.
         22    1    3    3    0    0 -0.33763937276E+01  0.55713845053E+02 -0.90163046238E+01  0.56539599523E+02  0.00000000000E+00 0. -1.
</event>
<event>
 7    1  0.3110367E-005  0.4903941E+03  0.7818608E-02  0.1194295E+00
          2   -1    0    0  502    0  0.00000000000E+00  0.00000000000E+00  0.14117531031E+04  0.14117531031E+04  0.00000000000E+00 0. -1.
          1   -1    0    0  501    0 -0.00000000000E+00 -0.00000000000E+00 -0.19921323295E+04  0.19921323295E+04  0.00000000000E+00 0. -1.
         25    2    1    2    0    0 -0.31129966606E+03  0.34240812696E+03 -0.90329638944E+03  0.10226047043E+04  0.12500082664E+03 0.  0.
          2    1    1    2  501    0  0.11826870635E+02  0.47633766801E+02 -0.98383847788E+03  0.98506192758E+03  0.00000000000E+00 0. -1.
          1    1    1    2  502    0  0.29947279543E+03 -0.39004189376E+03  0.13067556409E+04  0.13962188006E+04  0.00000000000E+00 0. -1.
         22    1    3    3    0    0 -0.18332646055E+03  0.18234426101E+03 -0.37094864404E+03  0.45217354763E+03  0.00000000000E+00 0.  1.
         22    1    3    3    0    0 -0.12797320552E+03  0.16006386595E+03 -0.53234774540E+03  0.57043115671E+03  0.00000000000E+00 0.  1.
</event>
<event>
 7    1  0.3110367E-005  0.5566190E+02  0.7818608E-02  0.1510357E+00
          2   -1    0    0  502    0  0.00000000000E+00  0.00000000000E+00  0.12154244488E+03  0.12154244488E+03  0.00000000000E+00 0. -1.
          1   -1    0    0  501    0 -0.00000000000E+00 -0.00000000000E+00 -0.16780314963E+04  0.16780314963E+04  0.00000000000E+00 0. -1.
         25    2    1    2    0    0  0.15428533488E+02  0.27417118990E+02  0.28646932865E+01  0.12892950289E+03  0.12499948876E+03 0.  0.
          2    1    1    2  501    0 -0.92939410657E+01 -0.55074570767E+02 -0.16108777280E+04  0.16118457247E+04  0.00000000000E+00 0. -1.
          1    1    1    2  502    0 -0.61345924224E+01  0.27657451778E+02  0.51523983295E+02  0.58798713571E+02  0.00000000000E+00 0. -1.
         22    1    3    3    0    0 -0.27617694911E+02 -0.12328158001E+02  0.46782626579E+02  0.55707582083E+02  0.00000000000E+00 0. -1.
         22    1    3    3    0    0  0.43046228399E+02  0.39745276990E+02 -0.43917933293E+02  0.73221920810E+02  0.00000000000E+00 0. -1.
</event>
<event>
 7    1  0.3110367E-005  0.6655785E+02  0.7818608E-02  0.1447896E+00
          2   -1    0    0  502    0  0.00000000000E+00  0.00000000000E+00  0.68146250684E+03  0.68146250684E+03  0.00000000000E+00 0. -1.
          1   -1    0    0  501    0 -0.00000000000E+00 -0.00000000000E+00 -0.16289481813E+04  0.16289481813E+04  0.00000000000E+00 0. -1.
         25    2    1    2    0    0  0.74551784440E+02 -0.61291678956E+02  0.60398125525E+02  0.16908264647E+03  0.12500547707E+03 0.  0.
          2    1    1    2  501    0 -0.60574226011E+02  0.27187175831E+02 -0.15733057199E+04  0.15747060893E+04  0.00000000000E+00 0. -1.
          1    1    1    2  502    0 -0.13977558429E+02  0.34104503125E+02  0.56542191997E+03  0.56662195232E+03  0.00000000000E+00 0. -1.
         22    1    3    3    0    0 -0.11423165229E+02 -0.73271435863E+01 -0.30146199399E+02  0.33060082807E+02  0.00000000000E+00 0. -1.
         22    1    3    3    0    0  0.85974949669E+02 -0.53964535370E+02  0.90544324924E+02  0.13602256366E+03  0.00000000000E+00 0. -1.
</event>
<event>
 7    1  0.3110367E-005  0.6398130E+02  0.7818608E-02  0.1397044E+00
          2   -1    0    0  502    0  0.00000000000E+00  0.00000000000E+00  0.12747961956E+04  0.12747961956E+04  0.00000000000E+00 0. -1.
          1   -1    0    0  501    0 -0.00000000000E+00 -0.00000000000E+00 -0.16448607774E+02  0.16448607774E+02  0.00000000000E+00 0. -1.
         25    2    1    2    0    0  0.23552655461E+02  0.72164285393E+01  0.55615645528E+03  0.57056420752E+03  0.12500683072E+03 0.  0.
          2    1    1    2  501    0  0.23426904650E+02 -0.59538108727E+02  0.13783817658E+03  0.15196371006E+03  0.00000000000E+00 0. -1.
          1    1    1    2  502    0 -0.46979560111E+02  0.52321680188E+02  0.56435295601E+03  0.56871688585E+03  0.00000000000E+00 0. -1.
         22    1    3    3    0    0  0.69414059617E+01 -0.17705214832E+01 -0.52240167571E+01  0.88661273466E+01  0.00000000000E+00 0.  1.
         22    1    3    3    0    0  0.16611249499E+02  0.89869500225E+01  0.56138047204E+03  0.56169808017E+03  0.00000000000E+00 0.  1.
</event>
<event>
 7    1  0.3110367E-005  0.1460374E+03  0.7818608E-02  0.1273418E+00
          2   -1    0    0  502    0  0.00000000000E+00  0.00000000000E+00  0.10456816388E+04  0.10456816388E+04  0.00000000000E+00 0. -1.
          1   -1    0    0  501    0 -0.00000000000E+00 -0.00000000000E+00 -0.17635653951E+04  0.17635653951E+04  0.00000000000E+00 0. -1.
         25    2    1    2    0    0 -0.16764264869E+02  0.12773530393E+03  0.83660547962E+02  0.19804604828E+03  0.12500320599E+03 0.  0.
          2    1    1    2  501    0  0.72282828849E+02  0.11109041956E+02 -0.16994028707E+04  0.17009757009E+04  0.00000000000E+00 0. -1.
          1    1    1    2  502    0 -0.55518563980E+02 -0.13884434588E+03  0.89785856653E+03  0.91022528465E+03  0.00000000000E+00 0. -1.
         22    1    3    3    0    0  0.28745342077E+02 -0.10867531167E+02  0.29014595325E+02  0.42263987823E+02  0.00000000000E+00 0. -1.
         22    1    3    3    0    0 -0.45509606946E+02  0.13860283509E+03  0.54645952637E+02  0.15578206046E+03  0.00000000000E+00 0. -1.
</event>
<event>
 7    1  0.3110367E-005  0.2301457E+03  0.7818608E-02  0.1236715E+00
          2   -1    0    0  502    0  0.00000000000E+00  0.00000000000E+00  0.13203583391E+04  0.13203583391E+04  0.00000000000E+00 0. -1.
          1   -1    0    0  501    0 -0.00000000000E+00 -0.00000000000E+00 -0.44387851770E+03  0.44387851770E+03  0.00000000000E+00 0. -1.
         25    2    1    2    0    0  0.69464211654E+01  0.23626259863E+03 -0.19637132606E+03  0.33173772783E+03  0.12497981474E+03 0.  0.
          2    1    1    2  501    0  0.58015796875E+02 -0.22087951525E+03 -0.10599035520E+03  0.25176883910E+03  0.00000000000E+00 0. -1.
          1    1    1    2  502    0 -0.64962218040E+02 -0.15383083376E+02  0.11788415026E+04  0.11807302898E+04  0.00000000000E+00 0. -1.
         22    1    3    3    0    0 -0.21325159953E+02  0.22774863843E+03 -0.19747269354E+03  0.30219144503E+03  0.00000000000E+00 0.  1.
         22    1    3    3    0    0  0.28271581118E+02  0.85139601993E+01  0.11013674844E+01  0.29546282804E+02  0.00000000000E+00 0.  1.
</event>
<event>
 7    1  0.3110367E-005  0.7538871E+02  0.7818608E-02  0.1377392E+00
          2   -1    0    0  502    0  0.00000000000E+00  0.00000000000E+00  0.79451242742E+03  0.79451242742E+03  0.00000000000E+00 0. -1.
          1   -1    0    0  501    0 -0.00000000000E+00 -0.00000000000E+00 -0.13588860571E+03  0.13588860571E+03  0.00000000000E+00 0. -1.
         25    2    1    2    0    0  0.40484398717E+02 -0.16228941118E+02  0.10353971459E+03  0.16807161446E+03  0.12500092007E+03 0.  0.
          2    1    1    2  501    0 -0.86485532543E+01 -0.55640979645E+02 -0.93420421396E+02  0.10907837193E+03  0.00000000000E+00 0. -1.
          1    1    1    2  502    0 -0.31835845463E+02  0.71869920763E+02  0.64850452852E+03  0.65325104675E+03  0.00000000000E+00 0. -1.
         22    1    3    3    0    0  0.46602883637E+02 -0.16132511591E+02 -0.13294936360E+02  0.51076824748E+02  0.00000000000E+00 0.  1.
         22    1    3    3    0    0 -0.61184849193E+01 -0.96429526561E-01  0.11683465095E+03  0.11699478971E+03  0.00000000000E+00 0.  1.
</event>
<event>
 7    1  0.3110367E-005  0.2173078E+03  0.7818608E-02  0.1171626E+00
          2   -1    0    0  502    0  0.00000000000E+00  0.00000000000E+00  0.15909568082E+04  0.15909568082E+04  0.00000000000E+00 0. -1.
          1   -1    0    0  501    0 -0.00000000000E+00 -0.00000000000E+00 -0.44137891268E+03  0.44137891268E+03  0.00000000000E+00 0. -1.
         25    2    1    2    0    0 -0.28366240856E+02 -0.23817488978E+03  0.23505489062E+03  0.35834061579E+03  0.12500109433E+03 0.  0.
          2    1    1    2  501    0 -0.12054807652E+03  0.76393241850E+02 -0.35654569847E+03  0.38404765492E+03  0.00000000000E+00 0. -1.
          1    1    1    2  502    0  0.14891431737E+03  0.16178164793E+03  0.12710687034E+04  0.12899474502E+04  0.00000000000E+00 0. -1.
         22    1    3    3    0    0  0.46268468566E+02 -0.13591567457E+03  0.11645172829E+03  0.18486440111E+03  0.00000000000E+00 0.  1.
         22    1    3    3    0    0 -0.74634709422E+02 -0.10225921520E+03  0.11860316233E+03  0.17347621468E+03  0.00000000000E+00 0.  1.
</event>
<event>
 7    1  0.3110367E-005  0.3527913E+03  0.7818608E-02  0.1104967E+00
          2   -1    0    0  502    0  0.00000000000E+00  0.00000000000E+00  0.37397377052E+03  0.37397377052E+03  0.00000000000E+00 0. -1.
          1   -1    0    0  501    0 -0.00000000000E+00 -0.00000000000E+00 -0.11589009153E+04  0.11589009153E+04  0.00000000000E+00 0. -1.
         25    2    1    2    0    0 -0.29038631170E+03 -0.10184487762E+02 -0.58802562345E+03  0.66770248325E+03  0.12499815393E+03 0.  0.
          2    1    1    2  501    0 -0.31013527334E+02  0.19458483588E+03 -0.39761598869E+03  0.44376071445E+03  0.00000000000E+00 0. -1.
          1    1    1    2  502    0  0.32139983904E+03 -0.18440034811E+03  0.20071446735E+03  0.42141148812E+03  0.00000000000E+00 0. -1.
         22    1    3    3    0    0 -0.12719690161E+03 -0.34732940834E+02 -0.15049928669E+03  0.20008864098E+03  0.00000000000E+00 0. -1.
         22    1    3    3    0    0 -0.16318941010E+03  0.24548453071E+02 -0.43752633676E+03  0.46761384227E+03  0.00000000000E+00 0. -1.
</event>
<event>
 7    1  0.3110367E-005  0.4748347E+03  0.7818608E-02  0.1028211E+00
          2   -1    0    0  502    0  0.00000000000E+00  0.00000000000E+00  0.12621680490E+04  0.12621680490E+04  0.00000000000E+00 0. -1.
          1   -1    0    0  501    0 -0.00000000000E+00 -0.00000000000E+00 -0.19548420739E+04  0.19548420739E+04  0.00000000000E+00 0. -1.
         25    2    1    2    0    0 -0.36531213346E+03 -0.16582437248E+03  0.72789159067E+03  0.84047709621E+03  0.12499961652E+03 0.  0.
          2    1    1    2  501    0  0.41276981472E+03 -0.25487552471E+03 -0.17651868825E+04  0.18306351858E+04  0.00000000000E+00 0. -1.
          1    1    1    2  502    0 -0.47457681258E+02  0.42069989719E+03  0.34462126697E+03  0.54589784086E+03  0.00000000000E+00 0. -1.
         22    1    3    3    0    0 -0.19970834239E+03 -0.11477833543E+03  0.29562863058E+03  0.37477163116E+03  0.00000000000E+00 0.  1.
         22    1    3    3    0    0 -0.16560379107E+03 -0.51046037052E+02  0.43226296009E+03  0.46570546506E+03  0.00000000000E+00 0.  1.
</event>
<event>
 7    1  0.3110367E-005  0.8188660E+03  0.7818608E-02  0.1197970E+00
          2   -1    0    0  502    0  0.00000000000E+00  0.00000000000E+00  0.10348255365E+04  0.10348255365E+04  0.00000000000E+00 0. -1.
          1   -1    0    0  501    0 -0.00000000000E+00 -0.00000000000E+00 -0.14368637550E+04  0.14368637550E+04  0.00000000000E+00 0. -1.
         25    2    1    2    0    0  0.52858891483E+03  0.64009123456E+03 -0.24095486806E+03  0.87338940709E+03  0.12500711391E+03 0.  0.
          2    1    1    2  501    0  0.75546326703E+01 -0.27205656991E+02 -0.64860430723E+03  0.64921858230E+03  0.00000000000E+00 0. -1.
          1    1    1    2  502    0 -0.53614354750E+03 -0.61288557757E+03  0.48752095681E+03  0.94908130213E+03  0.00000000000E+00 0. -1.
         22    1    3    3    0    0  0.19380468431E+03  0.18804781029E+03 -0.13136455771E+03  0.30029798807E+03  0.00000000000E+00 0. -1.
         22    1    3    3    0    0  0.33478423051E+03  0.45204342428E+03 -0.10959031036E+03  0.57309141902E+03  0.00000000000E+00 0. -1.
</event>
<event>
 7    1  0.3110367E-005  0.7400252E+02  0.7818608E-02  0.1454768E+00
          2   -1    0    0  502    0  0.00000000000E+00  0.00000000000E+00  0.19205069269E+04  0.19205069269E+04  0.00000000000E+00 0. -1.
          1   -1    0    0  501    0 -0.00000000000E+00 -0.00000000000E+00 -0.13064833295E+04  0.13064833295E+04  0.00000000000E+00 0. -1.
         25    2    1    2    0    0 -0.39562644358E+02  0.21679017258E+02 -0.26723812490E+02  0.13555210971E+03  0.12500011870E+03 0.  0.
          2    1    1    2  501    0  0.71059685192E+02 -0.22783070053E+02 -0.12240759761E+04  0.12263484588E+04  0.00000000000E+00 0. -1.
          1    1    1    2  502    0 -0.31497040834E+02  0.11040527945E+01  0.18648233861E+04  0.18650896879E+04  0.00000000000E+00 0. -1.
         22    1    3    3    0    0 -0.75729755612E+02 -0.43516719119E+01  0.11651870059E+02  0.76744374448E+02  0.00000000000E+00 0.  1.
         22    1    3    3    0    0  0.36167111254E+02  0.26030689170E+02 -0.38375682549E+02  0.58807735258E+02  0.00000000000E+00 0.  1.
</event>
<event>
 7    1  0.3110367E-005  0.1552080E+03  0.7818608E-02  0.1300289E+00
          2   -1    0    0  502    0  0.00000000000E+00  0.00000000000E+00  0.14385867867E+03  0.14385867867E+03  0.00000000000E+00 0. -1.
          1   -1    0    0  501    0 -0.00000000000E+00 -0.00000000000E+00 -0.13368627602E+04  0.13368627602E+04  0.00000000000E+00 0. -1.
         25    2    1    2    0    0  0.13202627511E+03  0.85679645735E+01 -0.17724919686E+03  0.25405592800E+03  0.12499115740E+03 0.  0.
          2    1    1    2  501    0 -0.14794889674E+03 -0.59572968114E+02 -0.11083461013E+04  0.11197628744E+04  0.00000000000E+00 0. -1.
          1    1    1    2  502    0  0.15922621637E+02  0.51005003541E+02  0.92591216696E+02  0.10690263643E+03  0.00000000000E+00 0. -1.
         22    1    3    3    0    0  0.96646696085E+02  0.63016586947E+02 -0.12959408900E+03  0.17351167684E+03  0.00000000000E+00 0. -1.
         22    1    3    3    0    0  0.35379579021E+02 -0.54448622373E+02 -0.47655107856E+02  0.80544251159E+02  0.00000000000E+00 0. -1.
</event>
<event>
 7    1  0.3711962E-005  0.8837031E+02  0.7818608E-02  0.1347362E+00
          2   -1    0    0  502    0  0.00000000000E+00  0.00000000000E+00  0.15585795295E+04  0.15585795295E+04  0.00000000000E+00 0. -1.
          1   -1    0    0  501    0 -0.00000000000E+00 -0.00000000000E+00 -0.10604779525E+04  0.10604779525E+04  0.00000000000E+00 0. -1.
         25    2    1    2    0    0 -0.39051568446E+02 -0.13964818619E+03 -0.88763531160E+02  0.21102273275E+03  0.12499995348E+03 0.  0.
          2    1    1    2  501    0  0.33474766317E+02  0.51915916540E+02 -0.90824459688E+03  0.91034283110E+03  0.00000000000E+00 0. -1.
          1    1    1    2  502    0  0.55768021296E+01  0.87732269645E+02  0.14951097050E+04  0.14976919182E+04  0.00000000000E+00 0. -1.
         22    1    3    3    0    0 -0.69336547594E+02 -0.11261191522E+03 -0.10339678261E+03  0.16786868360E+03  0.00000000000E+00 0. -1.
         22    1    3    3    0    0  0.30284979148E+02 -0.27036270965E+02  0.14633251445E+02  0.43154049144E+02  0.00000000000E+00 0. -1.
</event>
<event>
 7    1  0.3110367E-005  0.9207214E+02  0.7818608E-02  0.1330482E+00
          2   -1    0    0  502    0  0.00000000000E+00  0.00000000000E+00  0.25773615480E+03  0.25773615480E+03  0.00000000000E+00 0. -1.
          1   -1    0    0  501    0 -0.00000000000E+00 -0.00000000000E+00 -0.28083871195E+03  0.28083871195E+03  0.00000000000E+00 0. -1.
         25    2    1    2    0    0  0.31468166194E+02 -0.34051630498E+02 -0.72330211378E+02  0.15167803658E+03  0.12499923311E+03 0.  0.
          2    1    1    2  501    0 -0.26004305999E+02 -0.63524599594E+02 -0.15001695201E+03  0.16497479981E+03  0.00000000000E+00 0. -1.
          1    1    1    2  502    0 -0.54638601950E+01  0.97576230092E+02  0.19924460623E+03  0.22192203036E+03  0.00000000000E+00 0. -1.
         22    1    3    3    0    0  0.74773897291E+02  0.45342445035E+01 -0.46617469565E+02  0.88231987159E+02  0.00000000000E+00 0. -1.
         22    1    3    3    0    0 -0.43305731097E+02 -0.38585875001E+02 -0.25712741813E+02  0.63446049420E+02  0.00000000000E+00 0. -1.
</event>
<event>
 7    1  0.3110367E-005  0.5343472E+03  0.7818608E-02  0.1139001E+00
          2   -1    0    0  502    0  0.00000000000E+00  0.00000000000E+00  0.52807288640E+03  0.52807288640E+03  0.00000000000E+00 0. -1.
          1   -1    0    0  501    0 -0.00000000000E+00 -0.00000000000E+00 -0.14199672225E+04  0.14199672225E+04  0.00000000000E+00 0. -1.
         25    2    1    2    0    0  0.57050289465E+03 -0.48331653176E+02 -0.42764969745E+03  0.72547818465E+03  0.12499932470E+03 0.  0.
          2    1    1    2  501    0 -0.58792305611E+02 -0.61557089197E+02 -0.65873824073E+03  0.66421523637E+03  0.00000000000E+00 0. -1.
          1    1    1    2  502    0 -0.51171058904E+03  0.10988874237E+03  0.19449360206E+03  0.55834668789E+03  0.00000000000E+00 0. -1.
         22    1    3    3    0    0  0.54112705408E+03 -0.51755553152E+02 -0.36096101155E+03  0.65252584455E+03  0.00000000000E+00 0.  1.
         22    1    3    3    0    0  0.29375840568E+02  0.34238999758E+01 -0.66688685895E+02  0.72952340103E+02  0.00000000000E+00 0.  1.
</event>
<event>
 7    1  0.3110367E-005  0.1134138E+03  0.7818608E-02  0.1260993E+00
          2   -1    0    0  502    0  0.00000000000E+00  0.00000000000E+00  0.12111672476E+03  0.12111672476E+03  0.00000000000E+00 0. -1.
          1   -1    0    0  501    0 -0.00000000000E+00 -0.00000000000E+00 -0.57857629584E+03  0.57857629584E+03  0.00000000000E+00 0. -1.
         25    2    1    2    0    0  0.45152055127E+02 -0.11938760342E+03 -0.41174239814E+03  0.44882423340E+03  0.12497712641E+03 0.  0.
          2    1    1    2  501    0 -0.10450982448E+03  0.19132883977E+02 -0.75829232719E+02  0.13053138778E+03  0.00000000000E+00 0. -1.
          1    1    1    2  502    0  0.59357769352E+02  0.10025471945E+03  0.30112059780E+02  0.12033739942E+03  0.00000000000E+00 0. -1.
         22    1    3    3    0    0  0.54113615850E+02  0.31076417296E+01 -0.99730010016E+02  0.11350777839E+03  0.00000000000E+00 0.  1.
         22    1    3    3    0    0 -0.89615607234E+01 -0.12249524515E+03 -0.31201238813E+03  0.33531645501E+03  0.00000000000E+00 0.  1.
</event>
<event>
 7    1  0.3110367E-005  0.1299221E+03  0.7818608E-02  0.1291643E+00
          2   -1    0    0  502    0  0.00000000000E+00  0.00000000000E+00  0.66410238023E+03  0.66410238023E+03  0.00000000000E+00 0. -1.
          1   -1    0    0  501    0 -0.00000000000E+00 -0.00000000000E+00 -0.56277057761E+03  0.56277057761E+03  0.00000000000E+00 0. -1.
         25    2    1    2    0    0 -0.12213034620E+03 -0.14211779485E+03  0.11405646585E+03  0.25248326383E+03  0.12500252810E+03 0.  0.
          2    1    1    2  501    0  0.26452019746E+02  0.63903815079E+02 -0.48311327712E+03  0.48803877455E+03  0.00000000000E+00 0. -1.
          1    1    1    2  502    0  0.95678326451E+02  0.78213979775E+02  0.47038861390E+03  0.48635091947E+03  0.00000000000E+00 0. -1.
         22    1    3    3    0    0 -0.42051952942E+02 -0.79912816909E+02 -0.11569641970E+02  0.91040000372E+02  0.00000000000E+00 0. -1.
         22    1    3    3    0    0 -0.80078393255E+02 -0.62204977946E+02  0.12562610782E+03  0.16144326345E+03  0.00000000000E+00 0. -1.
</event>
<event>
 7    1  0.3110367E-005  0.2022767E+03  0.7818608E-02  0.1187112E+00
          2   -1    0    0  502    0  0.00000000000E+00  0.00000000000E+00  0.26598650168E+04  0.26598650168E+04  0.00000000000E+00 0. -1.
          1   -1    0    0  501    0 -0.00000000000E+00 -0.00000000000E+00 -0.14187696401E+03  0.14187696401E+03  0.00000000000E+00 0. -1.
         25    2    1    2    0    0 -0.23499535494E+03 -0.26486942056E+02  0.18992877935E+04  0.19180310826E+04  0.12499894484E+03 0.  0.
          2    1    1    2  501    0  0.18102634937E+03 -0.90464382459E+02 -0.45261174567E+02  0.20737144833E+03  0.00000000000E+00 0. -1.
          1    1    1    2  502    0  0.53969005578E+02  0.11695132452E+03  0.66396143382E+03  0.67633944988E+03  0.00000000000E+00 0. -1.
         22    1    3    3    0    0  0.87276591270E+01  0.19244833560E+01  0.29060549936E+03  0.29074289661E+03  0.00000000000E+00 0. -1.
         22    1    3    3    0    0 -0.24372301407E+03 -0.28411425412E+02  0.16086822941E+04  0.16272881860E+04  0.00000000000E+00 0. -1.
</event>
<event>
 7    1  0.3110367E-005  0.8008748E+03  0.7818608E-02  0.1040600E+00
          2   -1    0    0  502    0  0.00000000000E+00  0.00000000000E+00  0.22112091993E+04  0.22112091993E+04  0.00000000000E+00 0. -1.
          1   -1    0    0  501    0 -0.00000000000E+00 -0.00000000000E+00 -0.19198415083E+04  0.19198415083E+04  0.00000000000E+00 0. -1.
         25    2    1    2    0    0 -0.77942342280E+03 -0.56896094657E+03  0.31666498271E+03  0.10232885096E+04  0.12500092786E+03 0.  0.
          2    1    1    2  501    0  0.15388361957E+03  0.14171639535E+03 -0.14655703091E+04  0.14804256266E+04  0.00000000000E+00 0. -1.
          1    1    1    2  502    0  0.62553980323E+03  0.42724455122E+03  0.14402730174E+04  0.16273365714E+04  0.00000000000E+00 0. -1.
         22    1    3    3    0    0 -0.96468698924E+02 -0.73724694621E+02  0.85745894429E+02  0.14864016577E+03  0.00000000000E+00 0.  1.
         22    1    3    3    0    0 -0.68295472387E+03 -0.49523625195E+03  0.23091908829E+03  0.87464834387E+03  0.00000000000E+00 0.  1.
</event>
<event>
 7    1  0.3110367E-005  0.3949820E+03  0.7818608E-02  0.1048815E+00
          2   -1    0    0  502    0  0.00000000000E+00  0.00000000000E+00  0.16785809420E+04  0.16785809420E+04  0.00000000000E+00 0. -1.
          1   -1    0    0  501    0 -0.00000000000E+00 -0.00000000000E+00 -0.42211726011E+03  0.42211726011E+03  0.00000000000E+00 0. -1.
         25    2    1    2    0    0  0.48551041946E+03  0.18206155985E+03  0.96090462687E+03  0.10990130622E+04  0.12500092034E+03 0.  0.
          2    1    1    2  501    0 -0.34427941759E+03  0.16727583889E+03  0.45321843211E+03  0.59322548062E+03  0.00000000000E+00 0. -1.
          1    1    1    2  502    0 -0.14123100187E+03 -0.34933739874E+03 -0.15765937709E+03  0.40845965924E+03  0.00000000000E+00 0. -1.
         22    1    3    3    0    0  0.49077631216E+03  0.17209761054E+03  0.95140244675E+03  0.10842719178E+04  0.00000000000E+00 0. -1.
         22    1    3    3    0    0 -0.52658926964E+01  0.99639493074E+01  0.95021801182E+01  0.14741144416E+02  0.00000000000E+00 0. -1.
</event>
<event>
 7    1  0.3110367E-005  0.1409262E+04  0.7818608E-02  0.1069307E+00
          2   -1    0    0  502    0  0.00000000000E+00  0.00000000000E+00  0.18787310122E+04  0.18787310122E+04  0.00000000000E+00 0. -1.
          1   -1    0    0  501    0 -0.00000000000E+00 -0.00000000000E+00 -0.27627946495E+04  0.27627946495E+04  0.00000000000E+00 0. -1.
         25    2    1    2    0    0 -0.28458226814E+03  0.14337596629E+04 -0.13811670088E+03  0.14735506475E+04  0.12498579716E+03 0.  0.
          2    1    1    2  501    0  0.27451079695E+02 -0.74332733366E+02 -0.15604713561E+04  0.15624819263E+04  0.00000000000E+00 0. -1.
          1    1    1    2  502    0  0.25713118844E+03 -0.13594269295E+04  0.81452441966E+03  0.16054930878E+04  0.00000000000E+00 0. -1.
         22    1    3    3    0    0 -0.19030839761E+03  0.93454672217E+03 -0.30348213806E+02  0.95420955571E+03  0.00000000000E+00 0.  1.
         22    1    3    3    0    0 -0.94273870530E+02  0.49921294074E+03 -0.10776848707E+03  0.51934109184E+03  0.00000000000E+00 0.  1.
</event>
<event>
 7    1  0.3110367E-005  0.5043573E+03  0.7818608E-02  0.1100333E+00
          2   -1    0    0  502    0  0.00000000000E+00  0.00000000000E+00  0.17545031068E+04  0.17545031068E+04  0.00000000000E+00 0. -1.
          1   -1    0    0  501    0 -0.00000000000E+00 -0.00000000000E+00 -0.26433970422E+03  0.26433970422E+03  0.00000000000E+00 0. -1.
         25    2    1    2    0    0  0.54802350095E+03 -0.20247409177E+03  0.71441242297E+03  0.93130848662E+03  0.12499948688E+03 0.  0.
          2    1    1    2  501    0 -0.40593835599E+03  0.23743581501E+03  0.23190670265E+03  0.52434953403E+03  0.00000000000E+00 0. -1.
          1    1    1    2  502    0 -0.14208514497E+03 -0.34961723236E+02  0.54384427701E+03  0.56318479041E+03  0.00000000000E+00 0. -1.
         22    1    3    3    0    0  0.95978864747E+01 -0.83705942110E+01  0.62575961347E+02  0.63858728540E+02  0.00000000000E+00 0.  1.
         22    1    3    3    0    0  0.53842561448E+03 -0.19410349756E+03  0.65183646162E+03  0.86744975808E+03  0.00000000000E+00 0.  1.
</event>
<event>
 7    1  0.3110367E-005  0.2967399E+03  0.7818608E-02  0.1117706E+00
          2   -1    0    0  502    0  0.00000000000E+00  0.00000000000E+00  0.15203057637E+04  0.15203057637E+04  0.00000000000E+00 0. -1.
          1   -1    0    0  501    0 -0.00000000000E+00 -0.00000000000E+00 -0.96815524086E+03  0.96815524086E+03  0.00000000000E+00 0. -1.
         25    2    1    2    0    0 -0.18950361318E+03  0.28527747593E+03  0.10988571945E+04  0.11577594483E+04  0.12499979438E+03 0.  0.
          2    1    1    2  501    0  0.19766927916E+03 -0.25067786192E+02 -0.88312042596E+03  0.90531940473E+03  0.00000000000E+00 0. -1.
          1    1    1    2  502    0 -0.81656659799E+01 -0.26020968974E+03  0.33641375430E+03  0.42538215150E+03  0.00000000000E+00 0. -1.
         22    1    3    3    0    0 -0.19268094724E+03  0.20425040230E+03  0.78931781757E+03  0.83777490497E+03  0.00000000000E+00 0.  1.
         22    1    3    3    0    0  0.31773340601E+01  0.81027073633E+02  0.30953937694E+03  0.31998454336E+03  0.00000000000E+00 0.  1.
</event>
<event>
 7    1  0.3110367E-005  0.5120192E+03  0.7818608E-02  0.1116501E+00
          2   -1    0    0  502    0  0.00000000000E+00  0.00000000000E+00  0.96714314821E+03  0.96714314821E+03  0.00000000000E+00 0. -1.
          1   -1    0    0  501    0 -0.00000000000E+00 -0.00000000000E+00 -0.32982562168E+04  0.32982562168E+04  0.00000000000E+00 0. -1.
         25    2    1    2    0    0 -0.33143132818E+03  0.36663570913E+03 -0.75844262688E+03  0.91385360683E+03  0.12499891176E+03 0.  0.
          2    1    1    2  501    0  0.82155562320E+02  0.83638393021E+02 -0.23860952008E+04  0.23889736760E+04  0.00000000000E+00 0. -1.
          1    1    1    2  502    0  0.24927576586E+03 -0.45027410216E+03  0.81342475915E+03  0.96257208214E+03  0.00000000000E+00 0. -1.
         22    1    3    3    0    0 -0.48939120988E+02  0.10645406044E+03 -0.11290802791E+03  0.16271363592E+03  0.00000000000E+00 0.  1.
         22    1    3    3    0    0 -0.28249220719E+03  0.26018164870E+03 -0.64553459896E+03  0.75113997091E+03  0.00000000000E+00 0.  1.
</event>
<event>
 7    1  0.3110367E-005  0.1306518E+03  0.7818608E-02  0.1309598E+00
          2   -1    0    0  502    0  0.00000000000E+00  0.00000000000E+00  0.27382845128E+04  0.27382845128E+04  0.00000000000E+00 0. -1.
          1   -1    0    0  501    0 -0.00000000000E+00 -0.00000000000E+00 -0.22547011914E+04  0.22547011914E+04  0.00000000000E+00 0. -1.
         25    2    1    2    0    0 -0.23107991597E+02 -0.13192919348E+03  0.30323828974E+03  0.35428810595E+03  0.12500924082E+03 0.  0.
          2    1    1    2  501    0 -0.34880704531E+02  0.12596764675E+03 -0.22269071041E+04  0.22307397343E+04  0.00000000000E+00 0. -1.
          1    1    1    2  502    0  0.57988696128E+02  0.59615467291E+01  0.24072521359E+04  0.24079578640E+04  0.00000000000E+00 0. -1.
         22    1    3    3    0    0 -0.12906291343E+01 -0.13218910092E+02  0.18449191827E+03  0.18496938454E+03  0.00000000000E+00 0. -1.
         22    1    3    3    0    0 -0.21817362463E+02 -0.11871028338E+03  0.11874637147E+03  0.16931872142E+03  0.00000000000E+00 0. -1.
</event>
<event>
 7    1  0.3110367E-005  0.1405977E+04  0.7818608E-02  0.1097658E+00
          2   -1    0    0  502    0  0.00000000000E+00  0.00000000000E+00  0.21943571634E+04  0.21943571634E+04  0.00000000000E+00 0. -1.
          1   -1    0    0  501    0 -0.00000000000E+00 -0.00000000000E+00 -0.12417825355E+04  0.12417825355E+04  0.00000000000E+00 0. -1.
         25    2    1    2    0    0 -0.92591202425E+03  0.10904782410E+04  0.58395098276E+02  0.14371817379E+04  0.12500195773E+03 0.  0.
          2    1    1    2  501    0  0.90124630459E+03 -0.10420511856E+04  0.30988543378E+03  0.14121418332E+04  0.00000000000E+00 0. -1.
          1    1    1    2  502    0  0.24665719660E+02 -0.48427055436E+02  0.58429409579E+03  0.58681612776E+03  0.00000000000E+00 0. -1.
         22    1    3    3    0    0 -0.10518880314E+03  0.12446983636E+03 -0.33144233130E+02  0.16630082579E+03  0.00000000000E+00 0. -1.
         22    1    3    3    0    0 -0.82072322111E+03  0.96600840468E+03  0.91539331406E+02  0.12708809121E+04  0.00000000000E+00 0. -1.
</event>
<event>
 7    1  0.3110367E-005  0.1565579E+03  0.7818608E-02  0.1225986E+00
          2   -1    0    0  502    0  0.00000000000E+00  0.00000000000E+00  0.31102870276E+03  0.31102870276E+03  0.00000000000E+00 0. -1.
          1   -1    0    0  501    0 -0.00000000000E+00 -0.00000000000E+00 -0.49013598826E+03  0.49013598826E+03  0.00000000000E+00 0. -1.
         25    2    1    2    0    0  0.90071787628E+02  0.39510696717E+02 -0.80131616158E+02  0.17810111225E+03  0.12499963279E+03 0.  0.
          2    1    1    2  501    0  0.80059552188E+02 -0.74861047939E+02 -0.32211154741E+03  0.34024925770E+03  0.00000000000E+00 0. -1.
          1    1    1    2  502    0 -0.17013133982E+03  0.35350351222E+02  0.22313587807E+03  0.28281432106E+03  0.00000000000E+00 0. -1.
         22    1    3    3    0    0  0.10165427792E+03  0.56655597258E+02 -0.24747741754E+02  0.11897856799E+03  0.00000000000E+00 0. -1.
         22    1    3    3    0    0 -0.11582490291E+02 -0.17144900541E+02 -0.55383874403E+02  0.59122544260E+02  0.00000000000E+00 0. -1.
</event>
<event>
 7    1  0.3110367E-005  0.7400795E+02  0.7818608E-02  0.1458965E+00
          2   -1    0    0  502    0  0.00000000000E+00  0.00000000000E+00  0.14353150247E+03  0.14353150247E+03  0.00000000000E+00 0. -1.
          1   -1    0    0  501    0 -0.00000000000E+00 -0.00000000000E+00 -0.78537316255E+03  0.78537316255E+03  0.00000000000E+00 0. -1.
         25    2    1    2    0    0 -0.34990889792E+02  0.39829574862E+02 -0.25243003583E+03  0.28661788341E+03  0.12497251977E+03 0.  0.
          2    1    1    2  501    0  0.70023958594E+01  0.29750600183E+02 -0.50422401513E+03  0.50514947213E+03  0.00000000000E+00 0. -1.
          1    1    1    2  502    0  0.27988493933E+02 -0.69580175044E+02  0.11481239088E+03  0.13713730948E+03  0.00000000000E+00 0. -1.
         22    1    3    3    0    0  0.28782349197E+02 -0.13826506803E+02 -0.15567901773E+03  0.15891995620E+03  0.00000000000E+00 0.  1.
         22    1    3    3    0    0 -0.63773238990E+02  0.53656081665E+02 -0.96751018100E+02  0.12769792721E+03  0.00000000000E+00 0.  1.
</event>
<event>
 7    1  0.3110367E-005  0.2971618E+02  0.7818608E-02  0.1602995E+00
          2   -1    0    0  502    0  0.00000000000E+00  0.00000000000E+00  0.16427151293E+04  0.16427151293E+04  0.00000000000E+00 0. -1.
          1   -1    0    0  501    0 -0.00000000000E+00 -0.00000000000E+00 -0.22410220035E+03  0.22410220035E+03  0.00000000000E+00 0. -1.
         25    2    1    2    0    0  0.95822296809E+01  0.15568459425E+02  0.12644512377E+04  0.12707462203E+04  0.12499931152E+03 0.  0.
          2    1    1    2  501    0 -0.29015588587E+02  0.65011451170E+01 -0.21937384128E+03  0.22137988053E+03  0.00000000000E+00 0. -1.
          1    1    1    2  502    0  0.19433358906E+02 -0.22069604542E+02  0.37353553256E+03  0.37469122884E+03  0.00000000000E+00 0. -1.
         22    1    3    3    0    0  0.13863366211E+02  0.17709221188E+01  0.12617044908E+02  0.18828672552E+02  0.00000000000E+00 0.  1.
         22    1    3    3    0    0 -0.42811365301E+01  0.13797537306E+02  0.12518341928E+04  0.12519175477E+04  0.00000000000E+00 0.  1.
</event>
<event>
 7    1  0.3110367E-005  0.1180910E+03  0.7818608E-02  0.1285001E+00
          2   -1    0    0  502    0  0.00000000000E+00  0.00000000000E+00  0.13976961140E+04  0.13976961140E+04  0.00000000000E+00 0. -1.
          1   -1    0    0  501    0 -0.00000000000E+00 -0.00000000000E+00 -0.63103616058E+03  0.63103616058E+03  0.00000000000E+00 0. -1.
         25    2    1    2    0    0  0.55467695722E+02  0.14048747689E+03  0.22158936021E+01  0.19606952333E+03  0.12499980544E+03 0.  0.
          2    1    1    2  501    0  0.39455206605E+02 -0.70727458537E+02 -0.52834581535E+03  0.53451696635E+03  0.00000000000E+00 0. -1.
          1    1    1    2  502    0 -0.94922902327E+02 -0.69760018354E+02  0.12927898752E+04  0.12981457849E+04  0.00000000000E+00 0. -1.
         22    1    3    3    0    0  0.76333647757E+02  0.15216816205E+03 -0.71423121253E+01  0.17039069207E+03  0.00000000000E+00 0. -1.
         22    1    3    3    0    0 -0.20865952036E+02 -0.11680685161E+02  0.93582057273E+01  0.25678831255E+02  0.00000000000E+00 0. -1.
</event>
<event>
 7    1  0.3110367E-005  0.2732688E+03  0.7818608E-02  0.1207310E+00
          2   -1    0    0  502    0  0.00000000000E+00  0.00000000000E+00  0.15668920688E+04  0.15668920688E+04  0.00000000000E+00 0. -1.
          1   -1    0    0  501    0 -0.00000000000E+00 -0.00000000000E+00 -0.39188398204E+03  0.39188398204E+03  0.00000000000E+00 0. -1.
         25    2    1    2    0    0 -0.18516225408E+02  0.26981445510E+03 -0.20222797226E+03  0.36008559025E+03  0.12499115473E+03 0.  0.
          2    1    1    2  501    0  0.94989377848E+02 -0.27097250069E+03  0.78462143470E+02  0.29766656848E+03  0.00000000000E+00 0. -1.
          1    1    1    2  502    0 -0.76473152440E+02  0.11580455916E+01  0.12987739156E+04  0.13010238921E+04  0.00000000000E+00 0. -1.
         22    1    3    3    0    0  0.17516783597E+02  0.16706325650E+03 -0.54568237455E+02  0.17662010621E+03  0.00000000000E+00 0.  1.
         22    1    3    3    0    0 -0.36033009004E+02  0.10275119860E+03 -0.14765973481E+03  0.18346548404E+03  0.00000000000E+00 0.  1.
</event>
<event>
 7    1  0.3110367E-005  0.1937673E+03  0.7818608E-02  0.1212365E+00
          2   -1    0    0  502    0  0.00000000000E+00  0.00000000000E+00  0.38520710258E+03  0.38520710258E+03  0.00000000000E+00 0. -1.
          1   -1    0    0  501    0 -0.00000000000E+00 -0.00000000000E+00 -0.24726491033E+03  0.24726491033E+03  0.00000000000E+00 0. -1.
         25    2    1    2    0    0  0.20704767746E+03 -0.13259063397E+03  0.17106280568E+03  0.32455584270E+03  0.12499997835E+03 0.  0.
          2    1    1    2  501    0 -0.18093259179E+03  0.33790135456E+02 -0.73284084993E+02  0.19811343503E+03  0.00000000000E+00 0. -1.
          1    1    1    2  502    0 -0.26115085668E+02  0.98800498514E+02  0.40163471554E+02  0.10980273518E+03  0.00000000000E+00 0. -1.
         22    1    3    3    0    0  0.16111664263E+02  0.13485444223E+02  0.52408634523E+02  0.56463332383E+02  0.00000000000E+00 0.  1.
         22    1    3    3    0    0  0.19093601320E+03 -0.14607607819E+03  0.11865417116E+03  0.26809251032E+03  0.00000000000E+00 0.  1.
</event>
<event>
 7    1  0.3110367E-005  0.5985498E+02  0.7818608E-02  0.1412915E+00
          2   -1    0    0  502    0  0.00000000000E+00  0.00000000000E+00  0.92226027508E+02  0.92226027508E+02  0.00000000000E+00 0. -1.
          1   -1    0    0  501    0 -0.00000000000E+00 -0.00000000000E+00 -0.10695598862E+04  0.10695598862E+04  0.00000000000E+00 0. -1.
         25    2    1    2    0    0  0.40108242722E+02 -0.98733099518E+02 -0.22286010750E+03  0.27685623537E+03  0.12500340585E+03 0.  0.
          2    1    1    2  501    0 -0.33692427262E+02  0.41460872513E+02 -0.80591285317E+03  0.80768168885E+03  0.00000000000E+00 0. -1.
          1    1    1    2  502    0 -0.64158154597E+01  0.57272227005E+02  0.51439101950E+02  0.77247989511E+02  0.00000000000E+00 0. -1.
         22    1    3    3    0    0  0.15296585210E+02 -0.43620605974E+02 -0.29016234344E+00  0.46225825886E+02  0.00000000000E+00 0. -1.
         22    1    3    3    0    0  0.24811657512E+02 -0.55112493544E+02 -0.22256994516E+03  0.23063040949E+03  0.00000000000E+00 0. -1.
</event>
<event>
 7    1  0.3110367E-005  0.7761141E+02  0.7818608E-02  0.1372875E+00
          2   -1    0    0  502    0  0.00000000000E+00  0.00000000000E+00  0.15775863128E+04  0.15775863128E+04  0.00000000000E+00 0. -1.
          1   -1    0    0  501    0 -0.00000000000E+00 -0.00000000000E+00 -0.76535235072E+02  0.76535235072E+02  0.00000000000E+00 0. -1.
         25    2    1    2    0    0  0.33402391988E+02  0.12125722684E+03  0.51167321309E+03  0.54152952292E+03  0.12500284937E+03 0.  0.
          2    1    1    2  501    0  0.39934964907E+00 -0.75654157457E+02 -0.37296985621E+02  0.84349132522E+02  0.00000000000E+00 0. -1.
          1    1    1    2  502    0 -0.33801741637E+02 -0.45603069386E+02  0.10266748503E+04  0.10282428924E+04  0.00000000000E+00 0. -1.
         22    1    3    3    0    0  0.66541752414E+02  0.66903227581E+02  0.17429996795E+03  0.19820273838E+03  0.00000000000E+00 0. -1.
         22    1    3    3    0    0 -0.33139360426E+02  0.54353999262E+02  0.33737324514E+03  0.34332678454E+03  0.00000000000E+00 0. -1.
</event>
<event>
 7    1  0.3110367E-005  0.7072258E+03  0.7818608E-02  0.1080856E+00
          2   -1    0    0  502    0  0.00000000000E+00  0.00000000000E+00  0.35959472509E+04  0.35959472509E+04  0.00000000000E+00 0. -1.
          1   -1    0    0  501    0 -0.00000000000E+00 -0.00000000000E+00 -0.24130169062E+03  0.24130169062E+03  0.00000000000E+00 0. -1.
         25    2    1    2    0    0 -0.58217769974E+03  0.42174944217E+03  0.24613912782E+04  0.25672699355E+04  0.12499772369E+03 0.  0.
          2    1    1    2  501    0  0.63999847698E+03 -0.29980944087E+03  0.53275961769E+03  0.88505172821E+03  0.00000000000E+00 0. -1.
          1    1    1    2  502    0 -0.57820777237E+02 -0.12194000129E+03  0.36049466433E+03  0.38492727782E+03  0.00000000000E+00 0. -1.
         22    1    3    3    0    0 -0.42051144702E+03  0.32441920991E+03  0.19861444911E+04  0.20559298724E+04  0.00000000000E+00 0. -1.
         22    1    3    3    0    0 -0.16166625272E+03  0.97330232255E+02  0.47524678712E+03  0.51134006302E+03  0.00000000000E+00 0. -1.
</event>
<event>
 7    1  0.3110367E-005  0.8597932E+02  0.7818608E-02  0.1428303E+00
          2   -1    0    0  502    0  0.00000000000E+00  0.00000000000E+00  0.26552080278E+04  0.26552080278E+04  0.00000000000E+00 0. -1.
          1   -1    0    0  501    0 -0.00000000000E+00 -0.00000000000E+00 -0.16584793631E+02  0.16584793631E+02  0.00000000000E+00 0. -1.
         25    2    1    2    0    0  0.16177568847E+02 -0.64701819934E+02  0.15386867893E+04  0.15451957975E+04  0.12499991095E+03 0.  0.
          2    1    1    2  501    0  0.12721331184E+02 -0.30497424112E+02  0.13631122968E+02  0.35745386526E+02  0.00000000000E+00 0. -1.
          1    1    1    2  502    0 -0.28898900031E+02  0.95199244046E+02  0.10863053219E+04  0.10908516374E+04  0.00000000000E+00 0. -1.
         22    1    3    3    0    0  0.33727490321E+01  0.22000969893E+02  0.61372184685E+02  0.65283712864E+02  0.00000000000E+00 0. -1.
         22    1    3    3    0    0  0.12804819815E+02 -0.86702789827E+02  0.14773146046E+04  0.14799120846E+04  0.00000000000E+00 0. -1.
</event>
<event>
 7    1  0.3110367E-005  0.2432025E+03  0.7818608E-02  0.1300804E+00
          2   -1    0    0  502    0  0.00000000000E+00  0.00000000000E+00  0.39934497593E+03  0.39934497593E+03  0.00000000000E+00 0. -1.
          1   -1    0    0  501    0 -0.00000000000E+00 -0.00000000000E+00 -0.13839203671E+04  0.13839203671E+04  0.00000000000E+00 0. -1.
         25    2    1    2    0    0  0.15624836010E+03  0.19780548926E+03 -0.14824163601E+03  0.31802665727E+03  0.12499924189E+03 0.  0.
          2    1    1    2  501    0  0.17144177703E+02 -0.29289902312E+02 -0.11040072977E+04  0.11045288292E+04  0.00000000000E+00 0. -1.
          1    1    1    2  502    0 -0.17339253780E+03 -0.16851558695E+03  0.26767354255E+03  0.36070985652E+03  0.00000000000E+00 0. -1.
         22    1    3    3    0    0  0.94448240974E+02  0.16782127330E+03 -0.15741797022E+03  0.24872649103E+03  0.00000000000E+00 0.  1.
         22    1    3    3    0    0  0.61800119124E+02  0.29984215962E+02  0.91763342109E+01  0.69300166235E+02  0.00000000000E+00 0.  1.
</event>
<event>
 7    1  0.3110367E-005  0.1390539E+03  0.7818608E-02  0.1309752E+00
          2   -1    0    0  502    0  0.00000000000E+00  0.00000000000E+00  0.38649836820E+04  0.38649836820E+04  0.00000000000E+00 0. -1.
          1   -1    0    0  501    0 -0.00000000000E+00 -0.00000000000E+00 -0.13974121255E+03  0.13974121255E+03  0.00000000000E+00 0. -1.
         25    2    1    2    0    0 -0.13711847217E+03  0.42954332437E+02  0.24480306181E+04  0.24554279550E+04  0.12500393944E+03 0.  0.
          2    1    1    2  501    0  0.13864527661E+03  0.11719542261E+02 -0.99780225740E+02  0.17121902303E+03  0.00000000000E+00 0. -1.
          1    1    1    2  502    0 -0.15268044396E+01 -0.54673874698E+02  0.13769920771E+04  0.13780779165E+04  0.00000000000E+00 0. -1.
         22    1    3    3    0    0 -0.11399569423E+03  0.82674090422E+02  0.16137887085E+04  0.16199209916E+04  0.00000000000E+00 0. -1.
         22    1    3    3    0    0 -0.23122777944E+02 -0.39719757985E+02  0.83424190959E+03  0.83550696331E+03  0.00000000000E+00 0. -1.
</event>
<event>
 7    1  0.3110367E-005  0.2096595E+03  0.7818608E-02  0.1280851E+00
          2   -1    0    0  502    0  0.00000000000E+00  0.00000000000E+00  0.17760352625E+04  0.17760352625E+04  0.00000000000E+00 0. -1.
          1   -1    0    0  501    0 -0.00000000000E+00 -0.00000000000E+00 -0.37223105784E+04  0.37223105784E+04  0.00000000000E+00 0. -1.
         25    2    1    2    0    0 -0.23765177849E+03  0.53649167565E+02 -0.23063749067E+03  0.35801594451E+03  0.12500065369E+03 0.  0.
          2    1    1    2  501    0  0.19462175311E+03 -0.73635753444E+02 -0.34244964787E+04  0.34308127293E+04  0.00000000000E+00 0. -1.
          1    1    1    2  502    0  0.43030025377E+02  0.19986585879E+02  0.17088586535E+04  0.17095171670E+04  0.00000000000E+00 0. -1.
         22    1    3    3    0    0 -0.18505469602E+03  0.93124665205E+02 -0.18708935317E+03  0.27914130805E+03  0.00000000000E+00 0.  1.
         22    1    3    3    0    0 -0.52597082464E+02 -0.39475497640E+02 -0.43548137506E+02  0.78874636468E+02  0.00000000000E+00 0.  1.
</event>
<event>
 7    1  0.6012691E-005  0.5554886E+02  0.7818608E-02  0.1458747E+00
          2   -1    0    0  502    0  0.00000000000E+00  0.00000000000E+00  0.63575288103E+03  0.63575288103E+03  0.00000000000E+00 0. -1.
          1   -1    0    0  501    0 -0.00000000000E+00 -0.00000000000E+00 -0.71516008132E+03  0.71516008132E+03  0.00000000000E+00 0. -1.
         25    2    1    2    0    0 -0.53040117254E+01  0.32711685232E+02 -0.12897911149E+03  0.18268052479E+03  0.12505349273E+03 0.  0.
          2    1    1    2  501    0 -0.40767140406E+02 -0.11994713495E+01 -0.55730433633E+03  0.55879470448E+03  0.00000000000E+00 0. -1.
          1    1    1    2  502    0  0.46071152132E+02 -0.31512213882E+02  0.60687624753E+03  0.60943773308E+03  0.00000000000E+00 0. -1.
         22    1    3    3    0    0  0.34192179886E+02  0.47234889222E+02 -0.13613679858E+02  0.59879647665E+02  0.00000000000E+00 0.  1.
         22    1    3    3    0    0 -0.39496191611E+02 -0.14523203991E+02 -0.11536543163E+03  0.12280087712E+03  0.00000000000E+00 0.  1.
</event>
<event>
 7    1  0.3110367E-005  0.1377070E+03  0.7818608E-02  0.1268623E+00
          2   -1    0    0  502    0  0.00000000000E+00  0.00000000000E+00  0.36403003502E+04  0.36403003502E+04  0.00000000000E+00 0. -1.
          1   -1    0    0  501    0 -0.00000000000E+00 -0.00000000000E+00 -0.29420324270E+03  0.29420324270E+03  0.00000000000E+00 0. -1.
         25    2    1    2    0    0  0.63586334944E+02  0.81508128970E+02  0.23069633091E+03  0.28201370146E+03  0.12499653449E+03 0.  0.
          2    1    1    2  501    0  0.70786622418E+02 -0.39842798554E+02 -0.26090343684E+03  0.27325592010E+03  0.00000000000E+00 0. -1.
          1    1    1    2  502    0 -0.13437295736E+03 -0.41665330416E+02  0.33763042134E+04  0.33792339713E+04  0.00000000000E+00 0. -1.
         22    1    3    3    0    0  0.28499480412E+01  0.88311162984E+02  0.79213063386E+02  0.11866630997E+03  0.00000000000E+00 0. -1.
         22    1    3    3    0    0  0.60736386902E+02 -0.68030340139E+01  0.15148326752E+03  0.16334739149E+03  0.00000000000E+00 0. -1.
</event>
<event>
 7    1  0.3110367E-005  0.1127589E+03  0.7818608E-02  0.1303591E+00
          2   -1    0    0  502    0  0.00000000000E+00  0.00000000000E+00  0.63545961089E+03  0.63545961089E+03  0.00000000000E+00 0. -1.
          1   -1    0    0  501    0 -0.00000000000E+00 -0.00000000000E+00 -0.57104472004E+02  0.57104472004E+02  0.00000000000E+00 0. -1.
         25    2    1    2    0    0  0.83881809688E+02 -0.11393027141E+03  0.37713503036E+03  0.42174541927E+03  0.12498841072E+03 0.  0.
          2    1    1    2  501    0 -0.96358730120E+02  0.43680488065E+02  0.14744234155E+03  0.18147240559E+03  0.00000000000E+00 0. -1.
          1    1    1    2  502    0  0.12476920432E+02  0.70249783344E+02  0.53777766971E+02  0.89346258029E+02  0.00000000000E+00 0. -1.
         22    1    3    3    0    0  0.72985570222E+02 -0.88981993911E+02  0.13208942907E+03  0.17519219724E+03  0.00000000000E+00 0.  1.
         22    1    3    3    0    0  0.10896239466E+02 -0.24948277498E+02  0.24504560129E+03  0.24655322204E+03  0.00000000000E+00 0.  1.
</event>
<event>
 7    1  0.3110367E-005  0.3228568E+03  0.7818608E-02  0.1088083E+00
          2   -1    0    0  502    0  0.00000000000E+00  0.00000000000E+00  0.43165590749E+03  0.43165590749E+03  0.00000000000E+00 0. -1.
          1   -1    0    0  501    0 -0.00000000000E+00 -0.00000000000E+00 -0.20294097823E+04  0.20294097823E+04  0.00000000000E+00 0. -1.
         25    2    1    2    0    0 -0.26144326017E+02  0.26086229590E+03 -0.33942697015E+03  0.44673453523E+03  0.12501365404E+03 0.  0.
          2    1    1    2  501    0 -0.24111617640E+03 -0.28576721312E+03 -0.15636874509E+04  0.16077681284E+04  0.00000000000E+00 0. -1.
          1    1    1    2  502    0  0.26726050241E+03  0.24904917222E+02  0.30536054623E+03  0.40656302616E+03  0.00000000000E+00 0. -1.
         22    1    3    3    0    0 -0.10453658762E+02  0.31923895812E+01  0.82537991727E+01  0.13696551885E+02  0.00000000000E+00 0.  1.
         22    1    3    3    0    0 -0.15690667255E+02  0.25766990632E+03 -0.34768076932E+03  0.43303798335E+03  0.00000000000E+00 0.  1.
</event>
<event>
 7    1  0.3110367E-005  0.7889103E+03  0.7818608E-02  0.1130013E+00
          2   -1    0    0  502    0  0.00000000000E+00  0.00000000000E+00  0.24790923510E+04  0.24790923510E+04  0.00000000000E+00 0. -1.
          1   -1    0    0  501    0 -0.00000000000E+00 -0.00000000000E+00 -0.11243400773E+04  0.11243400773E+04  0.00000000000E+00 0. -1.
         25    2    1    2    0    0 -0.35563353634E+02  0.83866947011E+03  0.37424468708E+03  0.92753189295E+03  0.12500037764E+03 0.  0.
          2    1    1    2  501    0  0.30376357885E+02 -0.77455357747E+03 -0.66973622324E+03  0.10244035222E+04  0.00000000000E+00 0. -1.
          1    1    1    2  502    0  0.51869957486E+01 -0.64115892639E+02  0.16502438099E+04  0.16514970132E+04  0.00000000000E+00 0. -1.
         22    1    3    3    0    0 -0.76412911271E+02  0.64080944126E+03  0.26286272282E+03  0.69683031224E+03  0.00000000000E+00 0. -1.
         22    1    3    3    0    0  0.40849557637E+02  0.19786002885E+03  0.11138196426E+03  0.23070158070E+03  0.00000000000E+00 0. -1.
</event>
<event>
 7    1  0.3110367E-005  0.2110177E+03  0.7818608E-02  0.1222430E+00
          2   -1    0    0  502    0  0.00000000000E+00  0.00000000000E+00  0.12262435900E+04  0.12262435900E+04  0.00000000000E+00 0. -1.
          1   -1    0    0  501    0 -0.00000000000E+00 -0.00000000000E+00 -0.10983563117E+04  0.10983563117E+04  0.00000000000E+00 0. -1.
         25    2    1    2    0    0  0.20863403188E+03 -0.11572021005E+03 -0.13800875185E+03  0.30263076457E+03  0.12497854938E+03 0.  0.
          2    1    1    2  501    0 -0.71876957841E+02 -0.44220011790E+02 -0.86629091865E+03  0.87039167174E+03  0.00000000000E+00 0. -1.
          1    1    1    2  502    0 -0.13675707404E+03  0.15994022183E+03  0.11321869487E+04  0.11515774654E+04  0.00000000000E+00 0. -1.
         22    1    3    3    0    0  0.49564292021E+02 -0.15749463820E+02 -0.97402248899E+02  0.11041676840E+03  0.00000000000E+00 0. -1.
         22    1    3    3    0    0  0.15906973986E+03 -0.99970746226E+02 -0.40606502951E+02  0.19221399617E+03  0.00000000000E+00 0. -1.
</event>
<event>
 7    1  0.3110367E-005  0.2579402E+03  0.7818608E-02  0.1128524E+00
          2   -1    0    0  502    0  0.00000000000E+00  0.00000000000E+00  0.80953077021E+03  0.80953077021E+03  0.00000000000E+00 0. -1.
          1   -1    0    0  501    0 -0.00000000000E+00 -0.00000000000E+00 -0.27857557981E+04  0.27857557981E+04  0.00000000000E+00 0. -1.
         25    2    1    2    0    0  0.16728003241E+03 -0.38105201867E+03 -0.13692321795E+03  0.45558343106E+03  0.12500017943E+03 0.  0.
          2    1    1    2  501    0 -0.17624667588E+03  0.18087851788E+03 -0.24674651828E+04  0.24803556916E+04  0.00000000000E+00 0. -1.
          1    1    1    2  502    0  0.89666434714E+01  0.20017350079E+03  0.62816337280E+03  0.65934744562E+03  0.00000000000E+00 0. -1.
         22    1    3    3    0    0  0.60601206475E+01  0.22398118772E+01 -0.23787607447E+02  0.24649383108E+02  0.00000000000E+00 0. -1.
         22    1    3    3    0    0  0.16121991177E+03 -0.38329183055E+03 -0.11313561050E+03  0.43093404795E+03  0.00000000000E+00 0. -1.
</event>
<event>
 7    1  0.3110367E-005  0.5196566E+02  0.7818608E-02  0.1467216E+00
          2   -1    0    0  502    0  0.00000000000E+00  0.00000000000E+00  0.55137164180E+03  0.55137164180E+03  0.00000000000E+00 0. -1.
          1   -1    0    0  501    0 -0.00000000000E+00 -0.00000000000E+00 -0.54915337720E+03  0.54915337720E+03  0.00000000000E+00 0. -1.
         25    2    1    2    0    0 -0.26404703194E+02 -0.88123688200E+02 -0.15847567595E+02  0.15600776642E+03  0.12499714002E+03 0.  0.
          2    1    1    2  501    0  0.11984367431E+02  0.49736479894E+02 -0.46093445110E+03  0.46376493044E+03  0.00000000000E+00 0. -1.
          1    1    1    2  502    0  0.14420335763E+02  0.38387208306E+02  0.47900028329E+03  0.48075232213E+03  0.00000000000E+00 0. -1.
         22    1    3    3    0    0  0.12169410677E+02 -0.15213711129E+02 -0.59553220198E+02  0.62658898797E+02  0.00000000000E+00 0.  1.
         22    1    3    3    0    0 -0.38574113871E+02 -0.72909977071E+02  0.43705652603E+02  0.93348867625E+02  0.00000000000E+00 0.  1.
</event>
<event>
 7    1  0.3110367E-005  0.6860222E+03  0.7818608E-02  0.1132836E+00
          2   -1    0    0  502    0  0.00000000000E+00  0.00000000000E+00  0.20187111567E+04  0.20187111567E+04  0.00000000000E+00 0. -1.
          1   -1    0    0  501    0 -0.00000000000E+00 -0.00000000000E+00 -0.63566153759E+03  0.63566153759E+03  0.00000000000E+00 0. -1.
         25    2    1    2    0    0  0.29636743474E+03  0.67099917518E+03  0.14397383744E+04  0.16206642234E+04  0.12502955254E+03 0.  0.
          2    1    1    2  501    0 -0.31520292718E+03 -0.60206678075E+03 -0.32696091424E+03  0.75414901261E+03  0.00000000000E+00 0. -1.
          1    1    1    2  502    0  0.18835492442E+02 -0.68932394431E+02  0.27027215899E+03  0.27955945826E+03  0.00000000000E+00 0. -1.
         22    1    3    3    0    0  0.24960968552E+03  0.61948507305E+03  0.12291815063E+04  0.13989116935E+04  0.00000000000E+00 0.  1.
         22    1    3    3    0    0  0.46757749217E+02  0.51514102134E+02  0.21055686809E+03  0.22175252993E+03  0.00000000000E+00 0.  1.
</event>
<event>
 7    1  0.3110367E-005  0.1934008E+03  0.7818608E-02  0.1340677E+00
          2   -1    0    0  502    0  0.00000000000E+00  0.00000000000E+00  0.53912655183E+03  0.53912655183E+03  0.00000000000E+00 0. -1.
          1   -1    0    0  501    0 -0.00000000000E+00 -0.00000000000E+00 -0.15579193719E+04  0.15579193719E+04  0.00000000000E+00 0. -1.
         25    2    1    2    0    0 -0.18342141528E+03 -0.93507952349E+02 -0.76874311240E+02  0.25282979892E+03  0.12500437895E+03 0.  0.
          2    1    1    2  501    0  0.15828867966E+03  0.10970102790E+03 -0.13859060565E+04  0.13992230770E+04  0.00000000000E+00 0. -1.
          1    1    1    2  502    0  0.25132735618E+02 -0.16193075551E+02  0.44398754771E+03  0.44499304783E+03  0.00000000000E+00 0. -1.
         22    1    3    3    0    0 -0.19911768847E+03 -0.99886841209E+02 -0.64720302944E+02  0.23197834494E+03  0.00000000000E+00 0. -1.
         22    1    3    3    0    0  0.15696273193E+02  0.63788888596E+01 -0.12154008296E+02  0.20851453976E+02  0.00000000000E+00 0. -1.
</event>
<event>
 7    1  0.3110367E-005  0.2151259E+03  0.7818608E-02  0.1153706E+00
          2   -1    0    0  502    0  0.00000000000E+00  0.00000000000E+00  0.86230084482E+03  0.86230084482E+03  0.00000000000E+00 0. -1.
          1   -1    0    0  501    0 -0.00000000000E+00 -0.00000000000E+00 -0.61817828414E+03  0.61817828414E+03  0.00000000000E+00 0. -1.
         25    2    1    2    0    0 -0.30699055636E+03  0.61512011038E+02  0.57173670964E+03  0.66372823549E+03  0.12500150494E+03 0.  0.
          2    1    1    2  501    0  0.19835167945E+03  0.78766321319E+02 -0.51574103929E+03  0.55815440670E+03  0.00000000000E+00 0. -1.
          1    1    1    2  502    0  0.10863887691E+03 -0.14027833236E+03  0.18812689032E+03  0.25859648677E+03  0.00000000000E+00 0. -1.
         22    1    3    3    0    0 -0.37216764354E+02 -0.33594275916E+02  0.68693231223E+02  0.85043653138E+02  0.00000000000E+00 0. -1.
         22    1    3    3    0    0 -0.26977379201E+03  0.95106286954E+02  0.50304347842E+03  0.57868458235E+03  0.00000000000E+00 0. -1.
</event>
<event>
 7    1  0.3110367E-005  0.2167696E+03  0.7818608E-02  0.1203175E+00
          2   -1    0    0  502    0  0.00000000000E+00  0.00000000000E+00  0.55877661444E+03  0.55877661444E+03  0.00000000000E+00 0. -1.
          1   -1    0    0  501    0 -0.00000000000E+00 -0.00000000000E+00 -0.90836327368E+03  0.90836327368E+03  0.00000000000E+00 0. -1.
         25    2    1    2    0    0  0.65735296008E+02  0.13195892587E+03  0.43909363488E+02  0.19821034323E+03  0.12500008282E+03 0.  0.
          2    1    1    2  501    0 -0.27127290864E+02 -0.22507657884E+03 -0.80962436635E+03  0.84076570507E+03  0.00000000000E+00 0. -1.
          1    1    1    2  502    0 -0.38608005144E+02  0.93117652965E+02  0.41612834362E+03  0.42816383981E+03  0.00000000000E+00 0. -1.
         22    1    3    3    0    0  0.93558329528E-01  0.34250638987E+02  0.69742093024E+02  0.77698613653E+02  0.00000000000E+00 0.  1.
         22    1    3    3    0    0  0.65641737678E+02  0.97708286885E+02 -0.25832729536E+02  0.12051172958E+03  0.00000000000E+00 0.  1.
</event>
<event>
 7    1  0.3110367E-005  0.9524963E+02  0.7818608E-02  0.1308568E+00
          2   -1    0    0  502    0  0.00000000000E+00  0.00000000000E+00  0.79353320946E+03  0.79353320946E+03  0.00000000000E+00 0. -1.
          1   -1    0    0  501    0 -0.00000000000E+00 -0.00000000000E+00 -0.10284191784E+04  0.10284191784E+04  0.00000000000E+00 0. -1.
         25    2    1    2    0    0  0.13008342241E+03  0.28441585848E+02 -0.40839527904E+03  0.44737427110E+03  0.12500565552E+03 0.  0.
          2    1    1    2  501    0 -0.60586438162E+02 -0.69486330793E+02 -0.59487003509E+03  0.60197128279E+03  0.00000000000E+00 0. -1.
          1    1    1    2  502    0 -0.69496984253E+02  0.41044744945E+02  0.76837934514E+03  0.77260683401E+03  0.00000000000E+00 0. -1.
         22    1    3    3    0    0  0.41329583302E+01 -0.68502246676E+01  0.77608342376E+01  0.11146186371E+02  0.00000000000E+00 0.  1.
         22    1    3    3    0    0  0.12595046408E+03  0.35291810516E+02 -0.41615611328E+03  0.43622808473E+03  0.00000000000E+00 0.  1.
</event>
<event>
 7    1  0.3110367E-005  0.1355590E+03  0.7818608E-02  0.1255277E+00
          2   -1    0    0  502    0  0.00000000000E+00  0.00000000000E+00  0.18189674318E+03  0.18189674318E+03  0.00000000000E+00 0. -1.
          1   -1    0    0  501    0 -0.00000000000E+00 -0.00000000000E+00 -0.90703758718E+03  0.90703758718E+03  0.00000000000E+00 0. -1.
         25    2    1    2    0    0  0.58734938481E+02 -0.10691273654E+03 -0.57014474288E+03  0.59629676766E+03  0.12499872424E+03 0.  0.
          2    1    1    2  501    0 -0.90008765679E+02 -0.27247911483E+02 -0.28689592811E+03  0.30191604817E+03  0.00000000000E+00 0. -1.
          1    1    1    2  502    0  0.31273827198E+02  0.13416064802E+03  0.13189982699E+03  0.19072151453E+03  0.00000000000E+00 0. -1.
         22    1    3    3    0    0  0.76899086790E+02 -0.93948669181E+02 -0.55766625582E+03  0.57072889787E+03  0.00000000000E+00 0.  1.
         22    1    3    3    0    0 -0.18164148309E+02 -0.12964067359E+02 -0.12478487061E+02  0.25567869790E+02  0.00000000000E+00 0.  1.
</event>
<event>
 7    1  0.3110367E-005  0.2154026E+03  0.7818608E-02  0.1158977E+00
          2   -1    0    0  502    0  0.00000000000E+00  0.00000000000E+00  0.15586382117E+04  0.15586382117E+04  0.00000000000E+00 0. -1.
          1   -1    0    0  501    0 -0.00000000000E+00 -0.00000000000E+00 -0.38590536072E+03  0.38590536072E+03  0.00000000000E+00 0. -1.
         25    2    1    2    0    0 -0.10387317539E+03 -0.12955180329E+02  0.54375885933E+03  0.56767551562E+03  0.12499728265E+03 0.  0.
          2    1    1    2  501    0  0.13881982931E+03  0.17583589237E+03 -0.33257623900E+03  0.40099396604E+03  0.00000000000E+00 0. -1.
          1    1    1    2  502    0 -0.34946653922E+02 -0.16288071204E+03  0.96155023066E+03  0.97587409078E+03  0.00000000000E+00 0. -1.
         22    1    3    3    0    0  0.14846569537E+02 -0.17180778039E+02  0.18907843433E+02  0.29548372279E+02  0.00000000000E+00 0.  1.
         22    1    3    3    0    0 -0.11871974492E+03  0.42255977103E+01  0.52485101590E+03  0.53812714334E+03  0.00000000000E+00 0.  1.
</event>
<event>
 7    1  0.3110367E-005  0.9482838E+03  0.7818608E-02  0.1126121E+00
          2   -1    0    0  502    0  0.00000000000E+00  0.00000000000E+00  0.12311722160E+04  0.12311722160E+04  0.00000000000E+00 0. -1.
          1   -1    0    0  501    0 -0.00000000000E+00 -0.00000000000E+00 -0.11401464102E+04  0.11401464102E+04  0.00000000000E+00 0. -1.
         25    2    1    2    0    0  0.44879024614E+03 -0.85488140412E+03 -0.51144493047E+03  0.10997428934E+04  0.12499445801E+03 0.  0.
          2    1    1    2  501    0 -0.43743801530E+03  0.79989757157E+03  0.29383694329E+03  0.95787697095E+03  0.00000000000E+00 0. -1.
          1    1    1    2  502    0 -0.11352230843E+02  0.54983832555E+02  0.30863379296E+03  0.31369876179E+03  0.00000000000E+00 0. -1.
         22    1    3    3    0    0  0.14385789941E+03 -0.39606284908E+03 -0.24983282039E+03  0.48987479399E+03  0.00000000000E+00 0.  1.
         22    1    3    3    0    0  0.30493234674E+03 -0.45881855505E+03 -0.26161211008E+03  0.60986809941E+03  0.00000000000E+00 0.  1.
</event>
<event>
 7    1  0.3110367E-005  0.8055745E+02  0.7818608E-02  0.1429314E+00
          2   -1    0    0  502    0  0.00000000000E+00  0.00000000000E+00  0.10998425048E+04  0.10998425048E+04  0.00000000000E+00 0. -1.
          1   -1    0    0  501    0 -0.00000000000E+00 -0.00000000000E+00 -0.24153208102E+02  0.24153208102E+02  0.00000000000E+00 0. -1.
         25    2    1    2    0    0  0.22002443947E+02  0.10133074465E+03  0.37874126375E+03  0.41209465839E+03  0.12500014102E+03 0.  0.
          2    1    1    2  501    0  0.13612988512E+02 -0.32242639822E+02  0.54512677339E+02  0.64780655056E+02  0.00000000000E+00 0. -1.
          1    1    1    2  502    0 -0.35615432458E+02 -0.69088104825E+02  0.64243535557E+03  0.64712039941E+03  0.00000000000E+00 0. -1.
         22    1    3    3    0    0 -0.15052384593E+02  0.99066366289E+02  0.35293095977E+03  0.36688006430E+03  0.00000000000E+00 0. -1.
         22    1    3    3    0    0  0.37054828540E+02  0.22643783574E+01  0.25810303978E+02  0.45214594092E+02  0.00000000000E+00 0. -1.
</event>
<event>
 7    1  0.3110367E-005  0.1695708E+03  0.7818608E-02  0.1218177E+00
          2   -1    0    0  502    0  0.00000000000E+00  0.00000000000E+00  0.91633402473E+03  0.91633402473E+03  0.00000000000E+00 0. -1.
          1   -1    0    0  501    0 -0.00000000000E+00 -0.00000000000E+00 -0.11474301853E+03  0.11474301853E+03  0.00000000000E+00 0. -1.
         25    2    1    2    0    0  0.14349444936E+03  0.12726265402E+03  0.12980987852E+03  0.26318258059E+03  0.12501210366E+03 0.  0.
          2    1    1    2  501    0 -0.16494024130E+03 -0.19566499124E+02  0.11903561738E+03  0.20434678684E+03  0.00000000000E+00 0. -1.
          1    1    1    2  502    0  0.21445791941E+02 -0.10769615489E+03  0.55274551030E+03  0.56354767583E+03  0.00000000000E+00 0. -1.
         22    1    3    3    0    0  0.16042230420E+03  0.93252352698E+02  0.12746686080E+03  0.22512022915E+03  0.00000000000E+00 0.  1.
         22    1    3    3    0    0 -0.16927854846E+02  0.34010301319E+02  0.23430177256E+01  0.38062351445E+02  0.00000000000E+00 0.  1.
</event>
<event>
 7    1  0.3110367E-005  0.1837827E+03  0.7818608E-02  0.1265732E+00
          2   -1    0    0  502    0  0.00000000000E+00  0.00000000000E+00  0.39970584686E+04  0.39970584686E+04  0.00000000000E+00 0. -1.
          1   -1    0    0  501    0 -0.00000000000E+00 -0.00000000000E+00 -0.48935919516E+03  0.48935919516E+03  0.00000000000E+00 0. -1.
         25    2    1    2    0    0  0.18715457665E+03  0.24026679053E+02  0.12862744253E+04  0.13060361681E+04  0.12499783344E+03 0.  0.
          2    1    1    2  501    0 -0.63828894295E+01 -0.62271921487E+02 -0.47425907054E+03  0.47837244849E+03  0.00000000000E+00 0. -1.
          1    1    1    2  502    0 -0.18077168722E+03  0.38245242434E+02  0.26956839187E+04  0.27020090472E+04  0.00000000000E+00 0. -1.
         22    1    3    3    0    0  0.20575656763E+03  0.26697843279E+02  0.11706318037E+04  0.11888765116E+04  0.00000000000E+00 0.  1.
         22    1    3    3    0    0 -0.18601990986E+02 -0.26711642259E+01  0.11564262156E+03  0.11715965648E+03  0.00000000000E+00 0.  1.
</event>
<event>
 7    1  0.3110367E-005  0.2099004E+03  0.7818608E-02  0.1173970E+00
          2   -1    0    0  502    0  0.00000000000E+00  0.00000000000E+00  0.23429301922E+04  0.23429301922E+04  0.00000000000E+00 0. -1.
          1   -1    0    0  501    0 -0.00000000000E+00 -0.00000000000E+00 -0.20305078268E+03  0.20305078268E+03  0.00000000000E+00 0. -1.
         25    2    1    2    0    0 -0.26052653882E+03  0.47369563827E+02  0.16455764860E+03  0.33589048844E+03  0.12500099002E+03 0.  0.
          2    1    1    2  501    0  0.10783394515E+03  0.95227218354E+02 -0.65876586833E+02  0.15822802386E+03  0.00000000000E+00 0. -1.
          1    1    1    2  502    0  0.15269259367E+03 -0.14259678218E+03  0.20411983478E+04  0.20518624626E+04  0.00000000000E+00 0. -1.
         22    1    3    3    0    0 -0.26123263647E+03  0.69760893420E+02  0.15323173544E+03  0.31078776899E+03  0.00000000000E+00 0. -1.
         22    1    3    3    0    0  0.70609765415E+00 -0.22391329593E+02  0.11325913162E+02  0.25102719450E+02  0.00000000000E+00 0. -1.
</event>
<event>
 7    1  0.3110367E-005  0.2318069E+03  0.7818608E-02  0.1204420E+00
          2   -1    0    0  502    0  0.00000000000E+00  0.00000000000E+00  0.45313269791E+03  0.45313269791E+03  0.00000000000E+00 0. -1.
          1   -1    0    0  501    0 -0.00000000000E+00 -0.00000000000E+00 -0.13610625913E+04  0.13610625913E+04  0.00000000000E+00 0. -1.
         25    2    1    2    0    0  0.72217013349E+02 -0.18323927768E+03  0.17403305081E+03  0.29103949702E+03  0.12499822460E+03 0.  0.
          2    1    1    2  501    0  0.17517295921E+02 -0.91343129811E+02 -0.12054230979E+04  0.12090059007E+04  0.00000000000E+00 0. -1.
          1    1    1    2  502    0 -0.89734309270E+02  0.27458240749E+03  0.12346015370E+03  0.31414989148E+03  0.00000000000E+00 0. -1.
         22    1    3    3    0    0  0.81437588608E+02 -0.52964364364E+02  0.43669548336E+02  0.10650978445E+03  0.00000000000E+00 0. -1.
         22    1    3    3    0    0 -0.92205752592E+01 -0.13027491332E+03  0.13036350247E+03  0.18452971258E+03  0.00000000000E+00 0. -1.
</event>
<event>
 7    1  0.3110367E-005  0.6075190E+02  0.7818608E-02  0.1511841E+00
          2   -1    0    0  502    0  0.00000000000E+00  0.00000000000E+00  0.40290325267E+02  0.40290325267E+02  0.00000000000E+00 0. -1.
          1   -1    0    0  501    0 -0.00000000000E+00 -0.00000000000E+00 -0.14641901729E+04  0.14641901729E+04  0.00000000000E+00 0. -1.
         25    2    1    2    0    0  0.12714941267E+02 -0.81366026997E+02 -0.18712540993E+03  0.23962488103E+03  0.12498825739E+03 0.  0.
          2    1    1    2  501    0 -0.20067645785E+02  0.56743802837E+02 -0.12376804451E+04  0.12391430320E+04  0.00000000000E+00 0. -1.
          1    1    1    2  502    0  0.73527045173E+01  0.24622224160E+02  0.90600737610E+00  0.25712585161E+02  0.00000000000E+00 0. -1.
         22    1    3    3    0    0 -0.51336578353E+02 -0.50536402038E+02 -0.12920730953E+03  0.14793208254E+03  0.00000000000E+00 0. -1.
         22    1    3    3    0    0  0.64051519620E+02 -0.30829624959E+02 -0.57918100398E+02  0.91692798487E+02  0.00000000000E+00 0. -1.
</event>
<event>
 7    1  0.3110367E-005  0.1980013E+03  0.7818608E-02  0.1257559E+00
          2   -1    0    0  502    0  0.00000000000E+00  0.00000000000E+00  0.22871883548E+03  0.22871883548E+03  0.00000000000E+00 0. -1.
          1   -1    0    0  501    0 -0.00000000000E+00 -0.00000000000E+00 -0.51196174839E+03  0.51196174839E+03  0.00000000000E+00 0. -1.
         25    2    1    2    0    0 -0.16124903360E+03  0.93478981780E+02  0.49299072901E+02  0.22977046005E+03  0.12499797938E+03 0.  0.
          2    1    1    2  501    0  0.19713414840E+03 -0.41760261305E+02 -0.38130977457E+03  0.43128057697E+03  0.00000000000E+00 0. -1.
          1    1    1    2  502    0 -0.35885114791E+02 -0.51718720475E+02  0.48767788755E+02  0.79629546848E+02  0.00000000000E+00 0. -1.
         22    1    3    3    0    0 -0.12217393317E+03  0.69780235137E+02 -0.24649323609E+02  0.14284026154E+03  0.00000000000E+00 0. -1.
         22    1    3    3    0    0 -0.39075100434E+02  0.23698746643E+02  0.73948396511E+02  0.86930198510E+02  0.00000000000E+00 0. -1.
</event>
<event>
 7    1  0.3110367E-005  0.1439265E+03  0.7818608E-02  0.1290732E+00
          2   -1    0    0  502    0  0.00000000000E+00  0.00000000000E+00  0.10946453977E+04  0.10946453977E+04  0.00000000000E+00 0. -1.
          1   -1    0    0  501    0 -0.00000000000E+00 -0.00000000000E+00 -0.12379956749E+04  0.12379956749E+04  0.00000000000E+00 0. -1.
         25    2    1    2    0    0 -0.29875557918E+02  0.10057112250E+03 -0.40863745149E+02  0.16823393696E+03  0.12500284891E+03 0.  0.
          2    1    1    2  501    0 -0.12845230016E+02 -0.14682808870E+03 -0.11276853610E+04  0.11372764664E+04  0.00000000000E+00 0. -1.
          1    1    1    2  502    0  0.42720787934E+02  0.46256966202E+02  0.10251988290E+04  0.10271306692E+04  0.00000000000E+00 0. -1.
         22    1    3    3    0    0  0.49184753534E+02  0.41918435656E+02 -0.19487395359E+02  0.67498546695E+02  0.00000000000E+00 0.  1.
         22    1    3    3    0    0 -0.79060311452E+02  0.58652686842E+02 -0.21376349790E+02  0.10073539026E+03  0.00000000000E+00 0.  1.
</event>
<event>
 7    1  0.3110367E-005  0.8560984E+02  0.7818608E-02  0.1406951E+00
          2   -1    0    0  502    0  0.00000000000E+00  0.00000000000E+00  0.22050253127E+03  0.22050253127E+03  0.00000000000E+00 0. -1.
          1   -1    0    0  501    0 -0.00000000000E+00 -0.00000000000E+00 -0.16522107026E+03  0.16522107026E+03  0.00000000000E+00 0. -1.
         25    2    1    2    0    0 -0.11805771547E+03 -0.26367586250E+02 -0.50891115268E+02  0.18124379576E+03  0.12500613625E+03 0.  0.
          2    1    1    2  501    0  0.37233019673E+02  0.12041195229E+02 -0.27351219850E+02  0.47742825260E+02  0.00000000000E+00 0. -1.
          1    1    1    2  502    0  0.80824695798E+02  0.14326391021E+02  0.13352379613E+03  0.15673698052E+03  0.00000000000E+00 0. -1.
         22    1    3    3    0    0 -0.82978299869E+02  0.14256621186E+02 -0.83387132260E+02  0.11849921233E+03  0.00000000000E+00 0.  1.
         22    1    3    3    0    0 -0.35079415602E+02 -0.40624207436E+02  0.32496016993E+02  0.62744583425E+02  0.00000000000E+00 0.  1.
</event>
<event>
 7    1  0.3110367E-005  0.7244833E+02  0.7818608E-02  0.1380355E+00
          2   -1    0    0  502    0  0.00000000000E+00  0.00000000000E+00  0.17109969290E+03  0.17109969290E+03  0.00000000000E+00 0. -1.
          1   -1    0    0  501    0 -0.00000000000E+00 -0.00000000000E+00 -0.93229561342E+03  0.93229561342E+03  0.00000000000E+00 0. -1.
         25    2    1    2    0    0  0.58326035124E+02 -0.34765766356E+02 -0.44150844971E+02  0.14894685498E+03  0.12500113445E+03 0.  0.
          2    1    1    2  501    0 -0.70122491316E+02 -0.21197738657E+02 -0.82714341110E+03  0.83038107543E+03  0.00000000000E+00 0. -1.
          1    1    1    2  502    0  0.11796456191E+02  0.55963505013E+02  0.11009833556E+03  0.12406737591E+03  0.00000000000E+00 0. -1.
         22    1    3    3    0    0 -0.12532529790E+02 -0.70633938435E+01  0.35799545141E+02  0.38581903372E+02  0.00000000000E+00 0.  1.
         22    1    3    3    0    0  0.70858564914E+02 -0.27702372513E+02 -0.79950390111E+02  0.11036495161E+03  0.00000000000E+00 0.  1.
</event>
<event>
 7    1  0.3110367E-005  0.4909445E+03  0.7818608E-02  0.1020456E+00
          2   -1    0    0  502    0  0.00000000000E+00  0.00000000000E+00  0.13553825143E+04  0.13553825143E+04  0.00000000000E+00 0. -1.
          1   -1    0    0  501    0 -0.00000000000E+00 -0.00000000000E+00 -0.12177293918E+04  0.12177293918E+04  0.00000000000E+00 0. -1.
         25    2    1    2    0    0  0.49548778407E+03  0.11592756989E+03  0.90441895817E+03  0.10452494108E+04  0.12500133303E+03 0.  0.
          2    1    1    2  501    0 -0.13698455014E+03 -0.47144644078E+03 -0.88250525946E+03  0.10098722922E+04  0.00000000000E+00 0. -1.
          1    1    1    2  502    0 -0.35850323393E+03  0.35551887089E+03  0.11573942385E+03  0.51799020312E+03  0.00000000000E+00 0. -1.
         22    1    3    3    0    0  0.19534377231E+02  0.14326030853E+02  0.11768391059E+03  0.12015127908E+03  0.00000000000E+00 0. -1.
         22    1    3    3    0    0  0.47595340684E+03  0.10160153904E+03  0.78673504758E+03  0.92509813172E+03  0.00000000000E+00 0. -1.
</event>
<event>
 7    1  0.3110367E-005  0.8171523E+03  0.7818608E-02  0.1103684E+00
          2   -1    0    0  502    0  0.00000000000E+00  0.00000000000E+00  0.73024074778E+03  0.73024074778E+03  0.00000000000E+00 0. -1.
          1   -1    0    0  501    0 -0.00000000000E+00 -0.00000000000E+00 -0.15384694369E+04  0.15384694369E+04  0.00000000000E+00 0. -1.
         25    2    1    2    0    0 -0.13084567085E+02 -0.80678826453E+03  0.18878552525E+03  0.83805969461E+03  0.12500226998E+03 0.  0.
          2    1    1    2  501    0 -0.73376894881E+02 -0.45776752097E+02  0.31394205715E+02  0.92006933910E+02  0.00000000000E+00 0. -1.
          1    1    1    2  502    0  0.86461461966E+02  0.85256501663E+03 -0.10284084201E+04  0.13386435562E+04  0.00000000000E+00 0. -1.
         22    1    3    3    0    0  0.41149312933E+02 -0.36547735916E+03  0.43790318285E+02  0.37038433820E+03  0.00000000000E+00 0. -1.
         22    1    3    3    0    0 -0.54233880017E+02 -0.44131090538E+03  0.14499520696E+03  0.46767535640E+03  0.00000000000E+00 0. -1.
</event>
<event>
 7    1  0.3110367E-005  0.1386202E+03  0.7818608E-02  0.1337442E+00
          2   -1    0    0  502    0  0.00000000000E+00  0.00000000000E+00  0.10083748438E+04  0.10083748438E+04  0.00000000000E+00 0. -1.
          1   -1    0    0  501    0 -0.00000000000E+00 -0.00000000000E+00 -0.32844159609E+03  0.32844159609E+03  0.00000000000E+00 0. -1.
         25    2    1    2    0    0  0.48516234133E+02 -0.14654245479E+03  0.75470535583E+02  0.21248418509E+03  0.12500084456E+03 0.  0.
          2    1    1    2  501    0 -0.41961942704E+02  0.89235083688E+01 -0.25262496485E+03  0.25624169548E+03  0.00000000000E+00 0. -1.
          1    1    1    2  502    0 -0.65542914297E+01  0.13761894642E+03  0.85708767695E+03  0.86809055929E+03  0.00000000000E+00 0. -1.
         22    1    3    3    0    0  0.91170443936E+02 -0.94019957727E+02  0.49133908040E+02  0.13987831575E+03  0.00000000000E+00 0. -1.
         22    1    3    3    0    0 -0.42654209803E+02 -0.52522497061E+02  0.26336627542E+02  0.72605869334E+02  0.00000000000E+00 0. -1.
</event>
<event>
 7    1  0.3110367E-005  0.4237692E+03  0.7818608E-02  0.1060855E+00
          2   -1    0    0  502    0  0.00000000000E+00  0.00000000000E+00  0.30291871152E+04  0.30291871152E+04  0.00000000000E+00 0. -1.
          1   -1    0    0  501    0 -0.00000000000E+00 -0.00000000000E+00 -0.14753717554E+03  0.14753717554E+03  0.00000000000E+00 0. -1.
         25    2    1    2    0    0  0.42739027504E+03  0.84340626236E+02  0.60267369510E+03  0.75406645196E+03  0.12499937110E+03 0.  0.
          2    1    1    2  501    0 -0.33991847912E+02 -0.29430008487E+03  0.44036328700E+03  0.53074269681E+03  0.00000000000E+00 0. -1.
          1    1    1    2  502    0 -0.39339842713E+03  0.20995945863E+03  0.18386129576E+04  0.18919151420E+04  0.00000000000E+00 0. -1.
         22    1    3    3    0    0  0.25095919142E+03 -0.13435986435E+02  0.34485899624E+03  0.42671860609E+03  0.00000000000E+00 0. -1.
         22    1    3    3    0    0  0.17643108362E+03  0.97776612671E+02  0.25781469886E+03  0.32734784587E+03  0.00000000000E+00 0. -1.
</event>
<event>
 7    1  0.3110367E-005  0.1798855E+03  0.7818608E-02  0.1324882E+00
          2   -1    0    0  502    0  0.00000000000E+00  0.00000000000E+00  0.14909934070E+03  0.14909934070E+03  0.00000000000E+00 0. -1.
          1   -1    0    0  501    0 -0.00000000000E+00 -0.00000000000E+00 -0.34647753412E+03  0.34647753412E+03  0.00000000000E+00 0. -1.
         25    2    1    2    0    0  0.51972024565E+02 -0.18726390559E+03 -0.45069089313E+02  0.23541173967E+03  0.12497440813E+03 0.  0.
          2    1    1    2  501    0 -0.17895014373E+02  0.17307362128E+03 -0.12668316019E+03  0.21522855990E+03  0.00000000000E+00 0. -1.
          1    1    1    2  502    0 -0.34077010192E+02  0.14190284309E+02 -0.25625943923E+02  0.44936575241E+02  0.00000000000E+00 0. -1.
         22    1    3    3    0    0 -0.56358254009E+01 -0.38744192696E+01  0.28710775897E+02  0.29514103497E+02  0.00000000000E+00 0.  1.
         22    1    3    3    0    0  0.57607849966E+02 -0.18338948632E+03 -0.73779865210E+02  0.20589763617E+03  0.00000000000E+00 0.  1.
</event>
<event>
 7    1  0.3110367E-005  0.6753000E+02  0.7818608E-02  0.1427134E+00
          2   -1    0    0  502    0  0.00000000000E+00  0.00000000000E+00  0.14433978788E+02  0.14433978788E+02  0.00000000000E+00 0. -1.
          1   -1    0    0  501    0 -0.00000000000E+00 -0.00000000000E+00 -0.34679931502E+04  0.34679931502E+04  0.00000000000E+00 0. -1.
         25    2    1    2    0    0  0.61403449461E+02 -0.51018125498E+02 -0.56164775547E+03  0.58090216441E+03  0.12500356260E+03 0.  0.
          2    1    1    2  501    0 -0.40837949507E+02 -0.11578204788E+02 -0.26625251502E+04  0.26628634904E+04  0.00000000000E+00 0. -1.
          1    1    1    2  502    0 -0.20565499954E+02  0.62596330286E+02 -0.22938626574E+03  0.23866147419E+03  0.00000000000E+00 0. -1.
         22    1    3    3    0    0  0.14369062180E+02 -0.81529591436E+02 -0.22773322407E+03  0.24231377504E+03  0.00000000000E+00 0. -1.
         22    1    3    3    0    0  0.47034387281E+02  0.30511465938E+02 -0.33391453140E+03  0.33858838938E+03  0.00000000000E+00 0. -1.
</event>
<event>
 7    1  0.3110367E-005  0.1402418E+03  0.7818608E-02  0.1375167E+00
          2   -1    0    0  502    0  0.00000000000E+00  0.00000000000E+00  0.41594919549E+03  0.41594919549E+03  0.00000000000E+00 0. -1.
          1   -1    0    0  501    0 -0.00000000000E+00 -0.00000000000E+00 -0.11137848516E+04  0.11137848516E+04  0.00000000000E+00 0. -1.
         25    2    1    2    0    0  0.82183839841E+02 -0.90460439380E+02 -0.44173605794E+03  0.47507161050E+03  0.12500006240E+03 0.  0.
          2    1    1    2  501    0 -0.11152855036E+03  0.99905248723E+02 -0.64621286934E+03  0.66333306021E+03  0.00000000000E+00 0. -1.
          1    1    1    2  502    0  0.29344710521E+02 -0.94448093427E+01  0.39011327117E+03  0.39132937636E+03  0.00000000000E+00 0. -1.
         22    1    3    3    0    0  0.80561647451E+02 -0.31514650758E+02 -0.37990579022E+03  0.38963028847E+03  0.00000000000E+00 0.  1.
         22    1    3    3    0    0  0.16221923903E+01 -0.58945788622E+02 -0.61830267716E+02  0.85441322031E+02  0.00000000000E+00 0.  1.
</event>
<event>
 7    1  0.3110367E-005  0.4207288E+03  0.7818608E-02  0.1250709E+00
          2   -1    0    0  502    0  0.00000000000E+00  0.00000000000E+00  0.80292132185E+03  0.80292132185E+03  0.00000000000E+00 0. -1.
          1   -1    0    0  501    0 -0.00000000000E+00 -0.00000000000E+00 -0.14149136550E+04  0.14149136550E+04  0.00000000000E+00 0. -1.
         25    2    1    2    0    0  0.16626853958E+03 -0.40397265309E+03 -0.97838763101E+02  0.46479799412E+03  0.12500248028E+03 0.  0.
          2    1    1    2  501    0 -0.18130407108E+03  0.37605603474E+03 -0.10947106888E+04  0.11716146122E+04  0.00000000000E+00 0. -1.
          1    1    1    2  502    0  0.15035531501E+02  0.27916618351E+02  0.58055711874E+03  0.58142237049E+03  0.00000000000E+00 0. -1.
         22    1    3    3    0    0  0.12400292164E+03 -0.20231520050E+03 -0.13794535822E+01  0.23729742481E+03  0.00000000000E+00 0. -1.
         22    1    3    3    0    0  0.42265617940E+02 -0.20165745258E+03 -0.96459309519E+02  0.22750056931E+03  0.00000000000E+00 0. -1.
</event>
<event>
 7    1  0.3110367E-005  0.9912554E+02  0.7818608E-02  0.1316965E+00
          2   -1    0    0  502    0  0.00000000000E+00  0.00000000000E+00  0.52425191989E+03  0.52425191989E+03  0.00000000000E+00 0. -1.
          1   -1    0    0  501    0 -0.00000000000E+00 -0.00000000000E+00 -0.11077068629E+04  0.11077068629E+04  0.00000000000E+00 0. -1.
         25    2    1    2    0    0  0.12215276977E+03 -0.49174956518E+02  0.22524475563E+03  0.28930949041E+03  0.12500122317E+03 0.  0.
          2    1    1    2  501    0 -0.66537592835E+02 -0.27220464428E+02 -0.10660642344E+04  0.10684854499E+04  0.00000000000E+00 0. -1.
          1    1    1    2  502    0 -0.55615176932E+02  0.76395420946E+02  0.25736453573E+03  0.27416384243E+03  0.00000000000E+00 0. -1.
         22    1    3    3    0    0  0.92441224620E+02 -0.71808882708E+02  0.86291709930E+02  0.14542405182E+03  0.00000000000E+00 0. -1.
         22    1    3    3    0    0  0.29711545147E+02  0.22633926190E+02  0.13895304570E+03  0.14388543859E+03  0.00000000000E+00 0. -1.
</event>
<event>
 7    1  0.3110367E-005  0.4183665E+03  0.7818608E-02  0.1056049E+00
          2   -1    0    0  502    0  0.00000000000E+00  0.00000000000E+00  0.17080600725E+04  0.17080600725E+04  0.00000000000E+00 0. -1.
          1   -1    0    0  501    0 -0.00000000000E+00 -0.00000000000E+00 -0.35331710373E+04  0.35331710373E+04  0.00000000000E+00 0. -1.
         25    2    1    2    0    0 -0.48092901325E+03  0.21135425782E+03 -0.20622030672E+04  0.21317301775E+04  0.12501488466E+03 0.  0.
          2    1    1    2  501    0  0.28059665942E+03  0.15594397788E+03 -0.13914886399E+04  0.14280383904E+04  0.00000000000E+00 0. -1.
          1    1    1    2  502    0  0.20033235383E+03 -0.36729823570E+03  0.16285807422E+04  0.16814625419E+04  0.00000000000E+00 0. -1.
         22    1    3    3    0    0 -0.45703243234E+03  0.22382530484E+03 -0.18848809634E+04  0.19523710348E+04  0.00000000000E+00 0.  1.
         22    1    3    3    0    0 -0.23896580907E+02 -0.12471047020E+02 -0.17732210375E+03  0.17935914270E+03  0.00000000000E+00 0.  1.
</event>
<event>
 7    1  0.3110367E-005  0.4541669E+02  0.7818608E-02  0.1530353E+00
          2   -1    0    0  502    0  0.00000000000E+00  0.00000000000E+00  0.50465323709E+03  0.50465323709E+03  0.00000000000E+00 0. -1.
          1   -1    0    0  501    0 -0.00000000000E+00 -0.00000000000E+00 -0.12866235404E+04  0.12866235404E+04  0.00000000000E+00 0. -1.
         25    2    1    2    0    0 -0.68609755995E+02 -0.22587264435E+02 -0.16204046258E+03  0.21702780554E+03  0.12500589479E+03 0.  0.
          2    1    1    2  501    0  0.44850231270E+02  0.36603675555E+01 -0.10961438437E+04  0.10970671208E+04  0.00000000000E+00 0. -1.
          1    1    1    2  502    0  0.23759524725E+02  0.18926896880E+02  0.47621400296E+03  0.47718185114E+03  0.00000000000E+00 0. -1.
         22    1    3    3    0    0 -0.43816932435E+02  0.21374730912E+02 -0.15917685227E+03  0.16647544260E+03  0.00000000000E+00 0. -1.
         22    1    3    3    0    0 -0.24792823560E+02 -0.43961995347E+02 -0.28636103114E+01  0.50552362942E+02  0.00000000000E+00 0. -1.
</event>
<event>
 7    1  0.3110367E-005  0.6434511E+03  0.7818608E-02  0.1065396E+00
          2   -1    0    0  502    0  0.00000000000E+00  0.00000000000E+00  0.15019983437E+04  0.15019983437E+04  0.00000000000E+00 0. -1.
          1   -1    0    0  501    0 -0.00000000000E+00 -0.00000000000E+00 -0.13041769212E+04  0.13041769212E+04  0.00000000000E+00 0. -1.
         25    2    1    2    0    0 -0.34714152652E+02  0.66410529836E+03 -0.51911274270E+03  0.85284457784E+03  0.12499965846E+03 0.  0.
          2    1    1    2  501    0  0.20637397625E+03 -0.60020450247E+03 -0.44621336351E+03  0.77584923060E+03  0.00000000000E+00 0. -1.
          1    1    1    2  502    0 -0.17165982360E+03 -0.63900795887E+02  0.11631475287E+04  0.11774814565E+04  0.00000000000E+00 0. -1.
         22    1    3    3    0    0 -0.74871127228E+02  0.28927186213E+03 -0.25114671158E+03  0.39033135494E+03  0.00000000000E+00 0.  1.
         22    1    3    3    0    0  0.40156974576E+02  0.37483343623E+03 -0.26796603112E+03  0.46251322290E+03  0.00000000000E+00 0.  1.
</event>
<event>
 7    1  0.3110367E-005  0.3058623E+03  0.7818608E-02  0.1200614E+00
          2   -1    0    0  502    0  0.00000000000E+00  0.00000000000E+00  0.97806307626E+03  0.97806307626E+03  0.00000000000E+00 0. -1.
          1   -1    0    0  501    0 -0.00000000000E+00 -0.00000000000E+00 -0.39709957818E+03  0.39709957818E+03  0.00000000000E+00 0. -1.
         25    2    1    2    0    0  0.14188508025E+02 -0.35154233608E+03  0.38481532018E+03  0.53618182230E+03  0.12499915244E+03 0.  0.
          2    1    1    2  501    0  0.19013291018E+02  0.70946505035E+02 -0.27771942356E+03  0.28726815006E+03  0.00000000000E+00 0. -1.
          1    1    1    2  502    0 -0.33201799044E+02  0.28059583104E+03  0.47386760146E+03  0.55171268208E+03  0.00000000000E+00 0. -1.
         22    1    3    3    0    0 -0.21138039571E+02 -0.72265501473E+02  0.15671952365E+03  0.17386813542E+03  0.00000000000E+00 0.  1.
         22    1    3    3    0    0  0.35326547596E+02 -0.27927683460E+03  0.22809579653E+03  0.36231368688E+03  0.00000000000E+00 0.  1.
</event>
<event>
 7    1  0.3110367E-005  0.1690870E+03  0.7818608E-02  0.1220750E+00
          2   -1    0    0  502    0  0.00000000000E+00  0.00000000000E+00  0.57392991728E+03  0.57392991728E+03  0.00000000000E+00 0. -1.
          1   -1    0    0  501    0 -0.00000000000E+00 -0.00000000000E+00 -0.59978187338E+03  0.59978187338E+03  0.00000000000E+00 0. -1.
         25    2    1    2    0    0 -0.78845721452E+02 -0.18313626356E+03 -0.15135762542E+03  0.27980480303E+03  0.12500423275E+03 0.  0.
          2    1    1    2  501    0 -0.60958457330E+02  0.88164549369E+02 -0.36221018792E+03  0.37773686810E+03  0.00000000000E+00 0. -1.
          1    1    1    2  502    0  0.13980417878E+03  0.94971714189E+02  0.48771585724E+03  0.51617011954E+03  0.00000000000E+00 0. -1.
         22    1    3    3    0    0 -0.10131783024E+03 -0.92206210345E+02 -0.62067021409E+02  0.15039814858E+03  0.00000000000E+00 0. -1.
         22    1    3    3    0    0  0.22472108791E+02 -0.90930053213E+02 -0.89290604009E+02  0.12940665445E+03  0.00000000000E+00 0. -1.
</event>
<event>
 7    1  0.3110367E-005  0.8128456E+02  0.7818608E-02  0.1352123E+00
          2   -1    0    0  502    0  0.00000000000E+00  0.00000000000E+00  0.87545811710E+02  0.87545811710E+02  0.00000000000E+00 0. -1.
          1   -1    0    0  501    0 -0.00000000000E+00 -0.00000000000E+00 -0.21234880225E+04  0.21234880225E+04  0.00000000000E+00 0. -1.
         25    2    1    2    0    0  0.53183301591E+02 -0.46708865834E+02 -0.17669664772E+04  0.17727973861E+04  0.12501943364E+03 0.  0.
          2    1    1    2  501    0 -0.69342833679E+02  0.10913462857E+03 -0.32690882590E+03  0.35155110039E+03  0.00000000000E+00 0. -1.
          1    1    1    2  502    0  0.16159532088E+02 -0.62425762733E+02  0.57933092310E+02  0.86685347751E+02  0.00000000000E+00 0. -1.
         22    1    3    3    0    0  0.83161494364E+02 -0.33768246992E+02 -0.16084800198E+04  0.16109823409E+04  0.00000000000E+00 0.  1.
         22    1    3    3    0    0 -0.29978192773E+02 -0.12940618842E+02 -0.15848645736E+03  0.16181504511E+03  0.00000000000E+00 0.  1.
</event>
<event>
 7    1  0.3110367E-005  0.6310233E+02  0.7818608E-02  0.1482261E+00
          2   -1    0    0  502    0  0.00000000000E+00  0.00000000000E+00  0.48864287813E+03  0.48864287813E+03  0.00000000000E+00 0. -1.
          1   -1    0    0  501    0 -0.00000000000E+00 -0.00000000000E+00 -0.67329401655E+02  0.67329401655E+02  0.00000000000E+00 0. -1.
         25    2    1    2    0    0 -0.62000859358E+02  0.22020117792E+02  0.42576260412E+03  0.44858405142E+03  0.12499945591E+03 0.  0.
          2    1    1    2  501    0  0.19093377342E+02  0.23580010306E+02 -0.27221342352E+02  0.40762426618E+02  0.00000000000E+00 0. -1.
          1    1    1    2  502    0  0.42907482015E+02 -0.45600128098E+02  0.22772214712E+02  0.66625801746E+02  0.00000000000E+00 0. -1.
         22    1    3    3    0    0  0.83745547735E+01 -0.38887359390E+01  0.31314934866E+03  0.31328544492E+03  0.00000000000E+00 0.  1.
         22    1    3    3    0    0 -0.70375414131E+02  0.25908853731E+02  0.11261325546E+03  0.13529860650E+03  0.00000000000E+00 0.  1.
</event>
<event>
 7    1  0.3110367E-005  0.3299992E+03  0.7818608E-02  0.1175707E+00
          2   -1    0    0  502    0  0.00000000000E+00  0.00000000000E+00  0.28290978565E+04  0.28290978565E+04  0.00000000000E+00 0. -1.
          1   -1    0    0  501    0 -0.00000000000E+00 -0.00000000000E+00 -0.24642473781E+03  0.24642473781E+03  0.00000000000E+00 0. -1.
         25    2    1    2    0    0 -0.26837149110E+03  0.29343682148E+03  0.78709821750E+03  0.89066111618E+03  0.12500077776E+03 0.  0.
          2    1    1    2  501    0  0.24351927134E+03 -0.20722686899E+03 -0.61502399316E+02  0.32561811354E+03  0.00000000000E+00 0. -1.
          1    1    1    2  502    0  0.24852219762E+02 -0.86209952491E+02  0.18570773005E+04  0.18592433646E+04  0.00000000000E+00 0. -1.
         22    1    3    3    0    0 -0.63756887983E+02  0.21682092641E+02  0.70916904574E+02  0.97797041167E+02  0.00000000000E+00 0.  1.
         22    1    3    3    0    0 -0.20461460312E+03  0.27175472884E+03  0.71618131293E+03  0.79286407501E+03  0.00000000000E+00 0.  1.
</event>
<event>
 7    1  0.3110367E-005  0.4905740E+02  0.7818608E-02  0.1486299E+00
          2   -1    0    0  502    0  0.00000000000E+00  0.00000000000E+00  0.26252089519E+04  0.26252089519E+04  0.00000000000E+00 0. -1.
          1   -1    0    0  501    0 -0.00000000000E+00 -0.00000000000E+00 -0.67220808311E+03  0.67220808311E+03  0.00000000000E+00 0. -1.
         25    2    1    2    0    0 -0.17809678947E+02  0.21903873706E+02  0.43258250009E+03  0.45117691815E+03  0.12504410320E+03 0.  0.
          2    1    1    2  501    0  0.49118931983E+02 -0.48213431735E+00 -0.66183582467E+03  0.66365620674E+03  0.00000000000E+00 0. -1.
          1    1    1    2  502    0 -0.31309253036E+02 -0.21421739389E+02  0.21822541934E+04  0.21825839101E+04  0.00000000000E+00 0. -1.
         22    1    3    3    0    0 -0.47491532200E+02 -0.15123139148E+02  0.72492649039E+02  0.87973513816E+02  0.00000000000E+00 0.  1.
         22    1    3    3    0    0  0.29681853254E+02  0.37027012854E+02  0.36008985105E+03  0.36320340434E+03  0.00000000000E+00 0.  1.
</event>
<event>
 7    1  0.3110367E-005  0.1554144E+03  0.7818608E-02  0.1285087E+00
          2   -1    0    0  502    0  0.00000000000E+00  0.00000000000E+00  0.26636950873E+03  0.26636950873E+03  0.00000000000E+00 0. -1.
          1   -1    0    0  501    0 -0.00000000000E+00 -0.00000000000E+00 -0.20131379813E+04  0.20131379813E+04  0.00000000000E+00 0. -1.
         25    2    1    2    0    0 -0.63374080292E+02 -0.12449926330E+03  0.13536945390E+03  0.23122847232E+03  0.12500150698E+03 0.  0.
          2    1    1    2  501    0  0.10289377072E+02  0.15552971677E+03 -0.19502781102E+04  0.19564968876E+04  0.00000000000E+00 0. -1.
          1    1    1    2  502    0  0.53084703221E+02 -0.31030453468E+02  0.68140183760E+02  0.91782130076E+02  0.00000000000E+00 0. -1.
         22    1    3    3    0    0 -0.60311492360E+02 -0.48361661223E+02  0.13437161830E+03  0.15502276669E+03  0.00000000000E+00 0. -1.
         22    1    3    3    0    0 -0.30625879318E+01 -0.76137602080E+02  0.99783560333E+00  0.76205705635E+02  0.00000000000E+00 0. -1.
</event>
<event>
 7    1  0.3110367E-005  0.8805802E+02  0.7818608E-02  0.1471484E+00
          2   -1    0    0  502    0  0.00000000000E+00  0.00000000000E+00  0.22945016228E+04  0.22945016228E+04  0.00000000000E+00 0. -1.
          1   -1    0    0  501    0 -0.00000000000E+00 -0.00000000000E+00 -0.43495193388E+03  0.43495193388E+03  0.00000000000E+00 0. -1.
         25    2    1    2    0    0 -0.45712055539E+02  0.46280581343E+02  0.17787811456E+01  0.14093830934E+03  0.12501583398E+03 0.  0.
          2    1    1    2  501    0 -0.13987147222E+02  0.18846451425E+02 -0.36411645911E+03  0.36487206636E+03  0.00000000000E+00 0. -1.
          1    1    1    2  502    0  0.59699202761E+02 -0.65127032768E+02  0.22218873669E+04  0.22236431810E+04  0.00000000000E+00 0. -1.
         22    1    3    3    0    0  0.85410820497E+01  0.59126907578E+02 -0.39455239513E+02  0.71593695304E+02  0.00000000000E+00 0. -1.
         22    1    3    3    0    0 -0.54253137588E+02 -0.12846326235E+02  0.41234020658E+02  0.69344614034E+02  0.00000000000E+00 0. -1.
</event>
<event>
 7    1  0.3110367E-005  0.9419463E+02  0.7818608E-02  0.1364384E+00
          2   -1    0    0  502    0  0.00000000000E+00  0.00000000000E+00  0.11596911485E+04  0.11596911485E+04  0.00000000000E+00 0. -1.
          1   -1    0    0  501    0 -0.00000000000E+00 -0.00000000000E+00 -0.74035270098E+03  0.74035270098E+03  0.00000000000E+00 0. -1.
         25    2    1    2    0    0  0.12256540600E+03 -0.16718370944E+02  0.22068013622E+03  0.28218076522E+03  0.12499791623E+03 0.  0.
          2    1    1    2  501    0 -0.41607791404E+02 -0.28056953017E+02 -0.70635399216E+03  0.70813442450E+03  0.00000000000E+00 0. -1.
          1    1    1    2  502    0 -0.80957614597E+02  0.44775323961E+02  0.90501230350E+03  0.90972865981E+03  0.00000000000E+00 0. -1.
         22    1    3    3    0    0 -0.97932738461E+01 -0.37420991607E+02  0.29092968129E+02  0.48400822514E+02  0.00000000000E+00 0. -1.
         22    1    3    3    0    0  0.13235867985E+03  0.20702620663E+02  0.19158716809E+03  0.23377994270E+03  0.00000000000E+00 0. -1.
</event>
<event>
 7    1  0.3110367E-005  0.4948103E+02  0.7818608E-02  0.1537101E+00
          2   -1    0    0  502    0  0.00000000000E+00  0.00000000000E+00  0.15469144903E+04  0.15469144903E+04  0.00000000000E+00 0. -1.
          1   -1    0    0  501    0 -0.00000000000E+00 -0.00000000000E+00 -0.31557215443E+03  0.31557215443E+03  0.00000000000E+00 0. -1.
         25    2    1    2    0    0 -0.35406520756E+02  0.45910925314E+02  0.12362452037E+04  0.12439003293E+04  0.12499756303E+03 0.  0.
          2    1    1    2  501    0  0.26666237246E+02  0.62466099444E+00 -0.30934060081E+03  0.31048846310E+03  0.00000000000E+00 0. -1.
          1    1    1    2  502    0  0.87402835102E+01 -0.46535586309E+02  0.30443773299E+03  0.30809785234E+03  0.00000000000E+00 0. -1.
         22    1    3    3    0    0  0.19320219410E+00 -0.35841562654E+02  0.64229330007E+03  0.64329257594E+03  0.00000000000E+00 0.  1.
         22    1    3    3    0    0 -0.35599722950E+02  0.81752487968E+02  0.59395190361E+03  0.60060775334E+03  0.00000000000E+00 0.  1.
</event>
<event>
 7    1  0.3110367E-005  0.5380684E+02  0.7818608E-02  0.1444236E+00
          2   -1    0    0  502    0  0.00000000000E+00  0.00000000000E+00  0.16521561616E+04  0.16521561616E+04  0.00000000000E+00 0. -1.
          1   -1    0    0  501    0 -0.00000000000E+00 -0.00000000000E+00 -0.37552512577E+03  0.37552512577E+03  0.00000000000E+00 0. -1.
         25    2    1    2    0    0  0.71548434858E+02 -0.26333960125E+02  0.16566877808E+03  0.22109613057E+03  0.12499879574E+03 0.  0.
          2    1    1    2  501    0 -0.51320103388E+02 -0.15918695143E+02 -0.34535734990E+03  0.34951231309E+03  0.00000000000E+00 0. -1.
          1    1    1    2  502    0 -0.20228331470E+02  0.42252655268E+02  0.14563196077E+04  0.14570728437E+04  0.00000000000E+00 0. -1.
         22    1    3    3    0    0  0.56407049534E+02  0.36253584633E+02  0.13287158842E+03  0.14883190735E+03  0.00000000000E+00 0. -1.
         22    1    3    3    0    0  0.15141385324E+02 -0.62587544758E+02  0.32797189662E+02  0.72264223224E+02  0.00000000000E+00 0. -1.
</event>
<event>
 7    1  0.3110367E-005  0.2246633E+03  0.7818608E-02  0.1170420E+00
          2   -1    0    0  502    0  0.00000000000E+00  0.00000000000E+00  0.10772606297E+04  0.10772606297E+04  0.00000000000E+00 0. -1.
          1   -1    0    0  501    0 -0.00000000000E+00 -0.00000000000E+00 -0.22855861310E+04  0.22855861310E+04  0.00000000000E+00 0. -1.
         25    2    1    2    0    0  0.21252059351E+03 -0.62761856173E+02  0.21861836637E+03  0.33544119306E+03  0.12499100220E+03 0.  0.
          2    1    1    2  501    0 -0.67553983265E+02 -0.12257498124E+03 -0.22076140695E+04  0.22120461221E+04  0.00000000000E+00 0. -1.
          1    1    1    2  502    0 -0.14496661024E+03  0.18533683741E+03  0.78067020180E+03  0.81535944550E+03  0.00000000000E+00 0. -1.
         22    1    3    3    0    0  0.68296694354E+02 -0.84243887944E+02  0.98948154902E+02  0.14680670446E+03  0.00000000000E+00 0. -1.
         22    1    3    3    0    0  0.14422389916E+03  0.21482031771E+02  0.11967021147E+03  0.18863448860E+03  0.00000000000E+00 0. -1.
</event>
<event>
 7    1  0.3110367E-005  0.2399371E+03  0.7818608E-02  0.1139327E+00
          2   -1    0    0  502    0  0.00000000000E+00  0.00000000000E+00  0.30846701297E+03  0.30846701297E+03  0.00000000000E+00 0. -1.
          1   -1    0    0  501    0 -0.00000000000E+00 -0.00000000000E+00 -0.31156950217E+04  0.31156950217E+04  0.00000000000E+00 0. -1.
         25    2    1    2    0    0  0.50126472976E+02  0.19684975652E+03 -0.10382207572E+04  0.10652650373E+04  0.12499907665E+03 0.  0.
          2    1    1    2  501    0  0.16825122241E+03 -0.85711842994E+02 -0.20078552383E+04  0.20167145688E+04  0.00000000000E+00 0. -1.
          1    1    1    2  502    0 -0.21837769538E+03 -0.11113791353E+03  0.23884798675E+03  0.34218242859E+03  0.00000000000E+00 0. -1.
         22    1    3    3    0    0 -0.25207670802E+02  0.74570809350E+02 -0.57293551713E+03  0.57831768006E+03  0.00000000000E+00 0. -1.
         22    1    3    3    0    0  0.75334143778E+02  0.12227894717E+03 -0.46528524002E+03  0.48694735724E+03  0.00000000000E+00 0. -1.
</event>
<event>
 7    1  0.3110367E-005  0.9987536E+02  0.7818608E-02  0.1421864E+00
          2   -1    0    0  502    0  0.00000000000E+00  0.00000000000E+00  0.65183821920E+02  0.65183821920E+02  0.00000000000E+00 0. -1.
          1   -1    0    0  501    0 -0.00000000000E+00 -0.00000000000E+00 -0.26249311769E+04  0.26249311769E+04  0.00000000000E+00 0. -1.
         25    2    1    2    0    0  0.97136413075E+02  0.69593359400E+02 -0.20182213114E+04  0.20256162057E+04  0.12500013071E+03 0.  0.
          2    1    1    2  501    0 -0.61533632292E+01 -0.29239515680E+02 -0.56207531963E+03  0.56286897063E+03  0.00000000000E+00 0. -1.
          1    1    1    2  502    0 -0.90983049846E+02 -0.40353843720E+02  0.20549276079E+02  0.10162982244E+03  0.00000000000E+00 0. -1.
         22    1    3    3    0    0  0.28788296132E+01  0.73074926301E+02 -0.11402665083E+04  0.11426092694E+04  0.00000000000E+00 0.  1.
         22    1    3    3    0    0  0.94257583462E+02 -0.34815669009E+01 -0.87795480307E+03  0.88300693632E+03  0.00000000000E+00 0.  1.
</event>
<event>
 7    1  0.3110367E-005  0.1406904E+03  0.7818608E-02  0.1308169E+00
          2   -1    0    0  502    0  0.00000000000E+00  0.00000000000E+00  0.18501678890E+04  0.18501678890E+04  0.00000000000E+00 0. -1.
          1   -1    0    0  501    0 -0.00000000000E+00 -0.00000000000E+00 -0.88552582354E+03  0.88552582354E+03  0.00000000000E+00 0. -1.
         25    2    1    2    0    0 -0.55847712592E+02 -0.18277054834E+03  0.27861806673E+03  0.36024636926E+03  0.12500151647E+03 0.  0.
          2    1    1    2  501    0  0.90607883284E+01  0.54089079726E+02 -0.84075456414E+03  0.84254137202E+03  0.00000000000E+00 0. -1.
          1    1    1    2  502    0  0.46786924264E+02  0.12868146861E+03  0.15267785629E+04  0.15329059713E+04  0.00000000000E+00 0. -1.
         22    1    3    3    0    0  0.21638654445E+02 -0.11577553100E+03  0.10075551360E+03  0.15499638210E+03  0.00000000000E+00 0.  1.
         22    1    3    3    0    0 -0.77486367037E+02 -0.66995017342E+02  0.17786255313E+03  0.20524998716E+03  0.00000000000E+00 0.  1.
</event>
<event>
 7    1  0.3110367E-005  0.1617882E+03  0.7818608E-02  0.1223066E+00
          2   -1    0    0  502    0  0.00000000000E+00  0.00000000000E+00  0.17439687342E+03  0.17439687342E+03  0.00000000000E+00 0. -1.
          1   -1    0    0  501    0 -0.00000000000E+00 -0.00000000000E+00 -0.90145253367E+03  0.90145253367E+03  0.00000000000E+00 0. -1.
         25    2    1    2    0    0 -0.46767206622E+01 -0.12399658252E+03 -0.15711495388E+03  0.23602332460E+03  0.12499950731E+03 0.  0.
          2    1    1    2  501    0 -0.10212946310E+03  0.14739846877E+03 -0.66879829908E+03  0.69242176503E+03  0.00000000000E+00 0. -1.
          1    1    1    2  502    0  0.10680618376E+03 -0.23401886255E+02  0.98857592709E+02  0.14740431746E+03  0.00000000000E+00 0. -1.
         22    1    3    3    0    0  0.43655160513E+02 -0.18065896944E+02 -0.98029769579E+01  0.48251922543E+02  0.00000000000E+00 0. -1.
         22    1    3    3    0    0 -0.48331881175E+02 -0.10593068558E+03 -0.14731197692E+03  0.18777140205E+03  0.00000000000E+00 0. -1.
</event>
<event>
 7    1  0.3110367E-005  0.4215770E+03  0.7818608E-02  0.1136358E+00
          2   -1    0    0  502    0  0.00000000000E+00  0.00000000000E+00  0.59850199819E+03  0.59850199819E+03  0.00000000000E+00 0. -1.
          1   -1    0    0  501    0 -0.00000000000E+00 -0.00000000000E+00 -0.15587833817E+04  0.15587833817E+04  0.00000000000E+00 0. -1.
         25    2    1    2    0    0 -0.15535318461E+03  0.34299080148E+03 -0.66931171250E+03  0.77806200976E+03  0.12500008269E+03 0.  0.
          2    1    1    2  501    0  0.15571956964E+03 -0.45439197918E+03 -0.75894291652E+03  0.89817314903E+03  0.00000000000E+00 0. -1.
          1    1    1    2  502    0 -0.36638503027E+00  0.11140117770E+03  0.46797324554E+03  0.48105022105E+03  0.00000000000E+00 0. -1.
         22    1    3    3    0    0 -0.12766818246E+03  0.24169957185E+03 -0.57607319048E+03  0.63763482389E+03  0.00000000000E+00 0.  1.
         22    1    3    3    0    0 -0.27685002151E+02  0.10129122962E+03 -0.93238522022E+02  0.14042718587E+03  0.00000000000E+00 0.  1.
</event>
<event>
 7    1  0.3110367E-005  0.8817519E+02  0.7818608E-02  0.1404871E+00
          2   -1    0    0  502    0  0.00000000000E+00  0.00000000000E+00  0.11363518609E+03  0.11363518609E+03  0.00000000000E+00 0. -1.
          1   -1    0    0  501    0 -0.00000000000E+00 -0.00000000000E+00 -0.10687140242E+04  0.10687140242E+04  0.00000000000E+00 0. -1.
         25    2    1    2    0    0  0.81250575591E+02 -0.25975687432E+02 -0.30660241670E+03  0.34191570357E+03  0.12499965621E+03 0.  0.
          2    1    1    2  501    0 -0.88936216817E+02 -0.11870643398E+02 -0.73773887684E+03  0.74317508922E+03  0.00000000000E+00 0. -1.
          1    1    1    2  502    0  0.76856412253E+01  0.37846330830E+02  0.89262455389E+02  0.97258417530E+02  0.00000000000E+00 0. -1.
         22    1    3    3    0    0 -0.14263456691E+02 -0.69620691465E+01 -0.18702671510E+03  0.18769898445E+03  0.00000000000E+00 0.  1.
         22    1    3    3    0    0  0.95514032282E+02 -0.19013618286E+02 -0.11957570159E+03  0.15421671912E+03  0.00000000000E+00 0.  1.
</event>
<event>
 7    1  0.3110367E-005  0.2650378E+03  0.7818608E-02  0.1343724E+00
          2   -1    0    0  502    0  0.00000000000E+00  0.00000000000E+00  0.90969527442E+03  0.90969527442E+03  0.00000000000E+00 0. -1.
          1   -1    0    0  501    0 -0.00000000000E+00 -0.00000000000E+00 -0.80173672913E+03  0.80173672913E+03  0.00000000000E+00 0. -1.
         25    2    1    2    0    0 -0.20505342412E+03  0.15619222455E+03 -0.49356196770E+03  0.57067656331E+03  0.12500162478E+03 0.  0.
          2    1    1    2  501    0  0.21914292217E+03 -0.17209998866E+03 -0.19744568305E+03  0.34150669714E+03  0.00000000000E+00 0. -1.
          1    1    1    2  502    0 -0.14089498053E+02  0.15907764110E+02  0.79896619604E+03  0.79924874309E+03  0.00000000000E+00 0. -1.
         22    1    3    3    0    0 -0.17715402991E+02  0.17976556115E+02 -0.17113129671E+03  0.17298240600E+03  0.00000000000E+00 0. -1.
         22    1    3    3    0    0 -0.18733802113E+03  0.13821566844E+03 -0.32243067099E+03  0.39769415731E+03  0.00000000000E+00 0. -1.
</event>
<event>
 7    1  0.3110367E-005  0.6968307E+02  0.7818608E-02  0.1455589E+00
          2   -1    0    0  502    0  0.00000000000E+00  0.00000000000E+00  0.46818594968E+03  0.46818594968E+03  0.00000000000E+00 0. -1.
          1   -1    0    0  501    0 -0.00000000000E+00 -0.00000000000E+00 -0.11391605862E+04  0.11391605862E+04  0.00000000000E+00 0. -1.
         25    2    1    2    0    0 -0.26778649203E+02 -0.40253269289E+02 -0.18493231332E+03  0.22839125071E+03  0.12500072460E+03 0.  0.
          2    1    1    2  501    0  0.59999616388E+02  0.38457750716E+02 -0.93051454621E+03  0.93323966550E+03  0.00000000000E+00 0. -1.
          1    1    1    2  502    0 -0.33220967185E+02  0.17955185722E+01  0.44447222303E+03  0.44571561964E+03  0.00000000000E+00 0. -1.
         22    1    3    3    0    0  0.28629728310E+02 -0.41225993255E+02 -0.15988232060E+03  0.16757565546E+03  0.00000000000E+00 0.  1.
         22    1    3    3    0    0 -0.55408377513E+02  0.97272396657E+00 -0.25049992720E+02  0.60815595251E+02  0.00000000000E+00 0.  1.
</event>
<event>
 7    1  0.3110367E-005  0.2125193E+03  0.7818608E-02  0.1206945E+00
          2   -1    0    0  502    0  0.00000000000E+00  0.00000000000E+00  0.19898912553E+04  0.19898912553E+04  0.00000000000E+00 0. -1.
          1   -1    0    0  501    0 -0.00000000000E+00 -0.00000000000E+00 -0.10229021332E+04  0.10229021332E+04  0.00000000000E+00 0. -1.
         25    2    1    2    0    0 -0.69322200770E+02 -0.11969823971E+03 -0.11606065238E+03  0.21961421141E+03  0.12500836258E+03 0.  0.
          2    1    1    2  501    0  0.10170867295E+03  0.21296557901E+03 -0.83748745568E+03  0.87010587311E+03  0.00000000000E+00 0. -1.
          1    1    1    2  502    0 -0.32386472178E+02 -0.93267339302E+02  0.19205372301E+04  0.19230733040E+04  0.00000000000E+00 0. -1.
         22    1    3    3    0    0 -0.26418332089E+02 -0.76790171585E+01  0.23075708350E+02  0.35907992017E+02  0.00000000000E+00 0.  1.
         22    1    3    3    0    0 -0.42903868681E+02 -0.11201922255E+03 -0.13913636073E+03  0.18370621940E+03  0.00000000000E+00 0.  1.
</event>
<event>
 7    1  0.3110367E-005  0.2392140E+03  0.7818608E-02  0.1223938E+00
          2   -1    0    0  502    0  0.00000000000E+00  0.00000000000E+00  0.14330540542E+04  0.14330540542E+04  0.00000000000E+00 0. -1.
          1   -1    0    0  501    0 -0.00000000000E+00 -0.00000000000E+00 -0.89599294151E+03  0.89599294151E+03  0.00000000000E+00 0. -1.
         25    2    1    2    0    0 -0.22850131651E+03  0.66378104038E+02 -0.58509159660E+03  0.64387588837E+03  0.12500031549E+03 0.  0.
          2    1    1    2  501    0  0.24868275450E+03  0.40680674835E+01 -0.22538298061E+03  0.33564437952E+03  0.00000000000E+00 0. -1.
          1    1    1    2  502    0 -0.20181437984E+02 -0.70446171521E+02  0.13475356899E+04  0.13495267279E+04  0.00000000000E+00 0. -1.
         22    1    3    3    0    0 -0.16194762571E+03  0.27453559527E+02 -0.24371494656E+03  0.29390084481E+03  0.00000000000E+00 0.  1.
         22    1    3    3    0    0 -0.66553690806E+02  0.38924544511E+02 -0.34137665004E+03  0.34997504356E+03  0.00000000000E+00 0.  1.
</event>
<event>
 7    1  0.3110367E-005  0.6194881E+02  0.7818608E-02  0.1439572E+00
          2   -1    0    0  502    0  0.00000000000E+00  0.00000000000E+00  0.37892086637E+03  0.37892086637E+03  0.00000000000E+00 0. -1.
          1   -1    0    0  501    0 -0.00000000000E+00 -0.00000000000E+00 -0.22336021862E+03  0.22336021862E+03  0.00000000000E+00 0. -1.
         25    2    1    2    0    0 -0.24253902256E+02  0.93085974477E+02  0.12652553233E+03  0.20220634133E+03  0.12500177488E+03 0.  0.
          2    1    1    2  501    0 -0.29838668176E+01 -0.60948160050E+02 -0.17832606522E+03  0.18847749789E+03  0.00000000000E+00 0. -1.
          1    1    1    2  502    0  0.27237769074E+02 -0.32137814426E+02  0.20736118063E+03  0.21159724576E+03  0.00000000000E+00 0. -1.
         22    1    3    3    0    0 -0.68548967500E+02  0.18899046912E+02  0.62432894305E+02  0.94625584335E+02  0.00000000000E+00 0. -1.
         22    1    3    3    0    0  0.44295065244E+02  0.74186927565E+02  0.64092638027E+02  0.10758075700E+03  0.00000000000E+00 0. -1.
</event>
<event>
 7    1  0.3110367E-005  0.3689505E+03  0.7818608E-02  0.1064956E+00
          2   -1    0    0  502    0  0.00000000000E+00  0.00000000000E+00  0.42438292774E+03  0.42438292774E+03  0.00000000000E+00 0. -1.
          1   -1    0    0  501    0 -0.00000000000E+00 -0.00000000000E+00 -0.12339077840E+04  0.12339077840E+04  0.00000000000E+00 0. -1.
         25    2    1    2    0    0  0.30210910632E+03  0.36167036871E+03 -0.10296699935E+03  0.49829977588E+03  0.12500038388E+03 0.  0.
          2    1    1    2  501    0  0.49895562672E+02 -0.31750087226E+03 -0.73689169481E+03  0.80393142801E+03  0.00000000000E+00 0. -1.
          1    1    1    2  502    0 -0.35200466899E+03 -0.44169496441E+02  0.30333837892E+02  0.35605950785E+03  0.00000000000E+00 0. -1.
         22    1    3    3    0    0  0.15412219706E+03  0.24817652621E+03 -0.16147722413E+02  0.29258501111E+03  0.00000000000E+00 0.  1.
         22    1    3    3    0    0  0.14798690927E+03  0.11349384249E+03 -0.86819276933E+02  0.20571476477E+03  0.00000000000E+00 0.  1.
</event>
<event>
 7    1  0.3110367E-005  0.1887642E+03  0.7818608E-02  0.1281393E+00
          2   -1    0    0  502    0  0.00000000000E+00  0.00000000000E+00  0.31915899513E+04  0.31915899513E+04  0.00000000000E+00 0. -1.
          1   -1    0    0  501    0 -0.00000000000E+00 -0.00000000000E+00 -0.50237861323E+02  0.50237861323E+02  0.00000000000E+00 0. -1.
         25    2    1    2    0    0 -0.16904492112E+03 -0.25467633356E+02  0.10681923635E+04  0.10889839794E+04  0.12500558535E+03 0.  0.
          2    1    1    2  501    0 -0.28552460430E+02  0.43969635538E+02 -0.15583133909E+02  0.54693746520E+02  0.00000000000E+00 0. -1.
          1    1    1    2  502    0  0.19759738155E+03 -0.18502002182E+02  0.20887428604E+04  0.20981500867E+04  0.00000000000E+00 0. -1.
         22    1    3    3    0    0 -0.16416091978E+03 -0.56949020055E+02  0.78473056535E+03  0.80373755584E+03  0.00000000000E+00 0. -1.
         22    1    3    3    0    0 -0.48840013391E+01  0.31481386699E+02  0.28346179811E+03  0.28524642358E+03  0.00000000000E+00 0. -1.
</event>
<event>
 7    1  0.3110367E-005  0.1385525E+03  0.7818608E-02  0.1359924E+00
          2   -1    0    0  502    0  0.00000000000E+00  0.00000000000E+00  0.22521136096E+04  0.22521136096E+04  0.00000000000E+00 0. -1.
          1   -1    0    0  501    0 -0.00000000000E+00 -0.00000000000E+00 -0.22505661058E+04  0.22505661058E+04  0.00000000000E+00 0. -1.
         25    2    1    2    0    0  0.11127311726E+03  0.98828715472E+02  0.16926690548E+03  0.25773128152E+03  0.12500122622E+03 0.  0.
          2    1    1    2  501    0  0.10672891143E+02 -0.33769482915E+02 -0.22038487693E+04  0.22041333187E+04  0.00000000000E+00 0. -1.
          1    1    1    2  502    0 -0.12194600841E+03 -0.65059232557E+02  0.20361293676E+04  0.20408151152E+04  0.00000000000E+00 0. -1.
         22    1    3    3    0    0  0.36547962688E+02  0.71512071175E+02  0.11621545699E+02  0.81146720357E+02  0.00000000000E+00 0. -1.
         22    1    3    3    0    0  0.74725154575E+02  0.27316644297E+02  0.15764535978E+03  0.17658456116E+03  0.00000000000E+00 0. -1.
</event>
<event>
 7    1  0.3110367E-005  0.9443418E+02  0.7818608E-02  0.1368362E+00
          2   -1    0    0  502    0  0.00000000000E+00  0.00000000000E+00  0.74014599539E+03  0.74014599539E+03  0.00000000000E+00 0. -1.
          1   -1    0    0  501    0 -0.00000000000E+00 -0.00000000000E+00 -0.94019982454E+03  0.94019982454E+03  0.00000000000E+00 0. -1.
         25    2    1    2    0    0 -0.10783082536E+03  0.20923761055E+02  0.32429146969E+03  0.36449206118E+03  0.12499685866E+03 0.  0.
          2    1    1    2  501    0  0.33820147229E+02  0.34659694496E+02 -0.91403790559E+03  0.91531982915E+03  0.00000000000E+00 0. -1.
          1    1    1    2  502    0  0.74010678129E+02 -0.55583455551E+02  0.38969260675E+03  0.40053392960E+03  0.00000000000E+00 0. -1.
         22    1    3    3    0    0  0.17402341054E+01  0.34750029756E+02  0.18580264157E+02  0.39443874036E+02  0.00000000000E+00 0. -1.
         22    1    3    3    0    0 -0.10957105946E+03 -0.13826268701E+02  0.30571120554E+03  0.32504818715E+03  0.00000000000E+00 0. -1.
</event>
<event>
 7    1  0.3110367E-005  0.2447950E+03  0.7818608E-02  0.1213845E+00
          2   -1    0    0  502    0  0.00000000000E+00  0.00000000000E+00  0.64785676912E+03  0.64785676912E+03  0.00000000000E+00 0. -1.
          1   -1    0    0  501    0 -0.00000000000E+00 -0.00000000000E+00 -0.15893845110E+04  0.15893845110E+04  0.00000000000E+00 0. -1.
         25    2    1    2    0    0 -0.28090822216E+03 -0.12319659082E+03 -0.63243874914E+02  0.33721190350E+03  0.12500100353E+03 0.  0.
          2    1    1    2  501    0  0.79619570209E+02 -0.12457517254E+01 -0.13605243197E+04  0.13628526158E+04  0.00000000000E+00 0. -1.
          1    1    1    2  502    0  0.20128865195E+03  0.12444234255E+03  0.48224045278E+03  0.53717676078E+03  0.00000000000E+00 0. -1.
         22    1    3    3    0    0 -0.18193097069E+03 -0.16090584853E+02 -0.56656802023E+02  0.19122703322E+03  0.00000000000E+00 0. -1.
         22    1    3    3    0    0 -0.98977251468E+02 -0.10710600597E+03 -0.65870728904E+01  0.14598487029E+03  0.00000000000E+00 0. -1.
</event>
<event>
 7    1  0.3110367E-005  0.5018437E+03  0.7818608E-02  0.1035393E+00
          2   -1    0    0  502    0  0.00000000000E+00  0.00000000000E+00  0.26991597811E+04  0.26991597811E+04  0.00000000000E+00 0. -1.
          1   -1    0    0  501    0 -0.00000000000E+00 -0.00000000000E+00 -0.31998963474E+03  0.31998963474E+03  0.00000000000E+00 0. -1.
         25    2    1    2    0    0 -0.47022036042E+03 -0.23798020252E+03  0.21830673043E+03  0.58397156140E+03  0.12499276709E+03 0.  0.
          2    1    1    2  501    0  0.52608518972E+03 -0.11789340755E+03  0.49866219874E+03  0.73438986297E+03  0.00000000000E+00 0. -1.
          1    1    1    2  502    0 -0.55864829302E+02  0.35587361008E+03  0.16622012172E+04  0.17007879915E+04  0.00000000000E+00 0. -1.
         22    1    3    3    0    0 -0.45194764601E+03 -0.22409791601E+03  0.23408502375E+03  0.55612260252E+03  0.00000000000E+00 0. -1.
         22    1    3    3    0    0 -0.18272714405E+02 -0.13882286517E+02 -0.15778293311E+02  0.27848958876E+02  0.00000000000E+00 0. -1.
</event>
<event>
 7    1  0.3110367E-005  0.4798063E+02  0.7818608E-02  0.1564018E+00
          2   -1    0    0  502    0  0.00000000000E+00  0.00000000000E+00  0.10592546771E+03  0.10592546771E+03  0.00000000000E+00 0. -1.
          1   -1    0    0  501    0 -0.00000000000E+00 -0.00000000000E+00 -0.22757558094E+04  0.22757558094E+04  0.00000000000E+00 0. -1.
         25    2    1    2    0    0  0.74501979727E+01 -0.38725122938E+02  0.29998842981E+02  0.13446012781E+03  0.12499781916E+03 0.  0.
          2    1    1    2  501    0 -0.30533692506E+02  0.37065944985E+02 -0.22175517708E+04  0.22180716956E+04  0.00000000000E+00 0. -1.
          1    1    1    2  502    0  0.23083494533E+02  0.16591779525E+01  0.17722586136E+02  0.29149453695E+02  0.00000000000E+00 0. -1.
         22    1    3    3    0    0 -0.63215281969E+01 -0.74373230611E+02  0.51430936500E+02  0.90644803378E+02  0.00000000000E+00 0.  1.
         22    1    3    3    0    0  0.13771726170E+02  0.35648107673E+02 -0.21432093519E+02  0.43815324431E+02  0.00000000000E+00 0.  1.
</event>
<event>
 7    1  0.3110367E-005  0.1614831E+03  0.7818608E-02  0.1357750E+00
          2   -1    0    0  502    0  0.00000000000E+00  0.00000000000E+00  0.10950049092E+04  0.10950049092E+04  0.00000000000E+00 0. -1.
          1   -1    0    0  501    0 -0.00000000000E+00 -0.00000000000E+00 -0.48295817473E+02  0.48295817473E+02  0.00000000000E+00 0. -1.
         25    2    1    2    0    0 -0.14631236459E+03  0.21350995977E+02  0.78773757074E+03  0.81118358685E+03  0.12500063263E+03 0.  0.
          2    1    1    2  501    0  0.15749818072E+03 -0.50206813925E+02  0.16658483717E+03  0.23468470140E+03  0.00000000000E+00 0. -1.
          1    1    1    2  502    0 -0.11185816131E+02  0.28855817948E+02  0.92386683863E+02  0.97432438475E+02  0.00000000000E+00 0. -1.
         22    1    3    3    0    0  0.12108449556E+01  0.43406954783E+02  0.21495534080E+03  0.21929757957E+03  0.00000000000E+00 0.  1.
         22    1    3    3    0    0 -0.14752320954E+03 -0.22055958806E+02  0.57278222994E+03  0.59188600727E+03  0.00000000000E+00 0.  1.
</event>
<event>
 7    1  0.3110367E-005  0.5606956E+03  0.7818608E-02  0.1128103E+00
          2   -1    0    0  502    0  0.00000000000E+00  0.00000000000E+00  0.18832045233E+03  0.18832045233E+03  0.00000000000E+00 0. -1.
          1   -1    0    0  501    0 -0.00000000000E+00 -0.00000000000E+00 -0.34629512662E+04  0.34629512662E+04  0.00000000000E+00 0. -1.
         25    2    1    2    0    0 -0.24972942746E+03 -0.51278596720E+03 -0.27573309205E+04  0.28184781056E+04  0.12502316359E+03 0.  0.
          2    1    1    2  501    0  0.89549686781E+02 -0.23802455616E+02 -0.73400174652E+02  0.11820866692E+03  0.00000000000E+00 0. -1.
          1    1    1    2  502    0  0.16017974067E+03  0.53658842282E+03 -0.44389971873E+03  0.71458494604E+03  0.00000000000E+00 0. -1.
         22    1    3    3    0    0 -0.12498701821E+03 -0.20226120013E+03 -0.14288558610E+04  0.14485028199E+04  0.00000000000E+00 0.  1.
         22    1    3    3    0    0 -0.12474240924E+03 -0.31052476707E+03 -0.13284750595E+04  0.13699752857E+04  0.00000000000E+00 0.  1.
</event>
<event>
 7    1  0.3110367E-005  0.1716114E+03  0.7818608E-02  0.1264753E+00
          2   -1    0    0  502    0  0.00000000000E+00  0.00000000000E+00  0.16506994361E+03  0.16506994361E+03  0.00000000000E+00 0. -1.
          1   -1    0    0  501    0 -0.00000000000E+00 -0.00000000000E+00 -0.73320682649E+03  0.73320682649E+03  0.00000000000E+00 0. -1.
         25    2    1    2    0    0 -0.16769553391E+03 -0.13331301515E+02 -0.31268183558E+03  0.37642371260E+03  0.12500146164E+03 0.  0.
          2    1    1    2  501    0  0.15985540929E+03  0.80556322318E+02 -0.35726383375E+03  0.39960045026E+03  0.00000000000E+00 0. -1.
          1    1    1    2  502    0  0.78401246164E+01 -0.67225020803E+02  0.10180878646E+03  0.12225260723E+03  0.00000000000E+00 0. -1.
         22    1    3    3    0    0 -0.98296390776E+00 -0.24338412586E+02 -0.29935306952E+01  0.24541511185E+02  0.00000000000E+00 0.  1.
         22    1    3    3    0    0 -0.16671257000E+03  0.11007111071E+02 -0.30968830489E+03  0.35188220142E+03  0.00000000000E+00 0.  1.
</event>
<event>
 7    1  0.3110367E-005  0.1265942E+03  0.7818608E-02  0.1241741E+00
          2   -1    0    0  502    0  0.00000000000E+00  0.00000000000E+00  0.18446888672E+04  0.18446888672E+04  0.00000000000E+00 0. -1.
          1   -1    0    0  501    0 -0.00000000000E+00 -0.00000000000E+00 -0.18811783461E+03  0.18811783461E+03  0.00000000000E+00 0. -1.
         25    2    1    2    0    0  0.10229114324E+03  0.16865436563E+03  0.51669053566E+03  0.56701223616E+03  0.12500397307E+03 0.  0.
          2    1    1    2  501    0  0.68253330485E+01 -0.11511794936E+03 -0.13930702674E+03  0.18084572192E+03  0.00000000000E+00 0. -1.
          1    1    1    2  502    0 -0.10911647629E+03 -0.53536416271E+02  0.12791875237E+04  0.12849487437E+04  0.00000000000E+00 0. -1.
         22    1    3    3    0    0 -0.24201664381E+02  0.66106602157E+02  0.16913976529E+03  0.18320497703E+03  0.00000000000E+00 0. -1.
         22    1    3    3    0    0  0.12649280762E+03  0.10254776348E+03  0.34755077037E+03  0.38380725913E+03  0.00000000000E+00 0. -1.
</event>
<event>
 7    1  0.3110367E-005  0.1799931E+03  0.7818608E-02  0.1177103E+00
          2   -1    0    0  502    0  0.00000000000E+00  0.00000000000E+00  0.12445617087E+04  0.12445617087E+04  0.00000000000E+00 0. -1.
          1   -1    0    0  501    0 -0.00000000000E+00 -0.00000000000E+00 -0.24665467102E+03  0.24665467102E+03  0.00000000000E+00 0. -1.
         25    2    1    2    0    0 -0.24789209326E+03  0.18441858352E+03  0.87161298956E+03  0.93316378895E+03  0.12499899836E+03 0.  0.
          2    1    1    2  501    0  0.17010384172E+03 -0.42409902100E+02 -0.15465929742E+03  0.23378069861E+03  0.00000000000E+00 0. -1.
          1    1    1    2  502    0  0.77788251532E+02 -0.14200868142E+03  0.28095334552E+03  0.32427189214E+03  0.00000000000E+00 0. -1.
         22    1    3    3    0    0 -0.22163869710E+02  0.88408983871E+01  0.10988557768E+02  0.26270649148E+02  0.00000000000E+00 0.  1.
         22    1    3    3    0    0 -0.22572822355E+03  0.17557768513E+03  0.86062443179E+03  0.90689313980E+03  0.00000000000E+00 0.  1.
</event>
<event>
 7    1  0.3110367E-005  0.5834347E+03  0.7818608E-02  0.1012254E+00
          2   -1    0    0  502    0  0.00000000000E+00  0.00000000000E+00  0.92504172561E+03  0.92504172561E+03  0.00000000000E+00 0. -1.
          1   -1    0    0  501    0 -0.00000000000E+00 -0.00000000000E+00 -0.12708481371E+04  0.12708481371E+04  0.00000000000E+00 0. -1.
         25    2    1    2    0    0  0.12269835007E+03  0.54690719474E+03 -0.64619323048E+02  0.57789578815E+03  0.12500208111E+03 0.  0.
          2    1    1    2  501    0  0.31573097472E+03 -0.56064270700E+03 -0.74177234903E+03  0.98195341595E+03  0.00000000000E+00 0. -1.
          1    1    1    2  502    0 -0.43842932479E+03  0.13735512256E+02  0.46058526059E+03  0.63604065861E+03  0.00000000000E+00 0. -1.
         22    1    3    3    0    0 -0.12281913160E+01 -0.66248419735E+01 -0.28207990548E+01  0.73043748802E+01  0.00000000000E+00 0. -1.
         22    1    3    3    0    0  0.12392654139E+03  0.55353203671E+03 -0.61798523994E+02  0.57059141327E+03  0.00000000000E+00 0. -1.
</event>
<event>
 7    1  0.3110367E-005  0.1478397E+03  0.7818608E-02  0.1218034E+00
          2   -1    0    0  502    0  0.00000000000E+00  0.00000000000E+00  0.76855051441E+03  0.76855051441E+03  0.00000000000E+00 0. -1.
          1   -1    0    0  501    0 -0.00000000000E+00 -0.00000000000E+00 -0.61282561162E+03  0.61282561162E+03  0.00000000000E+00 0. -1.
         25    2    1    2    0    0 -0.14910079190E+03 -0.14744623016E+01  0.79231711902E+02  0.21008699850E+03  0.12500265031E+03 0.  0.
          2    1    1    2  501    0  0.46777644548E+02  0.11714660147E+03 -0.53032873533E+03  0.54512387746E+03  0.00000000000E+00 0. -1.
          1    1    1    2  502    0  0.10232314735E+03 -0.11567213917E+03  0.60682192622E+03  0.62616525007E+03  0.00000000000E+00 0. -1.
         22    1    3    3    0    0 -0.14674336407E+02 -0.41090158397E+01  0.73978964997E+02  0.75532161509E+02  0.00000000000E+00 0.  1.
         22    1    3    3    0    0 -0.13442645549E+03  0.26345535381E+01  0.52527469041E+01  0.13455483699E+03  0.00000000000E+00 0.  1.
</event>
<event>
 7    1  0.3110367E-005  0.2315109E+03  0.7818608E-02  0.1158171E+00
          2   -1    0    0  502    0  0.00000000000E+00  0.00000000000E+00  0.35235434126E+03  0.35235434126E+03  0.00000000000E+00 0. -1.
          1   -1    0    0  501    0 -0.00000000000E+00 -0.00000000000E+00 -0.11596130692E+04  0.11596130692E+04  0.00000000000E+00 0. -1.
         25    2    1    2    0    0 -0.18606819942E+03  0.22694664309E+03 -0.27614820862E+03  0.42191608149E+03  0.12501677109E+03 0.  0.
          2    1    1    2  501    0  0.21335449023E+03 -0.72882511538E+02 -0.77119941352E+03  0.80348026385E+03  0.00000000000E+00 0. -1.
          1    1    1    2  502    0 -0.27286290811E+02 -0.15406413155E+03  0.24008889415E+03  0.28657106517E+03  0.00000000000E+00 0. -1.
         22    1    3    3    0    0 -0.58933730641E+02  0.28053947423E+00 -0.56500455177E+02  0.81642909949E+02  0.00000000000E+00 0.  1.
         22    1    3    3    0    0 -0.12713446878E+03  0.22666610361E+03 -0.21964775345E+03  0.34027317154E+03  0.00000000000E+00 0.  1.
</event>
<event>
 7    1  0.3110367E-005  0.3058266E+03  0.7818608E-02  0.1117043E+00
          2   -1    0    0  502    0  0.00000000000E+00  0.00000000000E+00  0.29372155136E+03  0.29372155136E+03  0.00000000000E+00 0. -1.
          1   -1    0    0  501    0 -0.00000000000E+00 -0.00000000000E+00 -0.86567399143E+03  0.86567399143E+03  0.00000000000E+00 0. -1.
         25    2    1    2    0    0  0.31234122306E+03  0.91786421800E+02 -0.11164372151E+03  0.36615737556E+03  0.12500046509E+03 0.  0.
          2    1    1    2  501    0 -0.19473787767E+03 -0.24727044164E+03 -0.50329087597E+03  0.59360527133E+03  0.00000000000E+00 0. -1.
          1    1    1    2  502    0 -0.11760334539E+03  0.15548401984E+03  0.42982157413E+02  0.19963289591E+03  0.00000000000E+00 0. -1.
         22    1    3    3    0    0  0.10223654976E+03  0.69128721908E+02  0.73546076861E+01  0.12363325828E+03  0.00000000000E+00 0.  1.
         22    1    3    3    0    0  0.21010467330E+03  0.22657699892E+02 -0.11899832920E+03  0.24252411728E+03  0.00000000000E+00 0.  1.
</event>
<event>
 7    1  0.3110367E-005  0.6875753E+02  0.7818608E-02  0.1461200E+00
          2   -1    0    0  502    0  0.00000000000E+00  0.00000000000E+00  0.13227107212E+04  0.13227107212E+04  0.00000000000E+00 0. -1.
          1   -1    0    0  501    0 -0.00000000000E+00 -0.00000000000E+00 -0.78943248385E+02  0.78943248385E+02  0.00000000000E+00 0. -1.
         25    2    1    2    0    0 -0.82608519909E+01 -0.56134448643E+02  0.22532352057E+03  0.26384425593E+03  0.12499513776E+03 0.  0.
          2    1    1    2  501    0 -0.32361291734E+02 -0.65143449082E+00 -0.54074185039E+02  0.63021385714E+02  0.00000000000E+00 0. -1.
          1    1    1    2  502    0  0.40622143725E+02  0.56785883134E+02  0.10725181372E+04  0.10747883279E+04  0.00000000000E+00 0. -1.
         22    1    3    3    0    0 -0.14030860095E+02 -0.85022219641E+02  0.87126937136E+02  0.12254283350E+03  0.00000000000E+00 0. -1.
         22    1    3    3    0    0  0.57700081039E+01  0.28887770998E+02  0.13819658344E+03  0.14130142243E+03  0.00000000000E+00 0. -1.
</event>
<event>
 7    1  0.3110367E-005  0.2073224E+03  0.7818608E-02  0.1299674E+00
          2   -1    0    0  502    0  0.00000000000E+00  0.00000000000E+00  0.12643210335E+03  0.12643210335E+03  0.00000000000E+00 0. -1.
          1   -1    0    0  501    0 -0.00000000000E+00 -0.00000000000E+00 -0.11639993155E+04  0.11639993155E+04  0.00000000000E+00 0. -1.
         25    2    1    2    0    0  0.22171450007E+03  0.76560693863E+02 -0.17684778137E+03  0.31924353105E+03  0.12498973941E+03 0.  0.
          2    1    1    2  501    0 -0.18314123520E+03 -0.87981478974E+02 -0.89534562519E+03  0.91810960197E+03  0.00000000000E+00 0. -1.
          1    1    1    2  502    0 -0.38573264867E+02  0.11420785111E+02  0.34626194372E+02  0.53078285878E+02  0.00000000000E+00 0. -1.
         22    1    3    3    0    0  0.82259327083E+02 -0.14703083906E+02 -0.11350742280E+03  0.14094932636E+03  0.00000000000E+00 0. -1.
         22    1    3    3    0    0  0.13945517298E+03  0.91263777768E+02 -0.63340358564E+02  0.17829420469E+03  0.00000000000E+00 0. -1.
</event>
<event>
 7    1  0.3110367E-005  0.2062773E+03  0.7818608E-02  0.1148526E+00
          2   -1    0    0  502    0  0.00000000000E+00  0.00000000000E+00  0.68313999235E+03  0.68313999235E+03  0.00000000000E+00 0. -1.
          1   -1    0    0  501    0 -0.00000000000E+00 -0.00000000000E+00 -0.21602862065E+04  0.21602862065E+04  0.00000000000E+00 0. -1.
         25    2    1    2    0    0 -0.23618617693E+03  0.14444567380E+03 -0.89057770834E+03  0.94095754863E+03  0.12499596343E+03 0.  0.
          2    1    1    2  501    0  0.18846374787E+03  0.56410260264E+02 -0.12202498948E+04  0.12360058687E+04  0.00000000000E+00 0. -1.
          1    1    1    2  502    0  0.47722429063E+02 -0.20085593406E+03  0.63368138896E+03  0.66646278155E+03  0.00000000000E+00 0. -1.
         22    1    3    3    0    0 -0.26575805905E+01  0.22493443448E+02 -0.16454936050E+02  0.27996118537E+02  0.00000000000E+00 0.  1.
         22    1    3    3    0    0 -0.23352859634E+03  0.12195223035E+03 -0.87412277229E+03  0.91296143009E+03  0.00000000000E+00 0.  1.
</event>
<event>
 7    1  0.3110367E-005  0.1181428E+03  0.7818608E-02  0.1292644E+00
          2   -1    0    0  502    0  0.00000000000E+00  0.00000000000E+00  0.68864588365E+03  0.68864588365E+03  0.00000000000E+00 0. -1.
          1   -1    0    0  501    0 -0.00000000000E+00 -0.00000000000E+00 -0.45258510934E+03  0.45258510934E+03  0.00000000000E+00 0. -1.
         25    2    1    2    0    0  0.11435495874E+03  0.24278122354E+02  0.10785836785E+03  0.20229980481E+03  0.12500119878E+03 0.  0.
          2    1    1    2  501    0 -0.78184754646E+02 -0.90380264611E+02 -0.39379218208E+03  0.41152609972E+03  0.00000000000E+00 0. -1.
          1    1    1    2  502    0 -0.36170204093E+02  0.66102142257E+02  0.52199458853E+03  0.52740508846E+03  0.00000000000E+00 0. -1.
         22    1    3    3    0    0  0.72831586523E+02  0.71157377850E+02  0.93079026359E+02  0.13795476638E+03  0.00000000000E+00 0.  1.
         22    1    3    3    0    0  0.41523372217E+02 -0.46879255496E+02  0.14779341496E+02  0.64345038434E+02  0.00000000000E+00 0.  1.
</event>
<event>
 7    1  0.3110367E-005  0.1323417E+03  0.7818608E-02  0.1361678E+00
          2   -1    0    0  502    0  0.00000000000E+00  0.00000000000E+00  0.15626094877E+03  0.15626094877E+03  0.00000000000E+00 0. -1.
          1   -1    0    0  501    0 -0.00000000000E+00 -0.00000000000E+00 -0.69642693283E+03  0.69642693283E+03  0.00000000000E+00 0. -1.
         25    2    1    2    0    0 -0.15319472797E+03 -0.53790866341E+02 -0.18713276217E+03  0.27749977931E+03  0.12500149942E+03 0.  0.
          2    1    1    2  501    0  0.29808644075E+02  0.21126533961E+02 -0.42640370065E+03  0.42796612206E+03  0.00000000000E+00 0. -1.
          1    1    1    2  502    0  0.12338608390E+03  0.32664332381E+02  0.73370478759E+02  0.14722198023E+03  0.00000000000E+00 0. -1.
         22    1    3    3    0    0 -0.71486423147E+02 -0.33337918762E+02 -0.76651896154E+01  0.79249483617E+02  0.00000000000E+00 0.  1.
         22    1    3    3    0    0 -0.81708304828E+02 -0.20452947579E+02 -0.17946757255E+03  0.19825029569E+03  0.00000000000E+00 0.  1.
</event>
<event>
 7    1  0.3110367E-005  0.2841532E+03  0.7818608E-02  0.1255293E+00
          2   -1    0    0  502    0  0.00000000000E+00  0.00000000000E+00  0.10245211601E+04  0.10245211601E+04  0.00000000000E+00 0. -1.
          1   -1    0    0  501    0 -0.00000000000E+00 -0.00000000000E+00 -0.65072034439E+03  0.65072034439E+03  0.00000000000E+00 0. -1.
         25    2    1    2    0    0 -0.13489891237E+03 -0.27270350003E+03 -0.92746437159E+02  0.34174899556E+03  0.12500223549E+03 0.  0.
          2    1    1    2  501    0 -0.22907238831E+02  0.38566909715E+02 -0.41007473411E+03  0.41252083059E+03  0.00000000000E+00 0. -1.
          1    1    1    2  502    0  0.15780615120E+03  0.23413659031E+03  0.87662198698E+03  0.92097167836E+03  0.00000000000E+00 0. -1.
         22    1    3    3    0    0 -0.60355642805E+01 -0.68120093841E+02 -0.71645474912E+02  0.99044683333E+02  0.00000000000E+00 0.  1.
         22    1    3    3    0    0 -0.12886334809E+03 -0.20458340618E+03 -0.21100962247E+02  0.24270431223E+03  0.00000000000E+00 0.  1.
</event>
<event>
 7    1  0.3110367E-005  0.6956550E+02  0.7818608E-02  0.1365368E+00
          2   -1    0    0  502    0  0.00000000000E+00  0.00000000000E+00  0.73556582307E+02  0.73556582307E+02  0.00000000000E+00 0. -1.
          1   -1    0    0  501    0 -0.00000000000E+00 -0.00000000000E+00 -0.19723592610E+04  0.19723592610E+04  0.00000000000E+00 0. -1.
         25    2    1    2    0    0  0.39681052795E+02 -0.82466375034E+01 -0.83725684050E+03  0.84750607670E+03  0.12499976042E+03 0.  0.
          2    1    1    2  501    0 -0.27607396537E+02 -0.61481750005E+02 -0.11103839029E+04  0.11124273395E+04  0.00000000000E+00 0. -1.
          1    1    1    2  502    0 -0.12073656258E+02  0.69728387509E+02  0.48838064708E+02  0.85982427067E+02  0.00000000000E+00 0. -1.
         22    1    3    3    0    0 -0.72456463898E+00 -0.53008138433E+02 -0.61285023681E+03  0.61513884652E+03  0.00000000000E+00 0.  1.
         22    1    3    3    0    0  0.40405617434E+02  0.44761500929E+02 -0.22440660368E+03  0.23236723018E+03  0.00000000000E+00 0.  1.
</event>
<event>
 7    1  0.3110367E-005  0.7562166E+03  0.7818608E-02  0.1051574E+00
          2   -1    0    0  502    0  0.00000000000E+00  0.00000000000E+00  0.12376316452E+04  0.12376316452E+04  0.00000000000E+00 0. -1.
          1   -1    0    0  501    0 -0.00000000000E+00 -0.00000000000E+00 -0.93638551922E+03  0.93638551922E+03  0.00000000000E+00 0. -1.
         25    2    1    2    0    0 -0.67229511606E+03  0.53916491651E+03  0.71995728725E+03  0.11298861772E+04  0.12499899038E+03 0.  0.
          2    1    1    2  501    0  0.48359342166E+03 -0.55313558841E+03 -0.43562093559E+03  0.85415875349E+03  0.00000000000E+00 0. -1.
          1    1    1    2  502    0  0.18870169440E+03  0.13970671903E+02  0.16909774328E+02  0.18997223379E+03  0.00000000000E+00 0. -1.
         22    1    3    3    0    0 -0.63453975057E+03  0.52989232413E+03  0.71004212818E+03  0.10897643755E+04  0.00000000000E+00 0. -1.
         22    1    3    3    0    0 -0.37755365486E+02  0.92725923810E+01  0.99151590762E+01  0.40121801703E+02  0.00000000000E+00 0. -1.
</event>
<event>
 7    1  0.3110367E-005  0.1370453E+04  0.7818608E-02  0.9338162E-01
          2   -1    0    0  502    0  0.00000000000E+00  0.00000000000E+00  0.20818573199E+04  0.20818573199E+04  0.00000000000E+00 0. -1.
          1   -1    0    0  501    0 -0.00000000000E+00 -0.00000000000E+00 -0.45023140455E+04  0.45023140455E+04  0.00000000000E+00 0. -1.
         25    2    1    2    0    0 -0.38257483091E+03  0.13394726804E+04  0.98172020850E+03  0.17087859460E+04  0.12499711472E+03 0.  0.
          2    1    1    2  501    0  0.68818205939E+03  0.67066876350E+02 -0.33652553499E+04  0.34355546980E+04  0.00000000000E+00 0. -1.
          1    1    1    2  502    0 -0.30560722848E+03 -0.14065395568E+04 -0.36921584148E+02  0.14398307214E+04  0.00000000000E+00 0. -1.
         22    1    3    3    0    0 -0.29475525668E+03  0.10179451083E+04  0.80987884000E+03  0.13337903285E+04  0.00000000000E+00 0.  1.
         22    1    3    3    0    0 -0.87819574232E+02  0.32152757207E+03  0.17184136850E+03  0.37499561751E+03  0.00000000000E+00 0.  1.
</event>
<event>
 7    1  0.3110367E-005  0.6719561E+03  0.7818608E-02  0.1041751E+00
          2   -1    0    0  502    0  0.00000000000E+00  0.00000000000E+00  0.15381188260E+04  0.15381188260E+04  0.00000000000E+00 0. -1.
          1   -1    0    0  501    0 -0.00000000000E+00 -0.00000000000E+00 -0.56962146268E+03  0.56962146268E+03  0.00000000000E+00 0. -1.
         25    2    1    2    0    0  0.22451349023E+03 -0.75870271982E+03  0.42498997603E+03  0.90679519083E+03  0.12499965608E+03 0.  0.
          2    1    1    2  501    0 -0.20197923443E+03  0.13902691979E+03 -0.13652377311E+03  0.28064717385E+03  0.00000000000E+00 0. -1.
          1    1    1    2  502    0 -0.22534255805E+02  0.61967580003E+03  0.68003116041E+03  0.92029792402E+03  0.00000000000E+00 0. -1.
         22    1    3    3    0    0 -0.28860368054E+01 -0.40810505393E+02 -0.22838100870E+01  0.40976119233E+02  0.00000000000E+00 0. -1.
         22    1    3    3    0    0  0.22739952704E+03 -0.71789221443E+03  0.42727378612E+03  0.86581907160E+03  0.00000000000E+00 0. -1.
</event>
<event>
 7    1  0.3110367E-005  0.1292867E+03  0.7818608E-02  0.1276608E+00
          2   -1    0    0  502    0  0.00000000000E+00  0.00000000000E+00  0.13261671204E+04  0.13261671204E+04  0.00000000000E+00 0. -1.
          1   -1    0    0  501    0 -0.00000000000E+00 -0.00000000000E+00 -0.71259872224E+02  0.71259872224E+02  0.00000000000E+00 0. -1.
         25    2    1    2    0    0 -0.99250478027E+02 -0.10259448524E+03  0.95814645916E+03  0.97675289742E+03  0.12500119851E+03 0.  0.
          2    1    1    2  501    0 -0.23024445917E+02  0.76736890841E+02 -0.17908617495E+02  0.82093812838E+02  0.00000000000E+00 0. -1.
          1    1    1    2  502    0  0.12227492394E+03  0.25857594400E+02  0.31466940653E+03  0.33858028239E+03  0.00000000000E+00 0. -1.
         22    1    3    3    0    0 -0.72995984092E+01  0.27142762713E+02  0.94598334000E+02  0.98685654987E+02  0.00000000000E+00 0.  1.
         22    1    3    3    0    0 -0.91950879618E+02 -0.12973724795E+03  0.86354812516E+03  0.87806724244E+03  0.00000000000E+00 0.  1.
</event>
<event>
 7    1  0.3110367E-005  0.1146890E+03  0.7818608E-02  0.1253807E+00
          2   -1    0    0  502    0  0.00000000000E+00  0.00000000000E+00  0.55544295965E+03  0.55544295965E+03  0.00000000000E+00 0. -1.
          1   -1    0    0  501    0 -0.00000000000E+00 -0.00000000000E+00 -0.10749658174E+03  0.10749658174E+03  0.00000000000E+00 0. -1.
         25    2    1    2    0    0 -0.36883662744E+02 -0.85297233030E+02  0.21528055253E+03  0.26572010361E+03  0.12500173849E+03 0.  0.
          2    1    1    2  501    0 -0.76559812630E+02  0.10215363680E+03 -0.10777678511E+02  0.12811295320E+03  0.00000000000E+00 0. -1.
          1    1    1    2  502    0  0.11344347537E+03 -0.16856403775E+02  0.24344350390E+03  0.26910648458E+03  0.00000000000E+00 0. -1.
         22    1    3    3    0    0  0.35704046897E+02 -0.72355695513E+02  0.95010599327E+02  0.12464806305E+03  0.00000000000E+00 0. -1.
         22    1    3    3    0    0 -0.72587709641E+02 -0.12941537517E+02  0.12026995320E+03  0.14107204056E+03  0.00000000000E+00 0. -1.
</event>
<event>
 7    1  0.3110367E-005  0.4346953E+03  0.7818608E-02  0.1137477E+00
          2   -1    0    0  502    0  0.00000000000E+00  0.00000000000E+00  0.74131341720E+03  0.74131341720E+03  0.00000000000E+00 0. -1.
          1   -1    0    0  501    0 -0.00000000000E+00 -0.00000000000E+00 -0.70059894493E+03  0.70059894493E+03  0.00000000000E+00 0. -1.
         25    2    1    2    0    0 -0.16650997186E+03  0.39426816487E+03 -0.10893392921E+02  0.44600235673E+03  0.12500591842E+03 0.  0.
          2    1    1    2  501    0  0.98125387459E+02  0.41610377250E+02 -0.37036471507E+03  0.38539594877E+03  0.00000000000E+00 0. -1.
          1    1    1    2  502    0  0.68384584400E+02 -0.43587854212E+03  0.42197258026E+03  0.61051405664E+03  0.00000000000E+00 0. -1.
         22    1    3    3    0    0 -0.10840660805E+03  0.36509852637E+03 -0.97807611289E+01  0.38097846384E+03  0.00000000000E+00 0. -1.
         22    1    3    3    0    0 -0.58103363809E+02  0.29169638501E+02 -0.11126317917E+01  0.65023892884E+02  0.00000000000E+00 0. -1.
</event>
<event>
 7    1  0.3110367E-005  0.1713473E+03  0.7818608E-02  0.1231254E+00
          2   -1    0    0  502    0  0.00000000000E+00  0.00000000000E+00  0.23203641285E+04  0.23203641285E+04  0.00000000000E+00 0. -1.
          1   -1    0    0  501    0 -0.00000000000E+00 -0.00000000000E+00 -0.60565866252E+02  0.60565866252E+02  0.00000000000E+00 0. -1.
         25    2    1    2    0    0 -0.17395729090E+03 -0.12911169148E+03  0.73812303430E+03  0.77934692018E+03  0.12500016123E+03 0.  0.
          2    1    1    2  501    0  0.80197287923E+02  0.14334047122E+03  0.13762180838E+03  0.21428452539E+03  0.00000000000E+00 0. -1.
          1    1    1    2  502    0  0.93760002978E+02 -0.14228779738E+02  0.13840534196E+04  0.13872985492E+04  0.00000000000E+00 0. -1.
         22    1    3    3    0    0 -0.77982679926E+02 -0.33632999514E+02  0.12279141101E+03  0.14929905439E+03  0.00000000000E+00 0.  1.
         22    1    3    3    0    0 -0.95974610975E+02 -0.95478691964E+02  0.61533162329E+03  0.63004786579E+03  0.00000000000E+00 0.  1.
</event>
<event>
 7    1  0.3110367E-005  0.1357495E+03  0.7818608E-02  0.1336747E+00
          2   -1    0    0  502    0  0.00000000000E+00  0.00000000000E+00  0.45555612894E+03  0.45555612894E+03  0.00000000000E+00 0. -1.
          1   -1    0    0  501    0 -0.00000000000E+00 -0.00000000000E+00 -0.97118183584E+02  0.97118183584E+02  0.00000000000E+00 0. -1.
         25    2    1    2    0    0  0.38261222858E+02 -0.12706926546E+03  0.18326779973E+03  0.25850086368E+03  0.12500036283E+03 0.  0.
          2    1    1    2  501    0 -0.42118631802E+02 -0.12979581642E+02 -0.24368619439E+02  0.50361476326E+02  0.00000000000E+00 0. -1.
          1    1    1    2  502    0  0.38574089441E+01  0.14004884710E+03  0.19953876506E+03  0.24381197251E+03  0.00000000000E+00 0. -1.
         22    1    3    3    0    0  0.53047090833E+02 -0.60425746572E+02  0.21972845038E+02  0.83355087510E+02  0.00000000000E+00 0.  1.
         22    1    3    3    0    0 -0.14785867976E+02 -0.66643518888E+02  0.16129495469E+03  0.17514577617E+03  0.00000000000E+00 0.  1.
</event>
<event>
 7    1  0.3110367E-005  0.2172202E+03  0.7818608E-02  0.1243876E+00
          2   -1    0    0  502    0  0.00000000000E+00  0.00000000000E+00  0.26091452700E+03  0.26091452700E+03  0.00000000000E+00 0. -1.
          1   -1    0    0  501    0 -0.00000000000E+00 -0.00000000000E+00 -0.33134664973E+03  0.33134664973E+03  0.00000000000E+00 0. -1.
         25    2    1    2    0    0 -0.40607672117E+02 -0.20383857000E+03 -0.15864360426E+03  0.28981735456E+03  0.12500864040E+03 0.  0.
          2    1    1    2  501    0 -0.65369202298E+02  0.72755987737E+01  0.24930346324E+02  0.70339100893E+02  0.00000000000E+00 0. -1.
          1    1    1    2  502    0  0.10597687442E+03  0.19656297123E+03  0.63281135200E+02  0.23210472128E+03  0.00000000000E+00 0. -1.
         22    1    3    3    0    0 -0.27086369357E+02 -0.12379358440E+02  0.12842795549E+02  0.32432349866E+02  0.00000000000E+00 0.  1.
         22    1    3    3    0    0 -0.13521302760E+02 -0.19145921156E+03 -0.17148639981E+03  0.25738500469E+03  0.00000000000E+00 0.  1.
</event>
<event>
 7    1  0.3110367E-005  0.1233586E+03  0.7818608E-02  0.1420208E+00
          2   -1    0    0  502    0  0.00000000000E+00  0.00000000000E+00  0.77112340856E+03  0.77112340856E+03  0.00000000000E+00 0. -1.
          1   -1    0    0  501    0 -0.00000000000E+00 -0.00000000000E+00 -0.23436455236E+04  0.23436455236E+04  0.00000000000E+00 0. -1.
         25    2    1    2    0    0  0.10338075204E+03 -0.98822127537E+01  0.32847498557E+03  0.36647791030E+03  0.12500001826E+03 0.  0.
          2    1    1    2  501    0 -0.12338087923E+03 -0.42710845664E+01 -0.23226490995E+04  0.23259277553E+04  0.00000000000E+00 0. -1.
          1    1    1    2  502    0  0.20000127192E+02  0.14153297320E+02  0.42165199880E+03  0.42236326663E+03  0.00000000000E+00 0. -1.
         22    1    3    3    0    0 -0.23434678666E+02 -0.16412254723E+02  0.11115676873E+03  0.11477967374E+03  0.00000000000E+00 0. -1.
         22    1    3    3    0    0  0.12681543071E+03  0.65300419693E+01  0.21731821685E+03  0.25169823656E+03  0.00000000000E+00 0. -1.
</event>
<event>
 7    1  0.3110367E-005  0.3310129E+03  0.7818608E-02  0.1091378E+00
          2   -1    0    0  502    0  0.00000000000E+00  0.00000000000E+00  0.12517890401E+04  0.12517890401E+04  0.00000000000E+00 0. -1.
          1   -1    0    0  501    0 -0.00000000000E+00 -0.00000000000E+00 -0.26904888792E+03  0.26904888792E+03  0.00000000000E+00 0. -1.
         25    2    1    2    0    0  0.89293787078E+01  0.26199417786E+03 -0.35835664157E+02  0.29262614653E+03  0.12500073507E+03 0.  0.
          2    1    1    2  501    0  0.30996415013E+03 -0.17324487679E+03  0.51258958400E+03  0.62357007892E+03  0.00000000000E+00 0. -1.
          1    1    1    2  502    0 -0.31889352884E+03 -0.88749301064E+02  0.50598623231E+03  0.60464170255E+03  0.00000000000E+00 0. -1.
         22    1    3    3    0    0 -0.21602100594E+02  0.27324182760E+02  0.31098507842E+02  0.46694527555E+02  0.00000000000E+00 0.  1.
         22    1    3    3    0    0  0.30531479302E+02  0.23466999510E+03 -0.66934171999E+02  0.24593161897E+03  0.00000000000E+00 0.  1.
</event>
<event>
 7    1  0.3110367E-005  0.8824184E+02  0.7818608E-02  0.1401189E+00
          2   -1    0    0  502    0  0.00000000000E+00  0.00000000000E+00  0.27355075885E+03  0.27355075885E+03  0.00000000000E+00 0. -1.
          1   -1    0    0  501    0 -0.00000000000E+00 -0.00000000000E+00 -0.57401175528E+03  0.57401175528E+03  0.00000000000E+00 0. -1.
         25    2    1    2    0    0  0.10789810695E+03  0.60900143193E+02  0.64008752683E+02  0.18726921092E+03  0.12498723140E+03 0.  0.
          2    1    1    2  501    0 -0.68861758007E+02 -0.53530637324E+02 -0.50591336098E+03  0.51337685930E+03  0.00000000000E+00 0. -1.
          1    1    1    2  502    0 -0.39036348948E+02 -0.73695058694E+01  0.14144361186E+03  0.14691644392E+03  0.00000000000E+00 0. -1.
         22    1    3    3    0    0 -0.11103346087E+02  0.21147528915E+02 -0.24119895440E+02  0.33945126743E+02  0.00000000000E+00 0. -1.
         22    1    3    3    0    0  0.11900145304E+03  0.39752614278E+02  0.88128648123E+02  0.15332408417E+03  0.00000000000E+00 0. -1.
</event>
<event>
 7    1  0.3110367E-005  0.6536346E+03  0.7818608E-02  0.1155566E+00
          2   -1    0    0  502    0  0.00000000000E+00  0.00000000000E+00  0.23894457634E+04  0.23894457634E+04  0.00000000000E+00 0. -1.
          1   -1    0    0  501    0 -0.00000000000E+00 -0.00000000000E+00 -0.15892410434E+04  0.15892410434E+04  0.00000000000E+00 0. -1.
         25    2    1    2    0    0  0.24839732223E+03  0.55972458069E+03  0.18504844775E+04  0.19531798792E+04  0.12500401292E+03 0.  0.
          2    1    1    2  501    0 -0.22955340266E+03 -0.61366000642E+03 -0.14660684649E+04  0.16058113562E+04  0.00000000000E+00 0. -1.
          1    1    1    2  502    0 -0.18843919578E+02  0.53935425735E+02  0.41578870739E+03  0.41969557139E+03  0.00000000000E+00 0. -1.
         22    1    3    3    0    0  0.12697406316E+03  0.15423082028E+03  0.52362046930E+03  0.56043550433E+03  0.00000000000E+00 0.  1.
         22    1    3    3    0    0  0.12142325908E+03  0.40549376041E+03  0.13268640082E+04  0.13927443749E+04  0.00000000000E+00 0.  1.
</event>
<event>
 7    1  0.3110367E-005  0.1346742E+03  0.7818608E-02  0.1340984E+00
          2   -1    0    0  502    0  0.00000000000E+00  0.00000000000E+00  0.84860495070E+03  0.84860495070E+03  0.00000000000E+00 0. -1.
          1   -1    0    0  501    0 -0.00000000000E+00 -0.00000000000E+00 -0.10853775316E+03  0.10853775316E+03  0.00000000000E+00 0. -1.
         25    2    1    2    0    0  0.10180973138E+03 -0.96885090616E+02  0.78126105119E+03  0.80358328367E+03  0.12500128594E+03 0.  0.
          2    1    1    2  501    0 -0.40702549346E+02  0.13302436910E+02 -0.22411569960E+02  0.48331468207E+02  0.00000000000E+00 0. -1.
          1    1    1    2  502    0 -0.61107182035E+02  0.83582653706E+02 -0.18782283697E+02  0.10522795198E+03  0.00000000000E+00 0. -1.
         22    1    3    3    0    0  0.12043073656E+03 -0.66232044103E+02  0.71641329828E+03  0.72947807364E+03  0.00000000000E+00 0.  1.
         22    1    3    3    0    0 -0.18621005180E+02 -0.30653046513E+02  0.64847752919E+02  0.74105210026E+02  0.00000000000E+00 0.  1.
</event>
<event>
 7    1  0.3110367E-005  0.1029087E+03  0.7818608E-02  0.1322932E+00
          2   -1    0    0  502    0  0.00000000000E+00  0.00000000000E+00  0.19077371740E+03  0.19077371740E+03  0.00000000000E+00 0. -1.
          1   -1    0    0  501    0 -0.00000000000E+00 -0.00000000000E+00 -0.15091635268E+04  0.15091635268E+04  0.00000000000E+00 0. -1.
         25    2    1    2    0    0 -0.40418155099E+02 -0.13073447891E+03 -0.22667743083E+03  0.29280234232E+03  0.12500169112E+03 0.  0.
          2    1    1    2  501    0 -0.30645184624E+02  0.58061158763E+02 -0.12320813223E+04  0.12338292468E+04  0.00000000000E+00 0. -1.
          1    1    1    2  502    0  0.71063339723E+02  0.72673320148E+02  0.14036894374E+03  0.17330565507E+03  0.00000000000E+00 0. -1.
         22    1    3    3    0    0 -0.46100173152E+02  0.22899191013E+01 -0.94599645896E+02  0.10525950170E+03  0.00000000000E+00 0. -1.
         22    1    3    3    0    0  0.56820180530E+01 -0.13302439801E+03 -0.13207778493E+03  0.18754284062E+03  0.00000000000E+00 0. -1.
</event>
<event>
 7    1  0.3110367E-005  0.1226391E+04  0.7818608E-02  0.1041846E+00
          2   -1    0    0  502    0  0.00000000000E+00  0.00000000000E+00  0.16851628011E+04  0.16851628011E+04  0.00000000000E+00 0. -1.
          1   -1    0    0  501    0 -0.00000000000E+00 -0.00000000000E+00 -0.16657891188E+04  0.16657891188E+04  0.00000000000E+00 0. -1.
         25    2    1    2    0    0  0.11714232247E+04  0.28715071435E+03 -0.44735123958E+02  0.12133862368E+04  0.12496809333E+03 0.  0.
          2    1    1    2  501    0 -0.11684122108E+04 -0.42128305383E+03 -0.65629577301E+03  0.14047742336E+04  0.00000000000E+00 0. -1.
          1    1    1    2  502    0 -0.30110139124E+01  0.13413233948E+03  0.72040457927E+03  0.73279144954E+03  0.00000000000E+00 0. -1.
         22    1    3    3    0    0  0.17996211607E+03  0.24032089005E+02  0.33507025567E+02  0.18462563550E+03  0.00000000000E+00 0. -1.
         22    1    3    3    0    0  0.99146110860E+03  0.26311862534E+03 -0.78242149525E+02  0.10287606013E+04  0.00000000000E+00 0. -1.
</event>
<event>
 7    1  0.3110367E-005  0.7719936E+02  0.7818608E-02  0.1424310E+00
          2   -1    0    0  502    0  0.00000000000E+00  0.00000000000E+00  0.80730104420E+03  0.80730104420E+03  0.00000000000E+00 0. -1.
          1   -1    0    0  501    0 -0.00000000000E+00 -0.00000000000E+00 -0.42812133567E+03  0.42812133567E+03  0.00000000000E+00 0. -1.
         25    2    1    2    0    0 -0.31038675543E+02 -0.39674209076E+02  0.48669401751E+01  0.13485617433E+03  0.12500023361E+03 0.  0.
          2    1    1    2  501    0 -0.37844874826E+02  0.26793891128E+01 -0.36005466818E+03  0.36204803239E+03  0.00000000000E+00 0. -1.
          1    1    1    2  502    0  0.68883550368E+02  0.36994819963E+02  0.73436743655E+03  0.73851817315E+03  0.00000000000E+00 0. -1.
         22    1    3    3    0    0 -0.26667390625E+02 -0.56810942055E+02  0.53902287479E+02  0.82729012174E+02  0.00000000000E+00 0. -1.
         22    1    3    3    0    0 -0.43712849178E+01  0.17136732979E+02 -0.49035347304E+02  0.52127162154E+02  0.00000000000E+00 0. -1.
</event>
<event>
 7    1  0.3110367E-005  0.5881835E+03  0.7818608E-02  0.1109946E+00
          2   -1    0    0  502    0  0.00000000000E+00  0.00000000000E+00  0.23441579949E+04  0.23441579949E+04  0.00000000000E+00 0. -1.
          1   -1    0    0  501    0 -0.00000000000E+00 -0.00000000000E+00 -0.12524837737E+04  0.12524837737E+04  0.00000000000E+00 0. -1.
         25    2    1    2    0    0 -0.57202569920E+03 -0.10541896551E+03  0.35643209246E+03  0.69354419016E+03  0.12503258911E+03 0.  0.
          2    1    1    2  501    0 -0.20319533102E+02  0.10901133417E+03 -0.10326599923E+04  0.10385966561E+04  0.00000000000E+00 0. -1.
          1    1    1    2  502    0  0.59234523230E+03 -0.35923686588E+01  0.17679021211E+04  0.18645009223E+04  0.00000000000E+00 0. -1.
         22    1    3    3    0    0 -0.53689578400E+03 -0.12956532501E+03  0.32991124348E+03  0.64333947873E+03  0.00000000000E+00 0.  1.
         22    1    3    3    0    0 -0.35129915197E+02  0.24146359501E+02  0.26520848979E+02  0.50204711426E+02  0.00000000000E+00 0.  1.
</event>
<event>
 7    1  0.3110367E-005  0.1092737E+03  0.7818608E-02  0.1333966E+00
          2   -1    0    0  502    0  0.00000000000E+00  0.00000000000E+00  0.31314210417E+03  0.31314210417E+03  0.00000000000E+00 0. -1.
          1   -1    0    0  501    0 -0.00000000000E+00 -0.00000000000E+00 -0.13655642519E+04  0.13655642519E+04  0.00000000000E+00 0. -1.
         25    2    1    2    0    0 -0.43892758325E+02 -0.13957347545E+03 -0.80936854250E+03  0.83193137153E+03  0.12500016025E+03 0.  0.
          2    1    1    2  501    0  0.47379179360E+02  0.83586013219E+02 -0.53801499482E+03  0.54652679980E+03  0.00000000000E+00 0. -1.
          1    1    1    2  502    0 -0.34864210358E+01  0.55987462234E+02  0.29496138962E+03  0.30024818472E+03  0.00000000000E+00 0. -1.
         22    1    3    3    0    0  0.35748379132E+02 -0.35642362816E+02 -0.37121793035E+03  0.37463459057E+03  0.00000000000E+00 0. -1.
         22    1    3    3    0    0 -0.79641137457E+02 -0.10393111264E+03 -0.43815061215E+03  0.45729678096E+03  0.00000000000E+00 0. -1.
</event>
<event>
 7    1  0.3110367E-005  0.1644727E+03  0.7818608E-02  0.1247181E+00
          2   -1    0    0  502    0  0.00000000000E+00  0.00000000000E+00  0.58670562222E+03  0.58670562222E+03  0.00000000000E+00 0. -1.
          1   -1    0    0  501    0 -0.00000000000E+00 -0.00000000000E+00 -0.70144611891E+03  0.70144611891E+03  0.00000000000E+00 0. -1.
         25    2    1    2    0    0  0.81687265774E+02  0.19183419775E+02  0.43219962381E+03  0.45767046284E+03  0.12499969899E+03 0.  0.
          2    1    1    2  501    0 -0.16562866853E+03 -0.15427854364E+02 -0.66504679401E+03  0.68553490995E+03  0.00000000000E+00 0. -1.
          1    1    1    2  502    0  0.83941402759E+02 -0.37555654107E+01  0.11810667351E+03  0.14494636834E+03  0.00000000000E+00 0. -1.
         22    1    3    3    0    0  0.64926833272E+02  0.41539818297E+01  0.43017554337E+03  0.43506752046E+03  0.00000000000E+00 0. -1.
         22    1    3    3    0    0  0.16760432502E+02  0.15029437945E+02  0.20240804410E+01  0.22602942380E+02  0.00000000000E+00 0. -1.
</event>
<event>
 7    1  0.3110367E-005  0.3567792E+03  0.7818608E-02  0.1166881E+00
          2   -1    0    0  502    0  0.00000000000E+00  0.00000000000E+00  0.13495026412E+04  0.13495026412E+04  0.00000000000E+00 0. -1.
          1   -1    0    0  501    0 -0.00000000000E+00 -0.00000000000E+00 -0.17009317797E+04  0.17009317797E+04  0.00000000000E+00 0. -1.
         25    2    1    2    0    0  0.48721946434E+02 -0.31134655861E+03 -0.37181270382E+03  0.50317153829E+03  0.12500561028E+03 0.  0.
          2    1    1    2  501    0 -0.13037871847E+03  0.35324818778E+03 -0.12336704049E+04  0.12898548602E+04  0.00000000000E+00 0. -1.
          1    1    1    2  502    0  0.81656772032E+02 -0.41901629168E+02  0.12540539702E+04  0.12574080225E+04  0.00000000000E+00 0. -1.
         22    1    3    3    0    0 -0.12356771453E+02 -0.18050231640E+03 -0.13474048690E+03  0.22558540475E+03  0.00000000000E+00 0.  1.
         22    1    3    3    0    0  0.61078717887E+02 -0.13084424221E+03 -0.23707221692E+03  0.27758613354E+03  0.00000000000E+00 0.  1.
</event>
<event>
 7    1  0.3110367E-005  0.1517134E+03  0.7818608E-02  0.1304984E+00
          2   -1    0    0  502    0  0.00000000000E+00  0.00000000000E+00  0.10478177772E+04  0.10478177772E+04  0.00000000000E+00 0. -1.
          1   -1    0    0  501    0 -0.00000000000E+00 -0.00000000000E+00 -0.16142337726E+03  0.16142337726E+03  0.00000000000E+00 0. -1.
         25    2    1    2    0    0 -0.16904503286E+03  0.33957057594E+01 -0.18623307811E+02  0.21109360040E+03  0.12500370628E+03 0.  0.
          2    1    1    2  501    0  0.24119288940E+02 -0.46471094050E+02 -0.23508241579E+02  0.57392857598E+02  0.00000000000E+00 0. -1.
          1    1    1    2  502    0  0.14492574392E+03  0.43075388290E+02  0.92852594929E+03  0.94075469642E+03  0.00000000000E+00 0. -1.
         22    1    3    3    0    0 -0.16496653967E+02  0.17946553229E+02  0.40148266635E+02  0.46969156674E+02  0.00000000000E+00 0. -1.
         22    1    3    3    0    0 -0.15254837889E+03 -0.14550847470E+02 -0.58771574445E+02  0.16412444372E+03  0.00000000000E+00 0. -1.
</event>
<event>
 7    1  0.3110367E-005  0.4307616E+03  0.7818608E-02  0.1065164E+00
          2   -1    0    0  502    0  0.00000000000E+00  0.00000000000E+00  0.46411729615E+03  0.46411729615E+03  0.00000000000E+00 0. -1.
          1   -1    0    0  501    0 -0.00000000000E+00 -0.00000000000E+00 -0.21666168462E+04  0.21666168462E+04  0.00000000000E+00 0. -1.
         25    2    1    2    0    0  0.12064933704E+02  0.41868032813E+03 -0.33446308958E+02  0.43838619438E+03  0.12500008021E+03 0.  0.
          2    1    1    2  501    0  0.27292925068E+03 -0.29209191789E+02 -0.16872173686E+04  0.17093993102E+04  0.00000000000E+00 0. -1.
          1    1    1    2  502    0 -0.28499418439E+03 -0.38947113634E+03  0.18164127530E+02  0.48294863775E+03  0.00000000000E+00 0. -1.
         22    1    3    3    0    0  0.29468577800E+02  0.27615486664E+03  0.33915704666E+02  0.27978595831E+03  0.00000000000E+00 0.  1.
         22    1    3    3    0    0 -0.17403644096E+02  0.14252546149E+03 -0.67362013624E+02  0.15860023607E+03  0.00000000000E+00 0.  1.
</event>
<event>
 7    1  0.3110367E-005  0.1408086E+03  0.7818608E-02  0.1254746E+00
          2   -1    0    0  502    0  0.00000000000E+00  0.00000000000E+00  0.22692738932E+04  0.22692738932E+04  0.00000000000E+00 0. -1.
          1   -1    0    0  501    0 -0.00000000000E+00 -0.00000000000E+00 -0.45749715810E+03  0.45749715810E+03  0.00000000000E+00 0. -1.
         25    2    1    2    0    0 -0.12147781918E+03  0.89203633620E+02  0.15178184048E+03  0.24774680888E+03  0.12500642147E+03 0.  0.
          2    1    1    2  501    0  0.14188003469E+03 -0.50571984159E+00 -0.39618867101E+03  0.42082735537E+03  0.00000000000E+00 0. -1.
          1    1    1    2  502    0 -0.20402215513E+02 -0.88697913779E+02  0.20561835656E+04  0.20581968871E+04  0.00000000000E+00 0. -1.
         22    1    3    3    0    0 -0.30676039112E+02  0.49863612154E+02  0.13530430079E+03  0.14742677167E+03  0.00000000000E+00 0.  1.
         22    1    3    3    0    0 -0.90801780069E+02  0.39340021466E+02  0.16477539695E+02  0.10032003722E+03  0.00000000000E+00 0.  1.
</event>
<event>
 7    1  0.3110367E-005  0.6305183E+02  0.7818608E-02  0.1441352E+00
          2   -1    0    0  502    0  0.00000000000E+00  0.00000000000E+00  0.39704429287E+03  0.39704429287E+03  0.00000000000E+00 0. -1.
          1   -1    0    0  501    0 -0.00000000000E+00 -0.00000000000E+00 -0.15348945611E+03  0.15348945611E+03  0.00000000000E+00 0. -1.
         25    2    1    2    0    0  0.28401071856E+02 -0.20808546893E+02 -0.39671436965E+02  0.13577492613E+03  0.12498556377E+03 0.  0.
          2    1    1    2  501    0 -0.60581667120E+02  0.45961093314E+02 -0.42072426628E+02  0.86905981221E+02  0.00000000000E+00 0. -1.
          1    1    1    2  502    0  0.32180595263E+02 -0.25152546421E+02  0.32529870036E+03  0.32785284162E+03  0.00000000000E+00 0. -1.
         22    1    3    3    0    0 -0.17635744723E+02  0.42044117359E+02  0.51659379091E+01  0.45884792806E+02  0.00000000000E+00 0. -1.
         22    1    3    3    0    0  0.46036816579E+02 -0.62852664251E+02 -0.44837374874E+02  0.89890133329E+02  0.00000000000E+00 0. -1.
</event>
<event>
 7    1  0.3110367E-005  0.9389051E+02  0.7818608E-02  0.1369031E+00
          2   -1    0    0  502    0  0.00000000000E+00  0.00000000000E+00  0.21226793453E+03  0.21226793453E+03  0.00000000000E+00 0. -1.
          1   -1    0    0  501    0 -0.00000000000E+00 -0.00000000000E+00 -0.30188133830E+03  0.30188133830E+03  0.00000000000E+00 0. -1.
         25    2    1    2    0    0 -0.55619501413E+02  0.40910496335E+01 -0.12584092000E+03  0.18593316793E+03  0.12499976067E+03 0.  0.
          2    1    1    2  501    0 -0.38418418722E+02 -0.29498666235E+02 -0.12823092407E+03  0.13707412628E+03  0.00000000000E+00 0. -1.
          1    1    1    2  502    0  0.94037920135E+02  0.25407616602E+02  0.16445844030E+03  0.19114197862E+03  0.00000000000E+00 0. -1.
         22    1    3    3    0    0 -0.75285255517E+02 -0.91985284109E+01 -0.13932778128E+03  0.15863389695E+03  0.00000000000E+00 0.  1.
         22    1    3    3    0    0  0.19665754105E+02  0.13289578044E+02  0.13486861282E+02  0.27299270986E+02  0.00000000000E+00 0.  1.
</event>
<event>
 7    1  0.3110367E-005  0.2122296E+03  0.7818608E-02  0.1153688E+00
          2   -1    0    0  502    0  0.00000000000E+00  0.00000000000E+00  0.71376904466E+03  0.71376904466E+03  0.00000000000E+00 0. -1.
          1   -1    0    0  501    0 -0.00000000000E+00 -0.00000000000E+00 -0.48447683678E+03  0.48447683678E+03  0.00000000000E+00 0. -1.
         25    2    1    2    0    0 -0.69447694438E+02 -0.23255090496E+03 -0.25134585964E+02  0.27415380468E+03  0.12500262215E+03 0.  0.
          2    1    1    2  501    0 -0.12260610557E+03  0.13162981817E+03 -0.28818218612E+03  0.33971699773E+03  0.00000000000E+00 0. -1.
          1    1    1    2  502    0  0.19205380000E+03  0.10092108680E+03  0.54260897997E+03  0.58437507903E+03  0.00000000000E+00 0. -1.
         22    1    3    3    0    0 -0.29140015512E+02 -0.23040404374E+03 -0.26630363155E+02  0.23376128875E+03  0.00000000000E+00 0. -1.
         22    1    3    3    0    0 -0.40307678926E+02 -0.21468612216E+01  0.14957771910E+01  0.40392515927E+02  0.00000000000E+00 0. -1.
</event>
<event>
 7    1  0.3110367E-005  0.9055420E+02  0.7818608E-02  0.1434667E+00
          2   -1    0    0  502    0  0.00000000000E+00  0.00000000000E+00  0.10208785891E+04  0.10208785891E+04  0.00000000000E+00 0. -1.
          1   -1    0    0  501    0 -0.00000000000E+00 -0.00000000000E+00 -0.22093214533E+04  0.22093214533E+04  0.00000000000E+00 0. -1.
         25    2    1    2    0    0 -0.86386276723E+02 -0.43211378037E+02  0.50686180439E+03  0.53090809320E+03  0.12499881071E+03 0.  0.
          2    1    1    2  501    0  0.64486990584E+02  0.63569373820E+02 -0.21959191296E+04  0.21977853537E+04  0.00000000000E+00 0. -1.
          1    1    1    2  502    0  0.21899286139E+02 -0.20357995783E+02  0.50061446103E+03  0.50150659548E+03  0.00000000000E+00 0. -1.
         22    1    3    3    0    0 -0.87360544378E+02 -0.24859794372E+02  0.50422740621E+03  0.51234280640E+03  0.00000000000E+00 0.  1.
         22    1    3    3    0    0  0.97426765489E+00 -0.18351583665E+02  0.26343981796E+01  0.18565286807E+02  0.00000000000E+00 0.  1.
</event>
<event>
 7    1  0.3110367E-005  0.2579397E+03  0.7818608E-02  0.1199928E+00
          2   -1    0    0  502    0  0.00000000000E+00  0.00000000000E+00  0.23961666210E+04  0.23961666210E+04  0.00000000000E+00 0. -1.
          1   -1    0    0  501    0 -0.00000000000E+00 -0.00000000000E+00 -0.17275096905E+03  0.17275096905E+03  0.00000000000E+00 0. -1.
         25    2    1    2    0    0 -0.16273773974E+03  0.21151820421E+03  0.42069454731E+02  0.29768921737E+03  0.12500203385E+03 0.  0.
          2    1    1    2  501    0  0.20822820184E+03 -0.13648304944E+03  0.30897607821E+03  0.39680325570E+03  0.00000000000E+00 0. -1.
          1    1    1    2  502    0 -0.45490462101E+02 -0.75035154774E+02  0.18723701190E+04  0.18744251170E+04  0.00000000000E+00 0. -1.
         22    1    3    3    0    0 -0.39197328881E+02  0.10257469844E+03 -0.35797400730E+02  0.11549655082E+03  0.00000000000E+00 0.  1.
         22    1    3    3    0    0 -0.12354041086E+03  0.10894350578E+03  0.77866855462E+02  0.18219266655E+03  0.00000000000E+00 0.  1.
</event>
<event>
 7    1  0.3110367E-005  0.2797443E+03  0.7818608E-02  0.1154073E+00
          2   -1    0    0  502    0  0.00000000000E+00  0.00000000000E+00  0.28394118612E+03  0.28394118612E+03  0.00000000000E+00 0. -1.
          1   -1    0    0  501    0 -0.00000000000E+00 -0.00000000000E+00 -0.14565091674E+04  0.14565091674E+04  0.00000000000E+00 0. -1.
         25    2    1    2    0    0  0.13967802761E+03  0.32280284405E+03 -0.35832212038E+03  0.51742640284E+03  0.12499485142E+03 0.  0.
          2    1    1    2  501    0  0.45110027986E+02 -0.12814640852E+03 -0.92335487219E+03  0.93329557839E+03  0.00000000000E+00 0. -1.
          1    1    1    2  502    0 -0.18478805560E+03 -0.19465643553E+03  0.10910901127E+03  0.28972837232E+03  0.00000000000E+00 0. -1.
         22    1    3    3    0    0  0.52975635558E+02  0.18230762237E+03 -0.27036534306E+03  0.33036329376E+03  0.00000000000E+00 0.  1.
         22    1    3    3    0    0  0.86702392054E+02  0.14049522168E+03 -0.87956777320E+02  0.18706310908E+03  0.00000000000E+00 0.  1.
</event>
<event>
 7    1  0.3110367E-005  0.8702675E+02  0.7818608E-02  0.1364814E+00
          2   -1    0    0  502    0  0.00000000000E+00  0.00000000000E+00  0.10234883814E+04  0.10234883814E+04  0.00000000000E+00 0. -1.
          1   -1    0    0  501    0 -0.00000000000E+00 -0.00000000000E+00 -0.50526852873E+02  0.50526852873E+02  0.00000000000E+00 0. -1.
         25    2    1    2    0    0  0.70662271563E+02  0.10452556581E+03  0.86233547085E+03  0.88043612189E+03  0.12500619952E+03 0.  0.
          2    1    1    2  501    0 -0.68474165446E+02 -0.50447291905E+02  0.18976897644E+02  0.87142201247E+02  0.00000000000E+00 0. -1.
          1    1    1    2  502    0 -0.21881061168E+01 -0.54078273908E+02  0.91649160055E+02  0.10643691115E+03  0.00000000000E+00 0. -1.
         22    1    3    3    0    0  0.58890348339E+02  0.90831582378E+02  0.85349025959E+03  0.86032788674E+03  0.00000000000E+00 0. -1.
         22    1    3    3    0    0  0.11771923224E+02  0.13693983435E+02  0.88452112545E+01  0.20108235150E+02  0.00000000000E+00 0. -1.
</event>
<event>
 7    1  0.3110367E-005  0.1200627E+03  0.7818608E-02  0.1393794E+00
          2   -1    0    0  502    0  0.00000000000E+00  0.00000000000E+00  0.10094593301E+04  0.10094593301E+04  0.00000000000E+00 0. -1.
          1   -1    0    0  501    0 -0.00000000000E+00 -0.00000000000E+00 -0.11643439565E+04  0.11643439565E+04  0.00000000000E+00 0. -1.
         25    2    1    2    0    0  0.10815143887E+03  0.78077039820E+02  0.15492351730E+03  0.23962033663E+03  0.12499540647E+03 0.  0.
          2    1    1    2  501    0  0.10981203590E+01 -0.30945130478E+02 -0.11174222833E+04  0.11178512272E+04  0.00000000000E+00 0. -1.
          1    1    1    2  502    0 -0.10924955923E+03 -0.47131909342E+02  0.80761413965E+03  0.81633172279E+03  0.00000000000E+00 0. -1.
         22    1    3    3    0    0  0.23959083091E+02  0.78000474892E+02  0.25997030478E+02  0.85638527192E+02  0.00000000000E+00 0. -1.
         22    1    3    3    0    0  0.84192355781E+02  0.76564928379E-01  0.12892648682E+03  0.15398180944E+03  0.00000000000E+00 0. -1.
</event>
<event>
 7    1  0.3110367E-005  0.3414041E+02  0.7818608E-02  0.1563368E+00
          2   -1    0    0  502    0  0.00000000000E+00  0.00000000000E+00  0.22451949441E+02  0.22451949441E+02  0.00000000000E+00 0. -1.
          1   -1    0    0  501    0 -0.00000000000E+00 -0.00000000000E+00 -0.21355613744E+04  0.21355613744E+04  0.00000000000E+00 0. -1.
         25    2    1    2    0    0 -0.17658313661E+02 -0.23733096530E+02 -0.17866690329E+04  0.17912808556E+04  0.12500317767E+03 0.  0.
          2    1    1    2  501    0  0.39384207913E+02 -0.26023029267E+01 -0.33005006119E+03  0.33240176099E+03  0.00000000000E+00 0. -1.
          1    1    1    2  502    0 -0.21725894252E+02  0.26335399457E+02  0.36096692284E+01  0.34330707210E+02  0.00000000000E+00 0. -1.
         22    1    3    3    0    0 -0.69175551557E+02 -0.29384781121E+02 -0.92080879812E+03  0.92387096772E+03  0.00000000000E+00 0. -1.
         22    1    3    3    0    0  0.51517237895E+02  0.56516845907E+01 -0.86586023483E+03  0.86740988788E+03  0.00000000000E+00 0. -1.
</event>
<event>
 7    1  0.3110367E-005  0.4677458E+03  0.7818608E-02  0.1030856E+00
          2   -1    0    0  502    0  0.00000000000E+00  0.00000000000E+00  0.31480454015E+04  0.31480454015E+04  0.00000000000E+00 0. -1.
          1   -1    0    0  501    0 -0.00000000000E+00 -0.00000000000E+00 -0.46149539325E+03  0.46149539325E+03  0.00000000000E+00 0. -1.
         25    2    1    2    0    0  0.34034475564E+03 -0.73805188761E+03  0.12264741932E+04  0.14766240853E+04  0.12499840461E+03 0.  0.
          2    1    1    2  501    0 -0.27985132176E+03  0.32926989391E+03 -0.16012968957E+03  0.46084372927E+03  0.00000000000E+00 0. -1.
          1    1    1    2  502    0 -0.60493433889E+02  0.40878199370E+03  0.16202055047E+04  0.16720729802E+04  0.00000000000E+00 0. -1.
         22    1    3    3    0    0  0.14155190696E+03 -0.19061038447E+03  0.40853909279E+03  0.47251820216E+03  0.00000000000E+00 0.  1.
         22    1    3    3    0    0  0.19879284869E+03 -0.54744150314E+03  0.81793510041E+03  0.10041058831E+04  0.00000000000E+00 0.  1.
</event>
<event>
 7    1  0.3110367E-005  0.1999863E+03  0.7818608E-02  0.1198434E+00
          2   -1    0    0  502    0  0.00000000000E+00  0.00000000000E+00  0.87310416886E+02  0.87310416886E+02  0.00000000000E+00 0. -1.
          1   -1    0    0  501    0 -0.00000000000E+00 -0.00000000000E+00 -0.13173117550E+04  0.13173117550E+04  0.00000000000E+00 0. -1.
         25    2    1    2    0    0  0.26011796018E+03  0.84202977717E+02 -0.87738255540E+03  0.92745808967E+03  0.12500745943E+03 0.  0.
          2    1    1    2  501    0 -0.84642541091E+02 -0.77892280907E+02 -0.46115910084E+02  0.12392838396E+03  0.00000000000E+00 0. -1.
          1    1    1    2  502    0 -0.17547541908E+03 -0.63106968103E+01 -0.30650287266E+03  0.35323569829E+03  0.00000000000E+00 0. -1.
         22    1    3    3    0    0  0.12287906287E+03  0.10153148004E+03 -0.40501205018E+03  0.43525011927E+03  0.00000000000E+00 0. -1.
         22    1    3    3    0    0  0.13723889730E+03 -0.17328502327E+02 -0.47237050522E+03  0.49220797041E+03  0.00000000000E+00 0. -1.
</event>
<event>
 7    1  0.3110367E-005  0.8601406E+02  0.7818608E-02  0.1355435E+00
          2   -1    0    0  502    0  0.00000000000E+00  0.00000000000E+00  0.21140431112E+04  0.21140431112E+04  0.00000000000E+00 0. -1.
          1   -1    0    0  501    0 -0.00000000000E+00 -0.00000000000E+00 -0.40200216671E+03  0.40200216671E+03  0.00000000000E+00 0. -1.
         25    2    1    2    0    0 -0.49045422372E+01  0.96451133326E+02  0.18992098263E+03  0.24702781066E+03  0.12500353572E+03 0.  0.
          2    1    1    2  501    0  0.55641965209E+02 -0.65853480089E+02 -0.36800262968E+03  0.37796645960E+03  0.00000000000E+00 0. -1.
          1    1    1    2  502    0 -0.50737422972E+02 -0.30597653237E+02  0.18901225916E+04  0.18910510077E+04  0.00000000000E+00 0. -1.
         22    1    3    3    0    0  0.29096718549E+02 -0.20404024464E+02  0.33492943640E+02  0.48833600301E+02  0.00000000000E+00 0.  1.
         22    1    3    3    0    0 -0.34001260786E+02  0.11685515779E+03  0.15642803899E+03  0.19819421035E+03  0.00000000000E+00 0.  1.
</event>
<event>
 7    1  0.3110367E-005  0.2273274E+03  0.7818608E-02  0.1273623E+00
          2   -1    0    0  502    0  0.00000000000E+00  0.00000000000E+00  0.10495561097E+04  0.10495561097E+04  0.00000000000E+00 0. -1.
          1   -1    0    0  501    0 -0.00000000000E+00 -0.00000000000E+00 -0.18505400623E+04  0.18505400623E+04  0.00000000000E+00 0. -1.
         25    2    1    2    0    0 -0.68480485896E+02  0.17652149732E+03  0.11693800281E+03  0.25524254599E+03  0.12499937928E+03 0.  0.
          2    1    1    2  501    0 -0.15458610399E+02  0.44266190005E+02 -0.17649168192E+04  0.17655395331E+04  0.00000000000E+00 0. -1.
          1    1    1    2  502    0  0.83939096295E+02 -0.22078768732E+03  0.84699486374E+03  0.87931409289E+03  0.00000000000E+00 0. -1.
         22    1    3    3    0    0  0.16765354577E+02  0.75452397541E+02 -0.21168731690E+01  0.77321553016E+02  0.00000000000E+00 0. -1.
         22    1    3    3    0    0 -0.85245840473E+02  0.10106909978E+03  0.11905487598E+03  0.17792099298E+03  0.00000000000E+00 0. -1.
</event>
<event>
 7    1  0.3110367E-005  0.2769360E+03  0.7818608E-02  0.1113483E+00
          2   -1    0    0  502    0  0.00000000000E+00  0.00000000000E+00  0.94081188372E+03  0.94081188372E+03  0.00000000000E+00 0. -1.
          1   -1    0    0  501    0 -0.00000000000E+00 -0.00000000000E+00 -0.62577244586E+03  0.62577244586E+03  0.00000000000E+00 0. -1.
         25    2    1    2    0    0  0.42049359488E+03 -0.11157750723E+03  0.23736180281E+03  0.51110687373E+03  0.12500082993E+03 0.  0.
          2    1    1    2  501    0 -0.26041458110E+03 -0.46785170327E+02 -0.42729261183E+03  0.50257694171E+03  0.00000000000E+00 0. -1.
          1    1    1    2  502    0 -0.16007901378E+03  0.15836267756E+03  0.50497024688E+03  0.55290051414E+03  0.00000000000E+00 0. -1.
         22    1    3    3    0    0  0.11630284798E+03  0.59117443072E+01  0.11252726607E+03  0.16193729273E+03  0.00000000000E+00 0.  1.
         22    1    3    3    0    0  0.30419074690E+03 -0.11748925154E+03  0.12483453674E+03  0.34916958099E+03  0.00000000000E+00 0.  1.
</event>
<event>
 7    1  0.3110367E-005  0.1874417E+03  0.7818608E-02  0.1211137E+00
          2   -1    0    0  502    0  0.00000000000E+00  0.00000000000E+00  0.15923656386E+04  0.15923656386E+04  0.00000000000E+00 0. -1.
          1   -1    0    0  501    0 -0.00000000000E+00 -0.00000000000E+00 -0.64323288202E+03  0.64323288202E+03  0.00000000000E+00 0. -1.
         25    2    1    2    0    0  0.74838604134E+02 -0.15595180916E+03  0.17840352658E+02  0.21415760603E+03  0.12499367420E+03 0.  0.
          2    1    1    2  501    0  0.26085559930E+02  0.19159164916E+03 -0.52590148775E+03  0.56032150707E+03  0.00000000000E+00 0. -1.
          1    1    1    2  502    0 -0.10092416406E+03 -0.35639840003E+02  0.14571938917E+04  0.14611194075E+04  0.00000000000E+00 0. -1.
         22    1    3    3    0    0 -0.24580878871E+02 -0.82712986332E+02  0.26787157275E+02  0.90350481509E+02  0.00000000000E+00 0.  1.
         22    1    3    3    0    0  0.99419483005E+02 -0.73238822826E+02 -0.89468046162E+01  0.12380712452E+03  0.00000000000E+00 0.  1.
</event>
<event>
 7    1  0.3110367E-005  0.1127050E+03  0.7818608E-02  0.1307699E+00
          2   -1    0    0  502    0  0.00000000000E+00  0.00000000000E+00  0.22280916739E+03  0.22280916739E+03  0.00000000000E+00 0. -1.
          1   -1    0    0  501    0 -0.00000000000E+00 -0.00000000000E+00 -0.61263078127E+03  0.61263078127E+03  0.00000000000E+00 0. -1.
         25    2    1    2    0    0 -0.78206291876E+02 -0.46397841348E+02 -0.26282593955E+03  0.30491172551E+03  0.12499880832E+03 0.  0.
          2    1    1    2  501    0  0.66130797818E+02  0.11408272471E+03 -0.30900573633E+03  0.33596531902E+03  0.00000000000E+00 0. -1.
          1    1    1    2  502    0  0.12075494058E+02 -0.67684883358E+02  0.18201006200E+03  0.19456290413E+03  0.00000000000E+00 0. -1.
         22    1    3    3    0    0 -0.54627812627E+02 -0.83518472308E+02 -0.12333989232E+03  0.15865768865E+03  0.00000000000E+00 0.  1.
         22    1    3    3    0    0 -0.23578479248E+02  0.37120630960E+02 -0.13948604723E+03  0.14625403686E+03  0.00000000000E+00 0.  1.
</event>
<event>
 7    1  0.3110367E-005  0.9458826E+02  0.7818608E-02  0.1354065E+00
          2   -1    0    0  502    0  0.00000000000E+00  0.00000000000E+00  0.71048061097E+03  0.71048061097E+03  0.00000000000E+00 0. -1.
          1   -1    0    0  501    0 -0.00000000000E+00 -0.00000000000E+00 -0.14144908614E+03  0.14144908614E+03  0.00000000000E+00 0. -1.
         25    2    1    2    0    0  0.60292408627E+02 -0.86601994113E+01  0.21363270956E+02  0.14068514119E+03  0.12500298402E+03 0.  0.
          2    1    1    2  501    0 -0.10270999793E+03  0.42891810844E+02 -0.42071015731E+02  0.11899168659E+03  0.00000000000E+00 0. -1.
          1    1    1    2  502    0  0.42417589307E+02 -0.34231611433E+02  0.58973926961E+03  0.59225286932E+03  0.00000000000E+00 0. -1.
         22    1    3    3    0    0  0.85980901122E+02  0.21862530887E+02  0.39192408498E+02  0.96988300833E+02  0.00000000000E+00 0.  1.
         22    1    3    3    0    0 -0.25688492495E+02 -0.30522730298E+02 -0.17829137542E+02  0.43696840355E+02  0.00000000000E+00 0.  1.
</event>
<event>
 7    1  0.4111786E-005  0.1123146E+03  0.7818608E-02  0.1287703E+00
          2   -1    0    0  502    0  0.00000000000E+00  0.00000000000E+00  0.86779121176E+03  0.86779121176E+03  0.00000000000E+00 0. -1.
          1   -1    0    0  501    0 -0.00000000000E+00 -0.00000000000E+00 -0.15175775825E+04  0.15175775825E+04  0.00000000000E+00 0. -1.
         25    2    1    2    0    0  0.47310068226E+02  0.30548304967E+02 -0.34006007637E+03  0.36665666395E+03  0.12499924873E+03 0.  0.
          2    1    1    2  501    0 -0.64016908784E+02 -0.11186297578E+03 -0.11586212788E+04  0.11657678832E+04  0.00000000000E+00 0. -1.
          1    1    1    2  502    0  0.16706840558E+02  0.81314670810E+02  0.84889498437E+03  0.85294424712E+03  0.00000000000E+00 0. -1.
         22    1    3    3    0    0  0.72210284252E+02 -0.21274454643E+02 -0.23669339655E+03  0.24837610904E+03  0.00000000000E+00 0.  1.
         22    1    3    3    0    0 -0.24900216026E+02  0.51822759610E+02 -0.10336667982E+03  0.11828055491E+03  0.00000000000E+00 0.  1.
</event>
<event>
 7    1  0.3110367E-005  0.2192080E+03  0.7818608E-02  0.1167093E+00
          2   -1    0    0  502    0  0.00000000000E+00  0.00000000000E+00  0.60212811933E+03  0.60212811933E+03  0.00000000000E+00 0. -1.
          1   -1    0    0  501    0 -0.00000000000E+00 -0.00000000000E+00 -0.40866029719E+03  0.40866029719E+03  0.00000000000E+00 0. -1.
         25    2    1    2    0    0 -0.29576258292E+02 -0.30456464089E+03 -0.11301329250E+03  0.34932959310E+03  0.12499913918E+03 0.  0.
          2    1    1    2  501    0 -0.82769039548E+02  0.12391417299E+03 -0.11573331622E+03  0.18867865978E+03  0.00000000000E+00 0. -1.
          1    1    1    2  502    0  0.11234529784E+03  0.18065046790E+03  0.42221443086E+03  0.47278016363E+03  0.00000000000E+00 0. -1.
         22    1    3    3    0    0 -0.33377276523E+02 -0.19962903091E+03 -0.13334195167E+03  0.24237547039E+03  0.00000000000E+00 0. -1.
         22    1    3    3    0    0  0.38010182308E+01 -0.10493560998E+03  0.20328659167E+02  0.10695412271E+03  0.00000000000E+00 0. -1.
</event>
<event>
 7    1  0.3110367E-005  0.1316031E+03  0.7818608E-02  0.1353757E+00
          2   -1    0    0  502    0  0.00000000000E+00  0.00000000000E+00  0.32265765667E+04  0.32265765667E+04  0.00000000000E+00 0. -1.
          1   -1    0    0  501    0 -0.00000000000E+00 -0.00000000000E+00 -0.87810512473E+03  0.87810512473E+03  0.00000000000E+00 0. -1.
         25    2    1    2    0    0 -0.12566380115E+03 -0.25785482505E+02  0.29699749141E+04  0.29753707718E+04  0.12499583063E+03 0.  0.
          2    1    1    2  501    0 -0.38652875357E+02  0.69847320020E+01 -0.84797138592E+03  0.84888061740E+03  0.00000000000E+00 0. -1.
          1    1    1    2  502    0  0.16431667651E+03  0.18800750503E+02  0.22646791380E+03  0.28043030217E+03  0.00000000000E+00 0. -1.
         22    1    3    3    0    0 -0.67603940559E+02  0.15100259243E+01  0.49874360856E+03  0.50330682495E+03  0.00000000000E+00 0. -1.
         22    1    3    3    0    0 -0.58059860590E+02 -0.27295508429E+02  0.24712313055E+04  0.24720639469E+04  0.00000000000E+00 0. -1.
</event>
<event>
 7    1  0.3110367E-005  0.1048438E+03  0.7818608E-02  0.1270677E+00
          2   -1    0    0  502    0  0.00000000000E+00  0.00000000000E+00  0.40690365927E+04  0.40690365927E+04  0.00000000000E+00 0. -1.
          1   -1    0    0  501    0 -0.00000000000E+00 -0.00000000000E+00 -0.19750916738E+03  0.19750916738E+03  0.00000000000E+00 0. -1.
         25    2    1    2    0    0 -0.75161193611E+02 -0.12316093046E+03  0.48732717827E+03  0.52338794187E+03  0.12501735555E+03 0.  0.
          2    1    1    2  501    0 -0.27138791746E+02  0.10138937560E+03 -0.16329697946E+03  0.19411909489E+03  0.00000000000E+00 0. -1.
          1    1    1    2  502    0  0.10229998536E+03  0.21771554869E+02  0.35474972265E+04  0.35490387234E+04  0.00000000000E+00 0. -1.
         22    1    3    3    0    0  0.96262006449E+01 -0.61964944118E+02  0.73793409618E+02  0.96838966029E+02  0.00000000000E+00 0.  1.
         22    1    3    3    0    0 -0.84787394256E+02 -0.61195986346E+02  0.41353376865E+03  0.42654897584E+03  0.00000000000E+00 0.  1.
</event>
<event>
 7    1  0.3110367E-005  0.1272990E+03  0.7818608E-02  0.1259772E+00
          2   -1    0    0  502    0  0.00000000000E+00  0.00000000000E+00  0.47045799138E+03  0.47045799138E+03  0.00000000000E+00 0. -1.
          1   -1    0    0  501    0 -0.00000000000E+00 -0.00000000000E+00 -0.50236557651E+03  0.50236557651E+03  0.00000000000E+00 0. -1.
         25    2    1    2    0    0  0.15880421689E+03  0.24830367983E+02  0.69675043072E+02  0.21520997332E+03  0.12500157804E+03 0.  0.
          2    1    1    2  501    0 -0.47126633373E+02 -0.83407040931E+02 -0.41177214393E+03  0.42276938462E+03  0.00000000000E+00 0. -1.
          1    1    1    2  502    0 -0.11167758351E+03  0.58576672949E+02  0.31018951573E+03  0.33484420995E+03  0.00000000000E+00 0. -1.
         22    1    3    3    0    0  0.16423189238E+03  0.53213290516E+02  0.48301941165E+02  0.17926752713E+03  0.00000000000E+00 0. -1.
         22    1    3    3    0    0 -0.54276754956E+01 -0.28382922534E+02  0.21373101907E+02  0.35942446188E+02  0.00000000000E+00 0. -1.
</event>
<event>
 7    1  0.3110367E-005  0.1862859E+03  0.7818608E-02  0.1380036E+00
          2   -1    0    0  502    0  0.00000000000E+00  0.00000000000E+00  0.38830676685E+03  0.38830676685E+03  0.00000000000E+00 0. -1.
          1   -1    0    0  501    0 -0.00000000000E+00 -0.00000000000E+00 -0.84735492235E+03  0.84735492235E+03  0.00000000000E+00 0. -1.
         25    2    1    2    0    0 -0.15517438074E+03 -0.98493307743E+02 -0.17405563760E+03  0.28231269781E+03  0.12500029704E+03 0.  0.
          2    1    1    2  501    0 -0.13256647493E+02  0.17933089297E+02 -0.59286662323E+03  0.59328590691E+03  0.00000000000E+00 0. -1.
          1    1    1    2  502    0  0.16843102823E+03  0.80560218446E+02  0.30787410533E+03  0.36006308448E+03  0.00000000000E+00 0. -1.
         22    1    3    3    0    0 -0.12058411873E+03 -0.72727641074E+02 -0.47507844844E+02  0.14861640147E+03  0.00000000000E+00 0. -1.
         22    1    3    3    0    0 -0.34590262011E+02 -0.25765666669E+02 -0.12654779275E+03  0.13369629634E+03  0.00000000000E+00 0. -1.
</event>
<event>
 7    1  0.3110367E-005  0.4186409E+03  0.7818608E-02  0.1195432E+00
          2   -1    0    0  502    0  0.00000000000E+00  0.00000000000E+00  0.80899869946E+03  0.80899869946E+03  0.00000000000E+00 0. -1.
          1   -1    0    0  501    0 -0.00000000000E+00 -0.00000000000E+00 -0.23036891178E+04  0.23036891178E+04  0.00000000000E+00 0. -1.
         25    2    1    2    0    0  0.11124353136E+03  0.44424411127E+03 -0.25574512514E+03  0.53922316993E+03  0.12501241653E+03 0.  0.
          2    1    1    2  501    0 -0.13138559687E+03 -0.39115636199E+03 -0.18826101116E+04  0.19273002638E+04  0.00000000000E+00 0. -1.
          1    1    1    2  502    0  0.20142065508E+02 -0.53087749279E+02  0.64366481846E+03  0.64616438346E+03  0.00000000000E+00 0. -1.
         22    1    3    3    0    0  0.31895539915E+02  0.29206357474E+03 -0.10884305444E+03  0.31331336974E+03  0.00000000000E+00 0.  1.
         22    1    3    3    0    0  0.79347991444E+02  0.15218053653E+03 -0.14690207070E+03  0.22590980019E+03  0.00000000000E+00 0.  1.
</event>
<event>
 7    1  0.3110367E-005  0.4735549E+03  0.7818608E-02  0.1275629E+00
          2   -1    0    0  502    0  0.00000000000E+00  0.00000000000E+00  0.42261528138E+03  0.42261528138E+03  0.00000000000E+00 0. -1.
          1   -1    0    0  501    0 -0.00000000000E+00 -0.00000000000E+00 -0.71299614184E+03  0.71299614184E+03  0.00000000000E+00 0. -1.
         25    2    1    2    0    0  0.44018148269E+03 -0.15588677384E+03 -0.29999571100E+02  0.48433988489E+03  0.12499890348E+03 0.  0.
          2    1    1    2  501    0  0.75736988960E+01 -0.20739241297E+02 -0.15753361922E+03  0.15907331087E+03  0.00000000000E+00 0. -1.
          1    1    1    2  502    0 -0.44775518158E+03  0.17662601514E+03 -0.10284767014E+03  0.49219822746E+03  0.00000000000E+00 0. -1.
         22    1    3    3    0    0  0.13735903747E+03 -0.18558795729E+02  0.40580104613E+02  0.14442534045E+03  0.00000000000E+00 0.  1.
         22    1    3    3    0    0  0.30282244522E+03 -0.13732797811E+03 -0.70579675714E+02  0.33991454445E+03  0.00000000000E+00 0.  1.
</event>
<event>
 7    1  0.3110367E-005  0.7528513E+03  0.7818608E-02  0.1196412E+00
          2   -1    0    0  502    0  0.00000000000E+00  0.00000000000E+00  0.29917071577E+04  0.29917071577E+04  0.00000000000E+00 0. -1.
          1   -1    0    0  501    0 -0.00000000000E+00 -0.00000000000E+00 -0.62493582501E+03  0.62493582501E+03  0.00000000000E+00 0. -1.
         25    2    1    2    0    0  0.17472416737E+03 -0.74988026611E+03  0.25342423052E+03  0.82018152670E+03  0.12499979185E+03 0.  0.
          2    1    1    2  501    0 -0.27372150224E+02  0.15051367662E+02 -0.28347882689E+03  0.28519471168E+03  0.00000000000E+00 0. -1.
          1    1    1    2  502    0 -0.14735201715E+03  0.73482889845E+03  0.23968259290E+04  0.25112667443E+04  0.00000000000E+00 0. -1.
         22    1    3    3    0    0  0.26711699523E+02 -0.16058710490E+03  0.25069502282E+01  0.16281283104E+03  0.00000000000E+00 0. -1.
         22    1    3    3    0    0  0.14801246785E+03 -0.58929316121E+03  0.25091728029E+03  0.65736869566E+03  0.00000000000E+00 0. -1.
</event>
<event>
 7    1  0.3110367E-005  0.1777723E+03  0.7818608E-02  0.1190705E+00
          2   -1    0    0  502    0  0.00000000000E+00  0.00000000000E+00  0.13360010616E+04  0.13360010616E+04  0.00000000000E+00 0. -1.
          1   -1    0    0  501    0 -0.00000000000E+00 -0.00000000000E+00 -0.79553229514E+03  0.79553229514E+03  0.00000000000E+00 0. -1.
         25    2    1    2    0    0 -0.55260513993E+02  0.20388576413E+03  0.67470856802E+03  0.71796959453E+03  0.12500223074E+03 0.  0.
          2    1    1    2  501    0  0.13346987472E+03 -0.44972351537E+02 -0.75500297324E+03  0.76802747963E+03  0.00000000000E+00 0. -1.
          1    1    1    2  502    0 -0.78209360725E+02 -0.15891341259E+03  0.62076317167E+03  0.64553628256E+03  0.00000000000E+00 0. -1.
         22    1    3    3    0    0 -0.59431606721E+02  0.10540717780E+03  0.20516613082E+03  0.23819305247E+03  0.00000000000E+00 0. -1.
         22    1    3    3    0    0  0.41710927281E+01  0.98478586329E+02  0.46954243720E+03  0.47977654206E+03  0.00000000000E+00 0. -1.
</event>
<event>
 7    1  0.3110367E-005  0.7223070E+02  0.7818608E-02  0.1449807E+00
          2   -1    0    0  502    0  0.00000000000E+00  0.00000000000E+00  0.11856076211E+03  0.11856076211E+03  0.00000000000E+00 0. -1.
          1   -1    0    0  501    0 -0.00000000000E+00 -0.00000000000E+00 -0.55767247486E+03  0.55767247486E+03  0.00000000000E+00 0. -1.
         25    2    1    2    0    0  0.97723130493E+02  0.34702888753E+02 -0.30577639425E+03  0.34623572372E+03  0.12500348948E+03 0.  0.
          2    1    1    2  501    0 -0.29075091803E+02 -0.16614848356E+02 -0.21740198768E+03  0.21996599372E+03  0.00000000000E+00 0. -1.
          1    1    1    2  502    0 -0.68648038689E+02 -0.18088040397E+02  0.84066669173E+02  0.11003151952E+03  0.00000000000E+00 0. -1.
         22    1    3    3    0    0  0.88147521577E+02 -0.31397298391E+02 -0.15069295201E+03  0.17738134539E+03  0.00000000000E+00 0.  1.
         22    1    3    3    0    0  0.95756089154E+01  0.66100187144E+02 -0.15508344223E+03  0.16885437833E+03  0.00000000000E+00 0.  1.
</event>
<event>
 7    1  0.3110367E-005  0.1445000E+03  0.7818608E-02  0.1250573E+00
          2   -1    0    0  502    0  0.00000000000E+00  0.00000000000E+00  0.10018434431E+04  0.10018434431E+04  0.00000000000E+00 0. -1.
          1   -1    0    0  501    0 -0.00000000000E+00 -0.00000000000E+00 -0.53711578736E+02  0.53711578736E+02  0.00000000000E+00 0. -1.
         25    2    1    2    0    0 -0.11217904863E+03 -0.20269606497E+02  0.29588313429E+03  0.34082970706E+03  0.12499225639E+03 0.  0.
          2    1    1    2  501    0  0.15027347740E+03  0.10450340449E+03  0.30803902747E+03  0.35831706909E+03  0.00000000000E+00 0. -1.
          1    1    1    2  502    0 -0.38094428767E+02 -0.84233797990E+02  0.34420970262E+03  0.35640824570E+03  0.00000000000E+00 0. -1.
         22    1    3    3    0    0  0.12848143243E+02 -0.33390045229E+02  0.29868508731E+02  0.46605769160E+02  0.00000000000E+00 0.  1.
         22    1    3    3    0    0 -0.12502719187E+03  0.13120438733E+02  0.26601462556E+03  0.29422393790E+03  0.00000000000E+00 0.  1.
</event>
<event>
 7    1  0.3110367E-005  0.1332215E+04  0.7818608E-02  0.1059001E+00
          2   -1    0    0  502    0  0.00000000000E+00  0.00000000000E+00  0.11041331861E+04  0.11041331861E+04  0.00000000000E+00 0. -1.
          1   -1    0    0  501    0 -0.00000000000E+00 -0.00000000000E+00 -0.23799553775E+04  0.23799553775E+04  0.00000000000E+00 0. -1.
         25    2    1    2    0    0  0.13084873344E+04 -0.35988151609E+03  0.24055565440E+03  0.13838881818E+04  0.12500266781E+03 0.  0.
          2    1    1    2  501    0 -0.94876458618E+02 -0.18765858868E+02 -0.38958564458E+03  0.40141085476E+03  0.00000000000E+00 0. -1.
          1    1    1    2  502    0 -0.12136108758E+04  0.37864737495E+03 -0.11267922013E+04  0.16987895271E+04  0.00000000000E+00 0. -1.
         22    1    3    3    0    0  0.12365842964E+04 -0.35149019703E+03  0.20036539415E+03  0.13010889178E+04  0.00000000000E+00 0.  1.
         22    1    3    3    0    0  0.71903037993E+02 -0.83913190569E+01  0.40190260245E+02  0.82799264047E+02  0.00000000000E+00 0.  1.
</event>
<event>
 7    1  0.3110367E-005  0.2518849E+03  0.7818608E-02  0.1167810E+00
          2   -1    0    0  502    0  0.00000000000E+00  0.00000000000E+00  0.69298680776E+03  0.69298680776E+03  0.00000000000E+00 0. -1.
          1   -1    0    0  501    0 -0.00000000000E+00 -0.00000000000E+00 -0.30973084069E+03  0.30973084069E+03  0.00000000000E+00 0. -1.
         25    2    1    2    0    0 -0.15512279483E+03 -0.26448424736E+03 -0.58915379163E+02  0.33632085603E+03  0.12500279085E+03 0.  0.
          2    1    1    2  501    0  0.16593212512E+03  0.13631922413E+03  0.94394578549E+01  0.21495465656E+03  0.00000000000E+00 0. -1.
          1    1    1    2  502    0 -0.10809330291E+02  0.12816502323E+03  0.43273188839E+03  0.45144213586E+03  0.00000000000E+00 0. -1.
         22    1    3    3    0    0 -0.15085804259E+03 -0.19655228766E+03 -0.22930660027E+01  0.24778258403E+03  0.00000000000E+00 0.  1.
         22    1    3    3    0    0 -0.42647522423E+01 -0.67931959701E+02 -0.56622313161E+02  0.88538271997E+02  0.00000000000E+00 0.  1.
</event>
<event>
 7    1  0.3110367E-005  0.1092720E+03  0.7818608E-02  0.1296605E+00
          2   -1    0    0  502    0  0.00000000000E+00  0.00000000000E+00  0.23414314453E+04  0.23414314453E+04  0.00000000000E+00 0. -1.
          1   -1    0    0  501    0 -0.00000000000E+00 -0.00000000000E+00 -0.58074750312E+02  0.58074750312E+02  0.00000000000E+00 0. -1.
         25    2    1    2    0    0  0.11854461771E+03 -0.48667035920E+01  0.12062301631E+04  0.12184796452E+04  0.12499971315E+03 0.  0.
          2    1    1    2  501    0 -0.87265893025E+02 -0.67157414719E+02  0.95092177275E+01  0.11052547063E+03  0.00000000000E+00 0. -1.
          1    1    1    2  502    0 -0.31278724685E+02  0.72024118311E+02  0.10676173142E+04  0.10705010798E+04  0.00000000000E+00 0. -1.
         22    1    3    3    0    0  0.10201559423E+01  0.43818455602E+02  0.37892797061E+03  0.38145445951E+03  0.00000000000E+00 0. -1.
         22    1    3    3    0    0  0.11752446177E+03 -0.48685159194E+02  0.82730219246E+03  0.83702518569E+03  0.00000000000E+00 0. -1.
</event>
<event>
 7    1  0.3110367E-005  0.3410142E+03  0.7818608E-02  0.1217790E+00
          2   -1    0    0  502    0  0.00000000000E+00  0.00000000000E+00  0.72172788723E+03  0.72172788723E+03  0.00000000000E+00 0. -1.
          1   -1    0    0  501    0 -0.00000000000E+00 -0.00000000000E+00 -0.44602795067E+03  0.44602795067E+03  0.00000000000E+00 0. -1.
         25    2    1    2    0    0  0.30034539906E+03  0.19341996862E+02  0.49344630385E+03  0.59134440776E+03  0.12496992529E+03 0.  0.
          2    1    1    2  501    0 -0.34260522134E+03 -0.54271182553E+02 -0.31253639847E+03  0.46690759183E+03  0.00000000000E+00 0. -1.
          1    1    1    2  502    0  0.42259822273E+02  0.34929185690E+02  0.94790031184E+02  0.10950383830E+03  0.00000000000E+00 0. -1.
         22    1    3    3    0    0  0.30501670933E+03  0.29998406492E+02  0.43732839548E+03  0.53403297918E+03  0.00000000000E+00 0. -1.
         22    1    3    3    0    0 -0.46713102662E+01 -0.10656409630E+02  0.56117908370E+02  0.57311428578E+02  0.00000000000E+00 0. -1.
</event>
<event>
 7    1  0.3110367E-005  0.4982612E+02  0.7818608E-02  0.1507902E+00
          2   -1    0    0  502    0  0.00000000000E+00  0.00000000000E+00  0.37987442861E+03  0.37987442861E+03  0.00000000000E+00 0. -1.
          1   -1    0    0  501    0 -0.00000000000E+00 -0.00000000000E+00 -0.18757328184E+03  0.18757328184E+03  0.00000000000E+00 0. -1.
         25    2    1    2    0    0 -0.28604374444E+02 -0.13628137948E+02  0.65804106011E+02  0.14477272672E+03  0.12500010262E+03 0.  0.
          2    1    1    2  501    0  0.47918914690E+01 -0.31820567115E+02 -0.14389938685E+03  0.14745353252E+03  0.00000000000E+00 0. -1.
          1    1    1    2  502    0  0.23812482975E+02  0.45448705063E+02  0.27039642761E+03  0.27522145120E+03  0.00000000000E+00 0. -1.
         22    1    3    3    0    0 -0.58445156738E+02  0.93399699302E+01 -0.10098893929E+02  0.60042143891E+02  0.00000000000E+00 0. -1.
         22    1    3    3    0    0  0.29840782294E+02 -0.22968107878E+02  0.75902999940E+02  0.84730582834E+02  0.00000000000E+00 0. -1.
</event>
<event>
 7    1  0.3110367E-005  0.2624678E+03  0.7818608E-02  0.1284299E+00
          2   -1    0    0  502    0  0.00000000000E+00  0.00000000000E+00  0.69134368443E+03  0.69134368443E+03  0.00000000000E+00 0. -1.
          1   -1    0    0  501    0 -0.00000000000E+00 -0.00000000000E+00 -0.12068672053E+04  0.12068672053E+04  0.00000000000E+00 0. -1.
         25    2    1    2    0    0  0.56858887626E+02  0.25858254557E+03 -0.45741325064E+03  0.54309237306E+03  0.12499831134E+03 0.  0.
          2    1    1    2  501    0 -0.20278681299E+02 -0.26130304789E+03 -0.68175425006E+03  0.73039671770E+03  0.00000000000E+00 0. -1.
          1    1    1    2  502    0 -0.36580206327E+02  0.27205023209E+01  0.62364397979E+03  0.62472179901E+03  0.00000000000E+00 0. -1.
         22    1    3    3    0    0 -0.23450351591E+02  0.17452481710E+02 -0.10234858286E+03  0.10644125385E+03  0.00000000000E+00 0. -1.
         22    1    3    3    0    0  0.80309239217E+02  0.24113006386E+03 -0.35506466779E+03  0.43665111921E+03  0.00000000000E+00 0. -1.
</event>
<event>
 7    1  0.3110367E-005  0.5168114E+03  0.7818608E-02  0.1137774E+00
          2   -1    0    0  502    0  0.00000000000E+00  0.00000000000E+00  0.11744887128E+04  0.11744887128E+04  0.00000000000E+00 0. -1.
          1   -1    0    0  501    0 -0.00000000000E+00 -0.00000000000E+00 -0.11248243597E+04  0.11248243597E+04  0.00000000000E+00 0. -1.
         25    2    1    2    0    0 -0.34384062225E+03 -0.41896987322E+03 -0.13757163932E+03  0.57298410528E+03  0.12499080278E+03 0.  0.
          2    1    1    2  501    0  0.25686393047E+03  0.43932553209E+03 -0.68287322048E+03  0.85164654474E+03  0.00000000000E+00 0. -1.
          1    1    1    2  502    0  0.86976691774E+02 -0.20355658861E+02  0.87010921289E+03  0.87468242243E+03  0.00000000000E+00 0. -1.
         22    1    3    3    0    0 -0.35003654463E+03 -0.41830725521E+03 -0.14389841976E+03  0.56410397761E+03  0.00000000000E+00 0.  1.
         22    1    3    3    0    0  0.61959223811E+01 -0.66261801202E+00  0.63267804405E+01  0.88801276750E+01  0.00000000000E+00 0.  1.
</event>
<event>
 7    1  0.3110367E-005  0.1336315E+03  0.7818608E-02  0.1325087E+00
          2   -1    0    0  502    0  0.00000000000E+00  0.00000000000E+00  0.22156168195E+04  0.22156168195E+04  0.00000000000E+00 0. -1.
          1   -1    0    0  501    0 -0.00000000000E+00 -0.00000000000E+00 -0.25553675130E+03  0.25553675130E+03  0.00000000000E+00 0. -1.
         25    2    1    2    0    0  0.84263951305E+01 -0.10832872564E+03  0.97036502963E+03  0.98439795231E+03  0.12499968341E+03 0.  0.
          2    1    1    2  501    0 -0.27073882044E+02 -0.41559639439E+02 -0.24138300728E+03  0.24642636816E+03  0.00000000000E+00 0. -1.
          1    1    1    2  502    0  0.18647486914E+02  0.14988836508E+03  0.12310980459E+04  0.12403292504E+04  0.00000000000E+00 0. -1.
         22    1    3    3    0    0 -0.23796417498E+02 -0.85191045358E+02  0.89380422594E+03  0.89817023888E+03  0.00000000000E+00 0. -1.
         22    1    3    3    0    0  0.32222812629E+02 -0.23137680284E+02  0.76560803690E+02  0.86227713435E+02  0.00000000000E+00 0. -1.
</event>
<event>
 7    1  0.3110367E-005  0.7174431E+02  0.7818608E-02  0.1449291E+00
          2   -1    0    0  502    0  0.00000000000E+00  0.00000000000E+00  0.17301232436E+04  0.17301232436E+04  0.00000000000E+00 0. -1.
          1   -1    0    0  501    0 -0.00000000000E+00 -0.00000000000E+00 -0.79508591270E+02  0.79508591270E+02  0.00000000000E+00 0. -1.
         25    2    1    2    0    0  0.31927317812E+02  0.63397553436E+02 -0.98702654403E+01  0.14408471652E+03  0.12499751994E+03 0.  0.
          2    1    1    2  501    0 -0.77383859637E+01 -0.87067043022E+02  0.88044608348E+03  0.88477446760E+03  0.00000000000E+00 0. -1.
          1    1    1    2  502    0 -0.24188931848E+02  0.23669489585E+02  0.78003883431E+03  0.78077265077E+03  0.00000000000E+00 0. -1.
         22    1    3    3    0    0  0.35378238666E+02 -0.24060509107E+02  0.25358262108E+02  0.49734990969E+02  0.00000000000E+00 0.  1.
         22    1    3    3    0    0 -0.34509208538E+01  0.87458062543E+02 -0.35228527549E+02  0.94349725552E+02  0.00000000000E+00 0.  1.
</event>
<event>
 7    1  0.3110367E-005  0.1204198E+03  0.7818608E-02  0.1300502E+00
          2   -1    0    0  502    0  0.00000000000E+00  0.00000000000E+00  0.90140393595E+03  0.90140393595E+03  0.00000000000E+00 0. -1.
          1   -1    0    0  501    0 -0.00000000000E+00 -0.00000000000E+00 -0.28156391826E+04  0.28156391826E+04  0.00000000000E+00 0. -1.
         25    2    1    2    0    0  0.13627831739E+02 -0.12480152584E+03  0.99299938077E+02  0.20308263633E+03  0.12498376225E+03 0.  0.
          2    1    1    2  501    0 -0.66962656105E+02  0.15501137226E+02 -0.27583879161E+04  0.27592441316E+04  0.00000000000E+00 0. -1.
          1    1    1    2  502    0  0.53334824366E+02  0.10930038861E+03  0.74485273134E+03  0.75471635057E+03  0.00000000000E+00 0. -1.
         22    1    3    3    0    0 -0.25556350199E+02 -0.11951409788E+02 -0.19743818138E+02  0.34435179484E+02  0.00000000000E+00 0. -1.
         22    1    3    3    0    0  0.39184181938E+02 -0.11285011605E+03  0.11904375622E+03  0.16864745684E+03  0.00000000000E+00 0. -1.
</event>
<event>
 7    1  0.3110367E-005  0.2166219E+03  0.7818608E-02  0.1160155E+00
          2   -1    0    0  502    0  0.00000000000E+00  0.00000000000E+00  0.22759610576E+03  0.22759610576E+03  0.00000000000E+00 0. -1.
          1   -1    0    0  501    0 -0.00000000000E+00 -0.00000000000E+00 -0.13999578591E+04  0.13999578591E+04  0.00000000000E+00 0. -1.
         25    2    1    2    0    0  0.23199267947E+03 -0.26546719405E+03 -0.20189270783E+03  0.42506350589E+03  0.12499953646E+03 0.  0.
          2    1    1    2  501    0 -0.17036549618E+03  0.11414173127E+03 -0.10130848635E+04  0.10336313065E+04  0.00000000000E+00 0. -1.
          1    1    1    2  502    0 -0.61627183287E+02  0.15132546278E+03  0.42615818052E+02  0.16885915242E+03  0.00000000000E+00 0. -1.
         22    1    3    3    0    0  0.26110551554E+02 -0.70827262429E+02 -0.97079105714E+02  0.12297404105E+03  0.00000000000E+00 0.  1.
         22    1    3    3    0    0  0.20588212791E+03 -0.19463993163E+03 -0.10481360211E+03  0.30208946484E+03  0.00000000000E+00 0.  1.
</event>
<event>
 7    1  0.3110367E-005  0.1314655E+03  0.7818608E-02  0.1386632E+00
          2   -1    0    0  502    0  0.00000000000E+00  0.00000000000E+00  0.93974008821E+03  0.93974008821E+03  0.00000000000E+00 0. -1.
          1   -1    0    0  501    0 -0.00000000000E+00 -0.00000000000E+00 -0.29558777520E+03  0.29558777520E+03  0.00000000000E+00 0. -1.
         25    2    1    2    0    0 -0.60067635850E+02  0.11799883898E+03  0.36010083613E+03  0.40352170776E+03  0.12500123830E+03 0.  0.
          2    1    1    2  501    0  0.31722153668E+02 -0.12768039133E+03 -0.25764010706E+03  0.28928705835E+03  0.00000000000E+00 0. -1.
          1    1    1    2  502    0  0.28345482181E+02  0.96815523513E+01  0.54169158395E+03  0.54251909730E+03  0.00000000000E+00 0. -1.
         22    1    3    3    0    0 -0.91365554569E+02  0.52066513737E+02  0.25230179025E+03  0.27334004423E+03  0.00000000000E+00 0. -1.
         22    1    3    3    0    0  0.31297918720E+02  0.65932325238E+02  0.10779904588E+03  0.13018166353E+03  0.00000000000E+00 0. -1.
</event>
<event>
 7    1  0.3110367E-005  0.1636423E+03  0.7818608E-02  0.1254916E+00
          2   -1    0    0  502    0  0.00000000000E+00  0.00000000000E+00  0.52508102005E+03  0.52508102005E+03  0.00000000000E+00 0. -1.
          1   -1    0    0  501    0 -0.00000000000E+00 -0.00000000000E+00 -0.18803638361E+03  0.18803638361E+03  0.00000000000E+00 0. -1.
         25    2    1    2    0    0  0.73541478589E+02 -0.14146643407E+03  0.29307942453E+03  0.35628852892E+03  0.12499946285E+03 0.  0.
          2    1    1    2  501    0 -0.68458015464E+02 -0.37762499064E+02 -0.99963602738E+02  0.12690637529E+03  0.00000000000E+00 0. -1.
          1    1    1    2  502    0 -0.50834631247E+01  0.17922893313E+03  0.14392881464E+03  0.22992249945E+03  0.00000000000E+00 0. -1.
         22    1    3    3    0    0  0.67768266466E+02 -0.13102466973E+03  0.14204886925E+03  0.20478740994E+03  0.00000000000E+00 0.  1.
         22    1    3    3    0    0  0.57732121223E+01 -0.10441764339E+02  0.15103055528E+03  0.15150111897E+03  0.00000000000E+00 0.  1.
</event>
<event>
 7    1  0.3110367E-005  0.3431999E+03  0.7818608E-02  0.1311216E+00
          2   -1    0    0  502    0  0.00000000000E+00  0.00000000000E+00  0.28571084439E+03  0.28571084439E+03  0.00000000000E+00 0. -1.
          1   -1    0    0  501    0 -0.00000000000E+00 -0.00000000000E+00 -0.12143793902E+04  0.12143793902E+04  0.00000000000E+00 0. -1.
         25    2    1    2    0    0  0.18630185000E+03 -0.27991109994E+03 -0.10421076700E+03  0.37355497756E+03  0.12499933648E+03 0.  0.
          2    1    1    2  501    0 -0.20768724933E+03  0.27533920541E+03 -0.94399012736E+03  0.10050189213E+04  0.00000000000E+00 0. -1.
          1    1    1    2  502    0  0.21385399329E+02  0.45718945215E+01  0.11953234851E+03  0.12151633579E+03  0.00000000000E+00 0. -1.
         22    1    3    3    0    0  0.13459758610E+03 -0.24910957557E+03 -0.40697827915E+02  0.28605664477E+03  0.00000000000E+00 0.  1.
         22    1    3    3    0    0  0.51704263901E+02 -0.30801524369E+02 -0.63512939083E+02  0.87498332784E+02  0.00000000000E+00 0.  1.
</event>
<event>
 7    1  0.3110367E-005  0.2909086E+02  0.7818608E-02  0.1666243E+00
          2   -1    0    0  502    0  0.00000000000E+00  0.00000000000E+00  0.26785418832E+04  0.26785418832E+04  0.00000000000E+00 0. -1.
          1   -1    0    0  501    0 -0.00000000000E+00 -0.00000000000E+00 -0.73509150231E+03  0.73509150231E+03  0.00000000000E+00 0. -1.
         25    2    1    2    0    0 -0.37975363207E+02 -0.19521047715E+02  0.20135481915E+04  0.20178764772E+04  0.12500383427E+03 0.  0.
          2    1    1    2  501    0  0.17447676669E+02  0.23276155772E+02 -0.73247433284E+03  0.73305173700E+03  0.00000000000E+00 0. -1.
          1    1    1    2  502    0  0.20527686538E+02 -0.37551080574E+01  0.66237652227E+03  0.66270517125E+03  0.00000000000E+00 0. -1.
         22    1    3    3    0    0 -0.34404308007E+01  0.31869542968E+02  0.15414270054E+03  0.15744039019E+03  0.00000000000E+00 0. -1.
         22    1    3    3    0    0 -0.34534932406E+02 -0.51390590682E+02  0.18594054909E+04  0.18604360870E+04  0.00000000000E+00 0. -1.
</event>
<event>
 7    1  0.3110367E-005  0.1018897E+03  0.7818608E-02  0.1321223E+00
          2   -1    0    0  502    0  0.00000000000E+00  0.00000000000E+00  0.15936194631E+04  0.15936194631E+04  0.00000000000E+00 0. -1.
          1   -1    0    0  501    0 -0.00000000000E+00 -0.00000000000E+00 -0.24429512484E+03  0.24429512484E+03  0.00000000000E+00 0. -1.
         25    2    1    2    0    0  0.77029699214E+02 -0.34588911182E+02  0.62290669792E+03  0.64091037422E+03  0.12499354437E+03 0.  0.
          2    1    1    2  501    0  0.33690988778E+02  0.58290141366E+02 -0.22705775496E+03  0.23682915233E+03  0.00000000000E+00 0. -1.
          1    1    1    2  502    0 -0.11072068799E+03 -0.23701230184E+02  0.95347539529E+03  0.96017506137E+03  0.00000000000E+00 0. -1.
         22    1    3    3    0    0  0.33653775932E+02 -0.12294060285E+02  0.56080040127E+03  0.56194377887E+03  0.00000000000E+00 0.  1.
         22    1    3    3    0    0  0.43375923282E+02 -0.22294850897E+02  0.62106296651E+02  0.78966595348E+02  0.00000000000E+00 0.  1.
</event>
<event>
 7    1  0.3110367E-005  0.6892034E+02  0.7818608E-02  0.1404718E+00
          2   -1    0    0  502    0  0.00000000000E+00  0.00000000000E+00  0.32535773876E+03  0.32535773876E+03  0.00000000000E+00 0. -1.
          1   -1    0    0  501    0 -0.00000000000E+00 -0.00000000000E+00 -0.25445356241E+03  0.25445356241E+03  0.00000000000E+00 0. -1.
         25    2    1    2    0    0 -0.85557205359E+02  0.33072020865E+02  0.21554418640E+03  0.26551361933E+03  0.12499756719E+03 0.  0.
          2    1    1    2  501    0  0.67480278789E+02  0.12974036598E+02 -0.21645152839E+03  0.22709728707E+03  0.00000000000E+00 0. -1.
          1    1    1    2  502    0  0.18076926570E+02 -0.46046057463E+02  0.71811518340E+02  0.87200394772E+02  0.00000000000E+00 0. -1.
         22    1    3    3    0    0 -0.11391274830E+03  0.46505803661E+02  0.16162366419E+03  0.20312831616E+03  0.00000000000E+00 0.  1.
         22    1    3    3    0    0  0.28355542941E+02 -0.13433782796E+02  0.53920522216E+02  0.62385303171E+02  0.00000000000E+00 0.  1.
</event>
<event>
 7    1  0.3110367E-005  0.4289577E+03  0.7818608E-02  0.1042454E+00
          2   -1    0    0  502    0  0.00000000000E+00  0.00000000000E+00  0.27644582601E+04  0.27644582601E+04  0.00000000000E+00 0. -1.
          1   -1    0    0  501    0 -0.00000000000E+00 -0.00000000000E+00 -0.21805184173E+04  0.21805184173E+04  0.00000000000E+00 0. -1.
         25    2    1    2    0    0 -0.21630449724E+03 -0.35365969603E+03 -0.48778137848E+03  0.65224160620E+03  0.12500249413E+03 0.  0.
          2    1    1    2  501    0 -0.21621541872E+03  0.31275581920E+03 -0.15700735531E+04  0.16154554379E+04  0.00000000000E+00 0. -1.
          1    1    1    2  502    0  0.43251991596E+03  0.40903876827E+02  0.26417947744E+04  0.26772796333E+04  0.00000000000E+00 0. -1.
         22    1    3    3    0    0 -0.46270387330E+02 -0.17629413490E+03 -0.25760743871E+03  0.31556641650E+03  0.00000000000E+00 0.  1.
         22    1    3    3    0    0 -0.17003410991E+03 -0.17736556113E+03 -0.23017393977E+03  0.33667518970E+03  0.00000000000E+00 0.  1.
</event>
<event>
 7    1  0.3110367E-005  0.7349635E+02  0.7818608E-02  0.1363357E+00
          2   -1    0    0  502    0  0.00000000000E+00  0.00000000000E+00  0.33300265750E+04  0.33300265750E+04  0.00000000000E+00 0. -1.
          1   -1    0    0  501    0 -0.00000000000E+00 -0.00000000000E+00 -0.26742011932E+03  0.26742011932E+03  0.00000000000E+00 0. -1.
         25    2    1    2    0    0 -0.12654373293E+03 -0.34825667241E+02  0.19199886366E+03  0.26403456615E+03  0.12499818011E+03 0.  0.
          2    1    1    2  501    0  0.61725165014E+02  0.37428435058E+02 -0.22542453854E+03  0.23670045696E+03  0.00000000000E+00 0. -1.
          1    1    1    2  502    0  0.64818567913E+02 -0.26027678172E+01  0.30960321305E+04  0.30967116712E+04  0.00000000000E+00 0. -1.
         22    1    3    3    0    0 -0.68382425510E+02  0.45406072491E+02  0.90588096788E+02  0.12224594397E+03  0.00000000000E+00 0.  1.
         22    1    3    3    0    0 -0.58161307417E+02 -0.80231739732E+02  0.10141076687E+03  0.14178862218E+03  0.00000000000E+00 0.  1.
</event>
<event>
 7    1  0.3110367E-005  0.5313503E+03  0.7818608E-02  0.1255668E+00
          2   -1    0    0  502    0  0.00000000000E+00  0.00000000000E+00  0.49611152189E+03  0.49611152189E+03  0.00000000000E+00 0. -1.
          1   -1    0    0  501    0 -0.00000000000E+00 -0.00000000000E+00 -0.77256641905E+03  0.77256641905E+03  0.00000000000E+00 0. -1.
         25    2    1    2    0    0 -0.38166057881E+03 -0.36517332886E+03 -0.65022554457E+02  0.54668932700E+03  0.12499972057E+03 0.  0.
          2    1    1    2  501    0  0.36894525612E+03  0.38540968125E+03 -0.31237510783E+03  0.61825515154E+03  0.00000000000E+00 0. -1.
          1    1    1    2  502    0  0.12715322694E+02 -0.20236352386E+02  0.10094276513E+03  0.10373346240E+03  0.00000000000E+00 0. -1.
         22    1    3    3    0    0 -0.98017181967E+02 -0.90008812500E+02 -0.72285497009E+02  0.15144024355E+03  0.00000000000E+00 0. -1.
         22    1    3    3    0    0 -0.28364339684E+03 -0.27516451636E+03  0.72629425526E+01  0.39524908345E+03  0.00000000000E+00 0. -1.
</event>
<event>
 7    1  0.3110367E-005  0.8714417E+02  0.7818608E-02  0.1477633E+00
          2   -1    0    0  502    0  0.00000000000E+00  0.00000000000E+00  0.52805474736E+03  0.52805474736E+03  0.00000000000E+00 0. -1.
          1   -1    0    0  501    0 -0.00000000000E+00 -0.00000000000E+00 -0.17276637911E+04  0.17276637911E+04  0.00000000000E+00 0. -1.
         25    2    1    2    0    0 -0.64777479298E+02 -0.14675688760E+02 -0.12987420673E+03  0.19212164099E+03  0.12502766773E+03 0.  0.
          2    1    1    2  501    0 -0.18196546814E+02 -0.13571726182E+02 -0.15627177668E+04  0.15628826331E+04  0.00000000000E+00 0. -1.
          1    1    1    2  502    0  0.82974026113E+02  0.28247414942E+02  0.49298292982E+03  0.50071426438E+03  0.00000000000E+00 0. -1.
         22    1    3    3    0    0 -0.17536407273E+02 -0.32096524678E+02  0.14404838726E+02  0.39309182835E+02  0.00000000000E+00 0.  1.
         22    1    3    3    0    0 -0.47241072025E+02  0.17420835918E+02 -0.14427904546E+03  0.15281245816E+03  0.00000000000E+00 0.  1.
</event>
<event>
 7    1  0.3110367E-005  0.1302796E+04  0.7818608E-02  0.1035511E+00
          2   -1    0    0  502    0  0.00000000000E+00  0.00000000000E+00  0.11008802271E+04  0.11008802271E+04  0.00000000000E+00 0. -1.
          1   -1    0    0  501    0 -0.00000000000E+00 -0.00000000000E+00 -0.32896430102E+04  0.32896430102E+04  0.00000000000E+00 0. -1.
         25    2    1    2    0    0  0.10716846588E+04 -0.63550794538E+03  0.82748094250E+02  0.12549306740E+04  0.12500157153E+03 0.  0.
          2    1    1    2  501    0 -0.11905696405E+04  0.56441232354E+03 -0.25242230371E+04  0.28474057106E+04  0.00000000000E+00 0. -1.
          1    1    1    2  502    0  0.11888498164E+03  0.71095621848E+02  0.25271215986E+03  0.28818685266E+03  0.00000000000E+00 0. -1.
         22    1    3    3    0    0  0.29467865587E+03 -0.17527515871E+03  0.78973544189E+02  0.35184330627E+03  0.00000000000E+00 0.  1.
         22    1    3    3    0    0  0.77700600295E+03 -0.46023278668E+03  0.37745500620E+01  0.90308736774E+03  0.00000000000E+00 0.  1.
</event>
<event>
 7    1  0.3110367E-005  0.2231201E+03  0.7818608E-02  0.1168779E+00
          2   -1    0    0  502    0  0.00000000000E+00  0.00000000000E+00  0.10382047736E+04  0.10382047736E+04  0.00000000000E+00 0. -1.
          1   -1    0    0  501    0 -0.00000000000E+00 -0.00000000000E+00 -0.16622761833E+03  0.16622761833E+03  0.00000000000E+00 0. -1.
         25    2    1    2    0    0  0.13192578719E+03 -0.27855951459E+03  0.45074832080E+03  0.56017814385E+03  0.12500275055E+03 0.  0.
          2    1    1    2  501    0  0.10511329704E+02  0.14321166651E+03 -0.34750494569E+02  0.14774189098E+03  0.00000000000E+00 0. -1.
          1    1    1    2  502    0 -0.14243711690E+03  0.13534784808E+03  0.45597932904E+03  0.49651235711E+03  0.00000000000E+00 0. -1.
         22    1    3    3    0    0 -0.16669780853E+01 -0.14320133388E+02 -0.61942805768E+01  0.15691212447E+02  0.00000000000E+00 0.  1.
         22    1    3    3    0    0  0.13359276528E+03 -0.26423938120E+03  0.45694260138E+03  0.54448693140E+03  0.00000000000E+00 0.  1.
</event>
<event>
 7    1  0.3110367E-005  0.1894430E+03  0.7818608E-02  0.1280202E+00
          2   -1    0    0  502    0  0.00000000000E+00  0.00000000000E+00  0.17251515962E+04  0.17251515962E+04  0.00000000000E+00 0. -1.
          1   -1    0    0  501    0 -0.00000000000E+00 -0.00000000000E+00 -0.72089734017E+02  0.72089734017E+02  0.00000000000E+00 0. -1.
         25    2    1    2    0    0  0.10386356077E+03 -0.15138654706E+03  0.23218663069E+03  0.32130597668E+03  0.12498549233E+03 0.  0.
          2    1    1    2  501    0 -0.15262350918E+03  0.13104343217E+03  0.34949423185E+03  0.40325244545E+03  0.00000000000E+00 0. -1.
          1    1    1    2  502    0  0.48759948414E+02  0.20343114893E+02  0.10713809996E+04  0.10726829081E+04  0.00000000000E+00 0. -1.
         22    1    3    3    0    0  0.86243556036E+02 -0.15545436927E+03  0.24235010169E+03  0.30056211284E+03  0.00000000000E+00 0.  1.
         22    1    3    3    0    0  0.17620004732E+02  0.40678222091E+01 -0.10163471003E+02  0.20743863842E+02  0.00000000000E+00 0.  1.
</event>
<event>
 7    1  0.3110367E-005  0.8701543E+02  0.7818608E-02  0.1331695E+00
          2   -1    0    0  502    0  0.00000000000E+00  0.00000000000E+00  0.31655057821E+02  0.31655057821E+02  0.00000000000E+00 0. -1.
          1   -1    0    0  501    0 -0.00000000000E+00 -0.00000000000E+00 -0.13523972760E+04  0.13523972760E+04  0.00000000000E+00 0. -1.
         25    2    1    2    0    0  0.34229193982E+02  0.17961900213E+02 -0.33967154431E+03  0.36400022810E+03  0.12500056186E+03 0.  0.
          2    1    1    2  501    0  0.60060715706E+02  0.39454233627E+02 -0.82914253046E+03  0.83225072060E+03  0.00000000000E+00 0. -1.
          1    1    1    2  502    0 -0.94289909688E+02 -0.57416133839E+02 -0.15192814344E+03  0.18780138515E+03  0.00000000000E+00 0. -1.
         22    1    3    3    0    0  0.28550902761E+02 -0.23858878951E+02 -0.31043842875E+03  0.31266022804E+03  0.00000000000E+00 0.  1.
         22    1    3    3    0    0  0.56782912211E+01  0.41820779164E+02 -0.29233115559E+02  0.51340000062E+02  0.00000000000E+00 0.  1.
</event>
<event>
 7    1  0.4291212E-005  0.6310422E+02  0.7818608E-02  0.1523605E+00
          2   -1    0    0  502    0  0.00000000000E+00  0.00000000000E+00  0.11021300773E+04  0.11021300773E+04  0.00000000000E+00 0. -1.
          1   -1    0    0  501    0 -0.00000000000E+00 -0.00000000000E+00 -0.67371437847E+03  0.67371437847E+03  0.00000000000E+00 0. -1.
         25    2    1    2    0    0 -0.42638454766E+02 -0.23312496457E+02 -0.23911458599E+03  0.27415493072E+03  0.12499452184E+03 0.  0.
          2    1    1    2  501    0 -0.46827657985E+00 -0.22857056802E+02 -0.41584572967E+03  0.41647369090E+03  0.00000000000E+00 0. -1.
          1    1    1    2  502    0  0.43106731346E+02  0.46169553259E+02  0.10833760145E+04  0.10852158341E+04  0.00000000000E+00 0. -1.
         22    1    3    3    0    0 -0.41343842865E+02 -0.70029750911E+02 -0.18833244019E+03  0.20514040895E+03  0.00000000000E+00 0. -1.
         22    1    3    3    0    0 -0.12946119007E+01  0.46717254454E+02 -0.50782145798E+02  0.69014521773E+02  0.00000000000E+00 0. -1.
</event>
<event>
 7    1  0.3110367E-005  0.1463474E+03  0.7818608E-02  0.1393092E+00
          2   -1    0    0  502    0  0.00000000000E+00  0.00000000000E+00  0.90468639226E+02  0.90468639226E+02  0.00000000000E+00 0. -1.
          1   -1    0    0  501    0 -0.00000000000E+00 -0.00000000000E+00 -0.70999271546E+03  0.70999271546E+03  0.00000000000E+00 0. -1.
         25    2    1    2    0    0 -0.14159073498E+03 -0.53614135082E+02 -0.47162645003E+02  0.20192512718E+03  0.12500812050E+03 0.  0.
          2    1    1    2  501    0  0.12687822585E+02  0.22172694728E+02 -0.22916870468E+03  0.23058817064E+03  0.00000000000E+00 0. -1.
          1    1    1    2  502    0  0.12890291239E+03  0.31441440353E+02 -0.34319272655E+03  0.36794805687E+03  0.00000000000E+00 0. -1.
         22    1    3    3    0    0 -0.15163606066E+03 -0.57559231026E+02 -0.91949631973E+01  0.16245340044E+03  0.00000000000E+00 0. -1.
         22    1    3    3    0    0  0.10045325679E+02  0.39450959440E+01 -0.37967681806E+02  0.39471726738E+02  0.00000000000E+00 0. -1.
</event>
<event>
 7    1  0.3110367E-005  0.2812820E+03  0.7818608E-02  0.1095366E+00
          2   -1    0    0  502    0  0.00000000000E+00  0.00000000000E+00  0.23392362716E+04  0.23392362716E+04  0.00000000000E+00 0. -1.
          1   -1    0    0  501    0 -0.00000000000E+00 -0.00000000000E+00 -0.52446729402E+03  0.52446729402E+03  0.00000000000E+00 0. -1.
         25    2    1    2    0    0 -0.24242561384E+03 -0.19849767735E+03  0.32503032300E+03  0.46844672803E+03  0.12500447981E+03 0.  0.
          2    1    1    2  501    0 -0.41707421848E+02  0.27677890239E+03 -0.39693707969E+03  0.48570064348E+03  0.00000000000E+00 0. -1.
          1    1    1    2  502    0  0.28413303569E+03 -0.78281225045E+02  0.18866757342E+04  0.19095561941E+04  0.00000000000E+00 0. -1.
         22    1    3    3    0    0  0.45566413141E+01 -0.10992910336E+02  0.58047563880E+02  0.59254761244E+02  0.00000000000E+00 0.  1.
         22    1    3    3    0    0 -0.24698225515E+03 -0.18750476701E+03  0.26698275912E+03  0.40919196678E+03  0.00000000000E+00 0.  1.
</event>
<event>
 7    1  0.3110367E-005  0.5792890E+03  0.7818608E-02  0.1154238E+00
          2   -1    0    0  502    0  0.00000000000E+00  0.00000000000E+00  0.16552404060E+04  0.16552404060E+04  0.00000000000E+00 0. -1.
          1   -1    0    0  501    0 -0.00000000000E+00 -0.00000000000E+00 -0.79066539112E+03  0.79066539112E+03  0.00000000000E+00 0. -1.
         25    2    1    2    0    0 -0.42717569535E+03  0.34944683952E+03  0.32481232819E+03  0.65247259299E+03  0.12500107084E+03 0.  0.
          2    1    1    2  501    0  0.48851227386E+03 -0.32652894501E+03 -0.48786218838E+03  0.76372436683E+03  0.00000000000E+00 0. -1.
          1    1    1    2  502    0 -0.61336578502E+02 -0.22917894511E+02  0.10276248751E+04  0.10297088373E+04  0.00000000000E+00 0. -1.
         22    1    3    3    0    0 -0.20950155478E+01 -0.78410197377E+01  0.13817122320E+02  0.16024467226E+02  0.00000000000E+00 0. -1.
         22    1    3    3    0    0 -0.42508067981E+03  0.35728785926E+03  0.31099520587E+03  0.63644812577E+03  0.00000000000E+00 0. -1.
</event>
<event>
 7    1  0.3110367E-005  0.3087891E+03  0.7818608E-02  0.1140911E+00
          2   -1    0    0  502    0  0.00000000000E+00  0.00000000000E+00  0.44758463940E+04  0.44758463940E+04  0.00000000000E+00 0. -1.
          1   -1    0    0  501    0 -0.00000000000E+00 -0.00000000000E+00 -0.76529473437E+02  0.76529473437E+02  0.00000000000E+00 0. -1.
         25    2    1    2    0    0 -0.30840414197E+03  0.24565833908E+03  0.17472484536E+04  0.17955395569E+04  0.12499602909E+03 0.  0.
          2    1    1    2  501    0  0.16454597515E+03 -0.24060793583E+03  0.37377169932E+03  0.47399666658E+03  0.00000000000E+00 0. -1.
          1    1    1    2  502    0  0.14385816682E+03 -0.50504032458E+01  0.22782967676E+04  0.22828396439E+04  0.00000000000E+00 0. -1.
         22    1    3    3    0    0 -0.22501550503E+03  0.23725956983E+03  0.14684276194E+04  0.15043948134E+04  0.00000000000E+00 0.  1.
         22    1    3    3    0    0 -0.83388636935E+02  0.83987692461E+01  0.27882083422E+03  0.29114474354E+03  0.00000000000E+00 0.  1.
</event>
<event>
 7    1  0.3110367E-005  0.1095305E+03  0.7818608E-02  0.1413786E+00
          2   -1    0    0  502    0  0.00000000000E+00  0.00000000000E+00  0.12312705155E+04  0.12312705155E+04  0.00000000000E+00 0. -1.
          1   -1    0    0  501    0 -0.00000000000E+00 -0.00000000000E+00 -0.55670682632E+03  0.55670682632E+03  0.00000000000E+00 0. -1.
         25    2    1    2    0    0  0.68488685220E+02 -0.53305224942E+02 -0.24822280765E+03  0.29115895320E+03  0.12500730690E+03 0.  0.
          2    1    1    2  501    0  0.45198739769E+01 -0.28643670045E+02 -0.28378634907E+03  0.28526405489E+03  0.00000000000E+00 0. -1.
          1    1    1    2  502    0 -0.73008559197E+02  0.81948894987E+02  0.12065728459E+04  0.12115543337E+04  0.00000000000E+00 0. -1.
         22    1    3    3    0    0  0.39200817434E+02  0.99124627116E+01 -0.20547938733E+03  0.20942000769E+03  0.00000000000E+00 0.  1.
         22    1    3    3    0    0  0.29287867786E+02 -0.63217687654E+02 -0.42743420327E+02  0.81738945509E+02  0.00000000000E+00 0.  1.
</event>
<event>
 7    1  0.3110367E-005  0.1011215E+03  0.7818608E-02  0.1352454E+00
          2   -1    0    0  502    0  0.00000000000E+00  0.00000000000E+00  0.80774422324E+02  0.80774422324E+02  0.00000000000E+00 0. -1.
          1   -1    0    0  501    0 -0.00000000000E+00 -0.00000000000E+00 -0.31632147214E+03  0.31632147214E+03  0.00000000000E+00 0. -1.
         25    2    1    2    0    0  0.72953988121E+02  0.22610010469E+02 -0.11555956883E+03  0.18658296799E+03  0.12500277213E+03 0.  0.
          2    1    1    2  501    0  0.47055660981E+02 -0.21386554250E+02 -0.48148599078E+02  0.70639277504E+02  0.00000000000E+00 0. -1.
          1    1    1    2  502    0 -0.12000964910E+03 -0.12234562186E+01 -0.71838881912E+02  0.13987364897E+03  0.00000000000E+00 0. -1.
         22    1    3    3    0    0  0.58737646019E+01 -0.19544441023E+02 -0.10463586798E+03  0.10660746294E+03  0.00000000000E+00 0.  1.
         22    1    3    3    0    0  0.67080223519E+02  0.42154451492E+02 -0.10923700844E+02  0.79975505051E+02  0.00000000000E+00 0.  1.
</event>
<event>
 7    1  0.3110367E-005  0.5834652E+02  0.7818608E-02  0.1434807E+00
          2   -1    0    0  502    0  0.00000000000E+00  0.00000000000E+00  0.23279731719E+04  0.23279731719E+04  0.00000000000E+00 0. -1.
          1   -1    0    0  501    0 -0.00000000000E+00 -0.00000000000E+00 -0.16568857533E+03  0.16568857533E+03  0.00000000000E+00 0. -1.
         25    2    1    2    0    0 -0.26414236781E+02 -0.84180809020E+02  0.13605117392E+04  0.13690873050E+04  0.12499494278E+03 0.  0.
          2    1    1    2  501    0 -0.11150512997E+02  0.44995380004E+02 -0.15728886329E+03  0.16397775666E+03  0.00000000000E+00 0. -1.
          1    1    1    2  502    0  0.37564749779E+02  0.39185429015E+02  0.95906172068E+03  0.96059668558E+03  0.00000000000E+00 0. -1.
         22    1    3    3    0    0 -0.18974150184E+02 -0.37724778316E+02  0.11210655247E+03  0.11979589468E+03  0.00000000000E+00 0.  1.
         22    1    3    3    0    0 -0.74400865969E+01 -0.46456030703E+02  0.12484051867E+04  0.12492914103E+04  0.00000000000E+00 0.  1.
</event>
<event>
 7    1  0.3110367E-005  0.1392192E+03  0.7818608E-02  0.1309874E+00
          2   -1    0    0  502    0  0.00000000000E+00  0.00000000000E+00  0.13304049934E+04  0.13304049934E+04  0.00000000000E+00 0. -1.
          1   -1    0    0  501    0 -0.00000000000E+00 -0.00000000000E+00 -0.59595295041E+03  0.59595295041E+03  0.00000000000E+00 0. -1.
         25    2    1    2    0    0  0.10858914463E+03  0.20807323552E+02 -0.86009321936E+02  0.18774196809E+03  0.12499958431E+03 0.  0.
          2    1    1    2  501    0 -0.12829117175E+03 -0.71696596703E+02 -0.44671281209E+03  0.47026733165E+03  0.00000000000E+00 0. -1.
          1    1    1    2  502    0  0.19702027121E+02  0.50889273151E+02  0.12671741771E+04  0.12683486441E+04  0.00000000000E+00 0. -1.
         22    1    3    3    0    0  0.10203568145E+03 -0.36979509867E+02 -0.51653639526E+02  0.12019510354E+03  0.00000000000E+00 0. -1.
         22    1    3    3    0    0  0.65534631752E+01  0.57786833419E+02 -0.34355682410E+02  0.67546864547E+02  0.00000000000E+00 0. -1.
</event>
<event>
 7    1  0.3110367E-005  0.1078837E+04  0.7818608E-02  0.1102703E+00
          2   -1    0    0  502    0  0.00000000000E+00  0.00000000000E+00  0.18302559129E+04  0.18302559129E+04  0.00000000000E+00 0. -1.
          1   -1    0    0  501    0 -0.00000000000E+00 -0.00000000000E+00 -0.18920726191E+04  0.18920726191E+04  0.00000000000E+00 0. -1.
         25    2    1    2    0    0  0.98300749016E+03 -0.48025085861E+03 -0.12431168939E+04  0.16606953627E+04  0.12499945189E+03 0.  0.
          2    1    1    2  501    0 -0.94201746471E+03  0.42808798091E+03  0.17052416201E+03  0.10486823700E+04  0.00000000000E+00 0. -1.
          1    1    1    2  502    0 -0.40990025449E+02  0.52162877696E+02  0.10107760257E+04  0.10129507994E+04  0.00000000000E+00 0. -1.
         22    1    3    3    0    0  0.76971189211E+03 -0.42483959736E+03 -0.95680912917E+03  0.12993955479E+04  0.00000000000E+00 0.  1.
         22    1    3    3    0    0  0.21329559805E+03 -0.55411261247E+02 -0.28630776470E+03  0.36129981476E+03  0.00000000000E+00 0.  1.
</event>
<event>
 7    1  0.3110367E-005  0.1008998E+03  0.7818608E-02  0.1286831E+00
          2   -1    0    0  502    0  0.00000000000E+00  0.00000000000E+00  0.23430145460E+03  0.23430145460E+03  0.00000000000E+00 0. -1.
          1   -1    0    0  501    0 -0.00000000000E+00 -0.00000000000E+00 -0.77005760347E+03  0.77005760347E+03  0.00000000000E+00 0. -1.
         25    2    1    2    0    0 -0.22543997731E+02 -0.10929862411E+03 -0.52012474945E+03  0.54645175175E+03  0.12500136371E+03 0.  0.
          2    1    1    2  501    0 -0.67987254239E+02  0.87299248828E+02 -0.21279275517E+03  0.23984199432E+03  0.00000000000E+00 0. -1.
          1    1    1    2  502    0  0.90531251970E+02  0.21999375286E+02  0.19716135576E+03  0.21806531201E+03  0.00000000000E+00 0. -1.
         22    1    3    3    0    0  0.97612677409E+01 -0.10869056912E+02 -0.32674485628E+03  0.32707127641E+03  0.00000000000E+00 0.  1.
         22    1    3    3    0    0 -0.32305265472E+02 -0.98429567202E+02 -0.19337989317E+03  0.21938047534E+03  0.00000000000E+00 0.  1.
</event>
<event>
 7    1  0.3110367E-005  0.2512530E+03  0.7818608E-02  0.1191181E+00
          2   -1    0    0  502    0  0.00000000000E+00  0.00000000000E+00  0.34874697920E+03  0.34874697920E+03  0.00000000000E+00 0. -1.
          1   -1    0    0  501    0 -0.00000000000E+00 -0.00000000000E+00 -0.21458900946E+04  0.21458900946E+04  0.00000000000E+00 0. -1.
         25    2    1    2    0    0  0.21625779044E+03  0.59996708915E+02 -0.10380442165E+04  0.10693583144E+04  0.12499748851E+03 0.  0.
          2    1    1    2  501    0 -0.24609364432E+03 -0.15453091270E+03 -0.10648872108E+04  0.11038236528E+04  0.00000000000E+00 0. -1.
          1    1    1    2  502    0  0.29835853876E+02  0.94534203788E+02  0.30578831191E+03  0.32145510660E+03  0.00000000000E+00 0. -1.
         22    1    3    3    0    0  0.21287181146E+03  0.25803757176E+02 -0.77638147161E+03  0.80544921097E+03  0.00000000000E+00 0.  1.
         22    1    3    3    0    0  0.33859789847E+01  0.34192951739E+02 -0.26166274489E+03  0.26390910341E+03  0.00000000000E+00 0.  1.
</event>
<event>
 7    1  0.3110367E-005  0.1218334E+03  0.7818608E-02  0.1418055E+00
          2   -1    0    0  502    0  0.00000000000E+00  0.00000000000E+00  0.13302351947E+04  0.13302351947E+04  0.00000000000E+00 0. -1.
          1   -1    0    0  501    0 -0.00000000000E+00 -0.00000000000E+00 -0.17607282797E+03  0.17607282797E+03  0.00000000000E+00 0. -1.
         25    2    1    2    0    0 -0.43767812390E+02 -0.13854067202E+03 -0.10290192897E+03  0.21753907263E+03  0.12500120771E+03 0.  0.
          2    1    1    2  501    0  0.14337774871E+02  0.20751333207E+02 -0.62751693963E+00  0.25230604345E+02  0.00000000000E+00 0. -1.
          1    1    1    2  502    0  0.29430037519E+02  0.11778933882E+03  0.12576918126E+04  0.12635383457E+04  0.00000000000E+00 0. -1.
         22    1    3    3    0    0  0.29828148729E+02 -0.61771804650E+02  0.13577247405E+01  0.68609895225E+02  0.00000000000E+00 0.  1.
         22    1    3    3    0    0 -0.73595961119E+02 -0.76768867374E+02 -0.10425965371E+03  0.14892917740E+03  0.00000000000E+00 0.  1.
</event>
<event>
 7    1  0.3110367E-005  0.5626810E+02  0.7818608E-02  0.1460923E+00
          2   -1    0    0  502    0  0.00000000000E+00  0.00000000000E+00  0.72562369379E+03  0.72562369379E+03  0.00000000000E+00 0. -1.
          1   -1    0    0  501    0 -0.00000000000E+00 -0.00000000000E+00 -0.72373025927E+02  0.72373025927E+02  0.00000000000E+00 0. -1.
         25    2    1    2    0    0  0.30417063213E+02 -0.25312379373E+02  0.37544795684E+01  0.13116908442E+03  0.12500127323E+03 0.  0.
          2    1    1    2  501    0 -0.54798258965E+02 -0.25399124490E+02  0.11992690685E+03  0.13427742810E+03  0.00000000000E+00 0. -1.
          1    1    1    2  502    0  0.24381195751E+02  0.50711503863E+02  0.52956928144E+03  0.53255020719E+03  0.00000000000E+00 0. -1.
         22    1    3    3    0    0 -0.34378429605E+01  0.29077494479E+02 -0.42883256000E+02  0.51925842261E+02  0.00000000000E+00 0.  1.
         22    1    3    3    0    0  0.33854906174E+02 -0.54389873852E+02  0.46637735568E+02  0.79243242164E+02  0.00000000000E+00 0.  1.
</event>
<event>
 7    1  0.3110367E-005  0.5695853E+02  0.7818608E-02  0.1496665E+00
          2   -1    0    0  502    0  0.00000000000E+00  0.00000000000E+00  0.66964296009E+03  0.66964296009E+03  0.00000000000E+00 0. -1.
          1   -1    0    0  501    0 -0.00000000000E+00 -0.00000000000E+00 -0.68312173819E+03  0.68312173819E+03  0.00000000000E+00 0. -1.
         25    2    1    2    0    0  0.87695173255E+01 -0.79887602754E+02 -0.50281885815E+03  0.52431812200E+03  0.12499502166E+03 0.  0.
          2    1    1    2  501    0 -0.18824788300E+02  0.23872702911E+02 -0.16694902732E+03  0.16969459721E+03  0.00000000000E+00 0. -1.
          1    1    1    2  502    0  0.10055270975E+02  0.56014899843E+02  0.65628910737E+03  0.65875197907E+03  0.00000000000E+00 0. -1.
         22    1    3    3    0    0 -0.54139314635E+02 -0.57868988369E+02 -0.32195081894E+03  0.33156027359E+03  0.00000000000E+00 0.  1.
         22    1    3    3    0    0  0.62908831961E+02 -0.22018614385E+02 -0.18086803921E+03  0.19275784841E+03  0.00000000000E+00 0.  1.
</event>
<event>
 7    1  0.3110367E-005  0.1617516E+03  0.7818608E-02  0.1219349E+00
          2   -1    0    0  502    0  0.00000000000E+00  0.00000000000E+00  0.34775639588E+04  0.34775639588E+04  0.00000000000E+00 0. -1.
          1   -1    0    0  501    0 -0.00000000000E+00 -0.00000000000E+00 -0.36812206868E+03  0.36812206868E+03  0.00000000000E+00 0. -1.
         25    2    1    2    0    0  0.65281632551E+02 -0.15933782613E+03  0.25640201185E+04  0.25728339470E+04  0.12500046511E+03 0.  0.
          2    1    1    2  501    0 -0.11369648112E+03 -0.15733607175E+01 -0.34678930730E+03  0.36495505057E+03  0.00000000000E+00 0. -1.
          1    1    1    2  502    0  0.48414848567E+02  0.16091118685E+03  0.89221107887E+03  0.90789702988E+03  0.00000000000E+00 0. -1.
         22    1    3    3    0    0  0.28468681509E+02 -0.62431900240E+02  0.18557355576E+04  0.18570036801E+04  0.00000000000E+00 0. -1.
         22    1    3    3    0    0  0.36812951042E+02 -0.96905925894E+02  0.70828456088E+03  0.71583026690E+03  0.00000000000E+00 0. -1.
</event>
<event>
 7    1  0.3110367E-005  0.3666102E+03  0.7818608E-02  0.1063242E+00
          2   -1    0    0  502    0  0.00000000000E+00  0.00000000000E+00  0.98652897750E+03  0.98652897750E+03  0.00000000000E+00 0. -1.
          1   -1    0    0  501    0 -0.00000000000E+00 -0.00000000000E+00 -0.37171744299E+03  0.37171744299E+03  0.00000000000E+00 0. -1.
         25    2    1    2    0    0  0.38376905032E+03 -0.13329570840E+02  0.28278561562E+03  0.49300003274E+03  0.12499986575E+03 0.  0.
          2    1    1    2  501    0 -0.20858604375E+03 -0.30871695149E+03  0.33139583723E+03  0.49863563322E+03  0.00000000000E+00 0. -1.
          1    1    1    2  502    0 -0.17518300657E+03  0.32204652233E+03  0.63008166133E+00  0.36661075453E+03  0.00000000000E+00 0. -1.
         22    1    3    3    0    0  0.37002288252E+03 -0.35242706159E+02  0.28293663107E+03  0.46713180059E+03  0.00000000000E+00 0.  1.
         22    1    3    3    0    0  0.13746167797E+02  0.21913135320E+02 -0.15101544429E+00  0.25868232145E+02  0.00000000000E+00 0.  1.
</event>
<event>
 7    1  0.3110367E-005  0.1303722E+03  0.7818608E-02  0.1334821E+00
          2   -1    0    0  502    0  0.00000000000E+00  0.00000000000E+00  0.72180266083E+03  0.72180266083E+03  0.00000000000E+00 0. -1.
          1   -1    0    0  501    0 -0.00000000000E+00 -0.00000000000E+00 -0.13184881076E+04  0.13184881076E+04  0.00000000000E+00 0. -1.
         25    2    1    2    0    0  0.39592583888E+02 -0.10179038822E+03  0.65183831007E+02  0.17833139128E+03  0.12499718981E+03 0.  0.
          2    1    1    2  501    0 -0.34006973969E+02 -0.31959776910E+02 -0.12540086518E+04  0.12548767272E+04  0.00000000000E+00 0. -1.
          1    1    1    2  502    0 -0.55856099198E+01  0.13375016513E+03  0.59213937398E+03  0.60708265000E+03  0.00000000000E+00 0. -1.
         22    1    3    3    0    0  0.84966658897E+00  0.25612679220E+02  0.32182622788E+02  0.41139427313E+02  0.00000000000E+00 0. -1.
         22    1    3    3    0    0  0.38742917299E+02 -0.12740306744E+03  0.33001208219E+02  0.13719196397E+03  0.00000000000E+00 0. -1.
</event>
<event>
 7    1  0.3110367E-005  0.5654046E+02  0.7818608E-02  0.1480920E+00
          2   -1    0    0  502    0  0.00000000000E+00  0.00000000000E+00  0.19506235664E+02  0.19506235664E+02  0.00000000000E+00 0. -1.
          1   -1    0    0  501    0 -0.00000000000E+00 -0.00000000000E+00 -0.22598250673E+04  0.22598250673E+04  0.00000000000E+00 0. -1.
         25    2    1    2    0    0 -0.50899229045E+02  0.27279519609E+02 -0.43227535287E+03  0.45367469630E+03  0.12499538254E+03 0.  0.
          2    1    1    2  501    0  0.24068717310E+02  0.24273824146E+02 -0.17189098062E+04  0.17192496745E+04  0.00000000000E+00 0. -1.
          1    1    1    2  502    0  0.26830511735E+02 -0.51553343755E+02 -0.89133672609E+02  0.10640693213E+03  0.00000000000E+00 0. -1.
         22    1    3    3    0    0  0.25128161429E+02  0.50763679273E+02 -0.14786348820E+03  0.15834136153E+03  0.00000000000E+00 0. -1.
         22    1    3    3    0    0 -0.76027390474E+02 -0.23484159664E+02 -0.28441186467E+03  0.29533333477E+03  0.00000000000E+00 0. -1.
</event>
<event>
 7    1  0.3110367E-005  0.2126728E+04  0.7818608E-02  0.1094517E+00
          2   -1    0    0  502    0  0.00000000000E+00  0.00000000000E+00  0.33445580663E+04  0.33445580663E+04  0.00000000000E+00 0. -1.
          1   -1    0    0  501    0 -0.00000000000E+00 -0.00000000000E+00 -0.16210634912E+04  0.16210634912E+04  0.00000000000E+00 0. -1.
         25    2    1    2    0    0 -0.15194928221E+04  0.14809557068E+04  0.32735148698E+01  0.21254937024E+04  0.12499808371E+03 0.  0.
          2    1    1    2  501    0  0.15543081984E+04 -0.14672008059E+04  0.17718683832E+04  0.27763410720E+04  0.00000000000E+00 0. -1.
          1    1    1    2  502    0 -0.34815376326E+02 -0.13754900953E+02 -0.51647323040E+02  0.63786783162E+02  0.00000000000E+00 0. -1.
         22    1    3    3    0    0 -0.27841241500E+03  0.20705542779E+03 -0.23005430887E+01  0.34697365245E+03  0.00000000000E+00 0.  1.
         22    1    3    3    0    0 -0.12410804071E+04  0.12739002790E+04  0.55740579585E+01  0.17785200499E+04  0.00000000000E+00 0.  1.
</event>
<event>
 7    1  0.3110367E-005  0.1478919E+03  0.7818608E-02  0.1329955E+00
          2   -1    0    0  502    0  0.00000000000E+00  0.00000000000E+00  0.22002976045E+04  0.22002976045E+04  0.00000000000E+00 0. -1.
          1   -1    0    0  501    0 -0.00000000000E+00 -0.00000000000E+00 -0.51341139167E+02  0.51341139167E+02  0.00000000000E+00 0. -1.
         25    2    1    2    0    0  0.15704112997E+03  0.75971294393E+02  0.34026503733E+03  0.40229222362E+03  0.12500073393E+03 0.  0.
          2    1    1    2  501    0 -0.15916384531E+02 -0.39872500229E+02  0.91210456260E+01  0.43890101896E+02  0.00000000000E+00 0. -1.
          1    1    1    2  502    0 -0.14112474544E+03 -0.36098794163E+02  0.17995703824E+04  0.18054564182E+04  0.00000000000E+00 0. -1.
         22    1    3    3    0    0  0.83135632072E+02 -0.12010888139E+02  0.22218208240E+03  0.23753036120E+03  0.00000000000E+00 0. -1.
         22    1    3    3    0    0  0.73905497898E+02  0.87982182531E+02  0.11808295494E+03  0.16476186242E+03  0.00000000000E+00 0. -1.
</event>
<event>
 7    1  0.3110367E-005  0.8014947E+02  0.7818608E-02  0.1365120E+00
          2   -1    0    0  502    0  0.00000000000E+00  0.00000000000E+00  0.58789695000E+03  0.58789695000E+03  0.00000000000E+00 0. -1.
          1   -1    0    0  501    0 -0.00000000000E+00 -0.00000000000E+00 -0.72582015164E+03  0.72582015164E+03  0.00000000000E+00 0. -1.
         25    2    1    2    0    0 -0.30319579801E+01  0.28228112246E+02  0.12337326141E+03  0.17790948264E+03  0.12499921315E+03 0.  0.
          2    1    1    2  501    0  0.49143325218E+02 -0.64417755417E+02 -0.69422083970E+03  0.69893296381E+03  0.00000000000E+00 0. -1.
          1    1    1    2  502    0 -0.46111367238E+02  0.36189643170E+02  0.43292437665E+03  0.43687465520E+03  0.00000000000E+00 0. -1.
         22    1    3    3    0    0  0.25043645105E+02 -0.11011080131E+02 -0.15116214808E+02  0.31255847388E+02  0.00000000000E+00 0.  1.
         22    1    3    3    0    0 -0.28075603085E+02  0.39239192377E+02  0.13848947622E+03  0.14665363525E+03  0.00000000000E+00 0.  1.
</event>
<event>
 7    1  0.3110367E-005  0.8597087E+02  0.7818608E-02  0.1347455E+00
          2   -1    0    0  502    0  0.00000000000E+00  0.00000000000E+00  0.48125175045E+03  0.48125175045E+03  0.00000000000E+00 0. -1.
          1   -1    0    0  501    0 -0.00000000000E+00 -0.00000000000E+00 -0.10768942828E+04  0.10768942828E+04  0.00000000000E+00 0. -1.
         25    2    1    2    0    0  0.52693942556E+02  0.10040629210E+03  0.52582964970E+02  0.17677125402E+03  0.12500013188E+03 0.  0.
          2    1    1    2  501    0  0.89434092044E+01 -0.85364689551E+02 -0.10102212871E+04  0.10138610179E+04  0.00000000000E+00 0. -1.
          1    1    1    2  502    0 -0.61637351760E+02 -0.15041602547E+02  0.36199578976E+03  0.36751376130E+03  0.00000000000E+00 0. -1.
         22    1    3    3    0    0  0.73793126408E+02  0.89789947441E+02  0.79613044921E+02  0.14087546659E+03  0.00000000000E+00 0. -1.
         22    1    3    3    0    0 -0.21099183852E+02  0.10616344656E+02 -0.27030079951E+02  0.35895787430E+02  0.00000000000E+00 0. -1.
</event>
<event>
 7    1  0.3110367E-005  0.3111381E+03  0.7818608E-02  0.1157924E+00
          2   -1    0    0  502    0  0.00000000000E+00  0.00000000000E+00  0.21689850635E+04  0.21689850635E+04  0.00000000000E+00 0. -1.
          1   -1    0    0  501    0 -0.00000000000E+00 -0.00000000000E+00 -0.80395970004E+03  0.80395970004E+03  0.00000000000E+00 0. -1.
         25    2    1    2    0    0 -0.33368591158E+03  0.99785989710E+01 -0.30896273233E+02  0.35780552398E+03  0.12499741305E+03 0.  0.
          2    1    1    2  501    0  0.45742066811E+02  0.10742242898E+03 -0.59181739251E+03  0.60322445326E+03  0.00000000000E+00 0. -1.
          1    1    1    2  502    0  0.28794384477E+03 -0.11740102795E+03  0.19877390292E+04  0.20119147863E+04  0.00000000000E+00 0. -1.
         22    1    3    3    0    0 -0.17882406530E+03 -0.22488692936E+02  0.39682489971E+02  0.18454941791E+03  0.00000000000E+00 0.  1.
         22    1    3    3    0    0 -0.15486184628E+03  0.32467291907E+02 -0.70578763204E+02  0.17325610607E+03  0.00000000000E+00 0.  1.
</event>
<event>
 7    1  0.3110367E-005  0.2160678E+03  0.7818608E-02  0.1187680E+00
          2   -1    0    0  502    0  0.00000000000E+00  0.00000000000E+00  0.38522852415E+03  0.38522852415E+03  0.00000000000E+00 0. -1.
          1   -1    0    0  501    0 -0.00000000000E+00 -0.00000000000E+00 -0.94385283732E+03  0.94385283732E+03  0.00000000000E+00 0. -1.
         25    2    1    2    0    0  0.13166430611E+03 -0.14719389911E+03 -0.72085284669E+02  0.24458387864E+03  0.12499380779E+03 0.  0.
          2    1    1    2  501    0 -0.91631300195E+02 -0.77209967846E+02 -0.73651376760E+03  0.74619716173E+03  0.00000000000E+00 0. -1.
          1    1    1    2  502    0 -0.40033005912E+02  0.22440386696E+03  0.24997473910E+03  0.33830032110E+03  0.00000000000E+00 0. -1.
         22    1    3    3    0    0 -0.14135810709E+02  0.19268456187E+00  0.14190793797E+02  0.20030898640E+02  0.00000000000E+00 0. -1.
         22    1    3    3    0    0  0.14580011682E+03 -0.14738658367E+03 -0.86276078466E+02  0.22455298000E+03  0.00000000000E+00 0. -1.
</event>
<event>
 7    1  0.3110367E-005  0.1451974E+03  0.7818608E-02  0.1234771E+00
          2   -1    0    0  502    0  0.00000000000E+00  0.00000000000E+00  0.96730282767E+03  0.96730282767E+03  0.00000000000E+00 0. -1.
          1   -1    0    0  501    0 -0.00000000000E+00 -0.00000000000E+00 -0.11285735635E+04  0.11285735635E+04  0.00000000000E+00 0. -1.
         25    2    1    2    0    0 -0.79828167540E+02  0.62599779555E+02 -0.10795676678E+03  0.19383087224E+03  0.12499789920E+03 0.  0.
          2    1    1    2  501    0  0.15449026289E+03  0.15355190536E+02 -0.96832394669E+03  0.98069072033E+03  0.00000000000E+00 0. -1.
          1    1    1    2  502    0 -0.74662095354E+02 -0.77954970090E+02  0.91500997761E+03  0.92135479863E+03  0.00000000000E+00 0. -1.
         22    1    3    3    0    0 -0.15025324421E+02 -0.31287003464E+02 -0.61574502999E+02  0.70682787008E+02  0.00000000000E+00 0.  1.
         22    1    3    3    0    0 -0.64802843120E+02  0.93886783019E+02 -0.46382263778E+02  0.12314808523E+03  0.00000000000E+00 0.  1.
</event>
<event>
 7    1  0.3110367E-005  0.4602224E+03  0.7818608E-02  0.1157021E+00
          2   -1    0    0  502    0  0.00000000000E+00  0.00000000000E+00  0.17118271262E+04  0.17118271262E+04  0.00000000000E+00 0. -1.
          1   -1    0    0  501    0 -0.00000000000E+00 -0.00000000000E+00 -0.70874377005E+03  0.70874377005E+03  0.00000000000E+00 0. -1.
         25    2    1    2    0    0  0.46134171710E+03  0.24210668768E+03  0.25957546433E+03  0.59536216667E+03  0.12499943866E+03 0.  0.
          2    1    1    2  501    0 -0.38217962474E+03 -0.23226105304E+03 -0.44683666599E+03  0.63219416986E+03  0.00000000000E+00 0. -1.
          1    1    1    2  502    0 -0.79162092357E+02 -0.98456346350E+01  0.11903445578E+04  0.11930145597E+04  0.00000000000E+00 0. -1.
         22    1    3    3    0    0  0.13595396357E+03  0.98485382358E+02  0.26076584574E+02  0.16989066782E+03  0.00000000000E+00 0.  1.
         22    1    3    3    0    0  0.32538775353E+03  0.14362130532E+03  0.23349887976E+03  0.42547149885E+03  0.00000000000E+00 0.  1.
</event>
<event>
 7    1  0.3110367E-005  0.2459896E+03  0.7818608E-02  0.1287724E+00
          2   -1    0    0  502    0  0.00000000000E+00  0.00000000000E+00  0.22311241152E+04  0.22311241152E+04  0.00000000000E+00 0. -1.
          1   -1    0    0  501    0 -0.00000000000E+00 -0.00000000000E+00 -0.26646920258E+03  0.26646920258E+03  0.00000000000E+00 0. -1.
         25    2    1    2    0    0  0.23615420534E+03  0.13341777781E+03  0.18146720364E+02  0.29920132059E+03  0.12499205835E+03 0.  0.
          2    1    1    2  501    0 -0.11577469231E+02 -0.36083289884E+02 -0.11568013948E+03  0.12172894591E+03  0.00000000000E+00 0. -1.
          1    1    1    2  502    0 -0.22457673611E+03 -0.97334487921E+02  0.20621883318E+04  0.20766630513E+04  0.00000000000E+00 0. -1.
         22    1    3    3    0    0  0.44773052719E+02  0.34346905787E+02 -0.47671458441E+02  0.73870861216E+02  0.00000000000E+00 0. -1.
         22    1    3    3    0    0  0.19138115262E+03  0.99070872018E+02  0.65818178805E+02  0.22533045938E+03  0.00000000000E+00 0. -1.
</event>
<event>
 7    1  0.3110367E-005  0.2771701E+03  0.7818608E-02  0.1210275E+00
          2   -1    0    0  502    0  0.00000000000E+00  0.00000000000E+00  0.29685599963E+04  0.29685599963E+04  0.00000000000E+00 0. -1.
          1   -1    0    0  501    0 -0.00000000000E+00 -0.00000000000E+00 -0.11120667660E+04  0.11120667660E+04  0.00000000000E+00 0. -1.
         25    2    1    2    0    0  0.15330887765E+03  0.17361424861E+03  0.28943158494E+03  0.39120484918E+03  0.12500028949E+03 0.  0.
          2    1    1    2  501    0 -0.13609698039E+03 -0.24460861620E+03 -0.10422004573E+04  0.10791374132E+04  0.00000000000E+00 0. -1.
          1    1    1    2  502    0 -0.17211897259E+02  0.70994367587E+02  0.26092621027E+04  0.26102844999E+04  0.00000000000E+00 0. -1.
         22    1    3    3    0    0  0.11891208291E+02  0.10551800080E+03  0.12048342845E+03  0.16059796343E+03  0.00000000000E+00 0. -1.
         22    1    3    3    0    0  0.14141766936E+03  0.68096247816E+02  0.16894815649E+03  0.23060688575E+03  0.00000000000E+00 0. -1.
</event>
<event>
 7    1  0.3110367E-005  0.1155497E+03  0.7818608E-02  0.1309625E+00
          2   -1    0    0  502    0  0.00000000000E+00  0.00000000000E+00  0.10189654623E+04  0.10189654623E+04  0.00000000000E+00 0. -1.
          1   -1    0    0  501    0 -0.00000000000E+00 -0.00000000000E+00 -0.63658895593E+02  0.63658895593E+02  0.00000000000E+00 0. -1.
         25    2    1    2    0    0  0.12347681958E+03  0.47872195063E+02  0.13147802440E+03  0.22460831077E+03  0.12499660128E+03 0.  0.
          2    1    1    2  501    0 -0.67192083938E+02 -0.82142367109E+02  0.16684312795E+03  0.19773409914E+03  0.00000000000E+00 0. -1.
          1    1    1    2  502    0 -0.56284735646E+02  0.34270172045E+02  0.65698541433E+03  0.66028194796E+03  0.00000000000E+00 0. -1.
         22    1    3    3    0    0  0.65706768204E+02  0.39678078552E+02 -0.42446548868E+01  0.76874874962E+02  0.00000000000E+00 0. -1.
         22    1    3    3    0    0  0.57770051379E+02  0.81941165117E+01  0.13572267928E+03  0.14773343580E+03  0.00000000000E+00 0. -1.
</event>
<event>
 7    1  0.3110367E-005  0.4240214E+03  0.7818608E-02  0.1119550E+00
          2   -1    0    0  502    0  0.00000000000E+00  0.00000000000E+00  0.22753995354E+04  0.22753995354E+04  0.00000000000E+00 0. -1.
          1   -1    0    0  501    0 -0.00000000000E+00 -0.00000000000E+00 -0.10706040124E+04  0.10706040124E+04  0.00000000000E+00 0. -1.
         25    2    1    2    0    0  0.43770666956E+03  0.98070116685E+02  0.35288622824E+03  0.58425958722E+03  0.12500279522E+03 0.  0.
          2    1    1    2  501    0 -0.42184081886E+03  0.37259347327E+02 -0.90519855519E+03  0.99936097569E+03  0.00000000000E+00 0. -1.
          1    1    1    2  502    0 -0.15865850707E+02 -0.13532946401E+03  0.17571078499E+04  0.17623829849E+04  0.00000000000E+00 0. -1.
         22    1    3    3    0    0  0.16699266366E+03  0.70253668424E+02  0.20841286068E+03  0.27614859793E+03  0.00000000000E+00 0. -1.
         22    1    3    3    0    0  0.27071400590E+03  0.27816448261E+02  0.14447336755E+03  0.30811098929E+03  0.00000000000E+00 0. -1.
</event>
<event>
 7    1  0.3110367E-005  0.1685603E+03  0.7818608E-02  0.1324420E+00
          2   -1    0    0  502    0  0.00000000000E+00  0.00000000000E+00  0.64964771469E+03  0.64964771469E+03  0.00000000000E+00 0. -1.
          1   -1    0    0  501    0 -0.00000000000E+00 -0.00000000000E+00 -0.32644845493E+03  0.32644845493E+03  0.00000000000E+00 0. -1.
         25    2    1    2    0    0  0.98343321022E+02 -0.15804623029E+03  0.16234170465E+03  0.27682124211E+03  0.12500060525E+03 0.  0.
          2    1    1    2  501    0 -0.11408641065E+03  0.12175860633E+03 -0.24229310612E+03  0.29418840321E+03  0.00000000000E+00 0. -1.
          1    1    1    2  502    0  0.15743089624E+02  0.36287623965E+02  0.40315066123E+03  0.40508652430E+03  0.00000000000E+00 0. -1.
         22    1    3    3    0    0  0.71080426614E+02 -0.30128019396E+02  0.12974741280E+02  0.78284535585E+02  0.00000000000E+00 0.  1.
         22    1    3    3    0    0  0.27262894408E+02 -0.12791821090E+03  0.14936696337E+03  0.19853670652E+03  0.00000000000E+00 0.  1.
</event>
<event>
 7    1  0.3110367E-005  0.4621098E+03  0.7818608E-02  0.1111454E+00
          2   -1    0    0  502    0  0.00000000000E+00  0.00000000000E+00  0.74185273079E+03  0.74185273079E+03  0.00000000000E+00 0. -1.
          1   -1    0    0  501    0 -0.00000000000E+00 -0.00000000000E+00 -0.92015889766E+03  0.92015889766E+03  0.00000000000E+00 0. -1.
         25    2    1    2    0    0  0.34107261188E+03  0.28246978859E+03 -0.63308661217E+03  0.78265184457E+03  0.12500217302E+03 0.  0.
          2    1    1    2  501    0 -0.40928937214E+03 -0.40295976878E+03  0.23710671823E+03  0.62138068946E+03  0.00000000000E+00 0. -1.
          1    1    1    2  502    0  0.68216760258E+02  0.12048998019E+03  0.21767372707E+03  0.25797909443E+03  0.00000000000E+00 0. -1.
         22    1    3    3    0    0  0.33735473855E+03  0.28500849413E+03 -0.57812963663E+03  0.72751078212E+03  0.00000000000E+00 0.  1.
         22    1    3    3    0    0  0.37178733306E+01 -0.25387055383E+01 -0.54956975541E+02  0.55141062454E+02  0.00000000000E+00 0.  1.
</event>
<event>
 7    1  0.3110367E-005  0.2151138E+03  0.7818608E-02  0.1163595E+00
          2   -1    0    0  502    0  0.00000000000E+00  0.00000000000E+00  0.56523241868E+03  0.56523241868E+03  0.00000000000E+00 0. -1.
          1   -1    0    0  501    0 -0.00000000000E+00 -0.00000000000E+00 -0.73917627497E+03  0.73917627497E+03  0.00000000000E+00 0. -1.
         25    2    1    2    0    0 -0.26672741819E+03  0.21840497597E+03 -0.23645980705E+03  0.43632509858E+03  0.12498840813E+03 0.  0.
          2    1    1    2  501    0  0.15095708989E+03 -0.46989031979E+02 -0.36246038020E+03  0.39544094291E+03  0.00000000000E+00 0. -1.
          1    1    1    2  502    0  0.11577032830E+03 -0.17141594399E+03  0.42497633096E+03  0.47264265216E+03  0.00000000000E+00 0. -1.
         22    1    3    3    0    0 -0.27409734883E+02  0.84417102633E+02 -0.85564027002E+02  0.12328318417E+03  0.00000000000E+00 0.  1.
         22    1    3    3    0    0 -0.23931768330E+03  0.13398787333E+03 -0.15089578004E+03  0.31304191441E+03  0.00000000000E+00 0.  1.
</event>
<event>
 7    1  0.3110367E-005  0.4239410E+03  0.7818608E-02  0.1173208E+00
          2   -1    0    0  502    0  0.00000000000E+00  0.00000000000E+00  0.18454789472E+04  0.18454789472E+04  0.00000000000E+00 0. -1.
          1   -1    0    0  501    0 -0.00000000000E+00 -0.00000000000E+00 -0.78009748185E+03  0.78009748185E+03  0.00000000000E+00 0. -1.
         25    2    1    2    0    0 -0.47003881583E+03 -0.14024500251E+03  0.11697409970E+04  0.12745645275E+04  0.12496233696E+03 0.  0.
          2    1    1    2  501    0  0.39838150676E+03  0.13500333198E+03 -0.66441200032E+03  0.78636952556E+03  0.00000000000E+00 0. -1.
          1    1    1    2  502    0  0.71657309072E+02  0.52416705261E+01  0.56005246873E+03  0.56464237600E+03  0.00000000000E+00 0. -1.
         22    1    3    3    0    0 -0.39772437422E+03 -0.15626578172E+03  0.92650969741E+03  0.10203057835E+04  0.00000000000E+00 0. -1.
         22    1    3    3    0    0 -0.72314441606E+02  0.16020779211E+02  0.24323129954E+03  0.25425874402E+03  0.00000000000E+00 0. -1.
</event>
<event>
 7    1  0.3110367E-005  0.7086789E+03  0.7818608E-02  0.1147299E+00
          2   -1    0    0  502    0  0.00000000000E+00  0.00000000000E+00  0.75016101039E+03  0.75016101039E+03  0.00000000000E+00 0. -1.
          1   -1    0    0  501    0 -0.00000000000E+00 -0.00000000000E+00 -0.92432104341E+03  0.92432104341E+03  0.00000000000E+00 0. -1.
         25    2    1    2    0    0 -0.51131099420E+03 -0.50445179277E+03 -0.43194678763E+03  0.84741595943E+03  0.12500094768E+03 0.  0.
          2    1    1    2  501    0  0.52491305938E+03  0.44796376138E+03  0.15237059578E+03  0.70669799057E+03  0.00000000000E+00 0. -1.
          1    1    1    2  502    0 -0.13602065177E+02  0.56488031393E+02  0.10541615884E+03  0.12036810380E+03  0.00000000000E+00 0. -1.
         22    1    3    3    0    0 -0.29579436883E+03 -0.34695950340E+03 -0.21822095581E+03  0.50546571712E+03  0.00000000000E+00 0.  1.
         22    1    3    3    0    0 -0.21551662537E+03 -0.15749228938E+03 -0.21372583183E+03  0.34195024231E+03  0.00000000000E+00 0.  1.
</event>
<event>
 7    1  0.3110367E-005  0.1383675E+04  0.7818608E-02  0.1153967E+00
          2   -1    0    0  502    0  0.00000000000E+00  0.00000000000E+00  0.35575195327E+04  0.35575195327E+04  0.00000000000E+00 0. -1.
          1   -1    0    0  501    0 -0.00000000000E+00 -0.00000000000E+00 -0.11409682523E+04  0.11409682523E+04  0.00000000000E+00 0. -1.
         25    2    1    2    0    0 -0.72214830062E+03  0.11892269478E+04  0.22193339075E+03  0.14144395207E+04  0.12500330555E+03 0.  0.
          2    1    1    2  501    0  0.73313958555E+03 -0.11640180913E+04  0.32408894058E+03  0.14133171655E+04  0.00000000000E+00 0. -1.
          1    1    1    2  502    0 -0.10991284932E+02 -0.25208856453E+02  0.18705289490E+04  0.18707310988E+04  0.00000000000E+00 0. -1.
         22    1    3    3    0    0 -0.17302776779E+03  0.38910209455E+03  0.47843832863E+02  0.42851847190E+03  0.00000000000E+00 0.  1.
         22    1    3    3    0    0 -0.54912053283E+03  0.80012485321E+03  0.17408955789E+03  0.98592104880E+03  0.00000000000E+00 0.  1.
</event>
<event>
 7    1  0.3110367E-005  0.1550152E+03  0.7818608E-02  0.1277305E+00
          2   -1    0    0  502    0  0.00000000000E+00  0.00000000000E+00  0.68336617639E+03  0.68336617639E+03  0.00000000000E+00 0. -1.
          1   -1    0    0  501    0 -0.00000000000E+00 -0.00000000000E+00 -0.54517039158E+03  0.54517039158E+03  0.00000000000E+00 0. -1.
         25    2    1    2    0    0 -0.15362666953E+03 -0.13677386903E+03 -0.82953409050E+02  0.25458634689E+03  0.12499878043E+03 0.  0.
          2    1    1    2  501    0  0.90719230028E+02  0.11559907795E+03 -0.36009752248E+03  0.38892589425E+03  0.00000000000E+00 0. -1.
          1    1    1    2  502    0  0.62907439503E+02  0.21174791076E+02  0.58124671634E+03  0.58502432683E+03  0.00000000000E+00 0. -1.
         22    1    3    3    0    0 -0.15747823606E+03 -0.10595819032E+03 -0.28548070684E+02  0.19194146313E+03  0.00000000000E+00 0.  1.
         22    1    3    3    0    0  0.38515665259E+01 -0.30815678706E+02 -0.54405338366E+02  0.62644883762E+02  0.00000000000E+00 0.  1.
</event>
<event>
 7    1  0.3110367E-005  0.1291562E+03  0.7818608E-02  0.1351133E+00
          2   -1    0    0  502    0  0.00000000000E+00  0.00000000000E+00  0.96050052567E+03  0.96050052567E+03  0.00000000000E+00 0. -1.
          1   -1    0    0  501    0 -0.00000000000E+00 -0.00000000000E+00 -0.24212852296E+03  0.24212852296E+03  0.00000000000E+00 0. -1.
         25    2    1    2    0    0 -0.59115390301E+02  0.70692346361E+02  0.17591706071E+03  0.23465539031E+03  0.12499721097E+03 0.  0.
          2    1    1    2  501    0  0.88600909550E+02 -0.99074214420E+02 -0.19137542842E+03  0.23300295221E+03  0.00000000000E+00 0. -1.
          1    1    1    2  502    0 -0.29485519248E+02  0.28381868059E+02  0.73383037042E+03  0.73497070610E+03  0.00000000000E+00 0. -1.
         22    1    3    3    0    0 -0.68528447907E+02  0.30243993301E+02  0.17795391710E+03  0.19307626451E+03  0.00000000000E+00 0. -1.
         22    1    3    3    0    0  0.94130576052E+01  0.40448353060E+02 -0.20368563953E+01  0.41579125805E+02  0.00000000000E+00 0. -1.
</event>
<event>
 7    1  0.3110367E-005  0.3396968E+03  0.7818608E-02  0.1130911E+00
          2   -1    0    0  502    0  0.00000000000E+00  0.00000000000E+00  0.85077539570E+03  0.85077539570E+03  0.00000000000E+00 0. -1.
          1   -1    0    0  501    0 -0.00000000000E+00 -0.00000000000E+00 -0.57330356547E+03  0.57330356547E+03  0.00000000000E+00 0. -1.
         25    2    1    2    0    0 -0.20336253472E+03  0.37399035504E+03 -0.22420309122E+03  0.49710789078E+03  0.12499649104E+03 0.  0.
          2    1    1    2  501    0  0.14875746908E+03 -0.23669740206E+03 -0.10796282110E+03  0.29968385924E+03  0.00000000000E+00 0. -1.
          1    1    1    2  502    0  0.54605065638E+02 -0.13729295298E+03  0.60963774255E+03  0.62728721115E+03  0.00000000000E+00 0. -1.
         22    1    3    3    0    0 -0.12331379425E+02  0.11469931430E+03 -0.23815868221E+02  0.11779300148E+03  0.00000000000E+00 0.  1.
         22    1    3    3    0    0 -0.19103115530E+03  0.25929104075E+03 -0.20038722300E+03  0.37931488930E+03  0.00000000000E+00 0.  1.
</event>
<event>
 7    1  0.3110367E-005  0.9492373E+02  0.7818608E-02  0.1362892E+00
          2   -1    0    0  502    0  0.00000000000E+00  0.00000000000E+00  0.12106319022E+04  0.12106319022E+04  0.00000000000E+00 0. -1.
          1   -1    0    0  501    0 -0.00000000000E+00 -0.00000000000E+00 -0.14523420121E+04  0.14523420121E+04  0.00000000000E+00 0. -1.
         25    2    1    2    0    0 -0.37054407465E+02  0.10987485289E+03  0.41012021850E+02  0.17536347445E+03  0.12499939930E+03 0.  0.
          2    1    1    2  501    0  0.65653026623E+02 -0.68346637868E+02 -0.13829671769E+04  0.13862105883E+04  0.00000000000E+00 0. -1.
          1    1    1    2  502    0 -0.28598619158E+02 -0.41528215020E+02  0.11002450451E+04  0.11013998515E+04  0.00000000000E+00 0. -1.
         22    1    3    3    0    0  0.72248047309E+01  0.69815377152E+02 -0.35220618367E+02  0.78529463569E+02  0.00000000000E+00 0.  1.
         22    1    3    3    0    0 -0.44279212196E+02  0.40059475736E+02  0.76232640217E+02  0.96834010881E+02  0.00000000000E+00 0.  1.
</event>
<event>
 7    1  0.3110367E-005  0.1809114E+03  0.7818608E-02  0.1312722E+00
          2   -1    0    0  502    0  0.00000000000E+00  0.00000000000E+00  0.11497889599E+04  0.11497889599E+04  0.00000000000E+00 0. -1.
          1   -1    0    0  501    0 -0.00000000000E+00 -0.00000000000E+00 -0.24942675274E+04  0.24942675274E+04  0.00000000000E+00 0. -1.
         25    2    1    2    0    0 -0.13775783449E+03 -0.40763156367E+02  0.22744673312E+02  0.19178527289E+03  0.12500165940E+03 0.  0.
          2    1    1    2  501    0 -0.39949401057E+02 -0.88817222152E+01 -0.24014075596E+04  0.24017562546E+04  0.00000000000E+00 0. -1.
          1    1    1    2  502    0  0.17770723555E+03  0.49644878582E+02  0.10341843187E+04  0.10505149597E+04  0.00000000000E+00 0. -1.
         22    1    3    3    0    0 -0.14930939717E+03 -0.47302125497E+02  0.47524120861E+02  0.16367446112E+03  0.00000000000E+00 0. -1.
         22    1    3    3    0    0  0.11551562678E+02  0.65389691301E+01 -0.24779447549E+02  0.28110811771E+02  0.00000000000E+00 0. -1.
</event>
<event>
 7    1  0.3110367E-005  0.1663441E+03  0.7818608E-02  0.1336540E+00
          2   -1    0    0  502    0  0.00000000000E+00  0.00000000000E+00  0.95563769997E+03  0.95563769997E+03  0.00000000000E+00 0. -1.
          1   -1    0    0  501    0 -0.00000000000E+00 -0.00000000000E+00 -0.26873195233E+03  0.26873195233E+03  0.00000000000E+00 0. -1.
         25    2    1    2    0    0  0.80178861139E+02 -0.11238250150E+03  0.95011502212E+02  0.20907731215E+03  0.12501064149E+03 0.  0.
          2    1    1    2  501    0  0.53591575826E+01 -0.35631167436E+02 -0.20098683581E+03  0.20419110860E+03  0.00000000000E+00 0. -1.
          1    1    1    2  502    0 -0.85538018722E+02  0.14801366894E+03  0.79288108124E+03  0.81110123156E+03  0.00000000000E+00 0. -1.
         22    1    3    3    0    0  0.38789565730E+02 -0.69311985357E+02 -0.17826457194E+02  0.81403711830E+02  0.00000000000E+00 0. -1.
         22    1    3    3    0    0  0.41389295409E+02 -0.43070516143E+02  0.11283795941E+03  0.12767360032E+03  0.00000000000E+00 0. -1.
</event>
<event>
 7    1  0.3110367E-005  0.9140870E+03  0.7818608E-02  0.1144673E+00
          2   -1    0    0  502    0  0.00000000000E+00  0.00000000000E+00  0.19167288345E+04  0.19167288345E+04  0.00000000000E+00 0. -1.
          1   -1    0    0  501    0 -0.00000000000E+00 -0.00000000000E+00 -0.82093806034E+03  0.82093806034E+03  0.00000000000E+00 0. -1.
         25    2    1    2    0    0  0.33862246424E+03  0.82996334678E+03  0.40625984372E+03  0.99205711715E+03  0.12500373107E+03 0.  0.
          2    1    1    2  501    0  0.44972096645E+02  0.11742723387E+02 -0.35060349111E+03  0.35367101805E+03  0.00000000000E+00 0. -1.
          1    1    1    2  502    0 -0.38359456088E+03 -0.84170607017E+03  0.10401344215E+04  0.13919387596E+04  0.00000000000E+00 0. -1.
         22    1    3    3    0    0  0.32916141256E+03  0.75847732527E+03  0.40317132169E+03  0.91988162450E+03  0.00000000000E+00 0. -1.
         22    1    3    3    0    0  0.94610516834E+01  0.71486021514E+02  0.30885220301E+01  0.72175492649E+02  0.00000000000E+00 0. -1.
</event>
<event>
 7    1  0.3110367E-005  0.1935835E+03  0.7818608E-02  0.1270637E+00
          2   -1    0    0  502    0  0.00000000000E+00  0.00000000000E+00  0.87793182470E+03  0.87793182470E+03  0.00000000000E+00 0. -1.
          1   -1    0    0  501    0 -0.00000000000E+00 -0.00000000000E+00 -0.11811961045E+04  0.11811961045E+04  0.00000000000E+00 0. -1.
         25    2    1    2    0    0 -0.22044385799E+03 -0.14472692934E+02 -0.30601462683E+03  0.39758812108E+03  0.12500563516E+03 0.  0.
          2    1    1    2  501    0  0.30437482405E+02  0.47799721629E+02 -0.81722046444E+03  0.81918284969E+03  0.00000000000E+00 0. -1.
          1    1    1    2  502    0  0.19000637558E+03 -0.33327028695E+02  0.81997081151E+03  0.84235695838E+03  0.00000000000E+00 0. -1.
         22    1    3    3    0    0 -0.67402834894E+02 -0.19465910552E+01 -0.19982072584E+03  0.21089156893E+03  0.00000000000E+00 0. -1.
         22    1    3    3    0    0 -0.15304102309E+03 -0.12526101879E+02 -0.10619390099E+03  0.18669655215E+03  0.00000000000E+00 0. -1.
</event>
<event>
 7    1  0.3110367E-005  0.8102736E+02  0.7818608E-02  0.1346748E+00
          2   -1    0    0  502    0  0.00000000000E+00  0.00000000000E+00  0.42426179359E+02  0.42426179359E+02  0.00000000000E+00 0. -1.
          1   -1    0    0  501    0 -0.00000000000E+00 -0.00000000000E+00 -0.29261941883E+04  0.29261941883E+04  0.00000000000E+00 0. -1.
         25    2    1    2    0    0 -0.67532386561E+01 -0.70141993025E+01 -0.26662563678E+03  0.29463377778E+03  0.12500011039E+03 0.  0.
          2    1    1    2  501    0  0.56289530449E+02 -0.58283119095E+02 -0.25844917695E+04  0.25857616169E+04  0.00000000000E+00 0. -1.
          1    1    1    2  502    0 -0.49536291793E+02  0.65297318397E+02 -0.32650602711E+02  0.88224972949E+02  0.00000000000E+00 0. -1.
         22    1    3    3    0    0  0.24616120163E+02 -0.11644542095E+02 -0.11337480746E+01  0.27254983346E+02  0.00000000000E+00 0. -1.
         22    1    3    3    0    0 -0.31369358819E+02  0.46303427922E+01 -0.26549188870E+03  0.26737879444E+03  0.00000000000E+00 0. -1.
</event>
<event>
 7    1  0.3110367E-005  0.2594594E+03  0.7818608E-02  0.1317443E+00
          2   -1    0    0  502    0  0.00000000000E+00  0.00000000000E+00  0.70709089916E+03  0.70709089916E+03  0.00000000000E+00 0. -1.
          1   -1    0    0  501    0 -0.00000000000E+00 -0.00000000000E+00 -0.17349794014E+03  0.17349794014E+03  0.00000000000E+00 0. -1.
         25    2    1    2    0    0  0.16949509340E+03 -0.17406636936E+03  0.20013343274E+03  0.33868379644E+03  0.12500254174E+03 0.  0.
          2    1    1    2  501    0 -0.18960423667E+03  0.19260102973E+03  0.72917880890E+02  0.27993202849E+03  0.00000000000E+00 0. -1.
          1    1    1    2  502    0  0.20109143273E+02 -0.18534660371E+02  0.26054164539E+03  0.26197301438E+03  0.00000000000E+00 0. -1.
         22    1    3    3    0    0  0.16021843732E+03 -0.83877573755E+02  0.15077799897E+03  0.23545572834E+03  0.00000000000E+00 0.  1.
         22    1    3    3    0    0  0.92766560833E+01 -0.90188795606E+02  0.49355433770E+02  0.10322806810E+03  0.00000000000E+00 0.  1.
</event>
<event>
 7    1  0.3110367E-005  0.2597489E+03  0.7818608E-02  0.1252015E+00
          2   -1    0    0  502    0  0.00000000000E+00  0.00000000000E+00  0.12354029342E+04  0.12354029342E+04  0.00000000000E+00 0. -1.
          1   -1    0    0  501    0 -0.00000000000E+00 -0.00000000000E+00 -0.14532413745E+03  0.14532413745E+03  0.00000000000E+00 0. -1.
         25    2    1    2    0    0 -0.15621906287E+03  0.16274551017E+03  0.92537074156E+03  0.96063834165E+03  0.12499806971E+03 0.  0.
          2    1    1    2  501    0  0.20681240456E+03 -0.16595055178E+03  0.19032433222E+02  0.26584429621E+03  0.00000000000E+00 0. -1.
          1    1    1    2  502    0 -0.50593341689E+02  0.32050416131E+01  0.14567562198E+03  0.15424443379E+03  0.00000000000E+00 0. -1.
         22    1    3    3    0    0 -0.14237835219E+03  0.13392211923E+03  0.89649044415E+03  0.91755209424E+03  0.00000000000E+00 0. -1.
         22    1    3    3    0    0 -0.13840710681E+02  0.28823390943E+02  0.28880297411E+02  0.43086247413E+02  0.00000000000E+00 0. -1.
</event>
<event>
 7    1  0.3110367E-005  0.1674317E+03  0.7818608E-02  0.1267040E+00
          2   -1    0    0  502    0  0.00000000000E+00  0.00000000000E+00  0.51441726335E+03  0.51441726335E+03  0.00000000000E+00 0. -1.
          1   -1    0    0  501    0 -0.00000000000E+00 -0.00000000000E+00 -0.10364176626E+04  0.10364176626E+04  0.00000000000E+00 0. -1.
         25    2    1    2    0    0 -0.15711004050E+03 -0.10731693970E+03  0.38554840738E+03  0.44774147643E+03  0.12499745961E+03 0.  0.
          2    1    1    2  501    0  0.29871312456E+02  0.60912424184E+02 -0.95663385062E+03  0.95903646588E+03  0.00000000000E+00 0. -1.
          1    1    1    2  502    0  0.12723872804E+03  0.46404515515E+02  0.49085044038E+02  0.14405698359E+03  0.00000000000E+00 0. -1.
         22    1    3    3    0    0 -0.61327807727E+02 -0.11626563530E+03  0.22157878229E+03  0.25763531340E+03  0.00000000000E+00 0. -1.
         22    1    3    3    0    0 -0.95782232773E+02  0.89486955999E+01  0.16396962510E+03  0.19010616303E+03  0.00000000000E+00 0. -1.
</event>
<event>
 7    1  0.3110367E-005  0.1321929E+03  0.7818608E-02  0.1316368E+00
          2   -1    0    0  502    0  0.00000000000E+00  0.00000000000E+00  0.63926473473E+03  0.63926473473E+03  0.00000000000E+00 0. -1.
          1   -1    0    0  501    0 -0.00000000000E+00 -0.00000000000E+00 -0.78058369449E+02  0.78058369449E+02  0.00000000000E+00 0. -1.
         25    2    1    2    0    0  0.15753514270E+03 -0.63331515784E+02  0.12834747209E+03  0.24683232761E+03  0.12499968915E+03 0.  0.
          2    1    1    2  501    0 -0.33502026336E+02  0.42602242463E+02  0.87230612491E+02  0.10269623453E+03  0.00000000000E+00 0. -1.
          1    1    1    2  502    0 -0.12403311636E+03  0.20729273321E+02  0.34562828070E+03  0.36779454203E+03  0.00000000000E+00 0. -1.
         22    1    3    3    0    0  0.10767959868E+03 -0.72492118475E+02  0.14391265507E+03  0.19380623185E+03  0.00000000000E+00 0. -1.
         22    1    3    3    0    0  0.49855544021E+02  0.91606026904E+01 -0.15565182983E+02  0.53026095769E+02  0.00000000000E+00 0. -1.
</event>
<event>
 7    1  0.3110367E-005  0.1433566E+03  0.7818608E-02  0.1267749E+00
          2   -1    0    0  502    0  0.00000000000E+00  0.00000000000E+00  0.97024412962E+03  0.97024412962E+03  0.00000000000E+00 0. -1.
          1   -1    0    0  501    0 -0.00000000000E+00 -0.00000000000E+00 -0.93313861874E+02  0.93313861874E+02  0.00000000000E+00 0. -1.
         25    2    1    2    0    0 -0.60281831802E+02 -0.13720001460E+03  0.68740260082E+03  0.71456715815E+03  0.12500457849E+03 0.  0.
          2    1    1    2  501    0 -0.18153746758E+02  0.14354919049E+03  0.99665698826E+00  0.14469596379E+03  0.00000000000E+00 0. -1.
          1    1    1    2  502    0  0.78435578561E+02 -0.63491758883E+01  0.18853100994E+03  0.20429486955E+03  0.00000000000E+00 0. -1.
         22    1    3    3    0    0 -0.84296017921E+02 -0.50677603448E+02  0.45299191058E+03  0.46354687916E+03  0.00000000000E+00 0.  1.
         22    1    3    3    0    0  0.24014186119E+02 -0.86522411151E+02  0.23441069024E+03  0.25102027900E+03  0.00000000000E+00 0.  1.
</event>
<event>
 7    1  0.3110367E-005  0.1719262E+03  0.7818608E-02  0.1339964E+00
          2   -1    0    0  502    0  0.00000000000E+00  0.00000000000E+00  0.32332423374E+03  0.32332423374E+03  0.00000000000E+00 0. -1.
          1   -1    0    0  501    0 -0.00000000000E+00 -0.00000000000E+00 -0.95506328119E+03  0.95506328119E+03  0.00000000000E+00 0. -1.
         25    2    1    2    0    0  0.86853880543E+02  0.18377534016E+03 -0.51086607301E+03  0.56384906546E+03  0.12499860740E+03 0.  0.
          2    1    1    2  501    0 -0.70581917870E+01 -0.33096233651E+02 -0.39243252423E+03  0.39388889909E+03  0.00000000000E+00 0. -1.
          1    1    1    2  502    0 -0.79795688756E+02 -0.15067910651E+03  0.27155954978E+03  0.32064955038E+03  0.00000000000E+00 0. -1.
         22    1    3    3    0    0 -0.27985795015E+02  0.13068161089E+02 -0.94600513037E+02  0.99515017077E+02  0.00000000000E+00 0.  1.
         22    1    3    3    0    0  0.11483967556E+03  0.17070717908E+03 -0.41626555997E+03  0.46433404839E+03  0.00000000000E+00 0.  1.
</event>
<event>
 7    1  0.3110367E-005  0.1445155E+03  0.7818608E-02  0.1366741E+00
          2   -1    0    0  502    0  0.00000000000E+00  0.00000000000E+00  0.20261390426E+04  0.20261390426E+04  0.00000000000E+00 0. -1.
          1   -1    0    0  501    0 -0.00000000000E+00 -0.00000000000E+00 -0.16116907921E+03  0.16116907921E+03  0.00000000000E+00 0. -1.
         25    2    1    2    0    0 -0.88735143308E+02 -0.76320018459E+02  0.24364466316E+03  0.29780179539E+03  0.12499806629E+03 0.  0.
          2    1    1    2  501    0  0.11637062956E+03  0.92598437387E+02 -0.92659841901E+02  0.17522111840E+03  0.00000000000E+00 0. -1.
          1    1    1    2  502    0 -0.27635486255E+02 -0.16278418928E+02  0.17139851422E+04  0.17142852081E+04  0.00000000000E+00 0. -1.
         22    1    3    3    0    0 -0.20003689777E+02 -0.89822926239E+02  0.88941344136E+02  0.12797995304E+03  0.00000000000E+00 0.  1.
         22    1    3    3    0    0 -0.68731453531E+02  0.13502907780E+02  0.15470331902E+03  0.16982184235E+03  0.00000000000E+00 0.  1.
</event>
<event>
 7    1  0.3110367E-005  0.1659125E+04  0.7818608E-02  0.9872447E-01
          2   -1    0    0  502    0  0.00000000000E+00  0.00000000000E+00  0.46777789561E+04  0.46777789561E+04  0.00000000000E+00 0. -1.
          1   -1    0    0  501    0 -0.00000000000E+00 -0.00000000000E+00 -0.13168879817E+04  0.13168879817E+04  0.00000000000E+00 0. -1.
         25    2    1    2    0    0  0.53679589292E+03 -0.17002394260E+04  0.73150489392E+03  0.19312400566E+04  0.12499924008E+03 0.  0.
          2    1    1    2  501    0 -0.19726917506E+03  0.11595155303E+03 -0.49420616815E+03  0.54460960946E+03  0.00000000000E+00 0. -1.
          1    1    1    2  502    0 -0.33952671786E+03  0.15842878730E+04  0.31235922486E+04  0.35188172718E+04  0.00000000000E+00 0. -1.
         22    1    3    3    0    0  0.15154969984E+03 -0.33158241342E+03  0.17454901514E+03  0.40420485783E+03  0.00000000000E+00 0.  1.
         22    1    3    3    0    0  0.38524619307E+03 -0.13686570126E+04  0.55695587878E+03  0.15270351988E+04  0.00000000000E+00 0.  1.
</event>
<event>
 7    1  0.3110367E-005  0.1640961E+03  0.7818608E-02  0.1220501E+00
          2   -1    0    0  502    0  0.00000000000E+00  0.00000000000E+00  0.41900449506E+03  0.41900449506E+03  0.00000000000E+00 0. -1.
          1   -1    0    0  501    0 -0.00000000000E+00 -0.00000000000E+00 -0.17954973388E+03  0.17954973388E+03  0.00000000000E+00 0. -1.
         25    2    1    2    0    0 -0.15391610233E+02 -0.24093266844E+03  0.38401962425E+02  0.27456411650E+03  0.12500116385E+03 0.  0.
          2    1    1    2  501    0 -0.26610793214E+02  0.10749118252E+03  0.11549751263E+03  0.16000676254E+03  0.00000000000E+00 0. -1.
          1    1    1    2  502    0  0.42002403447E+02  0.13344148592E+03  0.85555286130E+02  0.16398334990E+03  0.00000000000E+00 0. -1.
         22    1    3    3    0    0  0.21999412275E+02 -0.18385903264E+03 -0.17994312499E+02  0.18604277279E+03  0.00000000000E+00 0.  1.
         22    1    3    3    0    0 -0.37391022508E+02 -0.57073635795E+02  0.56396274924E+02  0.88521343710E+02  0.00000000000E+00 0.  1.
</event>
<event>
 7    1  0.3110367E-005  0.4493012E+03  0.7818608E-02  0.1112182E+00
          2   -1    0    0  502    0  0.00000000000E+00  0.00000000000E+00  0.37203312931E+04  0.37203312931E+04  0.00000000000E+00 0. -1.
          1   -1    0    0  501    0 -0.00000000000E+00 -0.00000000000E+00 -0.84077170453E+02  0.84077170453E+02  0.00000000000E+00 0. -1.
         25    2    1    2    0    0 -0.34346167712E+03  0.34801795630E+03  0.12133200769E+04  0.13140978441E+04  0.12500045328E+03 0.  0.
          2    1    1    2  501    0  0.35506666799E+03 -0.20739862486E+03  0.14492638915E+04  0.15064701642E+04  0.00000000000E+00 0. -1.
          1    1    1    2  502    0 -0.11604990867E+02 -0.14061933144E+03  0.97367015420E+03  0.98384045524E+03  0.00000000000E+00 0. -1.
         22    1    3    3    0    0 -0.34248599373E+02  0.10765200013E+03  0.28073862787E+03  0.30261542735E+03  0.00000000000E+00 0.  1.
         22    1    3    3    0    0 -0.30921307775E+03  0.24036595617E+03  0.93258144907E+03  0.10114824168E+04  0.00000000000E+00 0.  1.
</event>
<event>
 7    1  0.3110367E-005  0.7078968E+02  0.7818608E-02  0.1439761E+00
          2   -1    0    0  502    0  0.00000000000E+00  0.00000000000E+00  0.21749459718E+04  0.21749459718E+04  0.00000000000E+00 0. -1.
          1   -1    0    0  501    0 -0.00000000000E+00 -0.00000000000E+00 -0.22670314225E+03  0.22670314225E+03  0.00000000000E+00 0. -1.
         25    2    1    2    0    0  0.12440018187E+02 -0.41106295086E+02 -0.62299058976E+02  0.14611836420E+03  0.12499968824E+03 0.  0.
          2    1    1    2  501    0 -0.29670850256E+02  0.73639045171E+02 -0.10945382727E+03  0.13521541566E+03  0.00000000000E+00 0. -1.
          1    1    1    2  502    0  0.17230832068E+02 -0.32532750085E+02  0.21199957158E+04  0.21203153342E+04  0.00000000000E+00 0. -1.
         22    1    3    3    0    0  0.20356046851E+02 -0.13074039710E+02  0.36123174684E+02  0.43476233818E+02  0.00000000000E+00 0.  1.
         22    1    3    3    0    0 -0.79160286632E+01 -0.28032255375E+02 -0.98422233660E+02  0.10264213038E+03  0.00000000000E+00 0.  1.
</event>
<event>
 7    1  0.3110367E-005  0.1567349E+03  0.7818608E-02  0.1390773E+00
          2   -1    0    0  502    0  0.00000000000E+00  0.00000000000E+00  0.16056669352E+04  0.16056669352E+04  0.00000000000E+00 0. -1.
          1   -1    0    0  501    0 -0.00000000000E+00 -0.00000000000E+00 -0.70373524206E+03  0.70373524206E+03  0.00000000000E+00 0. -1.
         25    2    1    2    0    0  0.52021969782E+02 -0.15805905566E+03  0.45995641296E+03  0.50485053797E+03  0.12500085379E+03 0.  0.
          2    1    1    2  501    0 -0.68923094692E+02  0.14059865986E+03 -0.67215687507E+03  0.69015450505E+03  0.00000000000E+00 0. -1.
          1    1    1    2  502    0  0.16901124911E+02  0.17460395797E+02  0.11141321553E+04  0.11143971343E+04  0.00000000000E+00 0. -1.
         22    1    3    3    0    0 -0.10467237002E+01 -0.95216378690E+02  0.37379000621E+03  0.38572817261E+03  0.00000000000E+00 0.  1.
         22    1    3    3    0    0  0.53068693482E+02 -0.62842676972E+02  0.86166406748E+02  0.11912236536E+03  0.00000000000E+00 0.  1.
</event>
<event>
 7    1  0.3110367E-005  0.9419956E+02  0.7818608E-02  0.1317520E+00
          2   -1    0    0  502    0  0.00000000000E+00  0.00000000000E+00  0.13820891928E+04  0.13820891928E+04  0.00000000000E+00 0. -1.
          1   -1    0    0  501    0 -0.00000000000E+00 -0.00000000000E+00 -0.50395704356E+02  0.50395704356E+02  0.00000000000E+00 0. -1.
         25    2    1    2    0    0  0.24369053714E+02 -0.13491902451E+03  0.77117770397E+03  0.79318175999E+03  0.12500103731E+03 0.  0.
          2    1    1    2  501    0 -0.52015348341E+02  0.54410965260E+02  0.30075357986E+01  0.75333889287E+02  0.00000000000E+00 0. -1.
          1    1    1    2  502    0  0.27646294627E+02  0.80508059249E+02  0.55750824868E+03  0.56396924788E+03  0.00000000000E+00 0. -1.
         22    1    3    3    0    0 -0.33752674194E+02 -0.86562473387E+02  0.25306612882E+03  0.26958258543E+03  0.00000000000E+00 0.  1.
         22    1    3    3    0    0  0.58121727907E+02 -0.48356551122E+02  0.51811157515E+03  0.52359917456E+03  0.00000000000E+00 0.  1.
</event>
<event>
 7    1  0.3110367E-005  0.9039744E+02  0.7818608E-02  0.1390172E+00
          2   -1    0    0  502    0  0.00000000000E+00  0.00000000000E+00  0.37176702639E+03  0.37176702639E+03  0.00000000000E+00 0. -1.
          1   -1    0    0  501    0 -0.00000000000E+00 -0.00000000000E+00 -0.26669058132E+04  0.26669058132E+04  0.00000000000E+00 0. -1.
         25    2    1    2    0    0  0.73197757161E+02  0.46075921292E+02 -0.86393913946E+02  0.17483981142E+03  0.12499659641E+03 0.  0.
          2    1    1    2  501    0  0.17528143296E+02 -0.38537898946E+02 -0.25297825356E+04  0.25301367715E+04  0.00000000000E+00 0. -1.
          1    1    1    2  502    0 -0.90725900457E+02 -0.75380223457E+01  0.32103766272E+03  0.33369625661E+03  0.00000000000E+00 0. -1.
         22    1    3    3    0    0  0.59385584388E+02  0.15747220876E+02 -0.11535014789E+03  0.13069154226E+03  0.00000000000E+00 0.  1.
         22    1    3    3    0    0  0.13812172773E+02  0.30328700416E+02  0.28956233945E+02  0.44148269161E+02  0.00000000000E+00 0.  1.
</event>
<event>
 7    1  0.3110367E-005  0.3289085E+03  0.7818608E-02  0.1242903E+00
          2   -1    0    0  502    0  0.00000000000E+00  0.00000000000E+00  0.18578775576E+04  0.18578775576E+04  0.00000000000E+00 0. -1.
          1   -1    0    0  501    0 -0.00000000000E+00 -0.00000000000E+00 -0.67908121752E+03  0.67908121752E+03  0.00000000000E+00 0. -1.
         25    2    1    2    0    0  0.29556677064E+03  0.18689581822E+03  0.82157047220E+02  0.38034825127E+03  0.12500099624E+03 0.  0.
          2    1    1    2  501    0 -0.17120173350E+01 -0.43833875724E+02 -0.51262236908E+03  0.51449590178E+03  0.00000000000E+00 0. -1.
          1    1    1    2  502    0 -0.29385475331E+03 -0.14306194249E+03  0.16092616619E+04  0.16421146220E+04  0.00000000000E+00 0. -1.
         22    1    3    3    0    0  0.25844529164E+03  0.18956571639E+03  0.10428119930E+03  0.33705147697E+03  0.00000000000E+00 0. -1.
         22    1    3    3    0    0  0.37121479005E+02 -0.26698981666E+01 -0.22124152080E+02  0.43296774302E+02  0.00000000000E+00 0. -1.
</event>
<event>
 7    1  0.3110367E-005  0.3574115E+03  0.7818608E-02  0.1170392E+00
          2   -1    0    0  502    0  0.00000000000E+00  0.00000000000E+00  0.32686762160E+04  0.32686762160E+04  0.00000000000E+00 0. -1.
          1   -1    0    0  501    0 -0.00000000000E+00 -0.00000000000E+00 -0.30538872597E+03  0.30538872597E+03  0.00000000000E+00 0. -1.
         25    2    1    2    0    0 -0.70074288438E+02  0.25792377117E+02 -0.16937707859E+03  0.22335790988E+03  0.12499803413E+03 0.  0.
          2    1    1    2  501    0  0.34775809192E+03  0.19922911569E+03  0.31311606117E+03  0.50859571252E+03  0.00000000000E+00 0. -1.
          1    1    1    2  502    0 -0.27768380348E+03 -0.22502149281E+03  0.28195485075E+04  0.28421113196E+04  0.00000000000E+00 0. -1.
         22    1    3    3    0    0 -0.70578404049E+02  0.69713126915E+01 -0.21247030142E+02  0.74036116920E+02  0.00000000000E+00 0.  1.
         22    1    3    3    0    0  0.50411561160E+00  0.18821064426E+02 -0.14813004845E+03  0.14932179296E+03  0.00000000000E+00 0.  1.
</event>
<event>
 7    1  0.3110367E-005  0.1396323E+03  0.7818608E-02  0.1353596E+00
          2   -1    0    0  502    0  0.00000000000E+00  0.00000000000E+00  0.54332773436E+03  0.54332773436E+03  0.00000000000E+00 0. -1.
          1   -1    0    0  501    0 -0.00000000000E+00 -0.00000000000E+00 -0.15899051348E+04  0.15899051348E+04  0.00000000000E+00 0. -1.
         25    2    1    2    0    0 -0.92582938122E+02  0.14359363341E+03  0.10842735440E+03  0.23784781163E+03  0.12499743328E+03 0.  0.
          2    1    1    2  501    0  0.20856041759E+02 -0.30647770667E+02 -0.15128710201E+04  0.15133251415E+04  0.00000000000E+00 0. -1.
          1    1    1    2  502    0  0.71726896363E+02 -0.11294586274E+03  0.35786626532E+03  0.38205991602E+03  0.00000000000E+00 0. -1.
         22    1    3    3    0    0 -0.10082254000E+02  0.11712391765E+03  0.92879681686E+02  0.14982089040E+03  0.00000000000E+00 0.  1.
         22    1    3    3    0    0 -0.82500684122E+02  0.26469715759E+02  0.15547672709E+02  0.88026921221E+02  0.00000000000E+00 0.  1.
</event>
<event>
 7    1  0.3110367E-005  0.1519450E+03  0.7818608E-02  0.1274184E+00
          2   -1    0    0  502    0  0.00000000000E+00  0.00000000000E+00  0.46375833116E+03  0.46375833116E+03  0.00000000000E+00 0. -1.
          1   -1    0    0  501    0 -0.00000000000E+00 -0.00000000000E+00 -0.19794046728E+03  0.19794046728E+03  0.00000000000E+00 0. -1.
         25    2    1    2    0    0  0.11140947076E+03  0.40608178237E+02  0.14519760625E+03  0.22531629267E+03  0.12499597021E+03 0.  0.
          2    1    1    2  501    0 -0.11818585052E+03 -0.11005047348E+03 -0.11002917567E+03  0.19541090418E+03  0.00000000000E+00 0. -1.
          1    1    1    2  502    0  0.67763797609E+01  0.69442295242E+02  0.23064943329E+03  0.24097160158E+03  0.00000000000E+00 0. -1.
         22    1    3    3    0    0  0.86770832557E+02  0.79360827259E+02  0.13354879286E+03  0.17793987288E+03  0.00000000000E+00 0. -1.
         22    1    3    3    0    0  0.24638638205E+02 -0.38752649022E+02  0.11648813385E+02  0.47376419790E+02  0.00000000000E+00 0. -1.
</event>
<event>
 7    1  0.3110367E-005  0.1050278E+03  0.7818608E-02  0.1273545E+00
          2   -1    0    0  502    0  0.00000000000E+00  0.00000000000E+00  0.62744339879E+03  0.62744339879E+03  0.00000000000E+00 0. -1.
          1   -1    0    0  501    0 -0.00000000000E+00 -0.00000000000E+00 -0.31049838840E+03  0.31049838840E+03  0.00000000000E+00 0. -1.
         25    2    1    2    0    0  0.17387270485E+02 -0.26463895524E+02  0.11416618592E+03  0.17223829475E+03  0.12501782765E+03 0.  0.
          2    1    1    2  501    0 -0.48128667191E+02 -0.93351275377E+02 -0.26330806680E+03  0.28348186408E+03  0.00000000000E+00 0. -1.
          1    1    1    2  502    0  0.30741396706E+02  0.11981517090E+03  0.46608689127E+03  0.48222162836E+03  0.00000000000E+00 0. -1.
         22    1    3    3    0    0  0.38527737258E+02  0.23559999361E+02 -0.71654494105E+00  0.45166066297E+02  0.00000000000E+00 0.  1.
         22    1    3    3    0    0 -0.21140466773E+02 -0.50023894885E+02  0.11488273086E+03  0.12707222846E+03  0.00000000000E+00 0.  1.
</event>
<event>
 7    1  0.3110367E-005  0.3815910E+03  0.7818608E-02  0.1160073E+00
          2   -1    0    0  502    0  0.00000000000E+00  0.00000000000E+00  0.99647125289E+03  0.99647125289E+03  0.00000000000E+00 0. -1.
          1   -1    0    0  501    0 -0.00000000000E+00 -0.00000000000E+00 -0.10425325383E+04  0.10425325383E+04  0.00000000000E+00 0. -1.
         25    2    1    2    0    0  0.33550741990E+03  0.28616282399E+03  0.38270838938E+03  0.59711401242E+03  0.12500016753E+03 0.  0.
          2    1    1    2  501    0 -0.73667665912E+02 -0.56507522833E+02 -0.87270955298E+03  0.87763431394E+03  0.00000000000E+00 0. -1.
          1    1    1    2  502    0 -0.26183975398E+03 -0.22965530116E+03  0.44393987821E+03  0.56425546482E+03  0.00000000000E+00 0. -1.
         22    1    3    3    0    0  0.10376022449E+03  0.79097259510E+02  0.44618644485E+02  0.13788902815E+03  0.00000000000E+00 0.  1.
         22    1    3    3    0    0  0.23174719540E+03  0.20706556448E+03  0.33808974490E+03  0.45922498427E+03  0.00000000000E+00 0.  1.
</event>
<event>
 7    1  0.5223772E-005  0.5957972E+02  0.7818608E-02  0.1452613E+00
          2   -1    0    0  502    0  0.00000000000E+00  0.00000000000E+00  0.94351043020E+03  0.94351043020E+03  0.00000000000E+00 0. -1.
          1   -1    0    0  501    0 -0.00000000000E+00 -0.00000000000E+00 -0.12592496412E+04  0.12592496412E+04  0.00000000000E+00 0. -1.
         25    2    1    2    0    0 -0.51082491193E+02 -0.81125354180E+02 -0.46189766039E+03  0.48802188283E+03  0.12500066179E+03 0.  0.
          2    1    1    2  501    0  0.94108711809E+01  0.38639174914E+02 -0.78283302174E+03  0.78384251624E+03  0.00000000000E+00 0. -1.
          1    1    1    2  502    0  0.41671620012E+02  0.42486179266E+02  0.92899147113E+03  0.93089567234E+03  0.00000000000E+00 0. -1.
         22    1    3    3    0    0  0.27915302569E+02 -0.45419104447E+02 -0.78140045662E+02  0.94594005637E+02  0.00000000000E+00 0. -1.
         22    1    3    3    0    0 -0.78997793762E+02 -0.35706249733E+02 -0.38375761473E+03  0.39342787719E+03  0.00000000000E+00 0. -1.
</event>
<event>
 7    1  0.3110367E-005  0.7478163E+03  0.7818608E-02  0.1014692E+00
          2   -1    0    0  502    0  0.00000000000E+00  0.00000000000E+00  0.27390138003E+04  0.27390138003E+04  0.00000000000E+00 0. -1.
          1   -1    0    0  501    0 -0.00000000000E+00 -0.00000000000E+00 -0.40526038713E+03  0.40526038713E+03  0.00000000000E+00 0. -1.
         25    2    1    2    0    0 -0.85326344931E+03 -0.20978476438E+03  0.15676854207E+04  0.18014801089E+04  0.12499937323E+03 0.  0.
          2    1    1    2  501    0  0.30716279941E+03 -0.11971343304E+03 -0.20295378700E+02  0.33029107434E+03  0.00000000000E+00 0. -1.
          1    1    1    2  502    0  0.54610064991E+03  0.32949819742E+03  0.78636337119E+03  0.10125030042E+04  0.00000000000E+00 0. -1.
         22    1    3    3    0    0 -0.46882707145E+03 -0.17838373639E+03  0.86784791819E+03  0.10023869460E+04  0.00000000000E+00 0. -1.
         22    1    3    3    0    0 -0.38443637786E+03 -0.31401027985E+02  0.69983750252E+03  0.79909316297E+03  0.00000000000E+00 0. -1.
</event>
<event>
 7    1  0.3110367E-005  0.1597004E+03  0.7818608E-02  0.1318027E+00
          2   -1    0    0  502    0  0.00000000000E+00  0.00000000000E+00  0.18809776688E+04  0.18809776688E+04  0.00000000000E+00 0. -1.
          1   -1    0    0  501    0 -0.00000000000E+00 -0.00000000000E+00 -0.16298905282E+03  0.16298905282E+03  0.00000000000E+00 0. -1.
         25    2    1    2    0    0 -0.17726670307E+03  0.39941383163E+02  0.10564812129E+02  0.22080235359E+03  0.12499306376E+03 0.  0.
          2    1    1    2  501    0  0.14285757660E+03 -0.12200070740E+02  0.31677483764E+02  0.14683525427E+03  0.00000000000E+00 0. -1.
          1    1    1    2  502    0  0.34409126475E+02 -0.27741312423E+02  0.16757463201E+04  0.16763291138E+04  0.00000000000E+00 0. -1.
         22    1    3    3    0    0 -0.18998813895E+03  0.57623283645E+02  0.64813166068E+01  0.19864023566E+03  0.00000000000E+00 0.  1.
         22    1    3    3    0    0  0.12721435875E+02 -0.17681900482E+02  0.40834955225E+01  0.22162117928E+02  0.00000000000E+00 0.  1.
</event>
<event>
 7    1  0.3110367E-005  0.4822810E+02  0.7818608E-02  0.1463048E+00
          2   -1    0    0  502    0  0.00000000000E+00  0.00000000000E+00  0.46648009751E+02  0.46648009751E+02  0.00000000000E+00 0. -1.
          1   -1    0    0  501    0 -0.00000000000E+00 -0.00000000000E+00 -0.30813362937E+03  0.30813362937E+03  0.00000000000E+00 0. -1.
         25    2    1    2    0    0  0.42614756253E+02  0.22066896445E+01 -0.13867827711E+03  0.19151794959E+03  0.12500629402E+03 0.  0.
          2    1    1    2  501    0 -0.22072361070E+02 -0.45841078903E+02 -0.94542557924E+02  0.10736334988E+03  0.00000000000E+00 0. -1.
          1    1    1    2  502    0 -0.20542395183E+02  0.43634389258E+02 -0.28264784592E+02  0.55900339657E+02  0.00000000000E+00 0. -1.
         22    1    3    3    0    0  0.92339014973E+01  0.62430013465E+02 -0.62184812854E+02  0.88598659515E+02  0.00000000000E+00 0.  1.
         22    1    3    3    0    0  0.33380854755E+02 -0.60223323820E+02 -0.76493464252E+02  0.10291929007E+03  0.00000000000E+00 0.  1.
</event>
<event>
 7    1  0.3110367E-005  0.9483316E+02  0.7818608E-02  0.1431879E+00
          2   -1    0    0  502    0  0.00000000000E+00  0.00000000000E+00  0.24638615304E+03  0.24638615304E+03  0.00000000000E+00 0. -1.
          1   -1    0    0  501    0 -0.00000000000E+00 -0.00000000000E+00 -0.24812766676E+04  0.24812766676E+04  0.00000000000E+00 0. -1.
         25    2    1    2    0    0 -0.11404364929E+03 -0.40359817416E+02 -0.30387359910E+03  0.35014259651E+03  0.12500321938E+03 0.  0.
          2    1    1    2  501    0  0.84893889314E+02  0.39669143474E+02 -0.21522927231E+04  0.21543315852E+04  0.00000000000E+00 0. -1.
          1    1    1    2  502    0  0.29149759980E+02  0.69067394243E+00  0.22127580756E+03  0.22318863893E+03  0.00000000000E+00 0. -1.
         22    1    3    3    0    0  0.20855078344E+02  0.13011970780E+02 -0.77205894052E+02  0.81024661386E+02  0.00000000000E+00 0.  1.
         22    1    3    3    0    0 -0.13489872764E+03 -0.53371788196E+02 -0.22666770505E+03  0.26911793512E+03  0.00000000000E+00 0.  1.
</event>
<event>
 7    1  0.3110367E-005  0.9615933E+02  0.7818608E-02  0.1296986E+00
          2   -1    0    0  502    0  0.00000000000E+00  0.00000000000E+00  0.60386669253E+03  0.60386669253E+03  0.00000000000E+00 0. -1.
          1   -1    0    0  501    0 -0.00000000000E+00 -0.00000000000E+00 -0.54019038209E+02  0.54019038209E+02  0.00000000000E+00 0. -1.
         25    2    1    2    0    0  0.37769614201E+02  0.99874531619E+02  0.22573543618E+03  0.27925448600E+03  0.12500045990E+03 0.  0.
          2    1    1    2  501    0  0.50757032818E+02 -0.91561963143E+02  0.14720218216E+03  0.18063319714E+03  0.00000000000E+00 0. -1.
          1    1    1    2  502    0 -0.88526647018E+02 -0.83125684761E+01  0.17691003597E+03  0.19799804761E+03  0.00000000000E+00 0. -1.
         22    1    3    3    0    0  0.83152614325E+02  0.50302693301E+02  0.13235700103E+03  0.16420442729E+03  0.00000000000E+00 0.  1.
         22    1    3    3    0    0 -0.45383000124E+02  0.49571838318E+02  0.93378435159E+02  0.11505005870E+03  0.00000000000E+00 0.  1.
</event>
<event>
 7    1  0.3110367E-005  0.2346975E+03  0.7818608E-02  0.1171963E+00
          2   -1    0    0  502    0  0.00000000000E+00  0.00000000000E+00  0.27585042431E+03  0.27585042431E+03  0.00000000000E+00 0. -1.
          1   -1    0    0  501    0 -0.00000000000E+00 -0.00000000000E+00 -0.19741249186E+04  0.19741249186E+04  0.00000000000E+00 0. -1.
         25    2    1    2    0    0 -0.34227524533E+02 -0.23782451744E+03 -0.78411881916E+02  0.28196547818E+03  0.12499633245E+03 0.  0.
          2    1    1    2  501    0 -0.12162315389E+03  0.50353112267E+02 -0.17047774557E+04  0.17098519822E+04  0.00000000000E+00 0. -1.
          1    1    1    2  502    0  0.15585067842E+03  0.18747140517E+03  0.84914843308E+02  0.25815788258E+03  0.00000000000E+00 0. -1.
         22    1    3    3    0    0 -0.66095178666E+02 -0.22806963924E+03 -0.70733751627E+02  0.24776520459E+03  0.00000000000E+00 0. -1.
         22    1    3    3    0    0  0.31867654132E+02 -0.97548781998E+01 -0.76781302890E+01  0.34200273586E+02  0.00000000000E+00 0. -1.
</event>
<event>
 7    1  0.3110367E-005  0.3692047E+03  0.7818608E-02  0.1124349E+00
          2   -1    0    0  502    0  0.00000000000E+00  0.00000000000E+00  0.84522317102E+03  0.84522317102E+03  0.00000000000E+00 0. -1.
          1   -1    0    0  501    0 -0.00000000000E+00 -0.00000000000E+00 -0.79078921617E+03  0.79078921617E+03  0.00000000000E+00 0. -1.
         25    2    1    2    0    0 -0.34936092029E+03  0.20688810587E+03  0.27453841145E+02  0.42571645067E+03  0.12500016801E+03 0.  0.
          2    1    1    2  501    0  0.36040138007E+03 -0.59898724052E+02 -0.52464308185E+03  0.63931789842E+03  0.00000000000E+00 0. -1.
          1    1    1    2  502    0 -0.11040459784E+02 -0.14698938181E+03  0.55162319556E+03  0.57097803810E+03  0.00000000000E+00 0. -1.
         22    1    3    3    0    0 -0.17084777826E+03  0.90985452760E+02 -0.48814813633E+02  0.19962515367E+03  0.00000000000E+00 0.  1.
         22    1    3    3    0    0 -0.17851314203E+03  0.11590265311E+03  0.76268654778E+02  0.22609129700E+03  0.00000000000E+00 0.  1.
</event>
<event>
 7    1  0.3110367E-005  0.1233502E+03  0.7818608E-02  0.1377722E+00
          2   -1    0    0  502    0  0.00000000000E+00  0.00000000000E+00  0.50712705067E+03  0.50712705067E+03  0.00000000000E+00 0. -1.
          1   -1    0    0  501    0 -0.00000000000E+00 -0.00000000000E+00 -0.10698610393E+03  0.10698610393E+03  0.00000000000E+00 0. -1.
         25    2    1    2    0    0  0.10634166755E+03  0.13483834909E+02  0.40369977206E+03  0.43599257614E+03  0.12500262567E+03 0.  0.
          2    1    1    2  501    0 -0.11669443899E+03 -0.46207199476E+02 -0.36333974369E+02  0.13066313584E+03  0.00000000000E+00 0. -1.
          1    1    1    2  502    0  0.10352771441E+02  0.32723364567E+02  0.32775149047E+02  0.47457442621E+02  0.00000000000E+00 0. -1.
         22    1    3    3    0    0  0.29064918136E+02 -0.69545305883E+01  0.61823487485E+01  0.30518132282E+02  0.00000000000E+00 0. -1.
         22    1    3    3    0    0  0.77276749416E+02  0.20438365498E+02  0.39751742331E+03  0.40547444385E+03  0.00000000000E+00 0. -1.
</event>
<event>
 7    1  0.3110367E-005  0.1397756E+03  0.7818608E-02  0.1227513E+00
          2   -1    0    0  502    0  0.00000000000E+00  0.00000000000E+00  0.27111923520E+04  0.27111923520E+04  0.00000000000E+00 0. -1.
          1   -1    0    0  501    0 -0.00000000000E+00 -0.00000000000E+00 -0.18503129057E+03  0.18503129057E+03  0.00000000000E+00 0. -1.
         25    2    1    2    0    0 -0.21467826538E+03 -0.10377173651E+03  0.96690300484E+03  0.10036844112E+04  0.12500258262E+03 0.  0.
          2    1    1    2  501    0  0.88645521303E+02  0.82117897000E+02 -0.14201534814E+03  0.18646644889E+03  0.00000000000E+00 0. -1.
          1    1    1    2  502    0  0.12603274408E+03  0.21653839508E+02  0.17012734047E+04  0.17060727824E+04  0.00000000000E+00 0. -1.
         22    1    3    3    0    0 -0.12068615233E+03 -0.11129812250E+03  0.46828817379E+03  0.49623203559E+03  0.00000000000E+00 0. -1.
         22    1    3    3    0    0 -0.93992113060E+02  0.75263859924E+01  0.49861483105E+03  0.50745237565E+03  0.00000000000E+00 0. -1.
</event>
<event>
 7    1  0.3110367E-005  0.1362603E+03  0.7818608E-02  0.1329639E+00
          2   -1    0    0  502    0  0.00000000000E+00  0.00000000000E+00  0.56553884759E+03  0.56553884759E+03  0.00000000000E+00 0. -1.
          1   -1    0    0  501    0 -0.00000000000E+00 -0.00000000000E+00 -0.19814555363E+03  0.19814555363E+03  0.00000000000E+00 0. -1.
         25    2    1    2    0    0 -0.12525754652E+03  0.86398527341E+02  0.30781405628E+03  0.36541629982E+03  0.12500168176E+03 0.  0.
          2    1    1    2  501    0  0.44690464002E+02  0.13643391025E+02 -0.14742293521E+03  0.15465090209E+03  0.00000000000E+00 0. -1.
          1    1    1    2  502    0  0.80567082520E+02 -0.10004191837E+03  0.20700217289E+03  0.24361719931E+03  0.00000000000E+00 0. -1.
         22    1    3    3    0    0  0.20841401176E+01 -0.15343124494E+02 -0.17305515928E+01  0.15580433823E+02  0.00000000000E+00 0.  1.
         22    1    3    3    0    0 -0.12734168664E+03  0.10174165184E+03  0.30954460787E+03  0.34983586600E+03  0.00000000000E+00 0.  1.
</event>
<event>
 7    1  0.3110367E-005  0.7646462E+03  0.7818608E-02  0.1174118E+00
          2   -1    0    0  502    0  0.00000000000E+00  0.00000000000E+00  0.10875378307E+04  0.10875378307E+04  0.00000000000E+00 0. -1.
          1   -1    0    0  501    0 -0.00000000000E+00 -0.00000000000E+00 -0.14807566641E+04  0.14807566641E+04  0.00000000000E+00 0. -1.
         25    2    1    2    0    0  0.20453231955E+02 -0.76420803015E+03 -0.10361827184E+04  0.12937279885E+04  0.12500093684E+03 0.  0.
          2    1    1    2  501    0 -0.59874994165E+02  0.76369267892E+03  0.15069070744E+03  0.78071711398E+03  0.00000000000E+00 0. -1.
          1    1    1    2  502    0  0.39421762210E+02  0.51535123052E+00  0.49227317759E+03  0.49384939232E+03  0.00000000000E+00 0. -1.
         22    1    3    3    0    0  0.41514281724E+02 -0.37670209942E+03 -0.42184311557E+03  0.56707981929E+03  0.00000000000E+00 0.  1.
         22    1    3    3    0    0 -0.21061049770E+02 -0.38750593073E+03 -0.61433960288E+03  0.72664816923E+03  0.00000000000E+00 0.  1.
</event>
<event>
 7    1  0.3110367E-005  0.5661961E+02  0.7818608E-02  0.1437133E+00
          2   -1    0    0  502    0  0.00000000000E+00  0.00000000000E+00  0.10307938228E+04  0.10307938228E+04  0.00000000000E+00 0. -1.
          1   -1    0    0  501    0 -0.00000000000E+00 -0.00000000000E+00 -0.24256345609E+03  0.24256345609E+03  0.00000000000E+00 0. -1.
         25    2    1    2    0    0 -0.36678696034E+01 -0.28290829502E+02 -0.95383098174E+02  0.15980777305E+03  0.12500705824E+03 0.  0.
          2    1    1    2  501    0  0.46359516820E+02  0.47810128543E+02 -0.10471996361E+03  0.12410190961E+03  0.00000000000E+00 0. -1.
          1    1    1    2  502    0 -0.42691647216E+02 -0.19519299041E+02  0.98833342848E+03  0.98944759620E+03  0.00000000000E+00 0. -1.
         22    1    3    3    0    0  0.10082127573E+02  0.14709077734E+02  0.25302332625E+02  0.30955036754E+02  0.00000000000E+00 0. -1.
         22    1    3    3    0    0 -0.13749997177E+02 -0.42999907236E+02 -0.12068543080E+03  0.12885273630E+03  0.00000000000E+00 0. -1.
</event>
<event>
 7    1  0.3110367E-005  0.2272273E+03  0.7818608E-02  0.1208794E+00
          2   -1    0    0  502    0  0.00000000000E+00  0.00000000000E+00  0.33955588498E+04  0.33955588498E+04  0.00000000000E+00 0. -1.
          1   -1    0    0  501    0 -0.00000000000E+00 -0.00000000000E+00 -0.51349509105E+02  0.51349509105E+02  0.00000000000E+00 0. -1.
         25    2    1    2    0    0 -0.25955130909E+03 -0.16046997473E+03  0.70850673719E+03  0.78148788987E+03  0.12499612205E+03 0.  0.
          2    1    1    2  501    0  0.84778543946E+02  0.31750505397E+02  0.19393203176E+03  0.21402132849E+03  0.00000000000E+00 0. -1.
          1    1    1    2  502    0  0.17477276514E+03  0.12871946934E+03  0.24417705718E+04  0.24513991406E+04  0.00000000000E+00 0. -1.
         22    1    3    3    0    0 -0.20326226164E+03 -0.76588714973E+02  0.37886354835E+03  0.43671382682E+03  0.00000000000E+00 0.  1.
         22    1    3    3    0    0 -0.56289047446E+02 -0.83881259760E+02  0.32964318884E+03  0.34477406305E+03  0.00000000000E+00 0.  1.
</event>
<event>
 7    1  0.3110367E-005  0.6213652E+03  0.7818608E-02  0.1249538E+00
          2   -1    0    0  502    0  0.00000000000E+00  0.00000000000E+00  0.22466876624E+04  0.22466876624E+04  0.00000000000E+00 0. -1.
          1   -1    0    0  501    0 -0.00000000000E+00 -0.00000000000E+00 -0.21996532636E+03  0.21996532636E+03  0.00000000000E+00 0. -1.
         25    2    1    2    0    0  0.19622551167E+03 -0.59001806507E+03  0.62476351956E+03  0.89027017760E+03  0.12500306080E+03 0.  0.
          2    1    1    2  501    0 -0.21642529897E+03  0.58202887969E+03  0.10223938133E+04  0.11961967381E+04  0.00000000000E+00 0. -1.
          1    1    1    2  502    0  0.20199787304E+02  0.79891853733E+01  0.37956500317E+03  0.38018607302E+03  0.00000000000E+00 0. -1.
         22    1    3    3    0    0  0.24495407495E+02 -0.74362444768E+01  0.15209137844E+02  0.29776510779E+02  0.00000000000E+00 0. -1.
         22    1    3    3    0    0  0.17173010417E+03 -0.58258182059E+03  0.60955438172E+03  0.86049366682E+03  0.00000000000E+00 0. -1.
</event>
<event>
 7    1  0.3110367E-005  0.7753856E+02  0.7818608E-02  0.1411308E+00
          2   -1    0    0  502    0  0.00000000000E+00  0.00000000000E+00  0.38186019899E+04  0.38186019899E+04  0.00000000000E+00 0. -1.
          1   -1    0    0  501    0 -0.00000000000E+00 -0.00000000000E+00 -0.26778035886E+03  0.26778035886E+03  0.00000000000E+00 0. -1.
         25    2    1    2    0    0 -0.37929004393E+02 -0.46150795075E+01  0.14743117211E+04  0.14800950102E+04  0.12500512010E+03 0.  0.
          2    1    1    2  501    0  0.77049546467E+02 -0.99935071335E+01 -0.25900084097E+03  0.27040328847E+03  0.00000000000E+00 0. -1.
          1    1    1    2  502    0 -0.39120542074E+02  0.14608586641E+02  0.23355107509E+04  0.23358840500E+04  0.00000000000E+00 0. -1.
         22    1    3    3    0    0  0.38824678195E+02 -0.26305405257E+02  0.38050207088E+03  0.38338121488E+03  0.00000000000E+00 0.  1.
         22    1    3    3    0    0 -0.76753682588E+02  0.21690325750E+02  0.10938096502E+04  0.10967137953E+04  0.00000000000E+00 0.  1.
</event>
<event>
 7    1  0.3110367E-005  0.9660980E+02  0.7818608E-02  0.1319976E+00
          2   -1    0    0  502    0  0.00000000000E+00  0.00000000000E+00  0.48088433460E+03  0.48088433460E+03  0.00000000000E+00 0. -1.
          1   -1    0    0  501    0 -0.00000000000E+00 -0.00000000000E+00 -0.12446068068E+04  0.12446068068E+04  0.00000000000E+00 0. -1.
         25    2    1    2    0    0  0.77953232337E+02 -0.14209628256E+03  0.64359052328E+02  0.21455660202E+03  0.12499755160E+03 0.  0.
          2    1    1    2  501    0 -0.26195867513E+02  0.66850973257E+02 -0.11622730990E+04  0.11644887431E+04  0.00000000000E+00 0. -1.
          1    1    1    2  502    0 -0.51757364824E+02  0.75245309301E+02  0.33419157442E+03  0.34644579634E+03  0.00000000000E+00 0. -1.
         22    1    3    3    0    0  0.51155832943E+02 -0.87738868688E+02 -0.26847098310E+02  0.10505139223E+03  0.00000000000E+00 0. -1.
         22    1    3    3    0    0  0.26797399394E+02 -0.54357413871E+02  0.91206150638E+02  0.10950520979E+03  0.00000000000E+00 0. -1.
</event>
<event>
 7    1  0.3110367E-005  0.1049789E+03  0.7818608E-02  0.1394909E+00
          2   -1    0    0  502    0  0.00000000000E+00  0.00000000000E+00  0.51885484677E+04  0.51885484677E+04  0.00000000000E+00 0. -1.
          1   -1    0    0  501    0 -0.00000000000E+00 -0.00000000000E+00 -0.33976170859E+03  0.33976170859E+03  0.00000000000E+00 0. -1.
         25    2    1    2    0    0  0.26917653142E+02  0.96391708102E+02  0.60963464599E+03  0.63031368219E+03  0.12500005972E+03 0.  0.
          2    1    1    2  501    0  0.33669360829E+02 -0.99178421093E+01 -0.32787530257E+03  0.32974869747E+03  0.00000000000E+00 0. -1.
          1    1    1    2  502    0 -0.60587013971E+02 -0.86473865992E+02  0.45670274157E+04  0.45682477967E+04  0.00000000000E+00 0. -1.
         22    1    3    3    0    0 -0.41239093583E+01  0.28280762820E+02  0.17596385339E+02  0.33562493218E+02  0.00000000000E+00 0. -1.
         22    1    3    3    0    0  0.31041562500E+02  0.68110945282E+02  0.59203826065E+03  0.59675118898E+03  0.00000000000E+00 0. -1.
</event>
<event>
 7    1  0.3110367E-005  0.2246378E+03  0.7818608E-02  0.1167387E+00
          2   -1    0    0  502    0  0.00000000000E+00  0.00000000000E+00  0.40529306824E+03  0.40529306824E+03  0.00000000000E+00 0. -1.
          1   -1    0    0  501    0 -0.00000000000E+00 -0.00000000000E+00 -0.14325837823E+04  0.14325837823E+04  0.00000000000E+00 0. -1.
         25    2    1    2    0    0  0.70592541044E+02 -0.30671329107E+03 -0.63204021588E+02  0.34449377119E+03  0.12499944110E+03 0.  0.
          2    1    1    2  501    0 -0.13245035636E+03  0.17565549518E+03 -0.11980993060E+04  0.12181296716E+04  0.00000000000E+00 0. -1.
          1    1    1    2  502    0  0.61857815313E+02  0.13105779589E+03  0.23401261351E+03  0.27525340772E+03  0.00000000000E+00 0. -1.
         22    1    3    3    0    0  0.80538426730E+02 -0.31443639815E+03 -0.66818151301E+02  0.33139304761E+03  0.00000000000E+00 0.  1.
         22    1    3    3    0    0 -0.99458856858E+01  0.77231070727E+01  0.36141297127E+01  0.13100723587E+02  0.00000000000E+00 0.  1.
</event>
<event>
 7    1  0.3110367E-005  0.6188001E+02  0.7818608E-02  0.1417646E+00
          2   -1    0    0  502    0  0.00000000000E+00  0.00000000000E+00  0.38157335518E+04  0.38157335518E+04  0.00000000000E+00 0. -1.
          1   -1    0    0  501    0 -0.00000000000E+00 -0.00000000000E+00 -0.32867535401E+04  0.32867535401E+04  0.00000000000E+00 0. -1.
         25    2    1    2    0    0 -0.74532604143E+02  0.24436787099E+02  0.81114470268E+02  0.16839131407E+03  0.12499524680E+03 0.  0.
          2    1    1    2  501    0  0.41341335805E+02  0.27796646094E+02 -0.32426643640E+04  0.32430470143E+04  0.00000000000E+00 0. -1.
          1    1    1    2  502    0  0.33191268337E+02 -0.52233433194E+02  0.36905299054E+04  0.36910487635E+04  0.00000000000E+00 0. -1.
         22    1    3    3    0    0  0.22055582252E+02 -0.29476324539E+02  0.23430644918E+02  0.43638257734E+02  0.00000000000E+00 0.  1.
         22    1    3    3    0    0 -0.96588186395E+02  0.53913111638E+02  0.57683825350E+02  0.12475305633E+03  0.00000000000E+00 0.  1.
</event>
<event>
 7    1  0.3110367E-005  0.8450729E+02  0.7818608E-02  0.1359728E+00
          2   -1    0    0  502    0  0.00000000000E+00  0.00000000000E+00  0.26475469081E+03  0.26475469081E+03  0.00000000000E+00 0. -1.
          1   -1    0    0  501    0 -0.00000000000E+00 -0.00000000000E+00 -0.18896683453E+04  0.18896683453E+04  0.00000000000E+00 0. -1.
         25    2    1    2    0    0  0.35051870912E+02 -0.15569626711E+02 -0.26584926386E+03  0.29626241030E+03  0.12499815091E+03 0.  0.
          2    1    1    2  501    0 -0.88235100957E+02 -0.79741012558E+01 -0.16039845061E+04  0.16064293682E+04  0.00000000000E+00 0. -1.
          1    1    1    2  502    0  0.53183230045E+02  0.23543727967E+02  0.24492011547E+03  0.25173125758E+03  0.00000000000E+00 0. -1.
         22    1    3    3    0    0 -0.37810475505E+01  0.47871644642E+02 -0.56826811519E+02  0.74399443471E+02  0.00000000000E+00 0.  1.
         22    1    3    3    0    0  0.38832918463E+02 -0.63441271353E+02 -0.20902245234E+03  0.22186296683E+03  0.00000000000E+00 0.  1.
</event>
<event>
 7    1  0.3110367E-005  0.2017832E+03  0.7818608E-02  0.1216551E+00
          2   -1    0    0  502    0  0.00000000000E+00  0.00000000000E+00  0.11086760959E+03  0.11086760959E+03  0.00000000000E+00 0. -1.
          1   -1    0    0  501    0 -0.00000000000E+00 -0.00000000000E+00 -0.20164631192E+04  0.20164631192E+04  0.00000000000E+00 0. -1.
         25    2    1    2    0    0 -0.22953387547E+03  0.16190663302E+03 -0.14276530211E+04  0.14603826536E+04  0.12499915343E+03 0.  0.
          2    1    1    2  501    0  0.91024751865E+02 -0.22959973502E+02 -0.46051339354E+03  0.46998430981E+03  0.00000000000E+00 0. -1.
          1    1    1    2  502    0  0.13850912360E+03 -0.13894665952E+03 -0.17429094896E+02  0.19696376535E+03  0.00000000000E+00 0. -1.
         22    1    3    3    0    0 -0.32520320221E+02 -0.30367006927E+01 -0.55648601161E+02  0.64525650633E+02  0.00000000000E+00 0.  1.
         22    1    3    3    0    0 -0.19701355524E+03  0.16494333371E+03 -0.13720044200E+04  0.13958570030E+04  0.00000000000E+00 0.  1.
</event>
<event>
 7    1  0.3110367E-005  0.1367834E+03  0.7818608E-02  0.1249310E+00
          2   -1    0    0  502    0  0.00000000000E+00  0.00000000000E+00  0.92806428892E+03  0.92806428892E+03  0.00000000000E+00 0. -1.
          1   -1    0    0  501    0 -0.00000000000E+00 -0.00000000000E+00 -0.65813841941E+03  0.65813841941E+03  0.00000000000E+00 0. -1.
         25    2    1    2    0    0 -0.65935621547E+02  0.21337033895E+03 -0.70784954174E+02  0.26554183026E+03  0.12501018418E+03 0.  0.
          2    1    1    2  501    0  0.59021790094E+02 -0.79360457946E+02 -0.47947569298E+03  0.48956980519E+03  0.00000000000E+00 0. -1.
          1    1    1    2  502    0  0.69138314523E+01 -0.13400988101E+03  0.82018651667E+03  0.83109107287E+03  0.00000000000E+00 0. -1.
         22    1    3    3    0    0  0.75040068603E+01  0.15650244971E+03 -0.15491968358E+02  0.15744627009E+03  0.00000000000E+00 0. -1.
         22    1    3    3    0    0 -0.73439628407E+02  0.56867889249E+02 -0.55292985817E+02  0.10809556017E+03  0.00000000000E+00 0. -1.
</event>
<event>
 7    1  0.3110367E-005  0.2720179E+03  0.7818608E-02  0.1248677E+00
          2   -1    0    0  502    0  0.00000000000E+00  0.00000000000E+00  0.75820601227E+03  0.75820601227E+03  0.00000000000E+00 0. -1.
          1   -1    0    0  501    0 -0.00000000000E+00 -0.00000000000E+00 -0.12803064775E+04  0.12803064775E+04  0.00000000000E+00 0. -1.
         25    2    1    2    0    0  0.24786778266E+03  0.12346854501E+02  0.47056261791E+03  0.54648422329E+03  0.12499978572E+03 0.  0.
          2    1    1    2  501    0 -0.27092996370E+03  0.32072029185E+02 -0.12246668738E+04  0.12546874560E+04  0.00000000000E+00 0. -1.
          1    1    1    2  502    0  0.23062181035E+02 -0.44418883686E+02  0.23200379071E+03  0.23734081049E+03  0.00000000000E+00 0. -1.
         22    1    3    3    0    0  0.10015314701E+03 -0.18220050609E+02  0.85532817672E+02  0.13296046781E+03  0.00000000000E+00 0. -1.
         22    1    3    3    0    0  0.14771463565E+03  0.30566905110E+02  0.38502980024E+03  0.41352375548E+03  0.00000000000E+00 0. -1.
</event>
<event>
 7    1  0.3110367E-005  0.1297623E+03  0.7818608E-02  0.1284550E+00
          2   -1    0    0  502    0  0.00000000000E+00  0.00000000000E+00  0.10787483237E+04  0.10787483237E+04  0.00000000000E+00 0. -1.
          1   -1    0    0  501    0 -0.00000000000E+00 -0.00000000000E+00 -0.82751929590E+02  0.82751929590E+02  0.00000000000E+00 0. -1.
         25    2    1    2    0    0  0.69217131145E+01 -0.16276478197E+03  0.86335537623E+02  0.22275367928E+03  0.12500036884E+03 0.  0.
          2    1    1    2  501    0  0.54525000612E+02  0.50057248237E+02  0.13911209972E+03  0.15757817134E+03  0.00000000000E+00 0. -1.
          1    1    1    2  502    0 -0.61446713726E+02  0.11270753374E+03  0.77054875681E+03  0.78116840273E+03  0.00000000000E+00 0. -1.
         22    1    3    3    0    0  0.62198876089E+02 -0.62617215459E+02  0.19913203328E+02  0.90477353660E+02  0.00000000000E+00 0.  1.
         22    1    3    3    0    0 -0.55277162975E+02 -0.10014756651E+03  0.66422334295E+02  0.13227632562E+03  0.00000000000E+00 0.  1.
</event>
<event>
 7    1  0.3110367E-005  0.7266183E+02  0.7818608E-02  0.1449832E+00
          2   -1    0    0  502    0  0.00000000000E+00  0.00000000000E+00  0.11821687985E+04  0.11821687985E+04  0.00000000000E+00 0. -1.
          1   -1    0    0  501    0 -0.00000000000E+00 -0.00000000000E+00 -0.97238922656E+03  0.97238922656E+03  0.00000000000E+00 0. -1.
         25    2    1    2    0    0 -0.79264045789E+02 -0.25197459169E+01  0.10179486208E+04  0.10286561805E+04  0.12500001984E+03 0.  0.
          2    1    1    2  501    0  0.64954747170E+02  0.32569186598E+02 -0.96390969194E+03  0.96664459100E+03  0.00000000000E+00 0. -1.
          1    1    1    2  502    0  0.14309298619E+02 -0.30049440681E+02  0.15574064310E+03  0.15925725360E+03  0.00000000000E+00 0. -1.
         22    1    3    3    0    0 -0.56069542413E+02  0.10893597032E+02  0.15334122339E+03  0.16363372157E+03  0.00000000000E+00 0. -1.
         22    1    3    3    0    0 -0.23194503376E+02 -0.13413342949E+02  0.86460739741E+03  0.86502245890E+03  0.00000000000E+00 0. -1.
</event>
<event>
 7    1  0.3110367E-005  0.5725549E+03  0.7818608E-02  0.1179454E+00
          2   -1    0    0  502    0  0.00000000000E+00  0.00000000000E+00  0.32806171713E+04  0.32806171713E+04  0.00000000000E+00 0. -1.
          1   -1    0    0  501    0 -0.00000000000E+00 -0.00000000000E+00 -0.14489594197E+04  0.14489594197E+04  0.00000000000E+00 0. -1.
         25    2    1    2    0    0  0.38705323651E+03  0.35368452180E+03  0.28031618015E+04  0.28545129452E+04  0.12500047973E+03 0.  0.
          2    1    1    2  501    0 -0.41928083121E+03 -0.39134892843E+03 -0.13638808846E+04  0.14795680000E+04  0.00000000000E+00 0. -1.
          1    1    1    2  502    0  0.32227594692E+02  0.37664406633E+02  0.39237683473E+03  0.39549564576E+03  0.00000000000E+00 0. -1.
         22    1    3    3    0    0  0.10595637545E+03  0.49372070605E+02  0.43726911370E+03  0.45262416269E+03  0.00000000000E+00 0.  1.
         22    1    3    3    0    0  0.28109686107E+03  0.30431245119E+03  0.23658926878E+04  0.24018887825E+04  0.00000000000E+00 0.  1.
</event>
<event>
 7    1  0.3110367E-005  0.7271119E+02  0.7818608E-02  0.1485448E+00
          2   -1    0    0  502    0  0.00000000000E+00  0.00000000000E+00  0.69381478503E+03  0.69381478503E+03  0.00000000000E+00 0. -1.
          1   -1    0    0  501    0 -0.00000000000E+00 -0.00000000000E+00 -0.24167315043E+03  0.24167315043E+03  0.00000000000E+00 0. -1.
         25    2    1    2    0    0  0.74804961281E+02  0.38388043251E+02  0.10280493077E+03  0.18238235579E+03  0.12500018326E+03 0.  0.
          2    1    1    2  501    0 -0.51987414708E+02 -0.50318406260E+02 -0.19508817089E+03  0.20807216949E+03  0.00000000000E+00 0. -1.
          1    1    1    2  502    0 -0.22817546573E+02  0.11930363008E+02  0.54442487472E+03  0.54503341017E+03  0.00000000000E+00 0. -1.
         22    1    3    3    0    0  0.22707416033E+02  0.80219095084E+02  0.64133298688E+02  0.10518464698E+03  0.00000000000E+00 0. -1.
         22    1    3    3    0    0  0.52097545248E+02 -0.41831051832E+02  0.38671632083E+02  0.77197708814E+02  0.00000000000E+00 0. -1.
</event>
<event>
 7    1  0.3110367E-005  0.2462125E+03  0.7818608E-02  0.1336476E+00
          2   -1    0    0  502    0  0.00000000000E+00  0.00000000000E+00  0.10817103560E+04  0.10817103560E+04  0.00000000000E+00 0. -1.
          1   -1    0    0  501    0 -0.00000000000E+00 -0.00000000000E+00 -0.98786316563E+03  0.98786316563E+03  0.00000000000E+00 0. -1.
         25    2    1    2    0    0 -0.15821645284E+03  0.21670874600E+03 -0.84223945442E+02  0.30775597000E+03  0.12499975017E+03 0.  0.
          2    1    1    2  501    0  0.17930523017E+02 -0.16485297205E+02 -0.77627374480E+03  0.77665577674E+03  0.00000000000E+00 0. -1.
          1    1    1    2  502    0  0.14028592982E+03 -0.20022344879E+03  0.95434488062E+03  0.98516177490E+03  0.00000000000E+00 0. -1.
         22    1    3    3    0    0 -0.13155452695E+03  0.18074632127E+03 -0.11695591023E+03  0.25229845650E+03  0.00000000000E+00 0. -1.
         22    1    3    3    0    0 -0.26661925896E+02  0.35962424729E+02  0.32731964790E+02  0.55457513503E+02  0.00000000000E+00 0. -1.
</event>
<event>
 7    1  0.3110367E-005  0.1220193E+03  0.7818608E-02  0.1442277E+00
          2   -1    0    0  502    0  0.00000000000E+00  0.00000000000E+00  0.34771183504E+04  0.34771183504E+04  0.00000000000E+00 0. -1.
          1   -1    0    0  501    0 -0.00000000000E+00 -0.00000000000E+00 -0.37471644599E+03  0.37471644599E+03  0.00000000000E+00 0. -1.
         25    2    1    2    0    0 -0.10101686394E+03  0.56609647667E+02  0.21922152869E+04  0.21988275495E+04  0.12500267785E+03 0.  0.
          2    1    1    2  501    0  0.11497319438E+03 -0.40970986211E+02 -0.36129397547E+03  0.38135389581E+03  0.00000000000E+00 0. -1.
          1    1    1    2  502    0 -0.13956330443E+02 -0.15638661456E+02  0.12714805930E+04  0.12716533511E+04  0.00000000000E+00 0. -1.
         22    1    3    3    0    0  0.59475440154E+01  0.30217703791E+02  0.12719285708E+03  0.13086827650E+03  0.00000000000E+00 0. -1.
         22    1    3    3    0    0 -0.10696440795E+03  0.26391943876E+02  0.20650224298E+04  0.20679592730E+04  0.00000000000E+00 0. -1.
</event>
<event>
 7    1  0.3110367E-005  0.6333684E+02  0.7818608E-02  0.1388664E+00
          2   -1    0    0  502    0  0.00000000000E+00  0.00000000000E+00  0.29679132383E+03  0.29679132383E+03  0.00000000000E+00 0. -1.
          1   -1    0    0  501    0 -0.00000000000E+00 -0.00000000000E+00 -0.26729217253E+03  0.26729217253E+03  0.00000000000E+00 0. -1.
         25    2    1    2    0    0 -0.79756474644E+02  0.12389007728E+02  0.17698827046E+03  0.23122429715E+03  0.12500097981E+03 0.  0.
          2    1    1    2  501    0  0.45208706844E+02  0.41195071239E+02 -0.22461489707E+03  0.23279328395E+03  0.00000000000E+00 0. -1.
          1    1    1    2  502    0  0.34547767799E+02 -0.53584078967E+02  0.77125777908E+02  0.10006591526E+03  0.00000000000E+00 0. -1.
         22    1    3    3    0    0 -0.85946630978E+02 -0.21193248206E+02  0.54245218928E+02  0.10381965576E+03  0.00000000000E+00 0. -1.
         22    1    3    3    0    0  0.61901563341E+01  0.33582255935E+02  0.12274305153E+03  0.12740464139E+03  0.00000000000E+00 0. -1.
</event>
<event>
 7    1  0.3110367E-005  0.9637959E+02  0.7818608E-02  0.1362304E+00
          2   -1    0    0  502    0  0.00000000000E+00  0.00000000000E+00  0.90181915689E+02  0.90181915689E+02  0.00000000000E+00 0. -1.
          1   -1    0    0  501    0 -0.00000000000E+00 -0.00000000000E+00 -0.15306033301E+04  0.15306033301E+04  0.00000000000E+00 0. -1.
         25    2    1    2    0    0  0.12604932912E+02  0.13572803777E+03 -0.56240983696E+03  0.59203949135E+03  0.12499980017E+03 0.  0.
          2    1    1    2  501    0  0.82795714144E+01 -0.90401470376E+02 -0.94269030871E+03  0.94705121049E+03  0.00000000000E+00 0. -1.
          1    1    1    2  502    0 -0.20884504327E+02 -0.45326567391E+02  0.64678731263E+02  0.81694543944E+02  0.00000000000E+00 0. -1.
         22    1    3    3    0    0 -0.39482526914E+02  0.97698740795E+02 -0.45247886382E+03  0.46458695213E+03  0.00000000000E+00 0.  1.
         22    1    3    3    0    0  0.52087459826E+02  0.38029296972E+02 -0.10993097314E+03  0.12745253922E+03  0.00000000000E+00 0.  1.
</event>
<event>
 7    1  0.3110367E-005  0.2376361E+03  0.7818608E-02  0.1150469E+00
          2   -1    0    0  502    0  0.00000000000E+00  0.00000000000E+00  0.19233246548E+04  0.19233246548E+04  0.00000000000E+00 0. -1.
          1   -1    0    0  501    0 -0.00000000000E+00 -0.00000000000E+00 -0.83782561800E+03  0.83782561800E+03  0.00000000000E+00 0. -1.
         25    2    1    2    0    0  0.19862838933E+03 -0.26469957644E+03  0.86378074034E+03  0.93341359728E+03  0.12499869353E+03 0.  0.
          2    1    1    2  501    0 -0.15788974402E+03  0.54022401684E+02 -0.78288475620E+03  0.80047244340E+03  0.00000000000E+00 0. -1.
          1    1    1    2  502    0 -0.40738645310E+02  0.21067717475E+03  0.10046030526E+04  0.10272642321E+04  0.00000000000E+00 0. -1.
         22    1    3    3    0    0  0.17067682784E+03 -0.26253009649E+03  0.69452212322E+03  0.76184881097E+03  0.00000000000E+00 0.  1.
         22    1    3    3    0    0  0.27951561492E+02 -0.21694799446E+01  0.16925861712E+03  0.17156478631E+03  0.00000000000E+00 0.  1.
</event>
<event>
 7    1  0.3110367E-005  0.2056039E+03  0.7818608E-02  0.1323556E+00
          2   -1    0    0  502    0  0.00000000000E+00  0.00000000000E+00  0.25972906935E+04  0.25972906935E+04  0.00000000000E+00 0. -1.
          1   -1    0    0  501    0 -0.00000000000E+00 -0.00000000000E+00 -0.14982709856E+03  0.14982709856E+03  0.00000000000E+00 0. -1.
         25    2    1    2    0    0  0.11454773083E+03  0.19826450193E+03  0.44371437647E+03  0.51472222117E+03  0.12500608672E+03 0.  0.
          2    1    1    2  501    0  0.19697948534E+01 -0.32619159748E+02 -0.10703792723E+03  0.11191518012E+03  0.00000000000E+00 0. -1.
          1    1    1    2  502    0 -0.11651752568E+03 -0.16564534218E+03  0.21107871457E+04  0.21204803908E+04  0.00000000000E+00 0. -1.
         22    1    3    3    0    0  0.49292519825E+01  0.13093738035E+03  0.24856163342E+03  0.28098359508E+03  0.00000000000E+00 0.  1.
         22    1    3    3    0    0  0.10961847885E+03  0.67327121586E+02  0.19515274305E+03  0.23373862609E+03  0.00000000000E+00 0.  1.
</event>
<event>
 7    1  0.3110367E-005  0.3000522E+02  0.7818608E-02  0.1632553E+00
          2   -1    0    0  502    0  0.00000000000E+00  0.00000000000E+00  0.49506373636E+03  0.49506373636E+03  0.00000000000E+00 0. -1.
          1   -1    0    0  501    0 -0.00000000000E+00 -0.00000000000E+00 -0.71846811580E+02  0.71846811580E+02  0.00000000000E+00 0. -1.
         25    2    1    2    0    0  0.68971750708E+01 -0.43887824536E+02  0.15583441384E+03  0.20465311314E+03  0.12499928006E+03 0.  0.
          2    1    1    2  501    0 -0.19234422718E+02  0.22748933938E+02 -0.42229299214E+02  0.51679693543E+02  0.00000000000E+00 0. -1.
          1    1    1    2  502    0  0.12337247648E+02  0.21138890599E+02  0.30961181016E+03  0.31057774125E+03  0.00000000000E+00 0. -1.
         22    1    3    3    0    0 -0.47508069319E+02 -0.52577994529E+02  0.11859622846E+03  0.13815399945E+03  0.00000000000E+00 0.  1.
         22    1    3    3    0    0  0.54405244390E+02  0.86901699928E+01  0.37238185381E+02  0.66499113694E+02  0.00000000000E+00 0.  1.
</event>
<event>
 7    1  0.3110367E-005  0.2677722E+03  0.7818608E-02  0.1198630E+00
          2   -1    0    0  502    0  0.00000000000E+00  0.00000000000E+00  0.44693041748E+03  0.44693041748E+03  0.00000000000E+00 0. -1.
          1   -1    0    0  501    0 -0.00000000000E+00 -0.00000000000E+00 -0.85213738859E+03  0.85213738859E+03  0.00000000000E+00 0. -1.
         25    2    1    2    0    0  0.45706825600E+02 -0.33496616046E+03  0.32752965876E+03  0.48702335275E+03  0.12499850478E+03 0.  0.
          2    1    1    2  501    0 -0.71438636493E+02  0.25319222190E+03 -0.58049334764E+03  0.63732433397E+03  0.00000000000E+00 0. -1.
          1    1    1    2  502    0  0.25731810893E+02  0.81773938561E+02 -0.15224328224E+03  0.17472011935E+03  0.00000000000E+00 0. -1.
         22    1    3    3    0    0  0.37340907465E+02 -0.31173150706E+03  0.33698932485E+03  0.46057863707E+03  0.00000000000E+00 0. -1.
         22    1    3    3    0    0  0.83659181349E+01 -0.23234653405E+02 -0.94596660889E+01  0.26444715684E+02  0.00000000000E+00 0. -1.
</event>
<event>
 7    1  0.3110367E-005  0.1952654E+03  0.7818608E-02  0.1188495E+00
          2   -1    0    0  502    0  0.00000000000E+00  0.00000000000E+00  0.19913604384E+04  0.19913604384E+04  0.00000000000E+00 0. -1.
          1   -1    0    0  501    0 -0.00000000000E+00 -0.00000000000E+00 -0.29393257574E+03  0.29393257574E+03  0.00000000000E+00 0. -1.
         25    2    1    2    0    0 -0.25879235697E+03  0.35578683192E+02  0.13829589630E+04  0.14129544550E+04  0.12500188818E+03 0.  0.
          2    1    1    2  501    0  0.12430746723E+03  0.42577987870E+02 -0.25237962825E+03  0.28453595241E+03  0.00000000000E+00 0. -1.
          1    1    1    2  502    0  0.13448488974E+03 -0.78156671062E+02  0.56684852794E+03  0.58780260668E+03  0.00000000000E+00 0. -1.
         22    1    3    3    0    0 -0.13476406466E+03  0.33206482990E+01  0.41002608555E+03  0.43161762089E+03  0.00000000000E+00 0. -1.
         22    1    3    3    0    0 -0.12402829231E+03  0.32258034893E+02  0.97293287741E+03  0.98133683415E+03  0.00000000000E+00 0. -1.
</event>
<event>
 7    1  0.3110367E-005  0.2268701E+03  0.7818608E-02  0.1170215E+00
          2   -1    0    0  502    0  0.00000000000E+00  0.00000000000E+00  0.22723568396E+04  0.22723568396E+04  0.00000000000E+00 0. -1.
          1   -1    0    0  501    0 -0.00000000000E+00 -0.00000000000E+00 -0.13311309130E+04  0.13311309130E+04  0.00000000000E+00 0. -1.
         25    2    1    2    0    0 -0.17046243650E+03  0.25618861455E+03 -0.61774500053E+03  0.70137289516E+03  0.12500001561E+03 0.  0.
          2    1    1    2  501    0 -0.22122288707E+02 -0.13714799245E+03 -0.65856160682E+03  0.67305449814E+03  0.00000000000E+00 0. -1.
          1    1    1    2  502    0  0.19258472521E+03 -0.11904062210E+03  0.22175325340E+04  0.22290603593E+04  0.00000000000E+00 0. -1.
         22    1    3    3    0    0 -0.11714212403E+03  0.21242605394E+03 -0.35673106981E+03  0.43139791583E+03  0.00000000000E+00 0. -1.
         22    1    3    3    0    0 -0.53320312478E+02  0.43762560606E+02 -0.26101393073E+03  0.26997497933E+03  0.00000000000E+00 0. -1.
</event>
<event>
 7    1  0.3110367E-005  0.1033173E+04  0.7818608E-02  0.1077490E+00
          2   -1    0    0  502    0  0.00000000000E+00  0.00000000000E+00  0.22359551594E+04  0.22359551594E+04  0.00000000000E+00 0. -1.
          1   -1    0    0  501    0 -0.00000000000E+00 -0.00000000000E+00 -0.22112908046E+04  0.22112908046E+04  0.00000000000E+00 0. -1.
         25    2    1    2    0    0 -0.57194846091E+02 -0.99269559278E+03 -0.12763252198E+03  0.10102629523E+04  0.12500152682E+03 0.  0.
          2    1    1    2  501    0 -0.21710250806E+02  0.10485430636E+04 -0.14733301037E+04  0.18084843062E+04  0.00000000000E+00 0. -1.
          1    1    1    2  502    0  0.78905096897E+02 -0.55847470864E+02  0.16256269805E+04  0.16284987056E+04  0.00000000000E+00 0. -1.
         22    1    3    3    0    0 -0.20294955903E+02 -0.19618950671E+03  0.23744359571E+02  0.19866052046E+03  0.00000000000E+00 0.  1.
         22    1    3    3    0    0 -0.36899890188E+02 -0.79650608607E+03 -0.15137688155E+03  0.81160243181E+03  0.00000000000E+00 0.  1.
</event>
<event>
 7    1  0.3110367E-005  0.6542676E+02  0.7818608E-02  0.1477987E+00
          2   -1    0    0  502    0  0.00000000000E+00  0.00000000000E+00  0.19127153494E+04  0.19127153494E+04  0.00000000000E+00 0. -1.
          1   -1    0    0  501    0 -0.00000000000E+00 -0.00000000000E+00 -0.76299281599E+02  0.76299281599E+02  0.00000000000E+00 0. -1.
         25    2    1    2    0    0  0.16337586171E+02  0.56119767884E+02  0.37396184565E+03  0.39860761385E+03  0.12499689095E+03 0.  0.
          2    1    1    2  501    0 -0.28821838708E+02  0.88834409763E+01 -0.59662228763E+02  0.66852041488E+02  0.00000000000E+00 0. -1.
          1    1    1    2  502    0  0.12484252537E+02 -0.65003208860E+02  0.15221164509E+04  0.15235549757E+04  0.00000000000E+00 0. -1.
         22    1    3    3    0    0  0.44683439191E+02 -0.16307228929E+02  0.23112025535E+03  0.23596420891E+03  0.00000000000E+00 0.  1.
         22    1    3    3    0    0 -0.28345853021E+02  0.72426996813E+02  0.14284159030E+03  0.16264340494E+03  0.00000000000E+00 0.  1.
</event>
<event>
 7    1  0.3110367E-005  0.1789557E+03  0.7818608E-02  0.1224637E+00
          2   -1    0    0  502    0  0.00000000000E+00  0.00000000000E+00  0.10237707731E+04  0.10237707731E+04  0.00000000000E+00 0. -1.
          1   -1    0    0  501    0 -0.00000000000E+00 -0.00000000000E+00 -0.35608558858E+03  0.35608558858E+03  0.00000000000E+00 0. -1.
         25    2    1    2    0    0 -0.15622477194E+03  0.12533194475E+03 -0.24142474600E+03  0.33767539157E+03  0.12499794537E+03 0.  0.
          2    1    1    2  501    0  0.88457308730E+02  0.40394145869E+02 -0.17176174628E+02  0.98749194747E+02  0.00000000000E+00 0. -1.
          1    1    1    2  502    0  0.67767463206E+02 -0.16572609062E+03  0.92628610514E+03  0.94343177536E+03  0.00000000000E+00 0. -1.
         22    1    3    3    0    0 -0.62256495787E+02  0.12504018780E+03 -0.12008889426E+03  0.18420711810E+03  0.00000000000E+00 0. -1.
         22    1    3    3    0    0 -0.93968276149E+02  0.29175694862E+00 -0.12133585174E+03  0.15346827347E+03  0.00000000000E+00 0. -1.
</event>
<event>
 7    1  0.3110367E-005  0.3639196E+03  0.7818608E-02  0.1145318E+00
          2   -1    0    0  502    0  0.00000000000E+00  0.00000000000E+00  0.24150603735E+04  0.24150603735E+04  0.00000000000E+00 0. -1.
          1   -1    0    0  501    0 -0.00000000000E+00 -0.00000000000E+00 -0.92063794835E+03  0.92063794835E+03  0.00000000000E+00 0. -1.
         25    2    1    2    0    0 -0.11552613528E+03  0.41440213319E+03  0.91645632234E+03  0.10200943059E+04  0.12499914466E+03 0.  0.
          2    1    1    2  501    0  0.88117718649E+02 -0.75211157350E+02 -0.84480066530E+03  0.85270722679E+03  0.00000000000E+00 0. -1.
          1    1    1    2  502    0  0.27408416632E+02 -0.33919097584E+03  0.14227667682E+04  0.14628967892E+04  0.00000000000E+00 0. -1.
         22    1    3    3    0    0 -0.10696130933E+03  0.41303873847E+03  0.91700437529E+03  0.10114043432E+04  0.00000000000E+00 0. -1.
         22    1    3    3    0    0 -0.85648259543E+01  0.13633947258E+01 -0.54805294987E+00  0.86899626491E+01  0.00000000000E+00 0. -1.
</event>
<event>
 7    1  0.3110367E-005  0.4379575E+02  0.7818608E-02  0.1496599E+00
          2   -1    0    0  502    0  0.00000000000E+00  0.00000000000E+00  0.81730318157E+03  0.81730318157E+03  0.00000000000E+00 0. -1.
          1   -1    0    0  501    0 -0.00000000000E+00 -0.00000000000E+00 -0.41698582290E+03  0.41698582290E+03  0.00000000000E+00 0. -1.
         25    2    1    2    0    0 -0.30802729972E+02  0.22771087854E+02 -0.37323348240E+03  0.39546615030E+03  0.12499165185E+03 0.  0.
          2    1    1    2  501    0  0.53626137981E+02  0.14607509767E+02 -0.79061814614E+01  0.56139555766E+02  0.00000000000E+00 0. -1.
          1    1    1    2  502    0 -0.22823408009E+02 -0.37378597620E+02  0.78145702254E+03  0.78268329839E+03  0.00000000000E+00 0. -1.
         22    1    3    3    0    0  0.27016369960E+02  0.94132482032E+01 -0.29929419530E+03  0.30065845876E+03  0.00000000000E+00 0. -1.
         22    1    3    3    0    0 -0.57819099932E+02  0.13357839650E+02 -0.73939287105E+02  0.94807691538E+02  0.00000000000E+00 0. -1.
</event>
<event>
 7    1  0.3110367E-005  0.7298824E+03  0.7818608E-02  0.1117025E+00
          2   -1    0    0  502    0  0.00000000000E+00  0.00000000000E+00  0.11119161523E+04  0.11119161523E+04  0.00000000000E+00 0. -1.
          1   -1    0    0  501    0 -0.00000000000E+00 -0.00000000000E+00 -0.20300748836E+04  0.20300748836E+04  0.00000000000E+00 0. -1.
         25    2    1    2    0    0  0.73330532085E+03  0.38149703729E+02  0.87127735458E+03  0.11462728344E+04  0.12500035558E+03 0.  0.
          2    1    1    2  501    0 -0.39531194051E+02 -0.71504235972E+02 -0.69296105972E+03  0.69776113489E+03  0.00000000000E+00 0. -1.
          1    1    1    2  502    0 -0.69377412680E+03  0.33354532243E+02 -0.10964750261E+04  0.12979570666E+04  0.00000000000E+00 0. -1.
         22    1    3    3    0    0  0.27908481174E+02 -0.23275803622E+02  0.51654713920E+02  0.63157389321E+02  0.00000000000E+00 0.  1.
         22    1    3    3    0    0  0.70539683967E+03  0.61425507350E+02  0.81962264066E+03  0.10831154451E+04  0.00000000000E+00 0.  1.
</event>
<event>
 7    1  0.3110367E-005  0.1218502E+03  0.7818608E-02  0.1361454E+00
          2   -1    0    0  502    0  0.00000000000E+00  0.00000000000E+00  0.11249344557E+04  0.11249344557E+04  0.00000000000E+00 0. -1.
          1   -1    0    0  501    0 -0.00000000000E+00 -0.00000000000E+00 -0.30235409269E+02  0.30235409269E+02  0.00000000000E+00 0. -1.
         25    2    1    2    0    0 -0.12726155413E+03  0.29943195148E+02  0.73391710893E+03  0.75587721393E+03  0.12499576658E+03 0.  0.
          2    1    1    2  501    0  0.26998014785E+02  0.29183761347E+02  0.33705143355E+02  0.52121218494E+02  0.00000000000E+00 0. -1.
          1    1    1    2  502    0  0.10026353935E+03 -0.59126956495E+02  0.32707679414E+03  0.34717143254E+03  0.00000000000E+00 0. -1.
         22    1    3    3    0    0 -0.78677190738E+02  0.30708965401E+02  0.16953868413E+03  0.18941094561E+03  0.00000000000E+00 0.  1.
         22    1    3    3    0    0 -0.48584363396E+02 -0.76577025273E+00  0.56437842480E+03  0.56646626832E+03  0.00000000000E+00 0.  1.
</event>
<event>
 7    1  0.3110367E-005  0.1710666E+03  0.7818608E-02  0.1289625E+00
          2   -1    0    0  502    0  0.00000000000E+00  0.00000000000E+00  0.65230301093E+03  0.65230301093E+03  0.00000000000E+00 0. -1.
          1   -1    0    0  501    0 -0.00000000000E+00 -0.00000000000E+00 -0.64232861494E+03  0.64232861494E+03  0.00000000000E+00 0. -1.
         25    2    1    2    0    0 -0.82138902642E+02  0.19472897928E+03 -0.17991812204E+02  0.24620047219E+03  0.12499917002E+03 0.  0.
          2    1    1    2  501    0  0.87795978555E+02 -0.14150009689E+03 -0.49524332463E+03  0.52249053758E+03  0.00000000000E+00 0. -1.
          1    1    1    2  502    0 -0.56570759139E+01 -0.53228882387E+02  0.52320953282E+03  0.52594061610E+03  0.00000000000E+00 0. -1.
         22    1    3    3    0    0  0.62404336143E+01  0.13824350020E+03 -0.26754952753E+02  0.14094692567E+03  0.00000000000E+00 0.  1.
         22    1    3    3    0    0 -0.88379336256E+02  0.56485479077E+02  0.87631405490E+01  0.10525354652E+03  0.00000000000E+00 0.  1.
</event>
<event>
 7    1  0.3110367E-005  0.2143774E+03  0.7818608E-02  0.1259313E+00
          2   -1    0    0  502    0  0.00000000000E+00  0.00000000000E+00  0.41425635543E+03  0.41425635543E+03  0.00000000000E+00 0. -1.
          1   -1    0    0  501    0 -0.00000000000E+00 -0.00000000000E+00 -0.65803581191E+03  0.65803581191E+03  0.00000000000E+00 0. -1.
         25    2    1    2    0    0  0.21786270449E+03 -0.86219720538E+02  0.62416921394E+02  0.27279904275E+03  0.12500178971E+03 0.  0.
          2    1    1    2  501    0 -0.12308896227E+02  0.55802595745E+02 -0.50718939552E+03  0.51039839493E+03  0.00000000000E+00 0. -1.
          1    1    1    2  502    0 -0.20555380826E+03  0.30417124793E+02  0.20099301765E+03  0.28909472966E+03  0.00000000000E+00 0. -1.
         22    1    3    3    0    0  0.33663227357E+02 -0.10592347718E+02 -0.36234877560E+02  0.50580401916E+02  0.00000000000E+00 0. -1.
         22    1    3    3    0    0  0.18419947713E+03 -0.75627372821E+02  0.98651798954E+02  0.22221864083E+03  0.00000000000E+00 0. -1.
</event>
<event>
 7    1  0.3110367E-005  0.5481928E+03  0.7818608E-02  0.1036714E+00
          2   -1    0    0  502    0  0.00000000000E+00  0.00000000000E+00  0.12774202959E+04  0.12774202959E+04  0.00000000000E+00 0. -1.
          1   -1    0    0  501    0 -0.00000000000E+00 -0.00000000000E+00 -0.13365641411E+04  0.13365641411E+04  0.00000000000E+00 0. -1.
         25    2    1    2    0    0  0.61948232181E+03  0.48579980050E+03  0.18254845072E+02  0.79731844530E+03  0.12499468248E+03 0.  0.
          2    1    1    2  501    0 -0.15672087885E+03 -0.28294632410E+03 -0.84098698654E+03  0.90104337727E+03  0.00000000000E+00 0. -1.
          1    1    1    2  502    0 -0.46276144296E+03 -0.20285347640E+03  0.76358829621E+03  0.91562261444E+03  0.00000000000E+00 0. -1.
         22    1    3    3    0    0  0.15399502094E+03  0.10441801953E+03  0.56171448083E+02  0.19435231117E+03  0.00000000000E+00 0.  1.
         22    1    3    3    0    0  0.46548730087E+03  0.38138178097E+03 -0.37916603011E+02  0.60296613413E+03  0.00000000000E+00 0.  1.
</event>
<event>
 7    1  0.3110367E-005  0.3238418E+02  0.7818608E-02  0.1612419E+00
          2   -1    0    0  502    0  0.00000000000E+00  0.00000000000E+00  0.26174052283E+03  0.26174052283E+03  0.00000000000E+00 0. -1.
          1   -1    0    0  501    0 -0.00000000000E+00 -0.00000000000E+00 -0.12518043947E+04  0.12518043947E+04  0.00000000000E+00 0. -1.
         25    2    1    2    0    0 -0.30817171530E+02  0.24498777056E+02  0.10316677661E+03  0.16679160471E+03  0.12500466978E+03 0.  0.
          2    1    1    2  501    0  0.24425325101E+02  0.73612592630E+01 -0.12177737055E+04  0.12180408788E+04  0.00000000000E+00 0. -1.
          1    1    1    2  502    0  0.63918464288E+01 -0.31860036319E+02  0.12454305703E+03  0.12871243401E+03  0.00000000000E+00 0. -1.
         22    1    3    3    0    0 -0.65233443051E+02  0.11045906214E+02  0.11080822715E+03  0.12905765122E+03  0.00000000000E+00 0. -1.
         22    1    3    3    0    0  0.34416271521E+02  0.13452870842E+02 -0.76414505391E+01  0.37733953485E+02  0.00000000000E+00 0. -1.
</event>
<event>
 7    1  0.3110367E-005  0.2896429E+03  0.7818608E-02  0.1188383E+00
          2   -1    0    0  502    0  0.00000000000E+00  0.00000000000E+00  0.63463886365E+03  0.63463886365E+03  0.00000000000E+00 0. -1.
          1   -1    0    0  501    0 -0.00000000000E+00 -0.00000000000E+00 -0.74923222643E+03  0.74923222643E+03  0.00000000000E+00 0. -1.
         25    2    1    2    0    0 -0.13592864987E+03  0.19866628494E+03  0.29351959596E+02  0.27281713386E+03  0.12499104116E+03 0.  0.
          2    1    1    2  501    0  0.13532373242E+02  0.87653959181E+02 -0.57360673332E+03  0.58042314409E+03  0.00000000000E+00 0. -1.
          1    1    1    2  502    0  0.12239627663E+03 -0.28632024412E+03  0.42966141095E+03  0.53063081213E+03  0.00000000000E+00 0. -1.
         22    1    3    3    0    0  0.25051934343E+01 -0.14874065286E+02 -0.52884451123E+01  0.15983787536E+02  0.00000000000E+00 0.  1.
         22    1    3    3    0    0 -0.13843384330E+03  0.21354035022E+03  0.34640404708E+02  0.25683334632E+03  0.00000000000E+00 0.  1.
</event>
<event>
 7    1  0.3110367E-005  0.1170486E+04  0.7818608E-02  0.1153207E+00
          2   -1    0    0  502    0  0.00000000000E+00  0.00000000000E+00  0.23463217412E+04  0.23463217412E+04  0.00000000000E+00 0. -1.
          1   -1    0    0  501    0 -0.00000000000E+00 -0.00000000000E+00 -0.13902920568E+04  0.13902920568E+04  0.00000000000E+00 0. -1.
         25    2    1    2    0    0 -0.31538536170E+03 -0.11527858169E+04  0.66414088986E+03  0.13729849986E+04  0.12498647464E+03 0.  0.
          2    1    1    2  501    0  0.31054874613E+03  0.11203427403E+04 -0.70931555376E+03  0.13618872693E+04  0.00000000000E+00 0. -1.
          1    1    1    2  502    0  0.48366155618E+01  0.32443076647E+02  0.10012043482E+04  0.10017415300E+04  0.00000000000E+00 0. -1.
         22    1    3    3    0    0 -0.18103981914E+03 -0.82725970313E+03  0.42677842597E+03  0.94830051008E+03  0.00000000000E+00 0.  1.
         22    1    3    3    0    0 -0.13434554256E+03 -0.32552611379E+03  0.23736246389E+03  0.42468448857E+03  0.00000000000E+00 0.  1.
</event>
<event>
 7    1  0.3110367E-005  0.4878845E+02  0.7818608E-02  0.1546929E+00
          2   -1    0    0  502    0  0.00000000000E+00  0.00000000000E+00  0.76896846377E+02  0.76896846377E+02  0.00000000000E+00 0. -1.
          1   -1    0    0  501    0 -0.00000000000E+00 -0.00000000000E+00 -0.17174195749E+04  0.17174195749E+04  0.00000000000E+00 0. -1.
         25    2    1    2    0    0  0.21106602288E+02 -0.63190654507E+02 -0.94963445882E+03  0.96014028430E+03  0.12500085069E+03 0.  0.
          2    1    1    2  501    0 -0.20809772696E+02  0.14529550745E+02 -0.75403093947E+03  0.75445795917E+03  0.00000000000E+00 0. -1.
          1    1    1    2  502    0 -0.29682959242E+00  0.48661103761E+02  0.63142669768E+02  0.79718177805E+02  0.00000000000E+00 0. -1.
         22    1    3    3    0    0 -0.36386712047E+02  0.17142762838E+02 -0.36610039462E+03  0.36830336147E+03  0.00000000000E+00 0.  1.
         22    1    3    3    0    0  0.57493314336E+02 -0.80333417344E+02 -0.58353406420E+03  0.59183692283E+03  0.00000000000E+00 0.  1.
</event>
<event>
 7    1  0.3110367E-005  0.1985949E+03  0.7818608E-02  0.1171433E+00
          2   -1    0    0  502    0  0.00000000000E+00  0.00000000000E+00  0.13792905849E+04  0.13792905849E+04  0.00000000000E+00 0. -1.
          1   -1    0    0  501    0 -0.00000000000E+00 -0.00000000000E+00 -0.14371891140E+03  0.14371891140E+03  0.00000000000E+00 0. -1.
         25    2    1    2    0    0  0.16049087583E+03 -0.18973027876E+03  0.88680379051E+03  0.92940880564E+03  0.12499946097E+03 0.  0.
          2    1    1    2  501    0 -0.15594205320E+03  0.13282274364E+02 -0.44355580092E+02  0.16267071111E+03  0.00000000000E+00 0. -1.
          1    1    1    2  502    0 -0.45488226322E+01  0.17644800440E+03  0.39312346308E+03  0.43092997954E+03  0.00000000000E+00 0. -1.
         22    1    3    3    0    0  0.15509638033E+03 -0.11273550886E+03  0.51164317541E+03  0.54639081351E+03  0.00000000000E+00 0. -1.
         22    1    3    3    0    0  0.53944955034E+01 -0.76994769897E+02  0.37516061510E+03  0.38301799213E+03  0.00000000000E+00 0. -1.
</event>
<event>
 7    1  0.3110367E-005  0.2387678E+03  0.7818608E-02  0.1260628E+00
          2   -1    0    0  502    0  0.00000000000E+00  0.00000000000E+00  0.30169198696E+03  0.30169198696E+03  0.00000000000E+00 0. -1.
          1   -1    0    0  501    0 -0.00000000000E+00 -0.00000000000E+00 -0.18602513735E+04  0.18602513735E+04  0.00000000000E+00 0. -1.
         25    2    1    2    0    0  0.22876368987E+03 -0.69605000490E+02 -0.88818112935E+03  0.92826082697E+03  0.12499904983E+03 0.  0.
          2    1    1    2  501    0 -0.23996467994E+03  0.20211393587E+02 -0.93435599519E+03  0.96488998015E+03  0.00000000000E+00 0. -1.
          1    1    1    2  502    0  0.11200990069E+02  0.49393606903E+02  0.26397773799E+03  0.26879255335E+03  0.00000000000E+00 0. -1.
         22    1    3    3    0    0  0.24175564561E+03 -0.73909872146E+02 -0.86647181094E+03  0.90259728591E+03  0.00000000000E+00 0. -1.
         22    1    3    3    0    0 -0.12991955738E+02  0.43048716555E+01 -0.21709318417E+02  0.25663541065E+02  0.00000000000E+00 0. -1.
</event>
<event>
 7    1  0.3110367E-005  0.7181620E+02  0.7818608E-02  0.1415330E+00
          2   -1    0    0  502    0  0.00000000000E+00  0.00000000000E+00  0.51551075833E+02  0.51551075833E+02  0.00000000000E+00 0. -1.
          1   -1    0    0  501    0 -0.00000000000E+00 -0.00000000000E+00 -0.50992490576E+03  0.50992490576E+03  0.00000000000E+00 0. -1.
         25    2    1    2    0    0  0.60718569248E+01 -0.52371867603E+02 -0.37853394723E+03  0.40211076063E+03  0.12500173855E+03 0.  0.
          2    1    1    2  501    0 -0.39548544769E+02 -0.18590840458E+02  0.47864460578E+01  0.43961537827E+02  0.00000000000E+00 0. -1.
          1    1    1    2  502    0  0.33476687844E+02  0.70962708060E+02 -0.84626328747E+02  0.11540368314E+03  0.00000000000E+00 0. -1.
         22    1    3    3    0    0  0.29554862741E+02 -0.21753320843E+02 -0.35504589187E+03  0.35693736456E+03  0.00000000000E+00 0.  1.
         22    1    3    3    0    0 -0.23483005816E+02 -0.30618546759E+02 -0.23488055359E+02  0.45173396069E+02  0.00000000000E+00 0.  1.
</event>
<event>
 7    1  0.3110367E-005  0.3359650E+03  0.7818608E-02  0.1170294E+00
          2   -1    0    0  502    0  0.00000000000E+00  0.00000000000E+00  0.50144730201E+03  0.50144730201E+03  0.00000000000E+00 0. -1.
          1   -1    0    0  501    0 -0.00000000000E+00 -0.00000000000E+00 -0.88508225777E+03  0.88508225777E+03  0.00000000000E+00 0. -1.
         25    2    1    2    0    0  0.85435261541E+02  0.23935000116E+03 -0.59683957563E+03  0.66062901602E+03  0.12500244319E+03 0.  0.
          2    1    1    2  501    0  0.26060623719E+01  0.93689049620E+02 -0.18012374568E+03  0.20304923870E+03  0.00000000000E+00 0. -1.
          1    1    1    2  502    0 -0.88041323913E+02 -0.33303905078E+03  0.39332836555E+03  0.52285130506E+03  0.00000000000E+00 0. -1.
         22    1    3    3    0    0  0.90026395299E+02  0.17079897839E+03 -0.30627062800E+03  0.36204798086E+03  0.00000000000E+00 0.  1.
         22    1    3    3    0    0 -0.45911337576E+01  0.68551022764E+02 -0.29056894763E+03  0.29858103516E+03  0.00000000000E+00 0.  1.
</event>
<event>
 7    1  0.3110367E-005  0.3847311E+03  0.7818608E-02  0.1064880E+00
          2   -1    0    0  502    0  0.00000000000E+00  0.00000000000E+00  0.15936535385E+04  0.15936535385E+04  0.00000000000E+00 0. -1.
          1   -1    0    0  501    0 -0.00000000000E+00 -0.00000000000E+00 -0.29646220911E+03  0.29646220911E+03  0.00000000000E+00 0. -1.
         25    2    1    2    0    0  0.33768572720E+03 -0.32901239267E+02  0.88527850014E+03  0.95627267742E+03  0.12500107551E+03 0.  0.
          2    1    1    2  501    0 -0.25314939468E+03  0.32963410486E+03 -0.44163255910E+01  0.41564740231E+03  0.00000000000E+00 0. -1.
          1    1    1    2  502    0 -0.84536332518E+02 -0.29673286559E+03  0.41632915484E+03  0.51819566788E+03  0.00000000000E+00 0. -1.
         22    1    3    3    0    0  0.23690273813E+03 -0.61238182362E+02  0.49469986770E+03  0.55190667818E+03  0.00000000000E+00 0. -1.
         22    1    3    3    0    0  0.10078298907E+03  0.28336943095E+02  0.39057863243E+03  0.40436599924E+03  0.00000000000E+00 0. -1.
</event>
<event>
 7    1  0.3110367E-005  0.1871474E+03  0.7818608E-02  0.1218827E+00
          2   -1    0    0  502    0  0.00000000000E+00  0.00000000000E+00  0.98609778834E+03  0.98609778834E+03  0.00000000000E+00 0. -1.
          1   -1    0    0  501    0 -0.00000000000E+00 -0.00000000000E+00 -0.12324618002E+04  0.12324618002E+04  0.00000000000E+00 0. -1.
         25    2    1    2    0    0 -0.78434392259E+02  0.23505160577E+03 -0.13278740279E+03  0.30765691701E+03  0.12497628966E+03 0.  0.
          2    1    1    2  501    0  0.11391289457E+03 -0.14282149371E+03 -0.10012328243E+04  0.10177628874E+04  0.00000000000E+00 0. -1.
          1    1    1    2  502    0 -0.35478502311E+02 -0.92230112060E+02  0.88765621517E+03  0.89313978414E+03  0.00000000000E+00 0. -1.
         22    1    3    3    0    0 -0.13420351951E+02  0.16538953707E+03 -0.32062890850E+02  0.16900246681E+03  0.00000000000E+00 0.  1.
         22    1    3    3    0    0 -0.65014040308E+02  0.69662068700E+02 -0.10072451194E+03  0.13865445019E+03  0.00000000000E+00 0.  1.
</event>
<event>
 7    1  0.3110367E-005  0.1897080E+03  0.7818608E-02  0.1234884E+00
          2   -1    0    0  502    0  0.00000000000E+00  0.00000000000E+00  0.93914267033E+03  0.93914267033E+03  0.00000000000E+00 0. -1.
          1   -1    0    0  501    0 -0.00000000000E+00 -0.00000000000E+00 -0.11811219953E+03  0.11811219953E+03  0.00000000000E+00 0. -1.
         25    2    1    2    0    0 -0.14004882294E+03 -0.11158996334E+03  0.28015522434E+03  0.35521455922E+03  0.12499776250E+03 0.  0.
          2    1    1    2  501    0  0.90063653727E+02  0.17724790619E+03  0.50987432012E+02  0.20525106624E+03  0.00000000000E+00 0. -1.
          1    1    1    2  502    0  0.49985169217E+02 -0.65657942851E+02  0.48988781445E+03  0.49678924440E+03  0.00000000000E+00 0. -1.
         22    1    3    3    0    0 -0.14902218540E+03 -0.12928253511E+03  0.26433817965E+03  0.32984277898E+03  0.00000000000E+00 0.  1.
         22    1    3    3    0    0  0.89733624583E+01  0.17692571770E+02  0.15817044687E+02  0.25371780235E+02  0.00000000000E+00 0.  1.
</event>
<event>
 7    1  0.3110367E-005  0.2884428E+03  0.7818608E-02  0.1130821E+00
          2   -1    0    0  502    0  0.00000000000E+00  0.00000000000E+00  0.18923426781E+04  0.18923426781E+04  0.00000000000E+00 0. -1.
          1   -1    0    0  501    0 -0.00000000000E+00 -0.00000000000E+00 -0.32976052011E+03  0.32976052011E+03  0.00000000000E+00 0. -1.
         25    2    1    2    0    0 -0.80915208989E+02  0.19316258396E+03  0.72626478879E+02  0.25447653856E+03  0.12499859340E+03 0.  0.
          2    1    1    2  501    0  0.23457187828E+03 -0.27523123544E+03 -0.94380035124E+02  0.37374294652E+03  0.00000000000E+00 0. -1.
          1    1    1    2  502    0 -0.15365666929E+03  0.82068651479E+02  0.15843357143E+04  0.15938837131E+04  0.00000000000E+00 0. -1.
         22    1    3    3    0    0 -0.45544558562E+02  0.60124809855E+02  0.88067958773E+02  0.11595371894E+03  0.00000000000E+00 0. -1.
         22    1    3    3    0    0 -0.35370650427E+02  0.13303777411E+03 -0.15441479894E+02  0.13852281961E+03  0.00000000000E+00 0. -1.
</event>
<event>
 7    1  0.3110367E-005  0.2900059E+02  0.7818608E-02  0.1635589E+00
          2   -1    0    0  502    0  0.00000000000E+00  0.00000000000E+00  0.14277688641E+04  0.14277688641E+04  0.00000000000E+00 0. -1.
          1   -1    0    0  501    0 -0.00000000000E+00 -0.00000000000E+00 -0.77691121121E+03  0.77691121121E+03  0.00000000000E+00 0. -1.
         25    2    1    2    0    0 -0.26711102878E+01  0.61258386862E+01  0.61609458941E+03  0.62868336151E+03  0.12500226083E+03 0.  0.
          2    1    1    2  501    0 -0.23010296249E+02  0.94745820127E+01 -0.77013551674E+03  0.77053744593E+03  0.00000000000E+00 0. -1.
          1    1    1    2  502    0  0.25681406537E+02 -0.15600420699E+02  0.80489858024E+03  0.80545926789E+03  0.00000000000E+00 0. -1.
         22    1    3    3    0    0  0.13483399298E+02 -0.57628454162E+02  0.31076302502E+03  0.31634869765E+03  0.00000000000E+00 0. -1.
         22    1    3    3    0    0 -0.16154509586E+02  0.63754292848E+02  0.30533156439E+03  0.31233466386E+03  0.00000000000E+00 0. -1.
</event>
<event>
 7    1  0.3110367E-005  0.4106827E+03  0.7818608E-02  0.1145402E+00
          2   -1    0    0  502    0  0.00000000000E+00  0.00000000000E+00  0.96128560527E+03  0.96128560527E+03  0.00000000000E+00 0. -1.
          1   -1    0    0  501    0 -0.00000000000E+00 -0.00000000000E+00 -0.13158246880E+04  0.13158246880E+04  0.00000000000E+00 0. -1.
         25    2    1    2    0    0  0.25653104103E+03 -0.21945783280E+03  0.40575227758E+02  0.36227190482E+03  0.12499867410E+03 0.  0.
          2    1    1    2  501    0  0.70454220184E+02 -0.74525258704E+02 -0.10887521856E+04  0.10935717320E+04  0.00000000000E+00 0. -1.
          1    1    1    2  502    0 -0.32698526121E+03  0.29398309150E+03  0.69363787514E+03  0.82126665644E+03  0.00000000000E+00 0. -1.
         22    1    3    3    0    0  0.10517778353E+03 -0.20829021052E+02  0.33931122251E+02  0.11246126144E+03  0.00000000000E+00 0.  1.
         22    1    3    3    0    0  0.15135325750E+03 -0.19862881174E+03  0.66441055073E+01  0.24981064338E+03  0.00000000000E+00 0.  1.
</event>
<event>
 7    1  0.3110367E-005  0.1664311E+03  0.7818608E-02  0.1254952E+00
          2   -1    0    0  502    0  0.00000000000E+00  0.00000000000E+00  0.26412265458E+04  0.26412265458E+04  0.00000000000E+00 0. -1.
          1   -1    0    0  501    0 -0.00000000000E+00 -0.00000000000E+00 -0.43740996114E+03  0.43740996114E+03  0.00000000000E+00 0. -1.
         25    2    1    2    0    0  0.12286712753E+03 -0.93452425195E+01 -0.21789737285E+03  0.27980053625E+03  0.12500164162E+03 0.  0.
          2    1    1    2  501    0  0.22107891270E+02 -0.73596131555E+02 -0.17793889488E+03  0.19382311458E+03  0.00000000000E+00 0. -1.
          1    1    1    2  502    0 -0.14497501880E+03  0.82941374075E+02  0.25996528523E+04  0.26050128561E+04  0.00000000000E+00 0. -1.
         22    1    3    3    0    0  0.10254758405E+03 -0.59591620304E+02 -0.17113036027E+03  0.20821327626E+03  0.00000000000E+00 0. -1.
         22    1    3    3    0    0  0.20319543479E+02  0.50246377785E+02 -0.46767012578E+02  0.71587259992E+02  0.00000000000E+00 0. -1.
</event>
<event>
 7    1  0.3110367E-005  0.1764585E+03  0.7818608E-02  0.1274373E+00
          2   -1    0    0  502    0  0.00000000000E+00  0.00000000000E+00  0.34902493085E+03  0.34902493085E+03  0.00000000000E+00 0. -1.
          1   -1    0    0  501    0 -0.00000000000E+00 -0.00000000000E+00 -0.36678528772E+03  0.36678528772E+03  0.00000000000E+00 0. -1.
         25    2    1    2    0    0 -0.33940283519E+02 -0.20233394285E+03  0.18890906959E+03  0.30561851732E+03  0.12500029711E+03 0.  0.
          2    1    1    2  501    0 -0.18481254276E+02  0.17320604931E+03 -0.27105724835E+03  0.32220168243E+03  0.00000000000E+00 0. -1.
          1    1    1    2  502    0  0.52421537795E+02  0.29127893532E+02  0.64387821885E+02  0.87990018828E+02  0.00000000000E+00 0. -1.
         22    1    3    3    0    0 -0.32969250548E+02 -0.65729334812E+02  0.14422284294E+03  0.16188744658E+03  0.00000000000E+00 0. -1.
         22    1    3    3    0    0 -0.97103297121E+00 -0.13660460803E+03  0.44686226657E+02  0.14373107073E+03  0.00000000000E+00 0. -1.
</event>
<event>
 7    1  0.3110367E-005  0.5834224E+03  0.7818608E-02  0.1246900E+00
          2   -1    0    0  502    0  0.00000000000E+00  0.00000000000E+00  0.21666052526E+04  0.21666052526E+04  0.00000000000E+00 0. -1.
          1   -1    0    0  501    0 -0.00000000000E+00 -0.00000000000E+00 -0.24276997643E+04  0.24276997643E+04  0.00000000000E+00 0. -1.
         25    2    1    2    0    0  0.52994333708E+03 -0.28210834876E+03  0.33490890280E+03  0.69872277827E+03  0.12499794692E+03 0.  0.
          2    1    1    2  501    0 -0.52083430720E+03  0.26016974763E+03 -0.22079714407E+04  0.22834391947E+04  0.00000000000E+00 0. -1.
          1    1    1    2  502    0 -0.91090298779E+01  0.21938601133E+02  0.16119680262E+04  0.16121430440E+04  0.00000000000E+00 0. -1.
         22    1    3    3    0    0  0.19490197476E+03 -0.45032714673E+02  0.79181554483E+02  0.21513819681E+03  0.00000000000E+00 0. -1.
         22    1    3    3    0    0  0.33504136232E+03 -0.23707563409E+03  0.25572734831E+03  0.48358458146E+03  0.00000000000E+00 0. -1.
</event>
<event>
 7    1  0.3110367E-005  0.3557974E+03  0.7818608E-02  0.1116204E+00
          2   -1    0    0  502    0  0.00000000000E+00  0.00000000000E+00  0.59825139649E+03  0.59825139649E+03  0.00000000000E+00 0. -1.
          1   -1    0    0  501    0 -0.00000000000E+00 -0.00000000000E+00 -0.11083747357E+04  0.11083747357E+04  0.00000000000E+00 0. -1.
         25    2    1    2    0    0 -0.25000436923E+03  0.20288016239E+03 -0.84441601239E+02  0.35555312207E+03  0.12500037469E+03 0.  0.
          2    1    1    2  501    0  0.94262436226E+02  0.14068864294E+03 -0.80114262846E+03  0.81884565839E+03  0.00000000000E+00 0. -1.
          1    1    1    2  502    0  0.15574193300E+03 -0.34356880532E+03  0.37546089047E+03  0.53222735175E+03  0.00000000000E+00 0. -1.
         22    1    3    3    0    0 -0.17429733719E+03  0.14181990412E+03  0.30559405997E+01  0.22472602371E+03  0.00000000000E+00 0. -1.
         22    1    3    3    0    0 -0.75707032032E+02  0.61060258266E+02 -0.87497541839E+02  0.13082709836E+03  0.00000000000E+00 0. -1.
</event>
<event>
 7    1  0.3110367E-005  0.5625096E+02  0.7818608E-02  0.1443588E+00
          2   -1    0    0  502    0  0.00000000000E+00  0.00000000000E+00  0.94446993033E+02  0.94446993033E+02  0.00000000000E+00 0. -1.
          1   -1    0    0  501    0 -0.00000000000E+00 -0.00000000000E+00 -0.11299150536E+04  0.11299150536E+04  0.00000000000E+00 0. -1.
         25    2    1    2    0    0 -0.32057839818E+02 -0.69585849288E+02 -0.53465363242E+02  0.15607045629E+03  0.12501818566E+03 0.  0.
          2    1    1    2  501    0  0.42183263697E+02  0.15745814714E+02 -0.10070480978E+04  0.10080541799E+04  0.00000000000E+00 0. -1.
          1    1    1    2  502    0 -0.10125423880E+02  0.53840034574E+02  0.25045400444E+02  0.60237410428E+02  0.00000000000E+00 0. -1.
         22    1    3    3    0    0 -0.45348929199E+02 -0.41212599019E+02 -0.89405884470E+02  0.10839010967E+03  0.00000000000E+00 0. -1.
         22    1    3    3    0    0  0.13291089381E+02 -0.28373250269E+02  0.35940521228E+02  0.47680346621E+02  0.00000000000E+00 0. -1.
</event>
<event>
 7    1  0.3110367E-005  0.1144061E+03  0.7818608E-02  0.1327770E+00
          2   -1    0    0  502    0  0.00000000000E+00  0.00000000000E+00  0.80630032924E+03  0.80630032924E+03  0.00000000000E+00 0. -1.
          1   -1    0    0  501    0 -0.00000000000E+00 -0.00000000000E+00 -0.33189411471E+03  0.33189411471E+03  0.00000000000E+00 0. -1.
         25    2    1    2    0    0  0.27252730270E+02 -0.77107467238E+02  0.23119144015E+03  0.27522758743E+03  0.12494987024E+03 0.  0.
          2    1    1    2  501    0 -0.27647293572E+02 -0.49361307811E+02 -0.29996730195E+03  0.30525611180E+03  0.00000000000E+00 0. -1.
          1    1    1    2  502    0  0.39456330201E+00  0.12646877505E+03  0.54318207633E+03  0.55771074473E+03  0.00000000000E+00 0. -1.
         22    1    3    3    0    0  0.74722424005E+02 -0.28456067766E+02  0.14354992535E+03  0.16431606589E+03  0.00000000000E+00 0. -1.
         22    1    3    3    0    0 -0.47469693735E+02 -0.48651399471E+02  0.87641514798E+02  0.11091152154E+03  0.00000000000E+00 0. -1.
</event>
<event>
 7    1  0.3110367E-005  0.1878026E+03  0.7818608E-02  0.1236064E+00
          2   -1    0    0  502    0  0.00000000000E+00  0.00000000000E+00  0.27747947222E+04  0.27747947222E+04  0.00000000000E+00 0. -1.
          1   -1    0    0  501    0 -0.00000000000E+00 -0.00000000000E+00 -0.98880317252E+02  0.98880317252E+02  0.00000000000E+00 0. -1.
         25    2    1    2    0    0  0.28853775324E+02 -0.13684892027E+03  0.72345673924E+03  0.74738041910E+03  0.12501067941E+03 0.  0.
          2    1    1    2  501    0 -0.35234792048E+02 -0.74438857736E+02 -0.60549190753E+02  0.10221956081E+03  0.00000000000E+00 0. -1.
          1    1    1    2  502    0  0.63810167240E+01  0.21128777801E+03  0.20130068565E+04  0.20240750595E+04  0.00000000000E+00 0. -1.
         22    1    3    3    0    0  0.46603683716E+02 -0.53801577983E+02  0.54633421088E+03  0.55095152519E+03  0.00000000000E+00 0. -1.
         22    1    3    3    0    0 -0.17749908393E+02 -0.83047342292E+02  0.17712252836E+03  0.19642889391E+03  0.00000000000E+00 0. -1.
</event>
<event>
 7    1  0.3110367E-005  0.1792601E+03  0.7818608E-02  0.1314909E+00
          2   -1    0    0  502    0  0.00000000000E+00  0.00000000000E+00  0.11310164436E+04  0.11310164436E+04  0.00000000000E+00 0. -1.
          1   -1    0    0  501    0 -0.00000000000E+00 -0.00000000000E+00 -0.14170391393E+04  0.14170391393E+04  0.00000000000E+00 0. -1.
         25    2    1    2    0    0  0.12911284746E+03 -0.70289877018E+02  0.15335559926E+03  0.24648835281E+03  0.12501109573E+03 0.  0.
          2    1    1    2  501    0  0.27266359603E+02 -0.29939791010E+02 -0.13609051792E+04  0.13615075293E+04  0.00000000000E+00 0. -1.
          1    1    1    2  502    0 -0.15637920706E+03  0.10022966803E+03  0.92152688421E+03  0.94005970081E+03  0.00000000000E+00 0. -1.
         22    1    3    3    0    0  0.10307388335E+03 -0.16285523384E+02  0.28798870173E+02  0.10825349243E+03  0.00000000000E+00 0. -1.
         22    1    3    3    0    0  0.26038964114E+02 -0.54004353635E+02  0.12455672909E+03  0.13823486038E+03  0.00000000000E+00 0. -1.
</event>
<event>
 7    1  0.3110367E-005  0.5130376E+03  0.7818608E-02  0.1044606E+00
          2   -1    0    0  502    0  0.00000000000E+00  0.00000000000E+00  0.21412945107E+04  0.21412945107E+04  0.00000000000E+00 0. -1.
          1   -1    0    0  501    0 -0.00000000000E+00 -0.00000000000E+00 -0.16883982592E+04  0.16883982592E+04  0.00000000000E+00 0. -1.
         25    2    1    2    0    0 -0.27483404295E+03  0.40201880250E+03 -0.91297816795E+03  0.10422613168E+04  0.12500659442E+03 0.  0.
          2    1    1    2  501    0  0.53582620053E+02 -0.61653867403E+03 -0.56146845077E+03  0.83560627987E+03  0.00000000000E+00 0. -1.
          1    1    1    2  502    0  0.22125142290E+03  0.21451987153E+03  0.19273428702E+04  0.19518251732E+04  0.00000000000E+00 0. -1.
         22    1    3    3    0    0 -0.94977760339E+02  0.10048315588E+03 -0.37669165191E+03  0.40126579744E+03  0.00000000000E+00 0.  1.
         22    1    3    3    0    0 -0.17985628261E+03  0.30153564661E+03 -0.53628651603E+03  0.64099551937E+03  0.00000000000E+00 0.  1.
</event>
<event>
 7    1  0.3110367E-005  0.9149147E+03  0.7818608E-02  0.1041728E+00
          2   -1    0    0  502    0  0.00000000000E+00  0.00000000000E+00  0.10026129877E+04  0.10026129877E+04  0.00000000000E+00 0. -1.
          1   -1    0    0  501    0 -0.00000000000E+00 -0.00000000000E+00 -0.24795059574E+04  0.24795059574E+04  0.00000000000E+00 0. -1.
         25    2    1    2    0    0 -0.82310100132E+03  0.94433800015E+02 -0.14360312292E+02  0.83799953924E+03  0.12499603283E+03 0.  0.
          2    1    1    2  501    0  0.90468908223E+03 -0.25504805360E+03 -0.19280456030E+04  0.21449642637E+04  0.00000000000E+00 0. -1.
          1    1    1    2  502    0 -0.81588080906E+02  0.16061425359E+03  0.46551294562E+03  0.49915514216E+03  0.00000000000E+00 0. -1.
         22    1    3    3    0    0 -0.56948886522E+03  0.28331172235E+02  0.35163244448E+02  0.57127635755E+03  0.00000000000E+00 0.  1.
         22    1    3    3    0    0 -0.25361213610E+03  0.66102627780E+02 -0.49523556740E+02  0.26672318169E+03  0.00000000000E+00 0.  1.
</event>
<event>
 7    1  0.3110367E-005  0.2890568E+03  0.7818608E-02  0.1270258E+00
          2   -1    0    0  502    0  0.00000000000E+00  0.00000000000E+00  0.82838028409E+02  0.82838028409E+02  0.00000000000E+00 0. -1.
          1   -1    0    0  501    0 -0.00000000000E+00 -0.00000000000E+00 -0.13042704801E+04  0.13042704801E+04  0.00000000000E+00 0. -1.
         25    2    1    2    0    0 -0.14075362868E+03 -0.24353948807E+03 -0.58344328750E+03  0.65966265166E+03  0.12500271212E+03 0.  0.
          2    1    1    2  501    0  0.24484229241E+02 -0.29178801147E+02 -0.16408132538E+03  0.16844453466E+03  0.00000000000E+00 0. -1.
          1    1    1    2  502    0  0.11626939944E+03  0.27271828921E+03 -0.47390783882E+03  0.55900132219E+03  0.00000000000E+00 0. -1.
         22    1    3    3    0    0  0.19547503846E+01  0.11696536681E+02 -0.49367154058E+02  0.50771506962E+02  0.00000000000E+00 0.  1.
         22    1    3    3    0    0 -0.14270837907E+03 -0.25523602475E+03 -0.53407613344E+03  0.60889114470E+03  0.00000000000E+00 0.  1.
</event>
<event>
 7    1  0.3110367E-005  0.1200685E+03  0.7818608E-02  0.1272044E+00
          2   -1    0    0  502    0  0.00000000000E+00  0.00000000000E+00  0.66786012633E+02  0.66786012633E+02  0.00000000000E+00 0. -1.
          1   -1    0    0  501    0 -0.00000000000E+00 -0.00000000000E+00 -0.37323746127E+04  0.37323746127E+04  0.00000000000E+00 0. -1.
         25    2    1    2    0    0 -0.15218475341E+03  0.10453068070E+03 -0.58343893084E+03  0.62458997328E+03  0.12499914533E+03 0.  0.
          2    1    1    2  501    0  0.89637571405E+02 -0.94303947839E+01 -0.30565800417E+04  0.30579086608E+04  0.00000000000E+00 0. -1.
          1    1    1    2  502    0  0.62547182008E+02 -0.95100285914E+02 -0.25569627591E+02  0.11666199130E+03  0.00000000000E+00 0. -1.
         22    1    3    3    0    0 -0.94439620318E+02  0.48824164062E+02 -0.15040511643E+03  0.18418561271E+03  0.00000000000E+00 0. -1.
         22    1    3    3    0    0 -0.57745133096E+02  0.55706516636E+02 -0.43303381440E+03  0.44040436057E+03  0.00000000000E+00 0. -1.
</event>
<event>
 7    1  0.3110367E-005  0.1261953E+03  0.7818608E-02  0.1237720E+00
          2   -1    0    0  502    0  0.00000000000E+00  0.00000000000E+00  0.18485143755E+03  0.18485143755E+03  0.00000000000E+00 0. -1.
          1   -1    0    0  501    0 -0.00000000000E+00 -0.00000000000E+00 -0.19053475533E+04  0.19053475533E+04  0.00000000000E+00 0. -1.
         25    2    1    2    0    0 -0.15992299447E+03  0.14663509118E+03 -0.14736470562E+03  0.29054932624E+03  0.12500136155E+03 0.  0.
          2    1    1    2  501    0  0.11947314846E+03 -0.33118592712E+02 -0.16513401350E+04  0.16559875954E+04  0.00000000000E+00 0. -1.
          1    1    1    2  502    0  0.40449846001E+02 -0.11351649847E+03  0.78208724968E+02  0.14366206920E+03  0.00000000000E+00 0. -1.
         22    1    3    3    0    0 -0.77912099239E+02  0.14738513603E+03 -0.11424318038E+03  0.20209942552E+03  0.00000000000E+00 0.  1.
         22    1    3    3    0    0 -0.82010895226E+02 -0.75004485355E+00 -0.33121525240E+02  0.88449900720E+02  0.00000000000E+00 0.  1.
</event>
<event>
 7    1  0.3110367E-005  0.3823655E+02  0.7818608E-02  0.1543518E+00
          2   -1    0    0  502    0  0.00000000000E+00  0.00000000000E+00  0.19440848404E+04  0.19440848404E+04  0.00000000000E+00 0. -1.
          1   -1    0    0  501    0 -0.00000000000E+00 -0.00000000000E+00 -0.10189839764E+03  0.10189839764E+03  0.00000000000E+00 0. -1.
         25    2    1    2    0    0 -0.69711008576E+02  0.43194998060E+00  0.14154406259E+03  0.20129503313E+03  0.12500062964E+03 0.  0.
          2    1    1    2  501    0  0.32299946745E+02 -0.72618051391E+01 -0.68003265757E+02  0.75633752566E+02  0.00000000000E+00 0. -1.
          1    1    1    2  502    0  0.37411061831E+02  0.68298551585E+01  0.17686456459E+04  0.17690544524E+04  0.00000000000E+00 0. -1.
         22    1    3    3    0    0 -0.17892231377E+02 -0.54201504565E+02  0.10039334299E+03  0.11548488368E+03  0.00000000000E+00 0. -1.
         22    1    3    3    0    0 -0.51818777199E+02  0.54633454545E+02  0.41150719600E+02  0.85810149455E+02  0.00000000000E+00 0. -1.
</event>
<event>
 7    1  0.3110367E-005  0.2339019E+03  0.7818608E-02  0.1217286E+00
          2   -1    0    0  502    0  0.00000000000E+00  0.00000000000E+00  0.91539633961E+03  0.91539633961E+03  0.00000000000E+00 0. -1.
          1   -1    0    0  501    0 -0.00000000000E+00 -0.00000000000E+00 -0.65574887745E+03  0.65574887745E+03  0.00000000000E+00 0. -1.
         25    2    1    2    0    0  0.25841527440E+03 -0.98758712485E+02  0.75776337814E+03  0.81630995013E+03  0.12499944041E+03 0.  0.
          2    1    1    2  501    0 -0.23183247435E+03  0.22923392150E+02 -0.58907236851E+03  0.63346510039E+03  0.00000000000E+00 0. -1.
          1    1    1    2  502    0 -0.26582800051E+02  0.75835320335E+02  0.90956452536E+02  0.12137016654E+03  0.00000000000E+00 0. -1.
         22    1    3    3    0    0  0.23196094568E+03 -0.11060534292E+03  0.55649412238E+03  0.61296421629E+03  0.00000000000E+00 0.  1.
         22    1    3    3    0    0  0.26454328720E+02  0.11846630432E+02  0.20126925575E+03  0.20334573384E+03  0.00000000000E+00 0.  1.
</event>
<event>
 7    1  0.3110367E-005  0.2582113E+03  0.7818608E-02  0.1338484E+00
          2   -1    0    0  502    0  0.00000000000E+00  0.00000000000E+00  0.92934449426E+03  0.92934449426E+03  0.00000000000E+00 0. -1.
          1   -1    0    0  501    0 -0.00000000000E+00 -0.00000000000E+00 -0.23065685793E+03  0.23065685793E+03  0.00000000000E+00 0. -1.
         25    2    1    2    0    0  0.15031723572E+03 -0.20596098617E+03  0.63197106877E+03  0.69283796759E+03  0.12498727292E+03 0.  0.
          2    1    1    2  501    0 -0.10653305755E+02 -0.20184412549E+02 -0.13284369248E+03  0.13479002213E+03  0.00000000000E+00 0. -1.
          1    1    1    2  502    0 -0.13966392997E+03  0.22614539872E+03  0.19956026003E+03  0.33237336247E+03  0.00000000000E+00 0. -1.
         22    1    3    3    0    0  0.17925396692E+01  0.94875758610E+01  0.94165253289E+00  0.97012372240E+01  0.00000000000E+00 0.  1.
         22    1    3    3    0    0  0.14852469605E+03 -0.21544856203E+03  0.63102941624E+03  0.68313673037E+03  0.00000000000E+00 0.  1.
</event>
<event>
 7    1  0.3110367E-005  0.5316028E+03  0.7818608E-02  0.1037669E+00
          2   -1    0    0  502    0  0.00000000000E+00  0.00000000000E+00  0.39042579313E+04  0.39042579313E+04  0.00000000000E+00 0. -1.
          1   -1    0    0  501    0 -0.00000000000E+00 -0.00000000000E+00 -0.27081128799E+04  0.27081128799E+04  0.00000000000E+00 0. -1.
         25    2    1    2    0    0 -0.23065851077E+03 -0.55023424585E+03 -0.24300396154E+04  0.25053300964E+04  0.12500114342E+03 0.  0.
          2    1    1    2  501    0 -0.25021255757E+02  0.34332445547E+03 -0.10615884449E+03  0.36023248775E+03  0.00000000000E+00 0. -1.
          1    1    1    2  502    0  0.25567976653E+03  0.20690979038E+03  0.37323435112E+04  0.37468082270E+04  0.00000000000E+00 0. -1.
         22    1    3    3    0    0 -0.42910292686E+02 -0.24778350267E+03 -0.11102988757E+04  0.11384206388E+04  0.00000000000E+00 0.  1.
         22    1    3    3    0    0 -0.18774821808E+03 -0.30245074318E+03 -0.13197407397E+04  0.13669094577E+04  0.00000000000E+00 0.  1.
</event>
<event>
 7    1  0.3110367E-005  0.2929401E+03  0.7818608E-02  0.1204023E+00
          2   -1    0    0  502    0  0.00000000000E+00  0.00000000000E+00  0.59050855254E+03  0.59050855254E+03  0.00000000000E+00 0. -1.
          1   -1    0    0  501    0 -0.00000000000E+00 -0.00000000000E+00 -0.20255410588E+04  0.20255410588E+04  0.00000000000E+00 0. -1.
         25    2    1    2    0    0 -0.31344688459E+03  0.97235337341E+02 -0.13464277170E+04  0.13914727127E+04  0.12500021209E+03 0.  0.
          2    1    1    2  501    0  0.24303364598E+03 -0.74759661321E+02 -0.62936477005E+03  0.67878890225E+03  0.00000000000E+00 0. -1.
          1    1    1    2  502    0  0.70413238611E+02 -0.22475676020E+02  0.54075998075E+03  0.54578799635E+03  0.00000000000E+00 0. -1.
         22    1    3    3    0    0 -0.27141995188E+03  0.53405943591E+02 -0.12232897903E+04  0.12541765810E+04  0.00000000000E+00 0.  1.
         22    1    3    3    0    0 -0.42026932706E+02  0.43829393750E+02 -0.12313792664E+03  0.13729613179E+03  0.00000000000E+00 0.  1.
</event>
<event>
 7    1  0.3110367E-005  0.1196771E+03  0.7818608E-02  0.1269319E+00
          2   -1    0    0  502    0  0.00000000000E+00  0.00000000000E+00  0.86027730559E+02  0.86027730559E+02  0.00000000000E+00 0. -1.
          1   -1    0    0  501    0 -0.00000000000E+00 -0.00000000000E+00 -0.19451157917E+04  0.19451157917E+04  0.00000000000E+00 0. -1.
         25    2    1    2    0    0 -0.10515123779E+03 -0.88271588888E+02 -0.37167717569E+03  0.41547250231E+03  0.12499928414E+03 0.  0.
          2    1    1    2  501    0 -0.16329053092E+02  0.91391422797E+02 -0.14912043187E+04  0.14940914798E+04  0.00000000000E+00 0. -1.
          1    1    1    2  502    0  0.12148029088E+03 -0.31198339087E+01  0.37934332184E+01  0.12157954010E+03  0.00000000000E+00 0. -1.
         22    1    3    3    0    0 -0.88880697461E+02 -0.10903442524E+03 -0.21730223764E+03  0.25886009107E+03  0.00000000000E+00 0. -1.
         22    1    3    3    0    0 -0.16270540325E+02  0.20762836347E+02 -0.15437493805E+03  0.15661241124E+03  0.00000000000E+00 0. -1.
</event>
<event>
 7    1  0.3110367E-005  0.2065080E+03  0.7818608E-02  0.1162950E+00
          2   -1    0    0  502    0  0.00000000000E+00  0.00000000000E+00  0.23364709922E+03  0.23364709922E+03  0.00000000000E+00 0. -1.
          1   -1    0    0  501    0 -0.00000000000E+00 -0.00000000000E+00 -0.71731094002E+03  0.71731094002E+03  0.00000000000E+00 0. -1.
         25    2    1    2    0    0 -0.19115386752E+02  0.99420886597E+02  0.13583723711E+03  0.21053882683E+03  0.12499972766E+03 0.  0.
          2    1    1    2  501    0 -0.10385457568E+03 -0.21081827246E+03 -0.30728240686E+03  0.38684957601E+03  0.00000000000E+00 0. -1.
          1    1    1    2  502    0  0.12296996243E+03  0.11139738586E+03 -0.31221867105E+03  0.35356963641E+03  0.00000000000E+00 0. -1.
         22    1    3    3    0    0  0.37214943891E+02  0.79477309899E+02  0.12009625079E+03  0.14874375379E+03  0.00000000000E+00 0.  1.
         22    1    3    3    0    0 -0.56330330642E+02  0.19943576698E+02  0.15740986323E+02  0.61795073042E+02  0.00000000000E+00 0.  1.
</event>
<event>
 7    1  0.3110367E-005  0.1638241E+03  0.7818608E-02  0.1219108E+00
          2   -1    0    0  502    0  0.00000000000E+00  0.00000000000E+00  0.27235029847E+03  0.27235029847E+03  0.00000000000E+00 0. -1.
          1   -1    0    0  501    0 -0.00000000000E+00 -0.00000000000E+00 -0.17129426696E+04  0.17129426696E+04  0.00000000000E+00 0. -1.
         25    2    1    2    0    0 -0.41331737301E+02  0.97511854798E+02 -0.41375499682E+03  0.44500972666E+03  0.12499434026E+03 0.  0.
          2    1    1    2  501    0  0.92778826191E+02  0.63721925647E+02 -0.12528676421E+04  0.12579132414E+04  0.00000000000E+00 0. -1.
          1    1    1    2  502    0 -0.51447088891E+02 -0.16123378045E+03  0.22603026780E+03  0.28236999995E+03  0.00000000000E+00 0. -1.
         22    1    3    3    0    0 -0.59872245746E+02  0.36469272869E+01 -0.96334129291E+02  0.11348237905E+03  0.00000000000E+00 0.  1.
         22    1    3    3    0    0  0.18540508446E+02  0.93864927511E+02 -0.31742086753E+03  0.33152734761E+03  0.00000000000E+00 0.  1.
</event>
<event>
 7    1  0.3110367E-005  0.4025620E+02  0.7818608E-02  0.1548318E+00
          2   -1    0    0  502    0  0.00000000000E+00  0.00000000000E+00  0.61064362404E+02  0.61064362404E+02  0.00000000000E+00 0. -1.
          1   -1    0    0  501    0 -0.00000000000E+00 -0.00000000000E+00 -0.17548412277E+04  0.17548412277E+04  0.00000000000E+00 0. -1.
         25    2    1    2    0    0 -0.32777177686E+02  0.61136197389E+02 -0.25072975426E+03  0.28862190615E+03  0.12500086811E+03 0.  0.
          2    1    1    2  501    0  0.17524222511E+02 -0.24945292795E+02 -0.14758182644E+04  0.14761330954E+04  0.00000000000E+00 0. -1.
          1    1    1    2  502    0  0.15252955176E+02 -0.36190904594E+02  0.32771153322E+02  0.51150588530E+02  0.00000000000E+00 0. -1.
         22    1    3    3    0    0 -0.24504056966E+02  0.12025339762E+02 -0.23473058737E+03  0.23631230660E+03  0.00000000000E+00 0.  1.
         22    1    3    3    0    0 -0.82731207208E+01  0.49110857627E+02 -0.15999166890E+02  0.52309599544E+02  0.00000000000E+00 0.  1.
</event>
<event>
 7    1  0.3110367E-005  0.5619778E+02  0.7818608E-02  0.1515143E+00
          2   -1    0    0  502    0  0.00000000000E+00  0.00000000000E+00  0.20790683950E+03  0.20790683950E+03  0.00000000000E+00 0. -1.
          1   -1    0    0  501    0 -0.00000000000E+00 -0.00000000000E+00 -0.41998835016E+03  0.41998835016E+03  0.00000000000E+00 0. -1.
         25    2    1    2    0    0 -0.13780471829E+02  0.33079351014E+02 -0.11238569645E+03  0.17187231083E+03  0.12500160637E+03 0.  0.
          2    1    1    2  501    0  0.13011865299E+02  0.23848408975E+02 -0.27261860280E+03  0.27396889940E+03  0.00000000000E+00 0. -1.
          1    1    1    2  502    0  0.76860652999E+00 -0.56927759989E+02  0.17292278858E+03  0.18205397943E+03  0.00000000000E+00 0. -1.
         22    1    3    3    0    0  0.79355870307E+01  0.32917259538E+02  0.18916721454E+02  0.38786104053E+02  0.00000000000E+00 0. -1.
         22    1    3    3    0    0 -0.21716058859E+02  0.16209147656E+00 -0.13130241790E+03  0.13308620677E+03  0.00000000000E+00 0. -1.
</event>
<event>
 7    1  0.3110367E-005  0.2918916E+03  0.7818608E-02  0.1279678E+00
          2   -1    0    0  502    0  0.00000000000E+00  0.00000000000E+00  0.78918111597E+03  0.78918111597E+03  0.00000000000E+00 0. -1.
          1   -1    0    0  501    0 -0.00000000000E+00 -0.00000000000E+00 -0.18708317758E+03  0.18708317758E+03  0.00000000000E+00 0. -1.
         25    2    1    2    0    0 -0.21307325495E+02  0.26484204438E+03  0.37107222215E+02  0.29596907616E+03  0.12500175003E+03 0.  0.
          2    1    1    2  501    0  0.50896354326E+01  0.34083351493E+02 -0.65693395479E+01  0.35081839460E+02  0.00000000000E+00 0. -1.
          1    1    1    2  502    0  0.16217690063E+02 -0.29892539587E+03  0.57156005572E+03  0.64521337794E+03  0.00000000000E+00 0. -1.
         22    1    3    3    0    0 -0.64366369761E+02  0.13365490482E+03 -0.13395004630E+02  0.14894995565E+03  0.00000000000E+00 0.  1.
         22    1    3    3    0    0  0.43059044266E+02  0.13118713956E+03  0.50502226845E+02  0.14701912051E+03  0.00000000000E+00 0.  1.
</event>
<event>
 7    1  0.3110367E-005  0.1614074E+03  0.7818608E-02  0.1281330E+00
          2   -1    0    0  502    0  0.00000000000E+00  0.00000000000E+00  0.14388076280E+04  0.14388076280E+04  0.00000000000E+00 0. -1.
          1   -1    0    0  501    0 -0.00000000000E+00 -0.00000000000E+00 -0.72255322344E+03  0.72255322344E+03  0.00000000000E+00 0. -1.
         25    2    1    2    0    0 -0.19338505409E+03  0.99616573621E+02  0.23789170915E+02  0.25201604094E+03  0.12499967740E+03 0.  0.
          2    1    1    2  501    0  0.59943783943E+02 -0.13057270803E+02 -0.60201318345E+03  0.60513107886E+03  0.00000000000E+00 0. -1.
          1    1    1    2  502    0  0.13344127015E+03 -0.86559302818E+02  0.12944784171E+04  0.13042137316E+04  0.00000000000E+00 0. -1.
         22    1    3    3    0    0 -0.13756541089E+02 -0.27016023323E+02 -0.36351949349E+01  0.30533957836E+02  0.00000000000E+00 0.  1.
         22    1    3    3    0    0 -0.17962851301E+03  0.12663259694E+03  0.27424365850E+02  0.22148208310E+03  0.00000000000E+00 0.  1.
</event>
<event>
 7    1  0.3110367E-005  0.9428710E+02  0.7818608E-02  0.1379123E+00
          2   -1    0    0  502    0  0.00000000000E+00  0.00000000000E+00  0.61896070565E+03  0.61896070565E+03  0.00000000000E+00 0. -1.
          1   -1    0    0  501    0 -0.00000000000E+00 -0.00000000000E+00 -0.12555607447E+03  0.12555607447E+03  0.00000000000E+00 0. -1.
         25    2    1    2    0    0  0.55908063638E+02 -0.27620059836E+02  0.12227746360E+03  0.18564661707E+03  0.12499723613E+03 0.  0.
          2    1    1    2  501    0 -0.98934028459E+02  0.16699249036E+02 -0.65611139589E+02  0.11988172731E+03  0.00000000000E+00 0. -1.
          1    1    1    2  502    0  0.43025964821E+02  0.10920810800E+02  0.43673830718E+03  0.43898843574E+03  0.00000000000E+00 0. -1.
         22    1    3    3    0    0  0.69606379467E+02  0.33341927269E+02  0.69372174924E+02  0.10377490463E+03  0.00000000000E+00 0. -1.
         22    1    3    3    0    0 -0.13698315829E+02 -0.60961987105E+02  0.52905288672E+02  0.81871712440E+02  0.00000000000E+00 0. -1.
</event>
<event>
 7    1  0.3110367E-005  0.5969057E+02  0.7818608E-02  0.1444415E+00
          2   -1    0    0  502    0  0.00000000000E+00  0.00000000000E+00  0.23549438966E+04  0.23549438966E+04  0.00000000000E+00 0. -1.
          1   -1    0    0  501    0 -0.00000000000E+00 -0.00000000000E+00 -0.45482991520E+03  0.45482991520E+03  0.00000000000E+00 0. -1.
         25    2    1    2    0    0  0.98362952757E+02  0.27545043033E+01  0.20160958224E+03  0.25681250428E+03  0.12499352356E+03 0.  0.
          2    1    1    2  501    0 -0.58391038916E+02  0.10687969416E+02 -0.42495610229E+03  0.42908208421E+03  0.00000000000E+00 0. -1.
          1    1    1    2  502    0 -0.39971913842E+02 -0.13442473719E+02  0.21234605014E+04  0.21238792233E+04  0.00000000000E+00 0. -1.
         22    1    3    3    0    0  0.11748376255E+03 -0.78071343321E+01  0.10498813870E+03  0.15775263889E+03  0.00000000000E+00 0. -1.
         22    1    3    3    0    0 -0.19120809797E+02  0.10561638635E+02  0.96621443539E+02  0.99059865382E+02  0.00000000000E+00 0. -1.
</event>
<event>
 7    1  0.3110367E-005  0.3689279E+03  0.7818608E-02  0.1161366E+00
          2   -1    0    0  502    0  0.00000000000E+00  0.00000000000E+00  0.19871404186E+04  0.19871404186E+04  0.00000000000E+00 0. -1.
          1   -1    0    0  501    0 -0.00000000000E+00 -0.00000000000E+00 -0.15273301046E+04  0.15273301046E+04  0.00000000000E+00 0. -1.
         25    2    1    2    0    0 -0.30080076763E+03  0.19420599548E+02 -0.23102634148E+03  0.39982161780E+03  0.12500357639E+03 0.  0.
          2    1    1    2  501    0  0.39239727689E+03 -0.43058429773E+02 -0.11785328164E+04  0.12428874650E+04  0.00000000000E+00 0. -1.
          1    1    1    2  502    0 -0.91596509261E+02  0.23637830225E+02  0.18693694719E+04  0.18717614404E+04  0.00000000000E+00 0. -1.
         22    1    3    3    0    0 -0.11325752794E+03  0.65736176661E+02 -0.70940817014E+02  0.14893324705E+03  0.00000000000E+00 0. -1.
         22    1    3    3    0    0 -0.18754323968E+03 -0.46315577113E+02 -0.16008552447E+03  0.25088837075E+03  0.00000000000E+00 0. -1.
</event>
<event>
 7    1  0.3110367E-005  0.6135858E+03  0.7818608E-02  0.1179534E+00
          2   -1    0    0  502    0  0.00000000000E+00  0.00000000000E+00  0.37117307574E+04  0.37117307574E+04  0.00000000000E+00 0. -1.
          1   -1    0    0  501    0 -0.00000000000E+00 -0.00000000000E+00 -0.33479395222E+03  0.33479395222E+03  0.00000000000E+00 0. -1.
         25    2    1    2    0    0 -0.40753863922E+03 -0.47959441703E+03  0.10569699941E+04  0.12364906567E+04  0.12500011312E+03 0.  0.
          2    1    1    2  501    0 -0.15604655457E+02  0.43499831519E+02 -0.20645595925E+03  0.21156512880E+03  0.00000000000E+00 0. -1.
          1    1    1    2  502    0  0.42314329468E+03  0.43609458551E+03  0.25264227703E+04  0.25984689242E+04  0.00000000000E+00 0. -1.
         22    1    3    3    0    0 -0.32812035041E+03 -0.36206008732E+03  0.71241110705E+03  0.86387502374E+03  0.00000000000E+00 0.  1.
         22    1    3    3    0    0 -0.79418288811E+02 -0.11753432972E+03  0.34455888704E+03  0.37261563292E+03  0.00000000000E+00 0.  1.
</event>
<event>
 7    1  0.3110367E-005  0.1124999E+03  0.7818608E-02  0.1274245E+00
          2   -1    0    0  502    0  0.00000000000E+00  0.00000000000E+00  0.36513829836E+04  0.36513829836E+04  0.00000000000E+00 0. -1.
          1   -1    0    0  501    0 -0.00000000000E+00 -0.00000000000E+00 -0.33044209460E+03  0.33044209460E+03  0.00000000000E+00 0. -1.
         25    2    1    2    0    0 -0.48681927038E+02 -0.14802891673E+03  0.10888618723E+04  0.11070356010E+04  0.12500061839E+03 0.  0.
          2    1    1    2  501    0 -0.41482721587E+02  0.84552981073E+02 -0.31323534209E+03  0.32708775937E+03  0.00000000000E+00 0. -1.
          1    1    1    2  502    0  0.90164648625E+02  0.63475935652E+02  0.25453143588E+04  0.25477017179E+04  0.00000000000E+00 0. -1.
         22    1    3    3    0    0 -0.77042055261E+02 -0.15190848260E+03  0.96427969155E+03  0.97920732682E+03  0.00000000000E+00 0. -1.
         22    1    3    3    0    0  0.28360128223E+02  0.38795658791E+01  0.12458218079E+03  0.12782827416E+03  0.00000000000E+00 0. -1.
</event>
<event>
 7    1  0.3110367E-005  0.7468207E+02  0.7818608E-02  0.1373129E+00
          2   -1    0    0  502    0  0.00000000000E+00  0.00000000000E+00  0.31761026232E+03  0.31761026232E+03  0.00000000000E+00 0. -1.
          1   -1    0    0  501    0 -0.00000000000E+00 -0.00000000000E+00 -0.57361206581E+03  0.57361206581E+03  0.00000000000E+00 0. -1.
         25    2    1    2    0    0  0.20490327008E+02 -0.32527016551E+02 -0.59340579842E+02  0.14363533632E+03  0.12502777738E+03 0.  0.
          2    1    1    2  501    0 -0.41345934368E+02 -0.41903347754E+02 -0.46480831427E+03  0.46852123309E+03  0.00000000000E+00 0. -1.
          1    1    1    2  502    0  0.20855607360E+02  0.74430364305E+02  0.26814709062E+03  0.27906575873E+03  0.00000000000E+00 0. -1.
         22    1    3    3    0    0  0.18197686479E+02 -0.25456979757E+02  0.36174773102E+02  0.47831243142E+02  0.00000000000E+00 0. -1.
         22    1    3    3    0    0  0.22926405293E+01 -0.70700367937E+01 -0.95515352945E+02  0.95804093175E+02  0.00000000000E+00 0. -1.
</event>
<event>
 7    1  0.3110367E-005  0.1042555E+03  0.7818608E-02  0.1357719E+00
          2   -1    0    0  502    0  0.00000000000E+00  0.00000000000E+00  0.43292989263E+02  0.43292989263E+02  0.00000000000E+00 0. -1.
          1   -1    0    0  501    0 -0.00000000000E+00 -0.00000000000E+00 -0.68082028160E+03  0.68082028160E+03  0.00000000000E+00 0. -1.
         25    2    1    2    0    0 -0.16808109836E+02  0.78226919484E+02 -0.25058217675E+03  0.29123564737E+03  0.12499924603E+03 0.  0.
          2    1    1    2  501    0 -0.12697591723E+02 -0.11602193912E+03 -0.35873959901E+03  0.37724848455E+03  0.00000000000E+00 0. -1.
          1    1    1    2  502    0  0.29505701559E+02  0.37795019641E+02 -0.28205516568E+02  0.55629138938E+02  0.00000000000E+00 0. -1.
         22    1    3    3    0    0  0.29595451656E+02  0.94319598971E+00 -0.16259129436E+03  0.16526557228E+03  0.00000000000E+00 0.  1.
         22    1    3    3    0    0 -0.46403561492E+02  0.77283723494E+02 -0.87990882389E+02  0.12597007510E+03  0.00000000000E+00 0.  1.
</event>
<event>
 7    1  0.3110367E-005  0.7918761E+02  0.7818608E-02  0.1454447E+00
          2   -1    0    0  502    0  0.00000000000E+00  0.00000000000E+00  0.50232699441E+03  0.50232699441E+03  0.00000000000E+00 0. -1.
          1   -1    0    0  501    0 -0.00000000000E+00 -0.00000000000E+00 -0.12597887368E+04  0.12597887368E+04  0.00000000000E+00 0. -1.
         25    2    1    2    0    0  0.72632642807E+02 -0.42304303453E+02  0.70258349249E+02  0.16621046690E+03  0.12499811509E+03 0.  0.
          2    1    1    2  501    0 -0.78069617745E+02  0.13287298164E+02 -0.12099490657E+04  0.12125379001E+04  0.00000000000E+00 0. -1.
          1    1    1    2  502    0  0.54369749385E+01  0.29017005289E+02  0.38222897410E+03  0.38336736420E+03  0.00000000000E+00 0. -1.
         22    1    3    3    0    0  0.10702999049E+03 -0.35359393374E+02  0.66610339370E+02  0.13092991589E+03  0.00000000000E+00 0. -1.
         22    1    3    3    0    0 -0.34397347681E+02 -0.69449100791E+01  0.36480098790E+01  0.35280551010E+02  0.00000000000E+00 0. -1.
</event>
<event>
 7    1  0.3110367E-005  0.1166679E+03  0.7818608E-02  0.1264257E+00
          2   -1    0    0  502    0  0.00000000000E+00  0.00000000000E+00  0.14583159366E+04  0.14583159366E+04  0.00000000000E+00 0. -1.
          1   -1    0    0  501    0 -0.00000000000E+00 -0.00000000000E+00 -0.82489513800E+02  0.82489513800E+02  0.00000000000E+00 0. -1.
         25    2    1    2    0    0  0.98926494452E+02 -0.26109793179E+02  0.23774508783E+03  0.28743271853E+03  0.12500667298E+03 0.  0.
          2    1    1    2  501    0 -0.10643947403E+03 -0.73644077825E+02  0.20170442886E+02  0.13099488004E+03  0.00000000000E+00 0. -1.
          1    1    1    2  502    0  0.75129795758E+01  0.99753871005E+02  0.11179108921E+04  0.11223778519E+04  0.00000000000E+00 0. -1.
         22    1    3    3    0    0  0.41449762869E+01  0.32358632521E+02  0.12410915433E+03  0.12832514997E+03  0.00000000000E+00 0.  1.
         22    1    3    3    0    0  0.94781518165E+02 -0.58468425700E+02  0.11363593350E+03  0.15910756856E+03  0.00000000000E+00 0.  1.
</event>
<event>
 7    1  0.3110367E-005  0.1676386E+03  0.7818608E-02  0.1295476E+00
          2   -1    0    0  502    0  0.00000000000E+00  0.00000000000E+00  0.47215547128E+03  0.47215547128E+03  0.00000000000E+00 0. -1.
          1   -1    0    0  501    0 -0.00000000000E+00 -0.00000000000E+00 -0.19591540388E+04  0.19591540388E+04  0.00000000000E+00 0. -1.
         25    2    1    2    0    0  0.14120239001E+03  0.11945788137E+03 -0.34916889961E+02  0.22594650052E+03  0.12499732607E+03 0.  0.
          2    1    1    2  501    0  0.99730137120E+01 -0.50751587742E+02 -0.18100319944E+04  0.18107708318E+04  0.00000000000E+00 0. -1.
          1    1    1    2  502    0 -0.15117540372E+03 -0.68706293625E+02  0.35795031679E+03  0.39459217778E+03  0.00000000000E+00 0. -1.
         22    1    3    3    0    0  0.79314536471E+02  0.81505236554E+02 -0.81297899770E+02  0.13979716660E+03  0.00000000000E+00 0. -1.
         22    1    3    3    0    0  0.61887853539E+02  0.37952644813E+02  0.46381009809E+02  0.86149333920E+02  0.00000000000E+00 0. -1.
</event>
<event>
 7    1  0.3110367E-005  0.7816596E+02  0.7818608E-02  0.1337607E+00
          2   -1    0    0  502    0  0.00000000000E+00  0.00000000000E+00  0.31317520878E+04  0.31317520878E+04  0.00000000000E+00 0. -1.
          1   -1    0    0  501    0 -0.00000000000E+00 -0.00000000000E+00 -0.21582299650E+02  0.21582299650E+02  0.00000000000E+00 0. -1.
         25    2    1    2    0    0  0.70455314133E+02  0.50631061119E+01  0.16055023218E+04  0.16119094989E+04  0.12499976378E+03 0.  0.
          2    1    1    2  501    0 -0.35317069868E+02 -0.72419012709E+02  0.76067850902E+02  0.11080670903E+03  0.00000000000E+00 0. -1.
          1    1    1    2  502    0 -0.35138244265E+02  0.67355906597E+02  0.14285996154E+04  0.14306181795E+04  0.00000000000E+00 0. -1.
         22    1    3    3    0    0 -0.10717255648E+01 -0.34193842784E+02  0.13932495813E+03  0.14346362410E+03  0.00000000000E+00 0.  1.
         22    1    3    3    0    0  0.71527039698E+02  0.39256948896E+02  0.14661773637E+04  0.14684458748E+04  0.00000000000E+00 0.  1.
</event>
<event>
 7    1  0.3110367E-005  0.1681375E+03  0.7818608E-02  0.1360313E+00
          2   -1    0    0  502    0  0.00000000000E+00  0.00000000000E+00  0.56617200685E+03  0.56617200685E+03  0.00000000000E+00 0. -1.
          1   -1    0    0  501    0 -0.00000000000E+00 -0.00000000000E+00 -0.18771198371E+04  0.18771198371E+04  0.00000000000E+00 0. -1.
         25    2    1    2    0    0  0.14856997579E+03  0.97050853764E+01 -0.95876584964E+03  0.97827632227E+03  0.12500152753E+03 0.  0.
          2    1    1    2  501    0  0.19413855656E+02 -0.21662556958E+02 -0.89561426362E+03  0.89608653230E+03  0.00000000000E+00 0. -1.
          1    1    1    2  502    0 -0.16798383144E+03  0.11957471581E+02  0.54343228300E+03  0.56892898938E+03  0.00000000000E+00 0. -1.
         22    1    3    3    0    0  0.51830161702E+02  0.20982481018E+01 -0.69990964659E+03  0.70182923970E+03  0.00000000000E+00 0.  1.
         22    1    3    3    0    0  0.96739814087E+02  0.76068372746E+01 -0.25885620305E+03  0.27644708257E+03  0.00000000000E+00 0.  1.
</event>
<event>
 7    1  0.3110367E-005  0.2497098E+03  0.7818608E-02  0.1242948E+00
          2   -1    0    0  502    0  0.00000000000E+00  0.00000000000E+00  0.10313579755E+04  0.10313579755E+04  0.00000000000E+00 0. -1.
          1   -1    0    0  501    0 -0.00000000000E+00 -0.00000000000E+00 -0.18322689925E+04  0.18322689925E+04  0.00000000000E+00 0. -1.
         25    2    1    2    0    0 -0.17722426848E+03 -0.17471076855E+03  0.46533024590E+03  0.54230010512E+03  0.12499948908E+03 0.  0.
          2    1    1    2  501    0  0.13280229554E+03  0.21161880968E+03 -0.17834697067E+04  0.18008839955E+04  0.00000000000E+00 0. -1.
          1    1    1    2  502    0  0.44421972943E+02 -0.36908041123E+02  0.51722844381E+03  0.52044286744E+03  0.00000000000E+00 0. -1.
         22    1    3    3    0    0 -0.12404034193E+03 -0.18587821398E+03  0.35854570624E+03  0.42248282843E+03  0.00000000000E+00 0. -1.
         22    1    3    3    0    0 -0.53183926551E+02  0.11167445426E+02  0.10678453967E+03  0.11981727669E+03  0.00000000000E+00 0. -1.
</event>
<event>
 7    1  0.3110367E-005  0.4257364E+02  0.7818608E-02  0.1572877E+00
          2   -1    0    0  502    0  0.00000000000E+00  0.00000000000E+00  0.15696211976E+04  0.15696211976E+04  0.00000000000E+00 0. -1.
          1   -1    0    0  501    0 -0.00000000000E+00 -0.00000000000E+00 -0.55506268805E+03  0.55506268805E+03  0.00000000000E+00 0. -1.
         25    2    1    2    0    0  0.18798844270E+02 -0.78796462408E+01  0.19646740600E+03  0.23375241877E+03  0.12500106516E+03 0.  0.
          2    1    1    2  501    0  0.24118307265E+02  0.52040383151E+01 -0.53579493390E+03  0.53636273729E+03  0.00000000000E+00 0. -1.
          1    1    1    2  502    0 -0.42917151535E+02  0.26756079257E+01  0.13538860374E+04  0.13545687296E+04  0.00000000000E+00 0. -1.
         22    1    3    3    0    0  0.60434941080E+02 -0.35849162887E+02  0.14879916373E+03  0.16455617798E+03  0.00000000000E+00 0.  1.
         22    1    3    3    0    0 -0.41636096811E+02  0.27969516646E+02  0.47668242262E+02  0.69196240789E+02  0.00000000000E+00 0.  1.
</event>
<event>
 7    1  0.3110367E-005  0.6652345E+03  0.7818608E-02  0.1228699E+00
          2   -1    0    0  502    0  0.00000000000E+00  0.00000000000E+00  0.32452783123E+03  0.32452783123E+03  0.00000000000E+00 0. -1.
          1   -1    0    0  501    0 -0.00000000000E+00 -0.00000000000E+00 -0.15669316308E+04  0.15669316308E+04  0.00000000000E+00 0. -1.
         25    2    1    2    0    0  0.38163440370E+03  0.53388376841E+03 -0.35512368732E+03  0.75658114798E+03  0.12500201568E+03 0.  0.
          2    1    1    2  501    0  0.11885882216E+02  0.22084110677E+02 -0.19901009284E+02  0.32016125796E+02  0.00000000000E+00 0. -1.
          1    1    1    2  502    0 -0.39352028592E+03 -0.55596787908E+03 -0.86737910294E+03  0.11028621882E+04  0.00000000000E+00 0. -1.
         22    1    3    3    0    0  0.20741737511E+03  0.20676485549E+03 -0.20090218509E+03  0.35515540392E+03  0.00000000000E+00 0. -1.
         22    1    3    3    0    0  0.17421702859E+03  0.32711891292E+03 -0.15422150224E+03  0.40142574406E+03  0.00000000000E+00 0. -1.
</event>
<event>
 7    1  0.5412634E-005  0.1800777E+03  0.7818608E-02  0.1181959E+00
          2   -1    0    0  502    0  0.00000000000E+00  0.00000000000E+00  0.15721136073E+04  0.15721136073E+04  0.00000000000E+00 0. -1.
          1   -1    0    0  501    0 -0.00000000000E+00 -0.00000000000E+00 -0.19423834120E+04  0.19423834120E+04  0.00000000000E+00 0. -1.
         25    2    1    2    0    0 -0.21817648189E+03  0.12272587503E+03 -0.70070760463E+03  0.75450586824E+03  0.12500136148E+03 0.  0.
          2    1    1    2  501    0  0.17128605860E+03  0.23162240782E+02 -0.12047945939E+04  0.12171299917E+04  0.00000000000E+00 0. -1.
          1    1    1    2  502    0  0.46890423292E+02 -0.14588811581E+03  0.15352323938E+04  0.15428611594E+04  0.00000000000E+00 0. -1.
         22    1    3    3    0    0 -0.23128757347E+02 -0.20185838542E+02 -0.36725250285E+02  0.47865974371E+02  0.00000000000E+00 0. -1.
         22    1    3    3    0    0 -0.19504772454E+03  0.14291171357E+03 -0.66398235434E+03  0.70663989387E+03  0.00000000000E+00 0. -1.
</event>
<event>
 7    1  0.3110367E-005  0.1010988E+04  0.7818608E-02  0.1131387E+00
          2   -1    0    0  502    0  0.00000000000E+00  0.00000000000E+00  0.10774442570E+04  0.10774442570E+04  0.00000000000E+00 0. -1.
          1   -1    0    0  501    0 -0.00000000000E+00 -0.00000000000E+00 -0.10622315396E+04  0.10622315396E+04  0.00000000000E+00 0. -1.
         25    2    1    2    0    0 -0.96824892325E+03 -0.23986116808E+03  0.19066424834E+03  0.10232384149E+04  0.12499856282E+03 0.  0.
          2    1    1    2  501    0 -0.39905753168E+02  0.29045284967E+02 -0.63476747605E+02  0.80407681233E+02  0.00000000000E+00 0. -1.
          1    1    1    2  502    0  0.10081546764E+04  0.21081588312E+03 -0.11197478336E+03  0.10360297005E+04  0.00000000000E+00 0. -1.
         22    1    3    3    0    0 -0.95951926319E+01 -0.37421429572E+01 -0.11511965543E+02  0.15446575874E+02  0.00000000000E+00 0. -1.
         22    1    3    3    0    0 -0.95865373061E+03 -0.23611902513E+03  0.20217621388E+03  0.10077918390E+04  0.00000000000E+00 0. -1.
</event>
<event>
 7    1  0.3110367E-005  0.2514384E+03  0.7818608E-02  0.1164866E+00
          2   -1    0    0  502    0  0.00000000000E+00  0.00000000000E+00  0.22905861642E+04  0.22905861642E+04  0.00000000000E+00 0. -1.
          1   -1    0    0  501    0 -0.00000000000E+00 -0.00000000000E+00 -0.12814101966E+04  0.12814101966E+04  0.00000000000E+00 0. -1.
         25    2    1    2    0    0  0.19478872434E+03 -0.54215566675E+02  0.63549904050E+03  0.67850269298E+03  0.12499959643E+03 0.  0.
          2    1    1    2  501    0 -0.24308273772E+03 -0.70016455254E+02 -0.12444428423E+04  0.12698935030E+04  0.00000000000E+00 0. -1.
          1    1    1    2  502    0  0.48294013377E+02  0.12423202193E+03  0.16181197694E+04  0.16236001648E+04  0.00000000000E+00 0. -1.
         22    1    3    3    0    0  0.13976349804E+03 -0.60988540483E+02  0.58130884092E+03  0.60097704281E+03  0.00000000000E+00 0.  1.
         22    1    3    3    0    0  0.55025226302E+02  0.67729738073E+01  0.54190199574E+02  0.77525650166E+02  0.00000000000E+00 0.  1.
</event>
<event>
 7    1  0.3110367E-005  0.1336088E+03  0.7818608E-02  0.1254158E+00
          2   -1    0    0  502    0  0.00000000000E+00  0.00000000000E+00  0.32689794575E+03  0.32689794575E+03  0.00000000000E+00 0. -1.
          1   -1    0    0  501    0 -0.00000000000E+00 -0.00000000000E+00 -0.41397070839E+03  0.41397070839E+03  0.00000000000E+00 0. -1.
         25    2    1    2    0    0  0.61520942729E+01  0.47999516175E+02  0.84266412888E+02  0.15832505198E+03  0.12499676766E+03 0.  0.
          2    1    1    2  501    0  0.82514977358E+01 -0.14339758531E+03 -0.35064825219E+03  0.37892631402E+03  0.00000000000E+00 0. -1.
          1    1    1    2  502    0 -0.14403592009E+02  0.95398069138E+02  0.17930907666E+03  0.20361728815E+03  0.00000000000E+00 0. -1.
         22    1    3    3    0    0 -0.11291859145E+01  0.34291448454E+02  0.11709167677E+03  0.12201491412E+03  0.00000000000E+00 0. -1.
         22    1    3    3    0    0  0.72812801874E+01  0.13708067722E+02 -0.32825263887E+02  0.36310137855E+02  0.00000000000E+00 0. -1.
</event>
<event>
 7    1  0.3110367E-005  0.1945264E+03  0.7818608E-02  0.1186226E+00
          2   -1    0    0  502    0  0.00000000000E+00  0.00000000000E+00  0.32660166417E+03  0.32660166417E+03  0.00000000000E+00 0. -1.
          1   -1    0    0  501    0 -0.00000000000E+00 -0.00000000000E+00 -0.57847419189E+03  0.57847419189E+03  0.00000000000E+00 0. -1.
         25    2    1    2    0    0  0.84516931943E+02  0.34551778631E+01 -0.44825051179E+03  0.47297793535E+03  0.12499822387E+03 0.  0.
          2    1    1    2  501    0  0.10214949396E+03 -0.88659729544E+02 -0.16696219481E+02  0.13628584117E+03  0.00000000000E+00 0. -1.
          1    1    1    2  502    0 -0.18666642590E+03  0.85204551681E+02  0.21307420354E+03  0.29581207954E+03  0.00000000000E+00 0. -1.
         22    1    3    3    0    0 -0.22185325266E+02  0.32279182786E+02 -0.14562137586E+03  0.15079694760E+03  0.00000000000E+00 0.  1.
         22    1    3    3    0    0  0.10670225721E+03 -0.28824004923E+02 -0.30262913592E+03  0.32218098774E+03  0.00000000000E+00 0.  1.
</event>
<event>
 7    1  0.3110367E-005  0.1014986E+03  0.7818608E-02  0.1398291E+00
          2   -1    0    0  502    0  0.00000000000E+00  0.00000000000E+00  0.22428470556E+04  0.22428470556E+04  0.00000000000E+00 0. -1.
          1   -1    0    0  501    0 -0.00000000000E+00 -0.00000000000E+00 -0.41609173686E+03  0.41609173686E+03  0.00000000000E+00 0. -1.
         25    2    1    2    0    0 -0.89470978928E+02  0.82744402508E+02 -0.29186867075E+02  0.17699571095E+03  0.12499566500E+03 0.  0.
          2    1    1    2  501    0  0.87651016062E+02 -0.47451882020E+02 -0.30491750673E+03  0.32079443205E+03  0.00000000000E+00 0. -1.
          1    1    1    2  502    0  0.18199628661E+01 -0.35292520488E+02  0.21608596925E+04  0.21611486494E+04  0.00000000000E+00 0. -1.
         22    1    3    3    0    0  0.11633795065E+02 -0.14373449338E+02 -0.31791887020E+02  0.36778598584E+02  0.00000000000E+00 0. -1.
         22    1    3    3    0    0 -0.10110477399E+03  0.97117851846E+02  0.26050199453E+01  0.14021711237E+03  0.00000000000E+00 0. -1.
</event>
<event>
 7    1  0.3110367E-005  0.3997725E+02  0.7818608E-02  0.1525391E+00
          2   -1    0    0  502    0  0.00000000000E+00  0.00000000000E+00  0.69479784523E+02  0.69479784523E+02  0.00000000000E+00 0. -1.
          1   -1    0    0  501    0 -0.00000000000E+00 -0.00000000000E+00 -0.16270515487E+04  0.16270515487E+04  0.00000000000E+00 0. -1.
         25    2    1    2    0    0  0.37279851526E+02 -0.42268468202E+02 -0.65777364956E+03  0.67191429884E+03  0.12500496069E+03 0.  0.
          2    1    1    2  501    0 -0.35583096974E+02  0.23658076083E+01 -0.95545102627E+03  0.95611632004E+03  0.00000000000E+00 0. -1.
          1    1    1    2  502    0 -0.16967545519E+01  0.39902660594E+02  0.55652911621E+02  0.68500714379E+02  0.00000000000E+00 0. -1.
         22    1    3    3    0    0 -0.33325703282E+02 -0.51420582471E+02 -0.39242906302E+03  0.39718414911E+03  0.00000000000E+00 0. -1.
         22    1    3    3    0    0  0.70605554808E+02  0.91521142694E+01 -0.26534458654E+03  0.27473014973E+03  0.00000000000E+00 0. -1.
</event>
<event>
 7    1  0.3110367E-005  0.1119555E+03  0.7818608E-02  0.1440870E+00
          2   -1    0    0  502    0  0.00000000000E+00  0.00000000000E+00  0.11471600449E+03  0.11471600449E+03  0.00000000000E+00 0. -1.
          1   -1    0    0  501    0 -0.00000000000E+00 -0.00000000000E+00 -0.14516716966E+04  0.14516716966E+04  0.00000000000E+00 0. -1.
         25    2    1    2    0    0  0.68098611977E+02 -0.85549487432E+02 -0.23179153379E+03  0.28514087622E+03  0.12498747297E+03 0.  0.
          2    1    1    2  501    0 -0.86581319399E+02  0.71717125477E+02 -0.11889934320E+04  0.11942968862E+04  0.00000000000E+00 0. -1.
          1    1    1    2  502    0  0.18482707422E+02  0.13832361955E+02  0.83829273694E+02  0.86949938694E+02  0.00000000000E+00 0. -1.
         22    1    3    3    0    0  0.75012023351E+01 -0.53868311567E+01  0.15594644631E+02  0.18123987629E+02  0.00000000000E+00 0.  1.
         22    1    3    3    0    0  0.60597409642E+02 -0.80162656275E+02 -0.24738617842E+03  0.26701688859E+03  0.00000000000E+00 0.  1.
</event>
<event>
 7    1  0.3110367E-005  0.3443004E+03  0.7818608E-02  0.1132077E+00
          2   -1    0    0  502    0  0.00000000000E+00  0.00000000000E+00  0.10407530532E+04  0.10407530532E+04  0.00000000000E+00 0. -1.
          1   -1    0    0  501    0 -0.00000000000E+00 -0.00000000000E+00 -0.35041646649E+03  0.35041646649E+03  0.00000000000E+00 0. -1.
         25    2    1    2    0    0 -0.11715012779E+03 -0.41450537470E+03  0.45815105792E+03  0.64114526695E+03  0.12500401340E+03 0.  0.
          2    1    1    2  501    0 -0.11959449915E+02  0.14321209410E+03 -0.18602998247E+03  0.23507421534E+03  0.00000000000E+00 0. -1.
          1    1    1    2  502    0  0.12910957770E+03  0.27129328060E+03  0.41821551127E+03  0.51495003740E+03  0.00000000000E+00 0. -1.
         22    1    3    3    0    0 -0.11845384905E+03 -0.21547775372E+03  0.21254777694E+03  0.32502082115E+03  0.00000000000E+00 0. -1.
         22    1    3    3    0    0  0.13037212588E+01 -0.19902762099E+03  0.24560328098E+03  0.31612444580E+03  0.00000000000E+00 0. -1.
</event>
<event>
 7    1  0.3110367E-005  0.1591871E+03  0.7818608E-02  0.1205702E+00
          2   -1    0    0  502    0  0.00000000000E+00  0.00000000000E+00  0.10064885142E+04  0.10064885142E+04  0.00000000000E+00 0. -1.
          1   -1    0    0  501    0 -0.00000000000E+00 -0.00000000000E+00 -0.13244364368E+04  0.13244364368E+04  0.00000000000E+00 0. -1.
         25    2    1    2    0    0 -0.55567556094E+02  0.14605646017E+03  0.28258346978E+02  0.20209953783E+03  0.12500178467E+03 0.  0.
          2    1    1    2  501    0  0.13356657666E+03 -0.19564973973E+01 -0.12263274635E+04  0.12335813334E+04  0.00000000000E+00 0. -1.
          1    1    1    2  502    0 -0.77999020570E+02 -0.14409996277E+03  0.88012119392E+03  0.89524407983E+03  0.00000000000E+00 0. -1.
         22    1    3    3    0    0  0.87476140257E+01 -0.18760614041E+02 -0.67011043524E+01  0.21757439874E+02  0.00000000000E+00 0. -1.
         22    1    3    3    0    0 -0.64315170120E+02  0.16481707421E+03  0.34959451331E+02  0.18034209796E+03  0.00000000000E+00 0. -1.
</event>
<event>
 7    1  0.3110367E-005  0.1720350E+03  0.7818608E-02  0.1293612E+00
          2   -1    0    0  502    0  0.00000000000E+00  0.00000000000E+00  0.16671718751E+04  0.16671718751E+04  0.00000000000E+00 0. -1.
          1   -1    0    0  501    0 -0.00000000000E+00 -0.00000000000E+00 -0.97091526831E+03  0.97091526831E+03  0.00000000000E+00 0. -1.
         25    2    1    2    0    0  0.14335001031E+03  0.10721055594E+03  0.32469168840E+03  0.39126309300E+03  0.12497514419E+03 0.  0.
          2    1    1    2  501    0  0.18067364022E+02 -0.47993254131E+02 -0.93127597153E+03  0.93268682698E+03  0.00000000000E+00 0. -1.
          1    1    1    2  502    0 -0.16141737433E+03 -0.59217301806E+02  0.13028408899E+04  0.13141372234E+04  0.00000000000E+00 0. -1.
         22    1    3    3    0    0  0.32932549982E+01  0.52454161457E+02  0.15920664571E+03  0.16765750989E+03  0.00000000000E+00 0. -1.
         22    1    3    3    0    0  0.14005675531E+03  0.54756394480E+02  0.16548504269E+03  0.22360558311E+03  0.00000000000E+00 0. -1.
</event>
<event>
 7    1  0.3110367E-005  0.3627958E+03  0.7818608E-02  0.1073228E+00
          2   -1    0    0  502    0  0.00000000000E+00  0.00000000000E+00  0.67242617415E+03  0.67242617415E+03  0.00000000000E+00 0. -1.
          1   -1    0    0  501    0 -0.00000000000E+00 -0.00000000000E+00 -0.23733377400E+04  0.23733377400E+04  0.00000000000E+00 0. -1.
         25    2    1    2    0    0  0.17240070690E+03  0.97343801737E+02 -0.97369286177E+03  0.10014478321E+04  0.12498860668E+03 0.  0.
          2    1    1    2  501    0  0.17916271380E+03 -0.23020717233E+03 -0.13148264289E+04  0.13467973710E+04  0.00000000000E+00 0. -1.
          1    1    1    2  502    0 -0.35156342071E+03  0.13286337059E+03  0.58760772486E+03  0.69751871111E+03  0.00000000000E+00 0. -1.
         22    1    3    3    0    0  0.13898910619E+02 -0.12193331938E+02 -0.15649996574E+02  0.24223530976E+02  0.00000000000E+00 0. -1.
         22    1    3    3    0    0  0.15850179629E+03  0.10953713368E+03 -0.95804286520E+03  0.97722430109E+03  0.00000000000E+00 0. -1.
</event>
<event>
 7    1  0.3110367E-005  0.2319903E+03  0.7818608E-02  0.1138790E+00
          2   -1    0    0  502    0  0.00000000000E+00  0.00000000000E+00  0.25422498718E+04  0.25422498718E+04  0.00000000000E+00 0. -1.
          1   -1    0    0  501    0 -0.00000000000E+00 -0.00000000000E+00 -0.66192963694E+03  0.66192963694E+03  0.00000000000E+00 0. -1.
         25    2    1    2    0    0  0.63674321107E+02 -0.20711344263E+03 -0.46625496468E+03  0.52912118936E+03  0.12500057458E+03 0.  0.
          2    1    1    2  501    0  0.61027342339E+02  0.35905823089E+03  0.47150084946E+02  0.36724689269E+03  0.00000000000E+00 0. -1.
          1    1    1    2  502    0 -0.12470166345E+03 -0.15194478826E+03  0.22994251146E+04  0.23078114267E+04  0.00000000000E+00 0. -1.
         22    1    3    3    0    0  0.93304069367E+02 -0.13894828649E+03 -0.25359476625E+03  0.30384631172E+03  0.00000000000E+00 0. -1.
         22    1    3    3    0    0 -0.29629748260E+02 -0.68165156139E+02 -0.21266019843E+03  0.22527487763E+03  0.00000000000E+00 0. -1.
</event>
<event>
 7    1  0.3110367E-005  0.2858897E+03  0.7818608E-02  0.1128910E+00
          2   -1    0    0  502    0  0.00000000000E+00  0.00000000000E+00  0.11764582385E+04  0.11764582385E+04  0.00000000000E+00 0. -1.
          1   -1    0    0  501    0 -0.00000000000E+00 -0.00000000000E+00 -0.27858153943E+03  0.27858153943E+03  0.00000000000E+00 0. -1.
         25    2    1    2    0    0 -0.30504975609E+03  0.32116947467E+03  0.78045360704E+03  0.90605631377E+03  0.12500010330E+03 0.  0.
          2    1    1    2  501    0  0.15997235975E+03 -0.21474012927E+03 -0.82324150186E+02  0.28014593466E+03  0.00000000000E+00 0. -1.
          1    1    1    2  502    0  0.14507739634E+03 -0.10642934540E+03  0.19974724223E+03  0.26883752950E+03  0.00000000000E+00 0. -1.
         22    1    3    3    0    0 -0.28092745131E+03  0.29317747264E+03  0.61803054192E+03  0.73948293700E+03  0.00000000000E+00 0. -1.
         22    1    3    3    0    0 -0.24122304781E+02  0.27992002027E+02  0.16242306513E+03  0.16657337678E+03  0.00000000000E+00 0. -1.
</event>
<event>
 7    1  0.3902290E-005  0.9655027E+02  0.7818608E-02  0.1359363E+00
          2   -1    0    0  502    0  0.00000000000E+00  0.00000000000E+00  0.17536693397E+04  0.17536693397E+04  0.00000000000E+00 0. -1.
          1   -1    0    0  501    0 -0.00000000000E+00 -0.00000000000E+00 -0.81456581602E+03  0.81456581602E+03  0.00000000000E+00 0. -1.
         25    2    1    2    0    0 -0.37612187412E+02 -0.13766775114E+03 -0.66861268490E+03  0.69500757493E+03  0.12500208182E+03 0.  0.
          2    1    1    2  501    0 -0.44707156633E+01  0.50866911332E+02 -0.12645496393E+03  0.13637553985E+03  0.00000000000E+00 0. -1.
          1    1    1    2  502    0  0.42082903076E+02  0.86800839806E+02  0.17341711725E+04  0.17368520409E+04  0.00000000000E+00 0. -1.
         22    1    3    3    0    0 -0.11680523712E+02 -0.15038529454E+03 -0.62315252575E+03  0.64114837737E+03  0.00000000000E+00 0. -1.
         22    1    3    3    0    0 -0.25931663700E+02  0.12717543407E+02 -0.45460159147E+02  0.53859197564E+02  0.00000000000E+00 0. -1.
</event>
<event>
 7    1  0.3110367E-005  0.1134312E+03  0.7818608E-02  0.1373253E+00
          2   -1    0    0  502    0  0.00000000000E+00  0.00000000000E+00  0.22466325857E+04  0.22466325857E+04  0.00000000000E+00 0. -1.
          1   -1    0    0  501    0 -0.00000000000E+00 -0.00000000000E+00 -0.55919284699E+02  0.55919284699E+02  0.00000000000E+00 0. -1.
         25    2    1    2    0    0 -0.60978956663E+02  0.11768468583E+03  0.11755564795E+04  0.11895905042E+04  0.12499765071E+03 0.  0.
          2    1    1    2  501    0  0.76827033939E+02 -0.82358615027E+02  0.16824908373E+02  0.11387893640E+03  0.00000000000E+00 0. -1.
          1    1    1    2  502    0 -0.15848077276E+02 -0.35326070799E+02  0.99833191313E+03  0.99908242983E+03  0.00000000000E+00 0. -1.
         22    1    3    3    0    0  0.17009626425E+02  0.20982531724E+02  0.60786129925E+03  0.60846113528E+03  0.00000000000E+00 0. -1.
         22    1    3    3    0    0 -0.77988583089E+02  0.96702154102E+02  0.56769518027E+03  0.58112936890E+03  0.00000000000E+00 0. -1.
</event>
<event>
 7    1  0.3110367E-005  0.1804467E+03  0.7818608E-02  0.1365835E+00
          2   -1    0    0  502    0  0.00000000000E+00  0.00000000000E+00  0.76446843652E+03  0.76446843652E+03  0.00000000000E+00 0. -1.
          1   -1    0    0  501    0 -0.00000000000E+00 -0.00000000000E+00 -0.39630171400E+03  0.39630171400E+03  0.00000000000E+00 0. -1.
         25    2    1    2    0    0 -0.11600117286E+03  0.13554548162E+03 -0.32899163108E+03  0.39457297669E+03  0.12499396354E+03 0.  0.
          2    1    1    2  501    0  0.14147783071E+03 -0.14010437080E+03  0.25617355932E+03  0.32445354643E+03  0.00000000000E+00 0. -1.
          1    1    1    2  502    0 -0.25476657843E+02  0.45588891738E+01  0.44098479427E+03  0.44174362740E+03  0.00000000000E+00 0. -1.
         22    1    3    3    0    0 -0.65990339082E+02 -0.56603238476E+01 -0.12530222918E+03  0.14173007005E+03  0.00000000000E+00 0.  1.
         22    1    3    3    0    0 -0.50010833782E+02  0.14120580547E+03 -0.20368940190E+03  0.25284290664E+03  0.00000000000E+00 0.  1.
</event>
<event>
 7    1  0.3110367E-005  0.5707922E+03  0.7818608E-02  0.1068687E+00
          2   -1    0    0  502    0  0.00000000000E+00  0.00000000000E+00  0.21764827334E+04  0.21764827334E+04  0.00000000000E+00 0. -1.
          1   -1    0    0  501    0 -0.00000000000E+00 -0.00000000000E+00 -0.12173797475E+04  0.12173797475E+04  0.00000000000E+00 0. -1.
         25    2    1    2    0    0  0.56771536329E+03  0.20052659378E+03  0.20148705267E+03  0.64709664672E+03  0.12500155711E+03 0.  0.
          2    1    1    2  501    0  0.22399108040E+01 -0.19730010276E+03 -0.93768378639E+03  0.95821878035E+03  0.00000000000E+00 0. -1.
          1    1    1    2  502    0 -0.56995527409E+03 -0.32264910170E+01  0.16952997196E+04  0.17885470539E+04  0.00000000000E+00 0. -1.
         22    1    3    3    0    0  0.49103050684E+03  0.19591914419E+03  0.21192469455E+03  0.56956768331E+03  0.00000000000E+00 0. -1.
         22    1    3    3    0    0  0.76684856448E+02  0.46074495860E+01 -0.10437641878E+02  0.77528963414E+02  0.00000000000E+00 0. -1.
</event>
<event>
 7    1  0.3110367E-005  0.1064007E+03  0.7818608E-02  0.1275330E+00
          2   -1    0    0  502    0  0.00000000000E+00  0.00000000000E+00  0.15966306362E+03  0.15966306362E+03  0.00000000000E+00 0. -1.
          1   -1    0    0  501    0 -0.00000000000E+00 -0.00000000000E+00 -0.10628155785E+04  0.10628155785E+04  0.00000000000E+00 0. -1.
         25    2    1    2    0    0 -0.86696124865E+02  0.97591716853E+01  0.70576193063E+02  0.16798064305E+03  0.12500015165E+03 0.  0.
          2    1    1    2  501    0 -0.30663617418E+02  0.10188647785E+03 -0.83345928198E+03  0.84022347416E+03  0.00000000000E+00 0. -1.
          1    1    1    2  502    0  0.11735974228E+03 -0.11164564953E+03 -0.14026942598E+03  0.21427452492E+03  0.00000000000E+00 0. -1.
         22    1    3    3    0    0 -0.39614673821E+01  0.23289198995E+02 -0.29265316309E+02  0.37610354323E+02  0.00000000000E+00 0. -1.
         22    1    3    3    0    0 -0.82734657483E+02 -0.13530027310E+02  0.99841509372E+02  0.13037028872E+03  0.00000000000E+00 0. -1.
</event>
<event>
 7    1  0.3110367E-005  0.4146617E+03  0.7818608E-02  0.1144976E+00
          2   -1    0    0  502    0  0.00000000000E+00  0.00000000000E+00  0.36186621945E+04  0.36186621945E+04  0.00000000000E+00 0. -1.
          1   -1    0    0  501    0 -0.00000000000E+00 -0.00000000000E+00 -0.14777841045E+03  0.14777841045E+03  0.00000000000E+00 0. -1.
         25    2    1    2    0    0  0.40216197835E+03 -0.16566545326E+03  0.75966545922E+03  0.88424841353E+03  0.12499739061E+03 0.  0.
          2    1    1    2  501    0 -0.40188401798E+03  0.63574508139E+02  0.40627338917E+03  0.57498743355E+03  0.00000000000E+00 0. -1.
          1    1    1    2  502    0 -0.27796036322E+00  0.10209094512E+03  0.23049449356E+04  0.23072047578E+04  0.00000000000E+00 0. -1.
         22    1    3    3    0    0  0.10481019605E+03 -0.17208528811E+02  0.10142093660E+03  0.14685883372E+03  0.00000000000E+00 0. -1.
         22    1    3    3    0    0  0.29735178230E+03 -0.14845692444E+03  0.65824452262E+03  0.73738957981E+03  0.00000000000E+00 0. -1.
</event>
<event>
 7    1  0.3110367E-005  0.8326278E+02  0.7818608E-02  0.1479755E+00
          2   -1    0    0  502    0  0.00000000000E+00  0.00000000000E+00  0.12512667094E+03  0.12512667094E+03  0.00000000000E+00 0. -1.
          1   -1    0    0  501    0 -0.00000000000E+00 -0.00000000000E+00 -0.41207393611E+03  0.41207393611E+03  0.00000000000E+00 0. -1.
         25    2    1    2    0    0  0.17661951440E+02 -0.10264730053E+03 -0.16247598934E+03  0.22993829058E+03  0.12499903012E+03 0.  0.
          2    1    1    2  501    0 -0.84141213945E+01  0.21839790425E+02 -0.19694017881E+03  0.19832601421E+03  0.00000000000E+00 0. -1.
          1    1    1    2  502    0 -0.92478300452E+01  0.80807510106E+02  0.72468902981E+02  0.10893630226E+03  0.00000000000E+00 0. -1.
         22    1    3    3    0    0  0.99228272671E+01 -0.12375107841E+03 -0.16589143818E+03  0.20720222289E+03  0.00000000000E+00 0.  1.
         22    1    3    3    0    0  0.77391241726E+01  0.21103777875E+02  0.34154488429E+01  0.22736067698E+02  0.00000000000E+00 0.  1.
</event>
<event>
 7    1  0.3110367E-005  0.9303455E+03  0.7818608E-02  0.1213255E+00
          2   -1    0    0  502    0  0.00000000000E+00  0.00000000000E+00  0.85204030740E+03  0.85204030740E+03  0.00000000000E+00 0. -1.
          1   -1    0    0  501    0 -0.00000000000E+00 -0.00000000000E+00 -0.16533636587E+04  0.16533636587E+04  0.00000000000E+00 0. -1.
         25    2    1    2    0    0  0.78535290926E+03 -0.48129217691E+03 -0.30761889045E+03  0.97911934531E+03  0.12499583572E+03 0.  0.
          2    1    1    2  501    0 -0.80593431872E+03  0.47671644461E+03 -0.79251515944E+03  0.12267310107E+04  0.00000000000E+00 0. -1.
          1    1    1    2  502    0  0.20581409457E+02  0.45757323016E+01  0.29881069858E+03  0.29955361011E+03  0.00000000000E+00 0. -1.
         22    1    3    3    0    0  0.62215997984E+03 -0.40446591123E+03 -0.19794970515E+03  0.76802330670E+03  0.00000000000E+00 0.  1.
         22    1    3    3    0    0  0.16319292942E+03 -0.76826265685E+02 -0.10966918530E+03  0.21109603861E+03  0.00000000000E+00 0.  1.
</event>
<event>
 7    1  0.3110367E-005  0.1106755E+03  0.7818608E-02  0.1302493E+00
          2   -1    0    0  502    0  0.00000000000E+00  0.00000000000E+00  0.78295862652E+03  0.78295862652E+03  0.00000000000E+00 0. -1.
          1   -1    0    0  501    0 -0.00000000000E+00 -0.00000000000E+00 -0.28002732191E+03  0.28002732191E+03  0.00000000000E+00 0. -1.
         25    2    1    2    0    0  0.13939920913E+03  0.66697992127E+02  0.34296811308E+03  0.39639949401E+03  0.12499868241E+03 0.  0.
          2    1    1    2  501    0 -0.68481844443E+02 -0.85735021153E+02 -0.23790961972E+03  0.26199474045E+03  0.00000000000E+00 0. -1.
          1    1    1    2  502    0 -0.70917364684E+02  0.19037029026E+02  0.39787281124E+03  0.40459171397E+03  0.00000000000E+00 0. -1.
         22    1    3    3    0    0  0.96839604084E+02  0.94871336972E+02  0.17818992914E+03  0.22389758896E+03  0.00000000000E+00 0. -1.
         22    1    3    3    0    0  0.42559605043E+02 -0.28173344846E+02  0.16477818394E+03  0.17250190505E+03  0.00000000000E+00 0. -1.
</event>
<event>
 7    1  0.3709809E-005  0.1656824E+03  0.7818608E-02  0.1200184E+00
          2   -1    0    0  502    0  0.00000000000E+00  0.00000000000E+00  0.10172809763E+04  0.10172809763E+04  0.00000000000E+00 0. -1.
          1   -1    0    0  501    0 -0.00000000000E+00 -0.00000000000E+00 -0.25193643471E+04  0.25193643471E+04  0.00000000000E+00 0. -1.
         25    2    1    2    0    0 -0.90865927708E+02 -0.19261439003E+03 -0.15810740276E+04  0.16002426354E+04  0.12499796648E+03 0.  0.
          2    1    1    2  501    0 -0.59320631610E+02  0.12263508258E+03 -0.91682813699E+03  0.92689380923E+03  0.00000000000E+00 0. -1.
          1    1    1    2  502    0  0.15018655932E+03  0.69979307446E+02  0.99581879379E+03  0.10095088787E+04  0.00000000000E+00 0. -1.
         22    1    3    3    0    0 -0.78745348351E+02 -0.14589222952E+03 -0.76575599993E+03  0.78349704782E+03  0.00000000000E+00 0.  1.
         22    1    3    3    0    0 -0.12120579357E+02 -0.46722160505E+02 -0.81531802763E+03  0.81674558762E+03  0.00000000000E+00 0.  1.
</event>
<event>
 7    1  0.3110367E-005  0.1776031E+03  0.7818608E-02  0.1196184E+00
          2   -1    0    0  502    0  0.00000000000E+00  0.00000000000E+00  0.72931355175E+02  0.72931355175E+02  0.00000000000E+00 0. -1.
          1   -1    0    0  501    0 -0.00000000000E+00 -0.00000000000E+00 -0.28140657023E+04  0.28140657023E+04  0.00000000000E+00 0. -1.
         25    2    1    2    0    0  0.14848135923E+03  0.10365694138E+03 -0.16112606238E+03  0.27272219751E+03  0.12499725398E+03 0.  0.
          2    1    1    2  501    0  0.35901171075E+02 -0.12779822327E+03 -0.31743886552E+03  0.34407660964E+03  0.00000000000E+00 0. -1.
          1    1    1    2  502    0 -0.18438253031E+03  0.24141281897E+02 -0.22625694192E+04  0.22701982503E+04  0.00000000000E+00 0. -1.
         22    1    3    3    0    0  0.28706801723E+02  0.95314601973E+02 -0.64605910638E+02  0.11867130025E+03  0.00000000000E+00 0. -1.
         22    1    3    3    0    0  0.11977455751E+03  0.83423394037E+01 -0.96520151741E+02  0.15405089726E+03  0.00000000000E+00 0. -1.
</event>
<event>
 7    1  0.3110367E-005  0.8418529E+02  0.7818608E-02  0.1331342E+00
          2   -1    0    0  502    0  0.00000000000E+00  0.00000000000E+00  0.31454735399E+04  0.31454735399E+04  0.00000000000E+00 0. -1.
          1   -1    0    0  501    0 -0.00000000000E+00 -0.00000000000E+00 -0.63204786848E+02  0.63204786848E+02  0.00000000000E+00 0. -1.
         25    2    1    2    0    0  0.11432948593E+03 -0.22386032706E+02  0.77699239592E+03  0.79555899635E+03  0.12499827015E+03 0.  0.
          2    1    1    2  501    0 -0.61382721854E+02 -0.42230021130E+02 -0.27074276329E+02  0.79273133315E+02  0.00000000000E+00 0. -1.
          1    1    1    2  502    0 -0.52946764079E+02  0.64616053836E+02  0.23323506335E+04  0.23338461971E+04  0.00000000000E+00 0. -1.
         22    1    3    3    0    0  0.13534236946E+03 -0.34823201287E+02  0.72183163275E+03  0.73523541697E+03  0.00000000000E+00 0.  1.
         22    1    3    3    0    0 -0.21012883525E+02  0.12437168581E+02  0.55160763162E+02  0.60323579378E+02  0.00000000000E+00 0.  1.
</event>
<event>
 7    1  0.3110367E-005  0.1008400E+03  0.7818608E-02  0.1332677E+00
          2   -1    0    0  502    0  0.00000000000E+00  0.00000000000E+00  0.99685150281E+02  0.99685150281E+02  0.00000000000E+00 0. -1.
          1   -1    0    0  501    0 -0.00000000000E+00 -0.00000000000E+00 -0.30432004690E+04  0.30432004690E+04  0.00000000000E+00 0. -1.
         25    2    1    2    0    0 -0.75136712452E+01 -0.42734505775E+02 -0.58203983853E+03  0.59689106886E+03  0.12500352480E+03 0.  0.
          2    1    1    2  501    0 -0.28054056404E+02 -0.54702871472E+02 -0.24240671652E+04  0.24248466046E+04  0.00000000000E+00 0. -1.
          1    1    1    2  502    0  0.35567727649E+02  0.97437377247E+02  0.62591685064E+02  0.12114794581E+03  0.00000000000E+00 0. -1.
         22    1    3    3    0    0 -0.61310467214E+02 -0.64125287702E+01 -0.37125357420E+03  0.37633669802E+03  0.00000000000E+00 0. -1.
         22    1    3    3    0    0  0.53796795969E+02 -0.36321977005E+02 -0.21078626432E+03  0.22055437084E+03  0.00000000000E+00 0. -1.
</event>
<event>
 7    1  0.3110367E-005  0.1761799E+03  0.7818608E-02  0.1176159E+00
          2   -1    0    0  502    0  0.00000000000E+00  0.00000000000E+00  0.43373266607E+03  0.43373266607E+03  0.00000000000E+00 0. -1.
          1   -1    0    0  501    0 -0.00000000000E+00 -0.00000000000E+00 -0.58360683397E+03  0.58360683397E+03  0.00000000000E+00 0. -1.
         25    2    1    2    0    0  0.45879224015E+02  0.17445686104E+03 -0.45201583099E+02  0.22407276583E+03  0.12500128684E+03 0.  0.
          2    1    1    2  501    0  0.12936842970E+03 -0.10591727981E+03 -0.40539649458E+03  0.43852135476E+03  0.00000000000E+00 0. -1.
          1    1    1    2  502    0 -0.17524765371E+03 -0.68539581234E+02  0.30072390978E+03  0.35474537945E+03  0.00000000000E+00 0. -1.
         22    1    3    3    0    0  0.63345117354E+02  0.14621461983E+03 -0.77988088512E+02  0.17740761228E+03  0.00000000000E+00 0. -1.
         22    1    3    3    0    0 -0.17465893339E+02  0.28242241207E+02  0.32786505413E+02  0.46665153549E+02  0.00000000000E+00 0. -1.
</event>
<event>
 7    1  0.3110367E-005  0.3975612E+02  0.7818608E-02  0.1512457E+00
          2   -1    0    0  502    0  0.00000000000E+00  0.00000000000E+00  0.12639381745E+04  0.12639381745E+04  0.00000000000E+00 0. -1.
          1   -1    0    0  501    0 -0.00000000000E+00 -0.00000000000E+00 -0.21831372173E+03  0.21831372173E+03  0.00000000000E+00 0. -1.
         25    2    1    2    0    0  0.18761623058E+02 -0.62640166868E+01 -0.81444461766E+02  0.15049652073E+03  0.12499906398E+03 0.  0.
          2    1    1    2  501    0 -0.31308435001E+02 -0.30772850099E+02 -0.97309022406E+02  0.10675313694E+03  0.00000000000E+00 0. -1.
          1    1    1    2  502    0  0.12546811942E+02  0.37036866786E+02  0.12243779369E+04  0.12250022385E+04  0.00000000000E+00 0. -1.
         22    1    3    3    0    0 -0.28538900030E+02 -0.42142019742E+02 -0.75195050902E+02  0.90800409267E+02  0.00000000000E+00 0. -1.
         22    1    3    3    0    0  0.47300523089E+02  0.35878003055E+02 -0.62494108640E+01  0.59696111463E+02  0.00000000000E+00 0. -1.
</event>
<event>
 7    1  0.3110367E-005  0.7323003E+02  0.7818608E-02  0.1451938E+00
          2   -1    0    0  502    0  0.00000000000E+00  0.00000000000E+00  0.97418357987E+03  0.97418357987E+03  0.00000000000E+00 0. -1.
          1   -1    0    0  501    0 -0.00000000000E+00 -0.00000000000E+00 -0.45501489490E+03  0.45501489490E+03  0.00000000000E+00 0. -1.
         25    2    1    2    0    0  0.63367950044E+02 -0.32641984867E-01  0.88842720170E+02  0.16593187659E+03  0.12499944233E+03 0.  0.
          2    1    1    2  501    0  0.30836093418E+01  0.32370071307E+02 -0.41421953020E+03  0.41549386201E+03  0.00000000000E+00 0. -1.
          1    1    1    2  502    0 -0.66451559386E+02 -0.32337429322E+02  0.84454549500E+03  0.84777273618E+03  0.00000000000E+00 0. -1.
         22    1    3    3    0    0  0.82964710540E+02  0.25647579479E+02  0.99359885291E+02  0.13195957083E+03  0.00000000000E+00 0. -1.
         22    1    3    3    0    0 -0.19596760496E+02 -0.25680221464E+02 -0.10517165122E+02  0.33972305758E+02  0.00000000000E+00 0. -1.
</event>
<event>
 7    1  0.3110367E-005  0.2733859E+03  0.7818608E-02  0.1260043E+00
          2   -1    0    0  502    0  0.00000000000E+00  0.00000000000E+00  0.23240322513E+04  0.23240322513E+04  0.00000000000E+00 0. -1.
          1   -1    0    0  501    0 -0.00000000000E+00 -0.00000000000E+00 -0.30198657417E+03  0.30198657417E+03  0.00000000000E+00 0. -1.
         25    2    1    2    0    0 -0.21008305110E+03 -0.11665209667E+03  0.20318134925E+03  0.33860465035E+03  0.12501139366E+03 0.  0.
          2    1    1    2  501    0 -0.19840710276E+02 -0.39820235127E+02 -0.22264576381E+03  0.22704722208E+03  0.00000000000E+00 0. -1.
          1    1    1    2  502    0  0.22992376137E+03  0.15647233179E+03  0.20415100917E+04  0.20603669531E+04  0.00000000000E+00 0. -1.
         22    1    3    3    0    0 -0.11945403694E+03 -0.11158363485E+03  0.18345531997E+03  0.24571534127E+03  0.00000000000E+00 0. -1.
         22    1    3    3    0    0 -0.90629014152E+02 -0.50684618137E+01  0.19726029276E+02  0.92889309085E+02  0.00000000000E+00 0. -1.
</event>
<event>
 7    1  0.3110367E-005  0.9537720E+02  0.7818608E-02  0.1430225E+00
          2   -1    0    0  502    0  0.00000000000E+00  0.00000000000E+00  0.11378746736E+04  0.11378746736E+04  0.00000000000E+00 0. -1.
          1   -1    0    0  501    0 -0.00000000000E+00 -0.00000000000E+00 -0.65249419152E+03  0.65249419152E+03  0.00000000000E+00 0. -1.
         25    2    1    2    0    0 -0.20141654698E+02 -0.93369053518E+02  0.62096449749E+03  0.64058176174E+03  0.12499847970E+03 0.  0.
          2    1    1    2  501    0 -0.27827923402E+02  0.93509545045E+01 -0.63773029118E+03  0.63840563748E+03  0.00000000000E+00 0. -1.
          1    1    1    2  502    0  0.47969578100E+02  0.84018099014E+02  0.50214627577E+03  0.51138146589E+03  0.00000000000E+00 0. -1.
         22    1    3    3    0    0 -0.40824862421E+02 -0.73347936549E+02  0.17927073740E+03  0.19795096988E+03  0.00000000000E+00 0.  1.
         22    1    3    3    0    0  0.20683207723E+02 -0.20021116970E+02  0.44169376008E+03  0.44263079186E+03  0.00000000000E+00 0.  1.
</event>
<event>
 7    1  0.3110367E-005  0.5427309E+03  0.7818608E-02  0.1033148E+00
          2   -1    0    0  502    0  0.00000000000E+00  0.00000000000E+00  0.12357017266E+04  0.12357017266E+04  0.00000000000E+00 0. -1.
          1   -1    0    0  501    0 -0.00000000000E+00 -0.00000000000E+00 -0.51505755788E+03  0.51505755788E+03  0.00000000000E+00 0. -1.
         25    2    1    2    0    0 -0.34058201153E+03  0.13204359343E+03 -0.17187811676E+03  0.42261264099E+03  0.12501096015E+03 0.  0.
          2    1    1    2  501    0 -0.87826946819E+02  0.33288848042E+03  0.24061692865E+03  0.42002954579E+03  0.00000000000E+00 0. -1.
          1    1    1    2  502    0  0.42840895835E+03 -0.46493207385E+03  0.65190535687E+03  0.90811709774E+03  0.00000000000E+00 0. -1.
         22    1    3    3    0    0 -0.34432461644E+02 -0.14156028026E+02 -0.49525234484E+02  0.61957537032E+02  0.00000000000E+00 0. -1.
         22    1    3    3    0    0 -0.30614954989E+03  0.14619962145E+03 -0.12235288228E+03  0.36065510396E+03  0.00000000000E+00 0. -1.
</event>
<event>
 7    1  0.3110367E-005  0.7297173E+02  0.7818608E-02  0.1373128E+00
          2   -1    0    0  502    0  0.00000000000E+00  0.00000000000E+00  0.42562637607E+03  0.42562637607E+03  0.00000000000E+00 0. -1.
          1   -1    0    0  501    0 -0.00000000000E+00 -0.00000000000E+00 -0.64580092704E+03  0.64580092704E+03  0.00000000000E+00 0. -1.
         25    2    1    2    0    0 -0.95339012374E+01  0.51487438605E+01 -0.25066607887E+03  0.28031465192E+03  0.12500166457E+03 0.  0.
          2    1    1    2  501    0  0.49104500801E+02  0.56162279069E+02 -0.37335043220E+03  0.38073087452E+03  0.00000000000E+00 0. -1.
          1    1    1    2  502    0 -0.39570599564E+02 -0.61311022929E+02  0.40384196010E+03  0.41038177667E+03  0.00000000000E+00 0. -1.
         22    1    3    3    0    0  0.43926755311E+02  0.11114841825E+02 -0.32880659771E+02  0.55984259645E+02  0.00000000000E+00 0. -1.
         22    1    3    3    0    0 -0.53460656549E+02 -0.59660979645E+01 -0.21778541910E+03  0.22433039227E+03  0.00000000000E+00 0. -1.
</event>
<event>
 7    1  0.3110367E-005  0.1800402E+03  0.7818608E-02  0.1216129E+00
          2   -1    0    0  502    0  0.00000000000E+00  0.00000000000E+00  0.24078740008E+03  0.24078740008E+03  0.00000000000E+00 0. -1.
          1   -1    0    0  501    0 -0.00000000000E+00 -0.00000000000E+00 -0.57956831978E+03  0.57956831978E+03  0.00000000000E+00 0. -1.
         25    2    1    2    0    0  0.97044541188E+02  0.20326277225E+03  0.91615470239E+02  0.27340346623E+03  0.12499065326E+03 0.  0.
          2    1    1    2  501    0 -0.82997302563E+02 -0.65425565104E+02 -0.38788688828E+03  0.40202648533E+03  0.00000000000E+00 0. -1.
          1    1    1    2  502    0 -0.14047238625E+02 -0.13783720715E+03 -0.42509501662E+02  0.14492576831E+03  0.00000000000E+00 0. -1.
         22    1    3    3    0    0  0.97223546576E+02  0.72288478369E+02  0.16098689959E+02  0.12221787894E+03  0.00000000000E+00 0.  1.
         22    1    3    3    0    0 -0.17900538835E+00  0.13097429388E+03  0.75516780279E+02  0.15118558729E+03  0.00000000000E+00 0.  1.
</event>
<event>
 7    1  0.3110367E-005  0.3276653E+02  0.7818608E-02  0.1598356E+00
          2   -1    0    0  502    0  0.00000000000E+00  0.00000000000E+00  0.61724963652E+03  0.61724963652E+03  0.00000000000E+00 0. -1.
          1   -1    0    0  501    0 -0.00000000000E+00 -0.00000000000E+00 -0.25139082502E+03  0.25139082502E+03  0.00000000000E+00 0. -1.
         25    2    1    2    0    0  0.62252864998E+01  0.58501366593E+02 -0.81277035550E+02  0.16027912795E+03  0.12498911258E+03 0.  0.
          2    1    1    2  501    0 -0.15909804838E+01 -0.31472946377E+02 -0.12838069157E+03  0.13219182857E+03  0.00000000000E+00 0. -1.
          1    1    1    2  502    0 -0.46343060160E+01 -0.27028420215E+02  0.57551653862E+03  0.57616950502E+03  0.00000000000E+00 0. -1.
         22    1    3    3    0    0  0.20997770887E+02 -0.33675299053E+02 -0.45322455205E+02  0.60241655807E+02  0.00000000000E+00 0. -1.
         22    1    3    3    0    0 -0.14772484387E+02  0.92176665645E+02 -0.35954580345E+02  0.10003747214E+03  0.00000000000E+00 0. -1.
</event>
<event>
 7    1  0.3110367E-005  0.2203927E+03  0.7818608E-02  0.1164793E+00
          2   -1    0    0  502    0  0.00000000000E+00  0.00000000000E+00  0.31176020319E+02  0.31176020319E+02  0.00000000000E+00 0. -1.
          1   -1    0    0  501    0 -0.00000000000E+00 -0.00000000000E+00 -0.37430105715E+04  0.37430105715E+04  0.00000000000E+00 0. -1.
         25    2    1    2    0    0  0.17912552785E+03  0.57683738001E+02 -0.12057660866E+04  0.12267480860E+04  0.12500257012E+03 0.  0.
          2    1    1    2  501    0 -0.25265245019E+03  0.75569441335E+02 -0.20442305444E+04  0.20611701821E+04  0.00000000000E+00 0. -1.
          1    1    1    2  502    0  0.73526922340E+02 -0.13325317934E+03 -0.46183792023E+03  0.48626832374E+03  0.00000000000E+00 0. -1.
         22    1    3    3    0    0  0.19338733690E+03  0.71384019803E+02 -0.10995415382E+04  0.11186983215E+04  0.00000000000E+00 0. -1.
         22    1    3    3    0    0 -0.14261809051E+02 -0.13700281802E+02 -0.10622454838E+03  0.10804976445E+03  0.00000000000E+00 0. -1.
</event>
<event>
 7    1  0.3110367E-005  0.7646217E+03  0.7818608E-02  0.1030034E+00
          2   -1    0    0  502    0  0.00000000000E+00  0.00000000000E+00  0.23990091267E+04  0.23990091267E+04  0.00000000000E+00 0. -1.
          1   -1    0    0  501    0 -0.00000000000E+00 -0.00000000000E+00 -0.55480196245E+03  0.55480196245E+03  0.00000000000E+00 0. -1.
         25    2    1    2    0    0 -0.83758646702E+03  0.14251971883E+02  0.92717908855E+03  0.12558025867E+04  0.12499946415E+03 0.  0.
          2    1    1    2  501    0  0.71837058089E+03  0.21216721467E+03  0.32245270697E+01  0.74905381385E+03  0.00000000000E+00 0. -1.
          1    1    1    2  502    0  0.11921588613E+03 -0.22641918655E+03  0.91380354859E+03  0.94895468857E+03  0.00000000000E+00 0. -1.
         22    1    3    3    0    0 -0.54710452762E+03 -0.40926830773E+02  0.64917621184E+03  0.84995771874E+03  0.00000000000E+00 0. -1.
         22    1    3    3    0    0 -0.29048193940E+03  0.55178802656E+02  0.27800287671E+03  0.40584486795E+03  0.00000000000E+00 0. -1.
</event>
<event>
 7    1  0.6330197E-005  0.3808173E+02  0.7818608E-02  0.1547032E+00
          2   -1    0    0  502    0  0.00000000000E+00  0.00000000000E+00  0.13149789734E+04  0.13149789734E+04  0.00000000000E+00 0. -1.
          1   -1    0    0  501    0 -0.00000000000E+00 -0.00000000000E+00 -0.16210255792E+04  0.16210255792E+04  0.00000000000E+00 0. -1.
         25    2    1    2    0    0  0.18621569705E+02  0.72992744560E+01 -0.39277842448E+03  0.41267475157E+03  0.12500207031E+03 0.  0.
          2    1    1    2  501    0 -0.11957617971E+02  0.30214240201E+02 -0.12178041321E+04  0.12182375749E+04  0.00000000000E+00 0. -1.
          1    1    1    2  502    0 -0.66639517345E+01 -0.37513514657E+02  0.13045359507E+04  0.13050922262E+04  0.00000000000E+00 0. -1.
         22    1    3    3    0    0 -0.26618872474E+01  0.26614080924E+02 -0.38047008985E+03  0.38140907726E+03  0.00000000000E+00 0.  1.
         22    1    3    3    0    0  0.21283456953E+02 -0.19314806468E+02 -0.12308334630E+02  0.31265674311E+02  0.00000000000E+00 0.  1.
</event>
<event>
 7    1  0.3110367E-005  0.8084965E+02  0.7818608E-02  0.1345098E+00
          2   -1    0    0  502    0  0.00000000000E+00  0.00000000000E+00  0.14068125664E+04  0.14068125664E+04  0.00000000000E+00 0. -1.
          1   -1    0    0  501    0 -0.00000000000E+00 -0.00000000000E+00 -0.61102088101E+02  0.61102088101E+02  0.00000000000E+00 0. -1.
         25    2    1    2    0    0  0.50600110307E+01 -0.34350782061E+02  0.73143658680E+03  0.74285395985E+03  0.12500778063E+03 0.  0.
          2    1    1    2  501    0 -0.70796069043E+02 -0.39045892308E+02 -0.19912605386E+02  0.83265700929E+02  0.00000000000E+00 0. -1.
          1    1    1    2  502    0  0.65736058012E+02  0.73396674369E+02  0.63418649685E+03  0.64179499369E+03  0.00000000000E+00 0. -1.
         22    1    3    3    0    0  0.95933160386E+01 -0.80327447915E+02  0.38967337686E+03  0.39798224990E+03  0.00000000000E+00 0. -1.
         22    1    3    3    0    0 -0.45333050079E+01  0.45976665854E+02  0.34176320994E+03  0.34487170996E+03  0.00000000000E+00 0. -1.
</event>
<event>
 7    1  0.3110367E-005  0.1597622E+03  0.7818608E-02  0.1298107E+00
          2   -1    0    0  502    0  0.00000000000E+00  0.00000000000E+00  0.84315397503E+03  0.84315397503E+03  0.00000000000E+00 0. -1.
          1   -1    0    0  501    0 -0.00000000000E+00 -0.00000000000E+00 -0.28820960442E+04  0.28820960442E+04  0.00000000000E+00 0. -1.
         25    2    1    2    0    0 -0.12960610572E+03  0.14539572625E+03  0.90534154882E+02  0.24851426655E+03  0.12500099051E+03 0.  0.
          2    1    1    2  501    0  0.52041446459E+02 -0.98480437680E+01 -0.27938001040E+04  0.27943021163E+04  0.00000000000E+00 0. -1.
          1    1    1    2  502    0  0.77564659258E+02 -0.13554768248E+03  0.66432387994E+03  0.68243363637E+03  0.00000000000E+00 0. -1.
         22    1    3    3    0    0 -0.38703738244E+01  0.24280887052E+02  0.68217685364E+02  0.72513404733E+02  0.00000000000E+00 0.  1.
         22    1    3    3    0    0 -0.12573573189E+03  0.12111483920E+03  0.22316469518E+02  0.17600086182E+03  0.00000000000E+00 0.  1.
</event>
<event>
 7    1  0.3110367E-005  0.9596979E+02  0.7818608E-02  0.1423165E+00
          2   -1    0    0  502    0  0.00000000000E+00  0.00000000000E+00  0.80570581721E+03  0.80570581721E+03  0.00000000000E+00 0. -1.
          1   -1    0    0  501    0 -0.00000000000E+00 -0.00000000000E+00 -0.34171666953E+03  0.34171666953E+03  0.00000000000E+00 0. -1.
         25    2    1    2    0    0  0.87712216087E+02  0.56236985087E+02  0.14455267215E+03  0.21765874239E+03  0.12499528699E+03 0.  0.
          2    1    1    2  501    0 -0.92274160482E+02 -0.25789301389E+02 -0.29724990279E+03  0.31230932337E+03  0.00000000000E+00 0. -1.
          1    1    1    2  502    0  0.45619443960E+01 -0.30447683698E+02  0.61668637832E+03  0.61745442098E+03  0.00000000000E+00 0. -1.
         22    1    3    3    0    0  0.67393443099E+02  0.96444683851E+02  0.10597121003E+03  0.15834566799E+03  0.00000000000E+00 0.  1.
         22    1    3    3    0    0  0.20318772987E+02 -0.40207698763E+02  0.38581462117E+02  0.59313074399E+02  0.00000000000E+00 0.  1.
</event>
<event>
 7    1  0.3110367E-005  0.1055901E+03  0.7818608E-02  0.1408979E+00
          2   -1    0    0  502    0  0.00000000000E+00  0.00000000000E+00  0.26222553498E+03  0.26222553498E+03  0.00000000000E+00 0. -1.
          1   -1    0    0  501    0 -0.00000000000E+00 -0.00000000000E+00 -0.18972202264E+03  0.18972202264E+03  0.00000000000E+00 0. -1.
         25    2    1    2    0    0 -0.90717905382E+02 -0.44237102406E+02  0.19174499750E+03  0.25015390520E+03  0.12499669049E+03 0.  0.
          2    1    1    2  501    0 -0.16926329625E+02 -0.26242301658E+02 -0.93773153817E+01  0.32605108107E+02  0.00000000000E+00 0. -1.
          1    1    1    2  502    0  0.10764423501E+03  0.70479404064E+02 -0.10986416978E+03  0.16918854432E+03  0.00000000000E+00 0. -1.
         22    1    3    3    0    0 -0.93298846975E+02  0.99490109343E+01  0.70615139353E+02  0.11743149310E+03  0.00000000000E+00 0.  1.
         22    1    3    3    0    0  0.25809415937E+01 -0.54186113340E+02  0.12112985815E+03  0.13272241210E+03  0.00000000000E+00 0.  1.
</event>
<event>
 7    1  0.3110367E-005  0.1792296E+03  0.7818608E-02  0.1320985E+00
          2   -1    0    0  502    0  0.00000000000E+00  0.00000000000E+00  0.40164117455E+03  0.40164117455E+03  0.00000000000E+00 0. -1.
          1   -1    0    0  501    0 -0.00000000000E+00 -0.00000000000E+00 -0.92101128008E+03  0.92101128008E+03  0.00000000000E+00 0. -1.
         25    2    1    2    0    0 -0.20762884447E+03 -0.42882273396E+02 -0.85232047053E+03  0.88714340155E+03  0.12499841595E+03 0.  0.
          2    1    1    2  501    0  0.30226523908E+02  0.23611354002E+02 -0.17563992313E+02  0.42185692022E+02  0.00000000000E+00 0. -1.
          1    1    1    2  502    0  0.17740232056E+03  0.19270919394E+02  0.35051435731E+03  0.39332336106E+03  0.00000000000E+00 0. -1.
         22    1    3    3    0    0 -0.12849011013E+03 -0.82649156012E+02 -0.45127134309E+03  0.47643091470E+03  0.00000000000E+00 0. -1.
         22    1    3    3    0    0 -0.79138734338E+02  0.39766882616E+02 -0.40104912745E+03  0.41071248684E+03  0.00000000000E+00 0. -1.
</event>
<event>
 7    1  0.3110367E-005  0.5865955E+03  0.7818608E-02  0.1098925E+00
          2   -1    0    0  502    0  0.00000000000E+00  0.00000000000E+00  0.12315152664E+04  0.12315152664E+04  0.00000000000E+00 0. -1.
          1   -1    0    0  501    0 -0.00000000000E+00 -0.00000000000E+00 -0.18916997778E+04  0.18916997778E+04  0.00000000000E+00 0. -1.
         25    2    1    2    0    0  0.53978787653E+03  0.23103435751E+03  0.52532078231E+03  0.79770547764E+03  0.12499711491E+03 0.  0.
          2    1    1    2  501    0  0.43222158790E+02 -0.12062037588E+03 -0.15978191601E+04  0.16029483768E+04  0.00000000000E+00 0. -1.
          1    1    1    2  502    0 -0.58301003532E+03 -0.11041398162E+03  0.41231386641E+03  0.72256118983E+03  0.00000000000E+00 0. -1.
         22    1    3    3    0    0  0.41152311235E+03  0.12202721235E+03  0.41062392217E+03  0.59401508231E+03  0.00000000000E+00 0.  1.
         22    1    3    3    0    0  0.12826476417E+03  0.10900714515E+03  0.11469686015E+03  0.20369039533E+03  0.00000000000E+00 0.  1.
</event>
<event>
 7    1  0.3110367E-005  0.2694258E+03  0.7818608E-02  0.1246657E+00
          2   -1    0    0  502    0  0.00000000000E+00  0.00000000000E+00  0.73111028630E+03  0.73111028630E+03  0.00000000000E+00 0. -1.
          1   -1    0    0  501    0 -0.00000000000E+00 -0.00000000000E+00 -0.94299341033E+03  0.94299341033E+03  0.00000000000E+00 0. -1.
         25    2    1    2    0    0 -0.21217867015E+03  0.64771446463E+02  0.38596499086E+03  0.46239485553E+03  0.12499959966E+03 0.  0.
          2    1    1    2  501    0  0.26373890626E+03 -0.65433633848E+02 -0.88200294368E+03  0.92291330241E+03  0.00000000000E+00 0. -1.
          1    1    1    2  502    0 -0.51560236119E+02  0.66218738577E+00  0.28415482878E+03  0.28879553868E+03  0.00000000000E+00 0. -1.
         22    1    3    3    0    0 -0.10230273807E+03  0.14185684301E+02  0.29045775614E+03  0.30827389113E+03  0.00000000000E+00 0. -1.
         22    1    3    3    0    0 -0.10987593208E+03  0.50585762161E+02  0.95507234718E+02  0.15412096440E+03  0.00000000000E+00 0. -1.
</event>
<event>
 7    1  0.3110367E-005  0.1116111E+03  0.7818608E-02  0.1284679E+00
          2   -1    0    0  502    0  0.00000000000E+00  0.00000000000E+00  0.50551324296E+03  0.50551324296E+03  0.00000000000E+00 0. -1.
          1   -1    0    0  501    0 -0.00000000000E+00 -0.00000000000E+00 -0.10107975347E+03  0.10107975347E+03  0.00000000000E+00 0. -1.
         25    2    1    2    0    0  0.10657169086E+03  0.14095515416E+02  0.10530129718E+03  0.19563183718E+03  0.12500897440E+03 0.  0.
          2    1    1    2  501    0 -0.11177213903E+02 -0.85221500882E+02 -0.32459519794E+01  0.86012618420E+02  0.00000000000E+00 0. -1.
          1    1    1    2  502    0 -0.95394476960E+02  0.71125985466E+02  0.30237814429E+03  0.32494854083E+03  0.00000000000E+00 0. -1.
         22    1    3    3    0    0  0.98078118333E+02  0.30652760749E+02  0.12936674909E+03  0.16521097061E+03  0.00000000000E+00 0. -1.
         22    1    3    3    0    0  0.84935725300E+01 -0.16557245333E+02 -0.24065451912E+02  0.30420866573E+02  0.00000000000E+00 0. -1.
</event>
<event>
 7    1  0.3110367E-005  0.1122073E+03  0.7818608E-02  0.1339627E+00
          2   -1    0    0  502    0  0.00000000000E+00  0.00000000000E+00  0.17594845921E+04  0.17594845921E+04  0.00000000000E+00 0. -1.
          1   -1    0    0  501    0 -0.00000000000E+00 -0.00000000000E+00 -0.28740809779E+02  0.28740809779E+02  0.00000000000E+00 0. -1.
         25    2    1    2    0    0 -0.55524906676E+02  0.91368800787E+02  0.32798081889E+03  0.36691653258E+03  0.12500020520E+03 0.  0.
          2    1    1    2  501    0  0.10323014100E+03 -0.70668799560E+02  0.44824105054E+03  0.46537144372E+03  0.00000000000E+00 0. -1.
          1    1    1    2  502    0 -0.47705234323E+02 -0.20700001227E+02  0.95452191285E+03  0.95593742554E+03  0.00000000000E+00 0. -1.
         22    1    3    3    0    0 -0.90192659593E+02  0.32630932208E+02  0.20365230597E+03  0.22510831906E+03  0.00000000000E+00 0. -1.
         22    1    3    3    0    0  0.34667752916E+02  0.58737868580E+02  0.12432851291E+03  0.14180821352E+03  0.00000000000E+00 0. -1.
</event>
<event>
 7    1  0.3110367E-005  0.1059582E+03  0.7818608E-02  0.1296215E+00
          2   -1    0    0  502    0  0.00000000000E+00  0.00000000000E+00  0.13691428069E+04  0.13691428069E+04  0.00000000000E+00 0. -1.
          1   -1    0    0  501    0 -0.00000000000E+00 -0.00000000000E+00 -0.30239277005E+02  0.30239277005E+02  0.00000000000E+00 0. -1.
         25    2    1    2    0    0  0.12285561127E+03 -0.77702844458E+02  0.74225153503E+03  0.76661172414E+03  0.12499984430E+03 0.  0.
          2    1    1    2  501    0 -0.10076146586E+03 -0.50806101726E+00  0.16346819194E+03  0.19202859398E+03  0.00000000000E+00 0. -1.
          1    1    1    2  502    0 -0.22094145415E+02  0.78210905476E+02  0.43318380294E+03  0.44074176581E+03  0.00000000000E+00 0. -1.
         22    1    3    3    0    0  0.11890253908E+03 -0.82512293344E+02  0.74561799097E+03  0.75953425256E+03  0.00000000000E+00 0.  1.
         22    1    3    3    0    0  0.39530721908E+01  0.48094488855E+01 -0.33664559419E+01  0.70774715779E+01  0.00000000000E+00 0.  1.
</event>
<event>
 7    1  0.3110367E-005  0.2055558E+04  0.7818608E-02  0.1069586E+00
          2   -1    0    0  502    0  0.00000000000E+00  0.00000000000E+00  0.13034269183E+04  0.13034269183E+04  0.00000000000E+00 0. -1.
          1   -1    0    0  501    0 -0.00000000000E+00 -0.00000000000E+00 -0.43161767209E+04  0.43161767209E+04  0.00000000000E+00 0. -1.
         25    2    1    2    0    0  0.13782721763E+04 -0.14855676627E+04 -0.13801267346E+04  0.24549787212E+04  0.12500098210E+03 0.  0.
          2    1    1    2  501    0 -0.14205294640E+04  0.15193764198E+04 -0.19449329395E+04  0.28476609353E+04  0.00000000000E+00 0. -1.
          1    1    1    2  502    0  0.42257287717E+02 -0.33808757114E+02  0.31230987154E+03  0.31696398263E+03  0.00000000000E+00 0. -1.
         22    1    3    3    0    0  0.47112017934E+02 -0.24785415029E+02 -0.25978231894E+02  0.59234513287E+02  0.00000000000E+00 0.  1.
         22    1    3    3    0    0  0.13311601584E+04 -0.14607822477E+04 -0.13541485027E+04  0.23957442079E+04  0.00000000000E+00 0.  1.
</event>
<event>
 7    1  0.3110367E-005  0.1187991E+03  0.7818608E-02  0.1300611E+00
          2   -1    0    0  502    0  0.00000000000E+00  0.00000000000E+00  0.71021102718E+03  0.71021102718E+03  0.00000000000E+00 0. -1.
          1   -1    0    0  501    0 -0.00000000000E+00 -0.00000000000E+00 -0.10246649480E+04  0.10246649480E+04  0.00000000000E+00 0. -1.
         25    2    1    2    0    0 -0.64600280117E+02  0.55995177517E+01 -0.17230966996E+03  0.22252757885E+03  0.12499340062E+03 0.  0.
          2    1    1    2  501    0  0.12829140340E+03  0.22468197538E+02 -0.82032765878E+03  0.83060277621E+03  0.00000000000E+00 0. -1.
          1    1    1    2  502    0 -0.63691123283E+02 -0.28067715289E+02  0.67818340790E+03  0.68174562014E+03  0.00000000000E+00 0. -1.
         22    1    3    3    0    0 -0.94526013531E+02  0.32534639329E+02 -0.11339089494E+03  0.15116601816E+03  0.00000000000E+00 0. -1.
         22    1    3    3    0    0  0.29925733414E+02 -0.26935121578E+02 -0.58918775027E+02  0.71361560699E+02  0.00000000000E+00 0. -1.
</event>
<event>
 7    1  0.3110367E-005  0.4422905E+02  0.7818608E-02  0.1566180E+00
          2   -1    0    0  502    0  0.00000000000E+00  0.00000000000E+00  0.13246101118E+04  0.13246101118E+04  0.00000000000E+00 0. -1.
          1   -1    0    0  501    0 -0.00000000000E+00 -0.00000000000E+00 -0.15941893965E+02  0.15941893965E+02  0.00000000000E+00 0. -1.
         25    2    1    2    0    0 -0.54557395838E+02  0.26910966860E+02  0.91932938667E+03  0.92978002389E+03  0.12499464807E+03 0.  0.
          2    1    1    2  501    0  0.43298450633E+02 -0.48514342183E+01  0.35866707222E+02  0.56433260832E+02  0.00000000000E+00 0. -1.
          1    1    1    2  502    0  0.11258945205E+02 -0.22059532642E+02  0.35347212395E+03  0.35433872105E+03  0.00000000000E+00 0. -1.
         22    1    3    3    0    0 -0.72086601392E+02 -0.93291355853E+01  0.28324645358E+03  0.29242445919E+03  0.00000000000E+00 0. -1.
         22    1    3    3    0    0  0.17529205554E+02  0.36240102446E+02  0.63608293309E+03  0.63735556469E+03  0.00000000000E+00 0. -1.
</event>
<event>
 7    1  0.3110367E-005  0.9423017E+02  0.7818608E-02  0.1311365E+00
          2   -1    0    0  502    0  0.00000000000E+00  0.00000000000E+00  0.18333288693E+04  0.18333288693E+04  0.00000000000E+00 0. -1.
          1   -1    0    0  501    0 -0.00000000000E+00 -0.00000000000E+00 -0.24684996150E+03  0.24684996150E+03  0.00000000000E+00 0. -1.
         25    2    1    2    0    0 -0.14834293202E+02 -0.16963562887E+03  0.17297086757E+03  0.27302086600E+03  0.12500067762E+03 0.  0.
          2    1    1    2  501    0 -0.44008638698E+01  0.79419229811E+02 -0.18740666766E+03  0.20358791897E+03  0.00000000000E+00 0. -1.
          1    1    1    2  502    0  0.19235157071E+02  0.90216399062E+02  0.16009147079E+04  0.16035700458E+04  0.00000000000E+00 0. -1.
         22    1    3    3    0    0 -0.21816344762E+02 -0.10508641113E+03  0.23232775495E+02  0.10981287976E+03  0.00000000000E+00 0. -1.
         22    1    3    3    0    0  0.69820515606E+01 -0.64549217739E+02  0.14973809207E+03  0.16320798624E+03  0.00000000000E+00 0. -1.
</event>
<event>
 7    1  0.3110367E-005  0.5518936E+02  0.7818608E-02  0.1563199E+00
          2   -1    0    0  502    0  0.00000000000E+00  0.00000000000E+00  0.89381142331E+03  0.89381142331E+03  0.00000000000E+00 0. -1.
          1   -1    0    0  501    0 -0.00000000000E+00 -0.00000000000E+00 -0.54172967201E+03  0.54172967201E+03  0.00000000000E+00 0. -1.
         25    2    1    2    0    0 -0.59722046865E+02 -0.14605464849E+02 -0.35629719542E+03  0.38256101471E+03  0.12500078409E+03 0.  0.
          2    1    1    2  501    0  0.53731359369E+02 -0.47113227714E+01 -0.16795984337E+03  0.17640794916E+03  0.00000000000E+00 0. -1.
          1    1    1    2  502    0  0.59906874958E+01  0.19316787621E+02  0.87633879009E+03  0.87657213145E+03  0.00000000000E+00 0. -1.
         22    1    3    3    0    0 -0.91675677632E+02  0.16599028928E+02 -0.26553511883E+03  0.28140514736E+03  0.00000000000E+00 0. -1.
         22    1    3    3    0    0  0.31953630767E+02 -0.31204493778E+02 -0.90762076595E+02  0.10115586735E+03  0.00000000000E+00 0. -1.
</event>
<event>
 7    1  0.3110367E-005  0.9584543E+02  0.7818608E-02  0.1440404E+00
          2   -1    0    0  502    0  0.00000000000E+00  0.00000000000E+00  0.28781191453E+03  0.28781191453E+03  0.00000000000E+00 0. -1.
          1   -1    0    0  501    0 -0.00000000000E+00 -0.00000000000E+00 -0.81599309760E+03  0.81599309760E+03  0.00000000000E+00 0. -1.
         25    2    1    2    0    0  0.31692131159E+02 -0.11085893107E+03 -0.16217578497E+02  0.17082601074E+03  0.12499768924E+03 0.  0.
          2    1    1    2  501    0 -0.20446743298E+02  0.17724861679E+02 -0.71175000288E+03  0.71226421126E+03  0.00000000000E+00 0. -1.
          1    1    1    2  502    0 -0.11245387860E+02  0.93134069394E+02  0.19978639832E+03  0.22071479013E+03  0.00000000000E+00 0. -1.
         22    1    3    3    0    0  0.28126667304E+02 -0.12875502115E+03 -0.42814199001E+02  0.13857135534E+03  0.00000000000E+00 0. -1.
         22    1    3    3    0    0  0.35654638546E+01  0.17896090077E+02  0.26596620505E+02  0.32254655397E+02  0.00000000000E+00 0. -1.
</event>
<event>
 7    1  0.3110367E-005  0.9707191E+02  0.7818608E-02  0.1340902E+00
          2   -1    0    0  502    0  0.00000000000E+00  0.00000000000E+00  0.48495663818E+03  0.48495663818E+03  0.00000000000E+00 0. -1.
          1   -1    0    0  501    0 -0.00000000000E+00 -0.00000000000E+00 -0.24898864770E+03  0.24898864770E+03  0.00000000000E+00 0. -1.
         25    2    1    2    0    0  0.66818544927E+02 -0.13594647797E+03  0.15628926947E+01  0.19639068413E+03  0.12498278026E+03 0.  0.
          2    1    1    2  501    0 -0.15297721561E+02  0.57448995788E+02 -0.13971186369E+03  0.15183481899E+03  0.00000000000E+00 0. -1.
          1    1    1    2  502    0 -0.51520823366E+02  0.78497482178E+02  0.37411696148E+03  0.38571978276E+03  0.00000000000E+00 0. -1.
         22    1    3    3    0    0  0.60151543165E+02 -0.15194794868E+03 -0.24338920472E+02  0.16522339514E+03  0.00000000000E+00 0.  1.
         22    1    3    3    0    0  0.66670017627E+01  0.16001470711E+02  0.25901813166E+02  0.31167288985E+02  0.00000000000E+00 0.  1.
</event>
<event>
 7    1  0.3110367E-005  0.3533807E+03  0.7818608E-02  0.1094675E+00
          2   -1    0    0  502    0  0.00000000000E+00  0.00000000000E+00  0.13696217264E+04  0.13696217264E+04  0.00000000000E+00 0. -1.
          1   -1    0    0  501    0 -0.00000000000E+00 -0.00000000000E+00 -0.81504287919E+03  0.81504287919E+03  0.00000000000E+00 0. -1.
         25    2    1    2    0    0 -0.22395175748E+03 -0.29288349004E+03  0.24625219154E+03  0.46065174964E+03  0.12499905676E+03 0.  0.
          2    1    1    2  501    0  0.92160841757E+01  0.35946737475E+03 -0.64828728035E+03  0.74133536782E+03  0.00000000000E+00 0. -1.
          1    1    1    2  502    0  0.21473567330E+03 -0.66583884702E+02  0.95661393604E+03  0.98267748815E+03  0.00000000000E+00 0. -1.
         22    1    3    3    0    0 -0.74453512195E+02 -0.15952574034E+03  0.17444574566E+03  0.24783685256E+03  0.00000000000E+00 0. -1.
         22    1    3    3    0    0 -0.14949824528E+03 -0.13335774971E+03  0.71806445884E+02  0.21281489708E+03  0.00000000000E+00 0. -1.
</event>
<event>
 7    1  0.3110367E-005  0.8981713E+02  0.7818608E-02  0.1311995E+00
          2   -1    0    0  502    0  0.00000000000E+00  0.00000000000E+00  0.15100347815E+04  0.15100347815E+04  0.00000000000E+00 0. -1.
          1   -1    0    0  501    0 -0.00000000000E+00 -0.00000000000E+00 -0.33929431255E+03  0.33929431255E+03  0.00000000000E+00 0. -1.
         25    2    1    2    0    0  0.65600465147E+02 -0.46528654174E+02  0.24530913704E+03  0.28682821288E+03  0.12500205719E+03 0.  0.
          2    1    1    2  501    0 -0.84216008429E+02 -0.34331239284E+02 -0.31062394443E+03  0.32366372197E+03  0.00000000000E+00 0. -1.
          1    1    1    2  502    0  0.18615543282E+02  0.80859893458E+02  0.12360552764E+04  0.12388371592E+04  0.00000000000E+00 0. -1.
         22    1    3    3    0    0  0.61820242613E+02 -0.77141224560E+02  0.10933588893E+03  0.14740029692E+03  0.00000000000E+00 0.  1.
         22    1    3    3    0    0  0.37802225334E+01  0.30612570386E+02  0.13597324810E+03  0.13942791596E+03  0.00000000000E+00 0.  1.
</event>
<event>
 7    1  0.3110367E-005  0.5804570E+03  0.7818608E-02  0.1094714E+00
          2   -1    0    0  502    0  0.00000000000E+00  0.00000000000E+00  0.41461411848E+03  0.41461411848E+03  0.00000000000E+00 0. -1.
          1   -1    0    0  501    0 -0.00000000000E+00 -0.00000000000E+00 -0.17536470447E+04  0.17536470447E+04  0.00000000000E+00 0. -1.
         25    2    1    2    0    0 -0.22377307768E+03 -0.59174585905E+03 -0.62158820151E+03  0.89567478193E+03  0.12499548287E+03 0.  0.
          2    1    1    2  501    0  0.94800698778E+02  0.54613505260E+03 -0.89237561197E+03  0.10505164925E+04  0.00000000000E+00 0. -1.
          1    1    1    2  502    0  0.12897237890E+03  0.45610806448E+02  0.17493088725E+03  0.22206988877E+03  0.00000000000E+00 0. -1.
         22    1    3    3    0    0 -0.21017085429E+03 -0.42961396025E+03 -0.50486927689E+03  0.69543722188E+03  0.00000000000E+00 0. -1.
         22    1    3    3    0    0 -0.13602223385E+02 -0.16213189880E+03 -0.11671892462E+03  0.20023756005E+03  0.00000000000E+00 0. -1.
</event>
<event>
 7    1  0.3110367E-005  0.3387952E+03  0.7818608E-02  0.1115301E+00
          2   -1    0    0  502    0  0.00000000000E+00  0.00000000000E+00  0.10547755199E+04  0.10547755199E+04  0.00000000000E+00 0. -1.
          1   -1    0    0  501    0 -0.00000000000E+00 -0.00000000000E+00 -0.20018407636E+03  0.20018407636E+03  0.00000000000E+00 0. -1.
         25    2    1    2    0    0 -0.11788465716E+03 -0.40141709956E+03  0.59035916951E+03  0.73428924645E+03  0.12499707281E+03 0.  0.
          2    1    1    2  501    0 -0.27999254709E+02  0.17769057369E+03  0.84513100283E+02  0.19874698077E+03  0.00000000000E+00 0. -1.
          1    1    1    2  502    0  0.14588391187E+03  0.22372652586E+03  0.17971917372E+03  0.32192336902E+03  0.00000000000E+00 0. -1.
         22    1    3    3    0    0 -0.13190925315E+03 -0.33961465991E+03  0.54801088996E+03  0.65806846437E+03  0.00000000000E+00 0. -1.
         22    1    3    3    0    0  0.14024595984E+02 -0.61802439647E+02  0.42348279555E+02  0.76220782075E+02  0.00000000000E+00 0. -1.
</event>
<event>
 7    1  0.3110367E-005  0.5114565E+03  0.7818608E-02  0.1133031E+00
          2   -1    0    0  502    0  0.00000000000E+00  0.00000000000E+00  0.16868734587E+04  0.16868734587E+04  0.00000000000E+00 0. -1.
          1   -1    0    0  501    0 -0.00000000000E+00 -0.00000000000E+00 -0.15935081169E+04  0.15935081169E+04  0.00000000000E+00 0. -1.
         25    2    1    2    0    0 -0.13667047666E+03 -0.55743310490E+03  0.11038406338E+04  0.12503998956E+04  0.12500107448E+03 0.  0.
          2    1    1    2  501    0  0.55881706421E+02  0.50628017744E+03 -0.14725303252E+04  0.15581360473E+04  0.00000000000E+00 0. -1.
          1    1    1    2  502    0  0.80788770243E+02  0.51152927453E+02  0.46205503327E+03  0.47184563276E+03  0.00000000000E+00 0. -1.
         22    1    3    3    0    0 -0.26933748461E+01 -0.39895609200E+02  0.27264582262E+02  0.48397017960E+02  0.00000000000E+00 0.  1.
         22    1    3    3    0    0 -0.13397710182E+03 -0.51753749569E+03  0.10765760515E+04  0.12020028777E+04  0.00000000000E+00 0.  1.
</event>
<event>
 7    1  0.3110367E-005  0.3768801E+03  0.7818608E-02  0.1111794E+00
          2   -1    0    0  502    0  0.00000000000E+00  0.00000000000E+00  0.10648007757E+04  0.10648007757E+04  0.00000000000E+00 0. -1.
          1   -1    0    0  501    0 -0.00000000000E+00 -0.00000000000E+00 -0.32112140498E+03  0.32112140498E+03  0.00000000000E+00 0. -1.
         25    2    1    2    0    0 -0.30949502232E+03 -0.47985661247E+02  0.35151430228E+03  0.48711129093E+03  0.12500125006E+03 0.  0.
          2    1    1    2  501    0 -0.15566955041E+03  0.65896605978E+02 -0.11954398930E+03  0.20704138954E+03  0.00000000000E+00 0. -1.
          1    1    1    2  502    0  0.46516457273E+03 -0.17910944731E+02  0.51170905779E+03  0.69176950026E+03  0.00000000000E+00 0. -1.
         22    1    3    3    0    0 -0.25822335566E+03 -0.50103455240E+00  0.22462574974E+03  0.34225177850E+03  0.00000000000E+00 0.  1.
         22    1    3    3    0    0 -0.51271666661E+02 -0.47484626695E+02  0.12688855253E+03  0.14485951242E+03  0.00000000000E+00 0.  1.
</event>
<event>
 7    1  0.3110367E-005  0.6865280E+02  0.7818608E-02  0.1394840E+00
          2   -1    0    0  502    0  0.00000000000E+00  0.00000000000E+00  0.38346006365E+03  0.38346006365E+03  0.00000000000E+00 0. -1.
          1   -1    0    0  501    0 -0.00000000000E+00 -0.00000000000E+00 -0.20101537878E+03  0.20101537878E+03  0.00000000000E+00 0. -1.
         25    2    1    2    0    0 -0.33621632219E+02  0.40778225200E+02  0.28233884363E+03  0.31326323428E+03  0.12500141410E+03 0.  0.
          2    1    1    2  501    0  0.69436099968E+02 -0.76310763207E+00 -0.16957318007E+03  0.18324032774E+03  0.00000000000E+00 0. -1.
          1    1    1    2  502    0 -0.35814467750E+02 -0.40015117568E+02  0.69679021303E+02  0.87971880416E+02  0.00000000000E+00 0. -1.
         22    1    3    3    0    0  0.31700784919E+01 -0.43494114358E+02  0.84009162820E+02  0.94653720578E+02  0.00000000000E+00 0.  1.
         22    1    3    3    0    0 -0.36791710711E+02  0.84272339558E+02  0.19832968081E+03  0.21860951371E+03  0.00000000000E+00 0.  1.
</event>
<event>
 7    1  0.3110367E-005  0.8215653E+03  0.7818608E-02  0.1068409E+00
          2   -1    0    0  502    0  0.00000000000E+00  0.00000000000E+00  0.67243839472E+03  0.67243839472E+03  0.00000000000E+00 0. -1.
          1   -1    0    0  501    0 -0.00000000000E+00 -0.00000000000E+00 -0.12045426987E+04  0.12045426987E+04  0.00000000000E+00 0. -1.
         25    2    1    2    0    0  0.75580110725E+03  0.30440788926E+03 -0.19651359401E+03  0.84743548485E+03  0.12501932483E+03 0.  0.
          2    1    1    2  501    0  0.59440385067E+02 -0.12411243986E+03 -0.61893305390E+02  0.15089015328E+03  0.00000000000E+00 0. -1.
          1    1    1    2  502    0 -0.81524149232E+03 -0.18029544940E+03 -0.27369740460E+03  0.87865545532E+03  0.00000000000E+00 0. -1.
         22    1    3    3    0    0  0.68964755611E+03  0.31318644117E+03 -0.18530096452E+03  0.77976659715E+03  0.00000000000E+00 0. -1.
         22    1    3    3    0    0  0.66153551140E+02 -0.87785519059E+01 -0.11212629490E+02  0.67668887696E+02  0.00000000000E+00 0. -1.
</event>
<event>
 7    1  0.3110367E-005  0.3856707E+03  0.7818608E-02  0.1235410E+00
          2   -1    0    0  502    0  0.00000000000E+00  0.00000000000E+00  0.37059430214E+03  0.37059430214E+03  0.00000000000E+00 0. -1.
          1   -1    0    0  501    0 -0.00000000000E+00 -0.00000000000E+00 -0.14117512748E+04  0.14117512748E+04  0.00000000000E+00 0. -1.
         25    2    1    2    0    0  0.23391572067E+03 -0.27645992162E+03 -0.12076677052E+04  0.12669787029E+04  0.12500837843E+03 0.  0.
          2    1    1    2  501    0 -0.72028103927E+01 -0.39725271323E+02  0.11625911638E+03  0.12306973552E+03  0.00000000000E+00 0. -1.
          1    1    1    2  502    0 -0.22671291028E+03  0.31618519294E+03  0.50251616240E+02  0.39229713847E+03  0.00000000000E+00 0. -1.
         22    1    3    3    0    0  0.12091496754E+03 -0.20833859782E+03 -0.91067885163E+03  0.94199860484E+03  0.00000000000E+00 0.  1.
         22    1    3    3    0    0  0.11300075313E+03 -0.68121323797E+02 -0.29698885361E+03  0.32498009805E+03  0.00000000000E+00 0.  1.
</event>
<event>
 7    1  0.3110367E-005  0.1219342E+03  0.7818608E-02  0.1323510E+00
          2   -1    0    0  502    0  0.00000000000E+00  0.00000000000E+00  0.69273383244E+03  0.69273383244E+03  0.00000000000E+00 0. -1.
          1   -1    0    0  501    0 -0.00000000000E+00 -0.00000000000E+00 -0.10023057296E+04  0.10023057296E+04  0.00000000000E+00 0. -1.
         25    2    1    2    0    0 -0.87086604059E+02 -0.45121710896E+02 -0.21931985400E+03  0.27082451475E+03  0.12499869613E+03 0.  0.
          2    1    1    2  501    0 -0.35585161891E+02  0.42100544749E+02 -0.75057029684E+03  0.75259187486E+03  0.00000000000E+00 0. -1.
          1    1    1    2  502    0  0.12267176595E+03  0.30211661470E+01  0.66031825367E+03  0.67162317243E+03  0.00000000000E+00 0. -1.
         22    1    3    3    0    0 -0.68471041767E+02  0.12472616313E+02 -0.37212541646E+02  0.78921625516E+02  0.00000000000E+00 0. -1.
         22    1    3    3    0    0 -0.18615562292E+02 -0.57594327208E+02 -0.18210731235E+03  0.19190288924E+03  0.00000000000E+00 0. -1.
</event>
<event>
 7    1  0.3110367E-005  0.2384990E+03  0.7818608E-02  0.1126254E+00
          2   -1    0    0  502    0  0.00000000000E+00  0.00000000000E+00  0.23566560491E+03  0.23566560491E+03  0.00000000000E+00 0. -1.
          1   -1    0    0  501    0 -0.00000000000E+00 -0.00000000000E+00 -0.28145553387E+04  0.28145553387E+04  0.00000000000E+00 0. -1.
         25    2    1    2    0    0  0.95780755909E+02 -0.17399811067E+03  0.19284356633E+02  0.23546792830E+03  0.12499585244E+03 0.  0.
          2    1    1    2  501    0 -0.24447443737E+03  0.79903667843E+01 -0.25795399208E+04  0.25911113058E+04  0.00000000000E+00 0. -1.
          1    1    1    2  502    0  0.14869368146E+03  0.16600774389E+03 -0.18634169673E+02  0.22364170947E+03  0.00000000000E+00 0. -1.
         22    1    3    3    0    0  0.47171517232E+02  0.58142176333E+01 -0.42598109031E+01  0.47719002018E+02  0.00000000000E+00 0.  1.
         22    1    3    3    0    0  0.48609238677E+02 -0.17981232831E+03  0.23544167536E+02  0.18774892628E+03  0.00000000000E+00 0.  1.
</event>
<event>
 7    1  0.3110367E-005  0.3899034E+03  0.7818608E-02  0.1157604E+00
          2   -1    0    0  502    0  0.00000000000E+00  0.00000000000E+00  0.36135074281E+04  0.36135074281E+04  0.00000000000E+00 0. -1.
          1   -1    0    0  501    0 -0.00000000000E+00 -0.00000000000E+00 -0.11224222683E+03  0.11224222683E+03  0.00000000000E+00 0. -1.
         25    2    1    2    0    0  0.12295251974E+03  0.42724336047E+03  0.18286363239E+04  0.18860513546E+04  0.12499878415E+03 0.  0.
          2    1    1    2  501    0 -0.49040581017E+02 -0.79628819900E+02 -0.31673901625E+02  0.98736840081E+02  0.00000000000E+00 0. -1.
          1    1    1    2  502    0 -0.73911938728E+02 -0.34761454057E+03  0.17043027790E+04  0.17409614602E+04  0.00000000000E+00 0. -1.
         22    1    3    3    0    0  0.13523544293E+03  0.25297073678E+03  0.11672907457E+04  0.12020193441E+04  0.00000000000E+00 0.  1.
         22    1    3    3    0    0 -0.12282923187E+02  0.17427262369E+03  0.66134557823E+03  0.68403201052E+03  0.00000000000E+00 0.  1.
</event>
<event>
 7    1  0.3110367E-005  0.1689110E+03  0.7818608E-02  0.1343334E+00
          2   -1    0    0  502    0  0.00000000000E+00  0.00000000000E+00  0.59631320216E+03  0.59631320216E+03  0.00000000000E+00 0. -1.
          1   -1    0    0  501    0 -0.00000000000E+00 -0.00000000000E+00 -0.19022841446E+03  0.19022841446E+03  0.00000000000E+00 0. -1.
         25    2    1    2    0    0 -0.12480085500E+02  0.15228072721E+03  0.26500585029E+03  0.33045104491E+03  0.12499847992E+03 0.  0.
          2    1    1    2  501    0  0.12980663084E+02  0.30835025970E+02 -0.12705985226E+03  0.13139064844E+03  0.00000000000E+00 0. -1.
          1    1    1    2  502    0 -0.50057758395E+00 -0.18311575318E+03  0.26813878967E+03  0.32469992326E+03  0.00000000000E+00 0. -1.
         22    1    3    3    0    0 -0.52722827293E+02  0.14323598413E+03  0.23161050793E+03  0.27738001199E+03  0.00000000000E+00 0. -1.
         22    1    3    3    0    0  0.40242741792E+02  0.90447430815E+01  0.33395342362E+02  0.53071032926E+02  0.00000000000E+00 0. -1.
</event>
<event>
 7    1  0.3110367E-005  0.1145236E+03  0.7818608E-02  0.1321878E+00
          2   -1    0    0  502    0  0.00000000000E+00  0.00000000000E+00  0.56120752331E+03  0.56120752331E+03  0.00000000000E+00 0. -1.
          1   -1    0    0  501    0 -0.00000000000E+00 -0.00000000000E+00 -0.39423496929E+03  0.39423496929E+03  0.00000000000E+00 0. -1.
         25    2    1    2    0    0  0.17085436547E+02 -0.67445325179E+02  0.29650966635E+02  0.14610099197E+03  0.12500214399E+03 0.  0.
          2    1    1    2  501    0 -0.26858727549E+02 -0.53149275173E+02 -0.32553291477E+03  0.33093491097E+03  0.00000000000E+00 0. -1.
          1    1    1    2  502    0  0.97732910021E+01  0.12059460035E+03  0.46285450216E+03  0.47840658965E+03  0.00000000000E+00 0. -1.
         22    1    3    3    0    0 -0.21251931259E+01 -0.83047411963E+02 -0.24458695743E+02  0.86600328388E+02  0.00000000000E+00 0.  1.
         22    1    3    3    0    0  0.19210629673E+02  0.15602086783E+02  0.54109662378E+02  0.59500663586E+02  0.00000000000E+00 0.  1.
</event>
<event>
 7    1  0.3110367E-005  0.2185009E+03  0.7818608E-02  0.1209016E+00
          2   -1    0    0  502    0  0.00000000000E+00  0.00000000000E+00  0.18006664930E+04  0.18006664930E+04  0.00000000000E+00 0. -1.
          1   -1    0    0  501    0 -0.00000000000E+00 -0.00000000000E+00 -0.88441533367E+03  0.88441533367E+03  0.00000000000E+00 0. -1.
         25    2    1    2    0    0  0.27183323711E+03  0.77169910078E+02  0.33389864969E+03  0.45493285813E+03  0.12500837300E+03 0.  0.
          2    1    1    2  501    0 -0.18489578696E+03 -0.11270981474E+03 -0.80805846562E+03  0.83656944616E+03  0.00000000000E+00 0. -1.
          1    1    1    2  502    0 -0.86937450150E+02  0.35539904664E+02  0.13904109753E+04  0.13935795224E+04  0.00000000000E+00 0. -1.
         22    1    3    3    0    0  0.15513096847E+03  0.10146413479E+03  0.16473387265E+03  0.24798757393E+03  0.00000000000E+00 0.  1.
         22    1    3    3    0    0  0.11670226864E+03 -0.24294224710E+02  0.16916477704E+03  0.20694528420E+03  0.00000000000E+00 0.  1.
</event>
<event>
 7    1  0.3110367E-005  0.1167858E+03  0.7818608E-02  0.1405263E+00
          2   -1    0    0  502    0  0.00000000000E+00  0.00000000000E+00  0.54181120792E+03  0.54181120792E+03  0.00000000000E+00 0. -1.
          1   -1    0    0  501    0 -0.00000000000E+00 -0.00000000000E+00 -0.10729142958E+04  0.10729142958E+04  0.00000000000E+00 0. -1.
         25    2    1    2    0    0  0.97275788670E+02 -0.10688554437E+03  0.13629064133E+03  0.23470932014E+03  0.12500490947E+03 0.  0.
          2    1    1    2  501    0 -0.82763680669E+02  0.81699168858E+02 -0.10198017744E+04  0.10264113406E+04  0.00000000000E+00 0. -1.
          1    1    1    2  502    0 -0.14512108001E+02  0.25186375508E+02  0.35240804511E+03  0.35360484307E+03  0.00000000000E+00 0. -1.
         22    1    3    3    0    0  0.10808859426E+03 -0.36052889597E+02  0.55561056631E+02  0.12676744879E+03  0.00000000000E+00 0. -1.
         22    1    3    3    0    0 -0.10812805592E+02 -0.70832654770E+02  0.80729584696E+02  0.10794187136E+03  0.00000000000E+00 0. -1.
</event>
<event>
 7    1  0.3110367E-005  0.2194726E+03  0.7818608E-02  0.1187571E+00
          2   -1    0    0  502    0  0.00000000000E+00  0.00000000000E+00  0.16257558993E+04  0.16257558993E+04  0.00000000000E+00 0. -1.
          1   -1    0    0  501    0 -0.00000000000E+00 -0.00000000000E+00 -0.37059016396E+03  0.37059016396E+03  0.00000000000E+00 0. -1.
         25    2    1    2    0    0  0.12525237545E+03  0.30001734940E+03  0.30517280511E+03  0.46309049154E+03  0.12499517943E+03 0.  0.
          2    1    1    2  501    0 -0.35432096786E+02 -0.11266776620E+03 -0.27052312254E+03  0.29518167092E+03  0.00000000000E+00 0. -1.
          1    1    1    2  502    0 -0.89820278661E+02 -0.18734958320E+03  0.12205160528E+04  0.12380739008E+04  0.00000000000E+00 0. -1.
         22    1    3    3    0    0  0.94803578561E+02  0.29860427217E+03  0.29661359180E+03  0.43143000905E+03  0.00000000000E+00 0. -1.
         22    1    3    3    0    0  0.30448796885E+02  0.14130772215E+01  0.85592133128E+01  0.31660482491E+02  0.00000000000E+00 0. -1.
</event>
<event>
 7    1  0.3110367E-005  0.6280531E+02  0.7818608E-02  0.1451693E+00
          2   -1    0    0  502    0  0.00000000000E+00  0.00000000000E+00  0.20940647242E+02  0.20940647242E+02  0.00000000000E+00 0. -1.
          1   -1    0    0  501    0 -0.00000000000E+00 -0.00000000000E+00 -0.17118800320E+04  0.17118800320E+04  0.00000000000E+00 0. -1.
         25    2    1    2    0    0 -0.23851677099E+02 -0.25587165056E+02 -0.52451952026E+03  0.54035117864E+03  0.12504024793E+03 0.  0.
          2    1    1    2  501    0 -0.37873219873E+02 -0.28752340461E+01 -0.10881202251E+04  0.10887829316E+04  0.00000000000E+00 0. -1.
          1    1    1    2  502    0  0.61724896972E+02  0.28462399102E+02 -0.78299639305E+02  0.10368656897E+03  0.00000000000E+00 0. -1.
         22    1    3    3    0    0 -0.14458689825E+02 -0.52266099996E+02 -0.91166098709E+02  0.10607571105E+03  0.00000000000E+00 0. -1.
         22    1    3    3    0    0 -0.93929872740E+01  0.26678934941E+02 -0.43335342156E+03  0.43427546759E+03  0.00000000000E+00 0. -1.
</event>
<event>
 7    1  0.3110367E-005  0.4829448E+03  0.7818608E-02  0.1136553E+00
          2   -1    0    0  502    0  0.00000000000E+00  0.00000000000E+00  0.88225533624E+03  0.88225533624E+03  0.00000000000E+00 0. -1.
          1   -1    0    0  501    0 -0.00000000000E+00 -0.00000000000E+00 -0.11491087561E+04  0.11491087561E+04  0.00000000000E+00 0. -1.
         25    2    1    2    0    0 -0.39845122535E+03  0.15770756732E+03 -0.72231125842E+02  0.45219179276E+03  0.12500010451E+03 0.  0.
          2    1    1    2  501    0 -0.40358199406E+02  0.88222471647E+02 -0.79216756087E+03  0.79808610642E+03  0.00000000000E+00 0. -1.
          1    1    1    2  502    0  0.43880942476E+03 -0.24593003897E+03  0.59754526681E+03  0.78108619321E+03  0.00000000000E+00 0. -1.
         22    1    3    3    0    0 -0.38479862154E+03  0.17620554509E+03 -0.65712308806E+02  0.42829485263E+03  0.00000000000E+00 0.  1.
         22    1    3    3    0    0 -0.13652603812E+02 -0.18497977766E+02 -0.65188170365E+01  0.23896940136E+02  0.00000000000E+00 0.  1.
</event>
<event>
 7    1  0.3110367E-005  0.4228253E+02  0.7818608E-02  0.1494300E+00
          2   -1    0    0  502    0  0.00000000000E+00  0.00000000000E+00  0.51137348986E+03  0.51137348986E+03  0.00000000000E+00 0. -1.
          1   -1    0    0  501    0 -0.00000000000E+00 -0.00000000000E+00 -0.30442308764E+02  0.30442308764E+02  0.00000000000E+00 0. -1.
         25    2    1    2    0    0  0.18347327217E+02  0.14547219224E+02  0.31072939092E+03  0.33574695735E+03  0.12500007595E+03 0.  0.
          2    1    1    2  501    0 -0.22248944034E+02  0.35955480250E+02  0.18534115794E+02  0.46166281190E+02  0.00000000000E+00 0. -1.
          1    1    1    2  502    0  0.39016168163E+01 -0.50502699475E+02  0.15166767438E+03  0.15990256008E+03  0.00000000000E+00 0. -1.
         22    1    3    3    0    0 -0.20345820357E+02 -0.13629832953E+02  0.34137793369E+01  0.24726072104E+02  0.00000000000E+00 0.  1.
         22    1    3    3    0    0  0.38693147574E+02  0.28177052177E+02  0.30731561158E+03  0.31102088525E+03  0.00000000000E+00 0.  1.
</event>
<event>
 7    1  0.3110367E-005  0.1266857E+03  0.7818608E-02  0.1327207E+00
          2   -1    0    0  502    0  0.00000000000E+00  0.00000000000E+00  0.16520335133E+04  0.16520335133E+04  0.00000000000E+00 0. -1.
          1   -1    0    0  501    0 -0.00000000000E+00 -0.00000000000E+00 -0.20801924408E+03  0.20801924408E+03  0.00000000000E+00 0. -1.
         25    2    1    2    0    0 -0.44942349811E+02 -0.89445578747E+02  0.50663503460E+03  0.53133643291E+03  0.12497607888E+03 0.  0.
          2    1    1    2  501    0  0.10588630516E+02  0.12760816307E+03 -0.17406351639E+03  0.21608810730E+03  0.00000000000E+00 0. -1.
          1    1    1    2  502    0  0.34353719296E+02 -0.38162584324E+02  0.11114427510E+04  0.11126282172E+04  0.00000000000E+00 0. -1.
         22    1    3    3    0    0 -0.24795370858E+02  0.17804493017E+02  0.31630394494E+02  0.43957846210E+02  0.00000000000E+00 0.  1.
         22    1    3    3    0    0 -0.20146978954E+02 -0.10725007176E+03  0.47500464011E+03  0.48737858670E+03  0.00000000000E+00 0.  1.
</event>
<event>
 7    1  0.3110367E-005  0.1050975E+03  0.7818608E-02  0.1342849E+00
          2   -1    0    0  502    0  0.00000000000E+00  0.00000000000E+00  0.16529104661E+04  0.16529104661E+04  0.00000000000E+00 0. -1.
          1   -1    0    0  501    0 -0.00000000000E+00 -0.00000000000E+00 -0.23850976521E+04  0.23850976521E+04  0.00000000000E+00 0. -1.
         25    2    1    2    0    0 -0.51402726549E+02 -0.75767341658E+01  0.10306016218E+03  0.17013518110E+03  0.12499974248E+03 0.  0.
          2    1    1    2  501    0  0.10267800458E+03  0.24498620433E+02 -0.23498942002E+04  0.23522639536E+04  0.00000000000E+00 0. -1.
          1    1    1    2  502    0 -0.51275278032E+02 -0.16921886268E+02  0.15146468520E+04  0.15156089835E+04  0.00000000000E+00 0. -1.
         22    1    3    3    0    0 -0.62516784937E+02  0.21272217305E+02  0.37711643719E+01  0.66144367172E+02  0.00000000000E+00 0.  1.
         22    1    3    3    0    0  0.11114058388E+02 -0.28848951471E+02  0.99288997808E+02  0.10399081392E+03  0.00000000000E+00 0.  1.
</event>
<event>
 7    1  0.3110367E-005  0.1839596E+03  0.7818608E-02  0.1207883E+00
          2   -1    0    0  502    0  0.00000000000E+00  0.00000000000E+00  0.75585805798E+02  0.75585805798E+02  0.00000000000E+00 0. -1.
          1   -1    0    0  501    0 -0.00000000000E+00 -0.00000000000E+00 -0.12382356374E+04  0.12382356374E+04  0.00000000000E+00 0. -1.
         25    2    1    2    0    0  0.17675308820E+03 -0.19919142186E+03 -0.61845156273E+03  0.68486139237E+03  0.12503565329E+03 0.  0.
          2    1    1    2  501    0 -0.98213897157E+02  0.11806311482E+03 -0.46847145269E+03  0.49300139012E+03  0.00000000000E+00 0. -1.
          1    1    1    2  502    0 -0.78539191045E+02  0.81128307037E+02 -0.75726816201E+02  0.13595866072E+03  0.00000000000E+00 0. -1.
         22    1    3    3    0    0  0.19251515304E+03 -0.19770815498E+03 -0.55994632363E+03  0.62425193955E+03  0.00000000000E+00 0.  1.
         22    1    3    3    0    0 -0.15762064837E+02 -0.14832668728E+01 -0.58505239100E+02  0.60609452816E+02  0.00000000000E+00 0.  1.
</event>
<event>
 7    1  0.3110367E-005  0.1304106E+03  0.7818608E-02  0.1259213E+00
          2   -1    0    0  502    0  0.00000000000E+00  0.00000000000E+00  0.31038688496E+03  0.31038688496E+03  0.00000000000E+00 0. -1.
          1   -1    0    0  501    0 -0.00000000000E+00 -0.00000000000E+00 -0.74661619448E+03  0.74661619448E+03  0.00000000000E+00 0. -1.
         25    2    1    2    0    0 -0.76571937921E+02 -0.11960228078E+03 -0.35640792967E+03  0.40350882439E+03  0.12499916714E+03 0.  0.
          2    1    1    2  501    0 -0.16241144602E+02  0.13468166934E+03 -0.34576076872E+03  0.37142083412E+03  0.00000000000E+00 0. -1.
          1    1    1    2  502    0  0.92813082523E+02 -0.15079388561E+02  0.26593938886E+03  0.28207342093E+03  0.00000000000E+00 0. -1.
         22    1    3    3    0    0  0.20969181682E+02  0.85339041508E+01 -0.18675828559E+02  0.29348265244E+02  0.00000000000E+00 0. -1.
         22    1    3    3    0    0 -0.97541119603E+02 -0.12813618493E+03 -0.33773210111E+03  0.37416055914E+03  0.00000000000E+00 0. -1.
</event>
<event>
 7    1  0.3110367E-005  0.2154441E+03  0.7818608E-02  0.1370939E+00
          2   -1    0    0  502    0  0.00000000000E+00  0.00000000000E+00  0.28279404274E+03  0.28279404274E+03  0.00000000000E+00 0. -1.
          1   -1    0    0  501    0 -0.00000000000E+00 -0.00000000000E+00 -0.10217289884E+04  0.10217289884E+04  0.00000000000E+00 0. -1.
         25    2    1    2    0    0 -0.13459871974E+03  0.16988258294E+03 -0.23075535558E+03  0.34036706822E+03  0.12499919863E+03 0.  0.
          2    1    1    2  501    0  0.17651162639E+02  0.10962127304E+02 -0.68511552538E+03  0.68543053251E+03  0.00000000000E+00 0. -1.
          1    1    1    2  502    0  0.11694755710E+03 -0.18084471024E+03  0.17693593532E+03  0.27872543039E+03  0.00000000000E+00 0. -1.
         22    1    3    3    0    0 -0.55327161084E+01  0.98916991285E+02 -0.12263801329E+03  0.15765552453E+03  0.00000000000E+00 0. -1.
         22    1    3    3    0    0 -0.12906600363E+03  0.70965591653E+02 -0.10811734229E+03  0.18271154369E+03  0.00000000000E+00 0. -1.
</event>
<event>
 7    1  0.3110367E-005  0.9053595E+02  0.7818608E-02  0.1382969E+00
          2   -1    0    0  502    0  0.00000000000E+00  0.00000000000E+00  0.15575909187E+04  0.15575909187E+04  0.00000000000E+00 0. -1.
          1   -1    0    0  501    0 -0.00000000000E+00 -0.00000000000E+00 -0.20249749184E+02  0.20249749184E+02  0.00000000000E+00 0. -1.
         25    2    1    2    0    0 -0.43894086233E+02 -0.43678931131E+02  0.41600717376E+03  0.43876863995E+03  0.12498564296E+03 0.  0.
          2    1    1    2  501    0 -0.44592381134E+02  0.43495177039E+01  0.68860355518E+02  0.82153194226E+02  0.00000000000E+00 0. -1.
          1    1    1    2  502    0  0.88486467367E+02  0.39329413427E+02  0.10524736403E+04  0.10569188338E+04  0.00000000000E+00 0. -1.
         22    1    3    3    0    0 -0.14501702522E+02 -0.58906590646E+02  0.39484795737E+03  0.39948115755E+03  0.00000000000E+00 0. -1.
         22    1    3    3    0    0 -0.29392383711E+02  0.15227659515E+02  0.21159216389E+02  0.39287482392E+02  0.00000000000E+00 0. -1.
</event>
<event>
 7    1  0.3110367E-005  0.7802004E+02  0.7818608E-02  0.1377569E+00
          2   -1    0    0  502    0  0.00000000000E+00  0.00000000000E+00  0.32670123405E+04  0.32670123405E+04  0.00000000000E+00 0. -1.
          1   -1    0    0  501    0 -0.00000000000E+00 -0.00000000000E+00 -0.19202497820E+02  0.19202497820E+02  0.00000000000E+00 0. -1.
         25    2    1    2    0    0 -0.87565842914E+02 -0.83017239268E+02  0.86738054381E+03  0.88461002793E+03  0.12500501942E+03 0.  0.
          2    1    1    2  501    0  0.51689774228E+02  0.16735112296E+02  0.64008564077E+02  0.83958281417E+02  0.00000000000E+00 0. -1.
          1    1    1    2  502    0  0.35876068686E+02  0.66282126972E+02  0.23164207348E+04  0.23176465289E+04  0.00000000000E+00 0. -1.
         22    1    3    3    0    0  0.81622103310E+01 -0.95303609056E+01  0.44989603038E+01  0.13330045022E+02  0.00000000000E+00 0.  1.
         22    1    3    3    0    0 -0.95728053245E+02 -0.73486878363E+02  0.86288158350E+03  0.87127998291E+03  0.00000000000E+00 0.  1.
</event>
<event>
 7    1  0.3110367E-005  0.5420692E+03  0.7818608E-02  0.1048499E+00
          2   -1    0    0  502    0  0.00000000000E+00  0.00000000000E+00  0.41522299944E+03  0.41522299944E+03  0.00000000000E+00 0. -1.
          1   -1    0    0  501    0 -0.00000000000E+00 -0.00000000000E+00 -0.12034293682E+04  0.12034293682E+04  0.00000000000E+00 0. -1.
         25    2    1    2    0    0 -0.28639886725E+03  0.59415959456E+03 -0.57717362141E+03  0.88532680500E+03  0.12499690970E+03 0.  0.
          2    1    1    2  501    0  0.28143249570E+03 -0.31839772829E+03 -0.10408881749E+03  0.43751096552E+03  0.00000000000E+00 0. -1.
          1    1    1    2  502    0  0.49663715459E+01 -0.27576186627E+03 -0.10694392983E+03  0.29581459711E+03  0.00000000000E+00 0. -1.
         22    1    3    3    0    0 -0.26947935731E+02  0.16816502576E+03 -0.17927457608E+03  0.24727523280E+03  0.00000000000E+00 0.  1.
         22    1    3    3    0    0 -0.25945093152E+03  0.42599456879E+03 -0.39789904534E+03  0.63805157220E+03  0.00000000000E+00 0.  1.
</event>
<event>
 7    1  0.4805735E-005  0.6945062E+02  0.7818608E-02  0.1385516E+00
          2   -1    0    0  502    0  0.00000000000E+00  0.00000000000E+00  0.38397356592E+04  0.38397356592E+04  0.00000000000E+00 0. -1.
          1   -1    0    0  501    0 -0.00000000000E+00 -0.00000000000E+00 -0.66803725148E+03  0.66803725148E+03  0.00000000000E+00 0. -1.
         25    2    1    2    0    0 -0.90938359479E+02 -0.20990135331E+02 -0.17781421303E+03  0.23654531820E+03  0.12500168879E+03 0.  0.
          2    1    1    2  501    0  0.43696391701E+02  0.53263799391E+02 -0.45806660123E+03  0.46321854253E+03  0.00000000000E+00 0. -1.
          1    1    1    2  502    0  0.47241967779E+02 -0.32273664059E+02  0.38075792219E+04  0.38080090499E+04  0.00000000000E+00 0. -1.
         22    1    3    3    0    0 -0.55998546534E+02  0.44119016010E+02 -0.44258855674E+02  0.83911686273E+02  0.00000000000E+00 0. -1.
         22    1    3    3    0    0 -0.34939812945E+02 -0.65109151341E+02 -0.13355535735E+03  0.15263363193E+03  0.00000000000E+00 0. -1.
</event>
<event>
 7    1  0.3110367E-005  0.1382961E+03  0.7818608E-02  0.1285912E+00
          2   -1    0    0  502    0  0.00000000000E+00  0.00000000000E+00  0.15482761685E+04  0.15482761685E+04  0.00000000000E+00 0. -1.
          1   -1    0    0  501    0 -0.00000000000E+00 -0.00000000000E+00 -0.10027630172E+04  0.10027630172E+04  0.00000000000E+00 0. -1.
         25    2    1    2    0    0  0.96892986305E+02  0.15424731298E+03  0.38249157892E+03  0.44169829140E+03  0.12496834929E+03 0.  0.
          2    1    1    2  501    0  0.52675321724E+01 -0.68361488083E+02 -0.96802338873E+03  0.97044851542E+03  0.00000000000E+00 0. -1.
          1    1    1    2  502    0 -0.10216051848E+03 -0.85885824899E+02  0.11310449612E+04  0.11388923789E+04  0.00000000000E+00 0. -1.
         22    1    3    3    0    0  0.47946564282E+02  0.12305721311E+03  0.14043008329E+03  0.19277592956E+03  0.00000000000E+00 0. -1.
         22    1    3    3    0    0  0.48946422022E+02  0.31190099873E+02  0.24206149563E+03  0.24892236184E+03  0.00000000000E+00 0. -1.
</event>
<event>
 7    1  0.3110367E-005  0.1425043E+03  0.7818608E-02  0.1227152E+00
          2   -1    0    0  502    0  0.00000000000E+00  0.00000000000E+00  0.25061194763E+04  0.25061194763E+04  0.00000000000E+00 0. -1.
          1   -1    0    0  501    0 -0.00000000000E+00 -0.00000000000E+00 -0.24872900924E+04  0.24872900924E+04  0.00000000000E+00 0. -1.
         25    2    1    2    0    0 -0.14933994510E+03  0.16805949834E+03  0.67350386842E+03  0.72095740881E+03  0.12500284137E+03 0.  0.
          2    1    1    2  501    0  0.13319332024E+03 -0.50193807851E+02 -0.24595474666E+04  0.24636626431E+04  0.00000000000E+00 0. -1.
          1    1    1    2  502    0  0.16146624855E+02 -0.11786569049E+03  0.18048729821E+04  0.18087895167E+04  0.00000000000E+00 0. -1.
         22    1    3    3    0    0 -0.47374053568E+02  0.24118215415E+02  0.49993535878E+02  0.72974947043E+02  0.00000000000E+00 0.  1.
         22    1    3    3    0    0 -0.10196589153E+03  0.14394128292E+03  0.62351033255E+03  0.64798246177E+03  0.00000000000E+00 0.  1.
</event>
<event>
 7    1  0.3110367E-005  0.3011842E+03  0.7818608E-02  0.1128247E+00
          2   -1    0    0  502    0  0.00000000000E+00  0.00000000000E+00  0.41382174828E+03  0.41382174828E+03  0.00000000000E+00 0. -1.
          1   -1    0    0  501    0 -0.00000000000E+00 -0.00000000000E+00 -0.10822826359E+04  0.10822826359E+04  0.00000000000E+00 0. -1.
         25    2    1    2    0    0 -0.28734974370E+03 -0.88942318022E+01 -0.16040185018E+03  0.35214080871E+03  0.12500165221E+03 0.  0.
          2    1    1    2  501    0  0.26186621225E+03  0.17919060451E+03 -0.76867987992E+03  0.83159602191E+03  0.00000000000E+00 0. -1.
          1    1    1    2  502    0  0.25483531445E+02 -0.17029637270E+03  0.26062084252E+03  0.31236755351E+03  0.00000000000E+00 0. -1.
         22    1    3    3    0    0 -0.18936171190E+03 -0.63604683973E+02 -0.11901819155E+03  0.23252686657E+03  0.00000000000E+00 0.  1.
         22    1    3    3    0    0 -0.97988031796E+02  0.54710452171E+02 -0.41383658629E+02  0.11961394214E+03  0.00000000000E+00 0.  1.
</event>
<event>
 7    1  0.3110367E-005  0.2076794E+03  0.7818608E-02  0.1229514E+00
          2   -1    0    0  502    0  0.00000000000E+00  0.00000000000E+00  0.21693356367E+04  0.21693356367E+04  0.00000000000E+00 0. -1.
          1   -1    0    0  501    0 -0.00000000000E+00 -0.00000000000E+00 -0.12536813592E+03  0.12536813592E+03  0.00000000000E+00 0. -1.
         25    2    1    2    0    0 -0.16984761516E+03 -0.22577343660E+03  0.16221024628E+04  0.16512616433E+04  0.12500703092E+03 0.  0.
          2    1    1    2  501    0  0.12761551383E+03  0.15822980042E+03 -0.10741292555E+02  0.20356267948E+03  0.00000000000E+00 0. -1.
          1    1    1    2  502    0  0.42232101325E+02  0.67543636177E+02  0.43260633058E+03  0.43987944988E+03  0.00000000000E+00 0. -1.
         22    1    3    3    0    0 -0.72983576752E+01 -0.90862147725E+01  0.37044127652E+03  0.37062456026E+03  0.00000000000E+00 0. -1.
         22    1    3    3    0    0 -0.16254925748E+03 -0.21668722183E+03  0.12516611863E+04  0.12806370830E+04  0.00000000000E+00 0. -1.
</event>
<event>
 7    1  0.3110367E-005  0.4727171E+02  0.7818608E-02  0.1487692E+00
          2   -1    0    0  502    0  0.00000000000E+00  0.00000000000E+00  0.27535316384E+04  0.27535316384E+04  0.00000000000E+00 0. -1.
          1   -1    0    0  501    0 -0.00000000000E+00 -0.00000000000E+00 -0.13566480783E+03  0.13566480783E+03  0.00000000000E+00 0. -1.
         25    2    1    2    0    0  0.81568780902E+02  0.25671416898E+02  0.10411490730E+04  0.10521101680E+04  0.12502770041E+03 0.  0.
          2    1    1    2  501    0 -0.46195192233E+02 -0.92777252436E+01 -0.12569042183E+03  0.13423171798E+03  0.00000000000E+00 0. -1.
          1    1    1    2  502    0 -0.35373588670E+02 -0.16393691654E+02  0.17024081794E+04  0.17028545602E+04  0.00000000000E+00 0. -1.
         22    1    3    3    0    0  0.11163274919E+03 -0.44290592355E+00  0.77456046929E+03  0.78256372740E+03  0.00000000000E+00 0.  1.
         22    1    3    3    0    0 -0.30063968289E+02  0.26114322821E+02  0.26658860367E+03  0.26954644063E+03  0.00000000000E+00 0.  1.
</event>
<event>
 7    1  0.3110367E-005  0.1262096E+04  0.7818608E-02  0.1111960E+00
          2   -1    0    0  502    0  0.00000000000E+00  0.00000000000E+00  0.23281539361E+04  0.23281539361E+04  0.00000000000E+00 0. -1.
          1   -1    0    0  501    0 -0.00000000000E+00 -0.00000000000E+00 -0.15014029015E+04  0.15014029015E+04  0.00000000000E+00 0. -1.
         25    2    1    2    0    0 -0.10536249027E+04  0.73754841483E+03  0.82047601908E+03  0.15306565440E+04  0.12500183259E+03 0.  0.
          2    1    1    2  501    0  0.10503314006E+04 -0.68728424707E+03 -0.80167914584E+03  0.14893774338E+04  0.00000000000E+00 0. -1.
          1    1    1    2  502    0  0.32935020113E+01 -0.50264167764E+02  0.80795416130E+03  0.80952285976E+03  0.00000000000E+00 0. -1.
         22    1    3    3    0    0 -0.10445812584E+03  0.75976439689E+02  0.40671659288E+02  0.13541825324E+03  0.00000000000E+00 0. -1.
         22    1    3    3    0    0 -0.94916677681E+03  0.66157197514E+03  0.77980435979E+03  0.13952382908E+04  0.00000000000E+00 0. -1.
</event>
<event>
 7    1  0.3110367E-005  0.3296988E+03  0.7818608E-02  0.1096133E+00
          2   -1    0    0  502    0  0.00000000000E+00  0.00000000000E+00  0.43828146175E+03  0.43828146175E+03  0.00000000000E+00 0. -1.
          1   -1    0    0  501    0 -0.00000000000E+00 -0.00000000000E+00 -0.20055819784E+04  0.20055819784E+04  0.00000000000E+00 0. -1.
         25    2    1    2    0    0  0.21292453363E+03 -0.71684384465E+02  0.29232589524E+03  0.38929772007E+03  0.12499111098E+03 0.  0.
          2    1    1    2  501    0  0.13963496749E+03 -0.29866937653E+03 -0.10151454912E+04  0.10673432854E+04  0.00000000000E+00 0. -1.
          1    1    1    2  502    0 -0.35255950112E+03  0.37035376100E+03 -0.84448092073E+03  0.98722243471E+03  0.00000000000E+00 0. -1.
         22    1    3    3    0    0  0.16554011783E+03 -0.58485377145E+02  0.29127769868E+03  0.34009817362E+03  0.00000000000E+00 0. -1.
         22    1    3    3    0    0  0.47384415798E+02 -0.13199007320E+02  0.10481965623E+01  0.49199546449E+02  0.00000000000E+00 0. -1.
</event>
<event>
 7    1  0.3110367E-005  0.1886210E+03  0.7818608E-02  0.1180298E+00
          2   -1    0    0  502    0  0.00000000000E+00  0.00000000000E+00  0.11864769031E+04  0.11864769031E+04  0.00000000000E+00 0. -1.
          1   -1    0    0  501    0 -0.00000000000E+00 -0.00000000000E+00 -0.13919199618E+03  0.13919199618E+03  0.00000000000E+00 0. -1.
         25    2    1    2    0    0  0.10140176239E+03  0.18325048881E+03  0.50250276696E+03  0.55856730189E+03  0.12500136350E+03 0.  0.
          2    1    1    2  501    0  0.47585402794E+02 -0.18752406782E+03 -0.89362983645E+01  0.19367370497E+03  0.00000000000E+00 0. -1.
          1    1    1    2  502    0 -0.14898716519E+03  0.42735790089E+01  0.55371843837E+03  0.57342789246E+03  0.00000000000E+00 0. -1.
         22    1    3    3    0    0  0.12476510422E+03  0.15759979931E+03  0.36429221854E+03  0.41606832187E+03  0.00000000000E+00 0.  1.
         22    1    3    3    0    0 -0.23363341831E+02  0.25650689499E+02  0.13821054842E+03  0.14249898003E+03  0.00000000000E+00 0.  1.
</event>
<event>
 7    1  0.3110367E-005  0.7260108E+03  0.7818608E-02  0.1108580E+00
          2   -1    0    0  502    0  0.00000000000E+00  0.00000000000E+00  0.10297517615E+04  0.10297517615E+04  0.00000000000E+00 0. -1.
          1   -1    0    0  501    0 -0.00000000000E+00 -0.00000000000E+00 -0.24427628405E+04  0.24427628405E+04  0.00000000000E+00 0. -1.
         25    2    1    2    0    0  0.51188382704E+03 -0.52211400333E+03  0.30806541592E+03  0.80321561542E+03  0.12499175774E+03 0.  0.
          2    1    1    2  501    0 -0.56909044959E+03  0.45080840228E+03 -0.21299740407E+04  0.22503069945E+04  0.00000000000E+00 0. -1.
          1    1    1    2  502    0  0.57206622554E+02  0.71305601051E+02  0.40889754580E+03  0.41899199201E+03  0.00000000000E+00 0. -1.
         22    1    3    3    0    0  0.43393567003E+03 -0.47259370488E+03  0.30603236584E+03  0.71084511995E+03  0.00000000000E+00 0. -1.
         22    1    3    3    0    0  0.77948157014E+02 -0.49520298448E+02  0.20330500856E+01  0.92370495467E+02  0.00000000000E+00 0. -1.
</event>
<event>
 7    1  0.3110367E-005  0.3926910E+02  0.7818608E-02  0.1528250E+00
          2   -1    0    0  502    0  0.00000000000E+00  0.00000000000E+00  0.16652246969E+04  0.16652246969E+04  0.00000000000E+00 0. -1.
          1   -1    0    0  501    0 -0.00000000000E+00 -0.00000000000E+00 -0.56289508806E+03  0.56289508806E+03  0.00000000000E+00 0. -1.
         25    2    1    2    0    0 -0.20432400893E+02 -0.65462678841E+02  0.14021083060E+03  0.19996745482E+03  0.12500024257E+03 0.  0.
          2    1    1    2  501    0  0.23759343864E+02  0.26542992278E+02 -0.53216604569E+03  0.53335704462E+03  0.00000000000E+00 0. -1.
          1    1    1    2  502    0 -0.33269429708E+01  0.38919686563E+02  0.14942848239E+04  0.14947952855E+04  0.00000000000E+00 0. -1.
         22    1    3    3    0    0 -0.26126627011E+01 -0.71556344781E+02  0.14758184724E+02  0.73109099989E+02  0.00000000000E+00 0.  1.
         22    1    3    3    0    0 -0.17819738192E+02  0.60936659399E+01  0.12545264588E+03  0.12685835483E+03  0.00000000000E+00 0.  1.
</event>
<event>
 7    1  0.3110367E-005  0.2154870E+03  0.7818608E-02  0.1150896E+00
          2   -1    0    0  502    0  0.00000000000E+00  0.00000000000E+00  0.39966556379E+03  0.39966556379E+03  0.00000000000E+00 0. -1.
          1   -1    0    0  501    0 -0.00000000000E+00 -0.00000000000E+00 -0.70899992853E+03  0.70899992853E+03  0.00000000000E+00 0. -1.
         25    2    1    2    0    0 -0.25553900578E+03  0.26786411943E+03  0.20616094199E+03  0.44179040711E+03  0.12500023945E+03 0.  0.
          2    1    1    2  501    0  0.14256714168E+03 -0.12376909584E+03 -0.10185186839E+03  0.21451802271E+03  0.00000000000E+00 0. -1.
          1    1    1    2  502    0  0.11297186410E+03 -0.14409502359E+03 -0.41364343835E+03  0.45235706250E+03  0.00000000000E+00 0. -1.
         22    1    3    3    0    0 -0.67261960634E+02  0.91552040897E+02  0.13041468521E+03  0.17295646175E+03  0.00000000000E+00 0. -1.
         22    1    3    3    0    0 -0.18827704515E+03  0.17631207853E+03  0.75746256778E+02  0.26883394537E+03  0.00000000000E+00 0. -1.
</event>
<event>
 7    1  0.3110367E-005  0.7945076E+02  0.7818608E-02  0.1358489E+00
          2   -1    0    0  502    0  0.00000000000E+00  0.00000000000E+00  0.21432044054E+04  0.21432044054E+04  0.00000000000E+00 0. -1.
          1   -1    0    0  501    0 -0.00000000000E+00 -0.00000000000E+00 -0.45926319908E+03  0.45926319908E+03  0.00000000000E+00 0. -1.
         25    2    1    2    0    0 -0.59683401320E+02  0.52406593960E+02  0.35881079679E+02  0.15237783138E+03  0.12499196828E+03 0.  0.
          2    1    1    2  501    0  0.56238397804E+02  0.27293284635E+02 -0.39779660529E+03  0.40267830827E+03  0.00000000000E+00 0. -1.
          1    1    1    2  502    0  0.34450035157E+01 -0.79699878595E+02  0.20458567320E+04  0.20474114649E+04  0.00000000000E+00 0. -1.
         22    1    3    3    0    0 -0.41444163859E+02  0.23843812980E+02  0.82134367753E+02  0.95037889821E+02  0.00000000000E+00 0. -1.
         22    1    3    3    0    0 -0.18239237461E+02  0.28562780981E+02 -0.46253288074E+02  0.57339941561E+02  0.00000000000E+00 0. -1.
</event>
<event>
 7    1  0.3110367E-005  0.8069930E+02  0.7818608E-02  0.1364233E+00
          2   -1    0    0  502    0  0.00000000000E+00  0.00000000000E+00  0.63962082360E+03  0.63962082360E+03  0.00000000000E+00 0. -1.
          1   -1    0    0  501    0 -0.00000000000E+00 -0.00000000000E+00 -0.15640173545E+03  0.15640173545E+03  0.00000000000E+00 0. -1.
         25    2    1    2    0    0  0.55068297678E+02  0.11913884200E+03  0.83979503773E+02  0.19976176090E+03  0.12500249190E+03 0.  0.
          2    1    1    2  501    0 -0.18406008534E+02 -0.73359987331E+02 -0.81945406352E+02  0.11151465605E+03  0.00000000000E+00 0. -1.
          1    1    1    2  502    0 -0.36662289144E+02 -0.45778854669E+02  0.48118499072E+03  0.48474614210E+03  0.00000000000E+00 0. -1.
         22    1    3    3    0    0 -0.14420149240E+02 -0.82277956183E+01  0.47269572831E+02  0.50100397608E+02  0.00000000000E+00 0.  1.
         22    1    3    3    0    0  0.69488446917E+02  0.12736663762E+03  0.36709930942E+02  0.14966136329E+03  0.00000000000E+00 0.  1.
</event>
<event>
 7    1  0.3110367E-005  0.1756855E+03  0.7818608E-02  0.1191124E+00
          2   -1    0    0  502    0  0.00000000000E+00  0.00000000000E+00  0.15788507480E+03  0.15788507480E+03  0.00000000000E+00 0. -1.
          1   -1    0    0  501    0 -0.00000000000E+00 -0.00000000000E+00 -0.10586477393E+04  0.10586477393E+04  0.00000000000E+00 0. -1.
         25    2    1    2    0    0 -0.12598193826E+03  0.10152310811E+02 -0.48987643446E+03  0.52113404289E+03  0.12500900540E+03 0.  0.
          2    1    1    2  501    0  0.15039080903E+02  0.14106025959E+03 -0.47614112043E+03  0.49682445326E+03  0.00000000000E+00 0. -1.
          1    1    1    2  502    0  0.11094285736E+03 -0.15121257040E+03  0.65254890359E+02  0.19857431798E+03  0.00000000000E+00 0. -1.
         22    1    3    3    0    0  0.17485814811E+00  0.31519385198E+02 -0.22246455059E+03  0.22468640032E+03  0.00000000000E+00 0.  1.
         22    1    3    3    0    0 -0.12615679641E+03 -0.21367074388E+02 -0.26741188387E+03  0.29644764257E+03  0.00000000000E+00 0.  1.
</event>
<event>
 7    1  0.3110367E-005  0.4895009E+03  0.7818608E-02  0.1169914E+00
          2   -1    0    0  502    0  0.00000000000E+00  0.00000000000E+00  0.44178811992E+03  0.44178811992E+03  0.00000000000E+00 0. -1.
          1   -1    0    0  501    0 -0.00000000000E+00 -0.00000000000E+00 -0.20053482472E+04  0.20053482472E+04  0.00000000000E+00 0. -1.
         25    2    1    2    0    0  0.44560540677E+03 -0.20775723843E+03 -0.83946574069E+02  0.51419795419E+03  0.12500104050E+03 0.  0.
          2    1    1    2  501    0 -0.32889816628E+02 -0.55610105877E+02 -0.14403283606E+04  0.14417766853E+04  0.00000000000E+00 0. -1.
          1    1    1    2  502    0 -0.41271559014E+03  0.26336734430E+03 -0.39285192664E+02  0.49116172770E+03  0.00000000000E+00 0. -1.
         22    1    3    3    0    0  0.13761886699E+03 -0.76531141894E+02 -0.85985413141E+02  0.17941421210E+03  0.00000000000E+00 0. -1.
         22    1    3    3    0    0  0.30798653979E+03 -0.13122609653E+03  0.20388390719E+01  0.33478374209E+03  0.00000000000E+00 0. -1.
</event>
<event>
 7    1  0.3110367E-005  0.1472090E+03  0.7818608E-02  0.1248009E+00
          2   -1    0    0  502    0  0.00000000000E+00  0.00000000000E+00  0.15693465045E+03  0.15693465045E+03  0.00000000000E+00 0. -1.
          1   -1    0    0  501    0 -0.00000000000E+00 -0.00000000000E+00 -0.10220926452E+04  0.10220926452E+04  0.00000000000E+00 0. -1.
         25    2    1    2    0    0 -0.11883522222E+03 -0.19005532273E+03 -0.40119600204E+03  0.47626373921E+03  0.12500432589E+03 0.  0.
          2    1    1    2  501    0  0.63417134818E+02  0.11524240264E+03 -0.55629762369E+03  0.57163763914E+03  0.00000000000E+00 0. -1.
          1    1    1    2  502    0  0.55418087402E+02  0.74812920092E+02  0.92335631018E+02  0.13112591727E+03  0.00000000000E+00 0. -1.
         22    1    3    3    0    0 -0.12708298566E+03 -0.11468901074E+03 -0.33238813888E+03  0.37387903030E+03  0.00000000000E+00 0.  1.
         22    1    3    3    0    0  0.82477634427E+01 -0.75366311995E+02 -0.68807863157E+02  0.10238470891E+03  0.00000000000E+00 0.  1.
</event>
<event>
 7    1  0.3110367E-005  0.2125221E+03  0.7818608E-02  0.1318797E+00
          2   -1    0    0  502    0  0.00000000000E+00  0.00000000000E+00  0.10506927277E+04  0.10506927277E+04  0.00000000000E+00 0. -1.
          1   -1    0    0  501    0 -0.00000000000E+00 -0.00000000000E+00 -0.36937452785E+03  0.36937452785E+03  0.00000000000E+00 0. -1.
         25    2    1    2    0    0  0.15155616689E+03  0.14688650909E+03 -0.17094775141E+03  0.29898207873E+03  0.12498892516E+03 0.  0.
          2    1    1    2  501    0  0.22290636823E+02 -0.24313966931E+02 -0.12070648399E+03  0.12513231699E+03  0.00000000000E+00 0. -1.
          1    1    1    2  502    0 -0.17384680371E+03 -0.12257254216E+03  0.97297243524E+03  0.99595285983E+03  0.00000000000E+00 0. -1.
         22    1    3    3    0    0  0.13007765232E+03  0.16843324435E+03 -0.16140087556E+03  0.26709585558E+03  0.00000000000E+00 0. -1.
         22    1    3    3    0    0  0.21478514565E+02 -0.21546735260E+02 -0.95468758565E+01  0.31886223152E+02  0.00000000000E+00 0. -1.
</event>
<event>
 7    1  0.3110367E-005  0.6487425E+03  0.7818608E-02  0.1033000E+00
          2   -1    0    0  502    0  0.00000000000E+00  0.00000000000E+00  0.16857803402E+04  0.16857803402E+04  0.00000000000E+00 0. -1.
          1   -1    0    0  501    0 -0.00000000000E+00 -0.00000000000E+00 -0.16047085846E+04  0.16047085846E+04  0.00000000000E+00 0. -1.
         25    2    1    2    0    0  0.35476220194E+03  0.18575500968E+03 -0.10586567464E+04  0.11387448308E+04  0.12499815826E+03 0.  0.
          2    1    1    2  501    0  0.28820326625E+03 -0.16049012964E+02 -0.38914530114E+03  0.48451290891E+03  0.00000000000E+00 0. -1.
          1    1    1    2  502    0 -0.64296546820E+03 -0.16970599672E+03  0.15288738031E+04  0.16672311850E+04  0.00000000000E+00 0. -1.
         22    1    3    3    0    0  0.45363684737E+02  0.57921995234E+02 -0.10640867107E+03  0.12936625025E+03  0.00000000000E+00 0.  1.
         22    1    3    3    0    0  0.30939851721E+03  0.12783301445E+03 -0.95224807529E+03  0.10093785806E+04  0.00000000000E+00 0.  1.
</event>
<event>
 7    1  0.3110367E-005  0.7975111E+02  0.7818608E-02  0.1375073E+00
          2   -1    0    0  502    0  0.00000000000E+00  0.00000000000E+00  0.99064932343E+03  0.99064932343E+03  0.00000000000E+00 0. -1.
          1   -1    0    0  501    0 -0.00000000000E+00 -0.00000000000E+00 -0.76168942504E+03  0.76168942504E+03  0.00000000000E+00 0. -1.
         25    2    1    2    0    0 -0.11232253446E+02  0.13012665850E+03  0.57852994980E+03  0.60611807590E+03  0.12499243316E+03 0.  0.
          2    1    1    2  501    0  0.20986240762E+02 -0.76759331634E+02 -0.74391621209E+03  0.74816024213E+03  0.00000000000E+00 0. -1.
          1    1    1    2  502    0 -0.97539873152E+01 -0.53367326861E+02  0.39434616067E+03  0.39806043044E+03  0.00000000000E+00 0. -1.
         22    1    3    3    0    0  0.30080915776E+02  0.13097337223E+03  0.37284559144E+03  0.39632400985E+03  0.00000000000E+00 0. -1.
         22    1    3    3    0    0 -0.41313169223E+02 -0.84671373323E+00  0.20568435836E+03  0.20979406605E+03  0.00000000000E+00 0. -1.
</event>
<event>
 7    1  0.3110367E-005  0.5781981E+03  0.7818608E-02  0.1055793E+00
          2   -1    0    0  502    0  0.00000000000E+00  0.00000000000E+00  0.78750188354E+03  0.78750188354E+03  0.00000000000E+00 0. -1.
          1   -1    0    0  501    0 -0.00000000000E+00 -0.00000000000E+00 -0.20599664822E+04  0.20599664822E+04  0.00000000000E+00 0. -1.
         25    2    1    2    0    0  0.47679532453E+03 -0.60250772828E+03 -0.15013606858E+04  0.16911706541E+04  0.12499971322E+03 0.  0.
          2    1    1    2  501    0 -0.56003578014E+02  0.22629428975E+03 -0.30193176586E+03  0.38145549880E+03  0.00000000000E+00 0. -1.
          1    1    1    2  502    0 -0.42079174652E+03  0.37621343853E+03  0.53082785300E+03  0.77484221284E+03  0.00000000000E+00 0. -1.
         22    1    3    3    0    0  0.48098230748E+03 -0.57158145241E+03 -0.14484672510E+04  0.16297566426E+04  0.00000000000E+00 0.  1.
         22    1    3    3    0    0 -0.41869829466E+01 -0.30926275874E+02 -0.52893434821E+02  0.61414011535E+02  0.00000000000E+00 0.  1.
</event>
<event>
 7    1  0.3110367E-005  0.1972439E+03  0.7818608E-02  0.1167857E+00
          2   -1    0    0  502    0  0.00000000000E+00  0.00000000000E+00  0.11912826518E+04  0.11912826518E+04  0.00000000000E+00 0. -1.
          1   -1    0    0  501    0 -0.00000000000E+00 -0.00000000000E+00 -0.53642937004E+03  0.53642937004E+03  0.00000000000E+00 0. -1.
         25    2    1    2    0    0  0.23018627508E+03 -0.12418732801E+03 -0.52862691537E+02  0.29466443429E+03  0.12499780401E+03 0.  0.
          2    1    1    2  501    0 -0.18997276738E+03 -0.34973106510E+02 -0.33002659388E+03  0.38240073639E+03  0.00000000000E+00 0. -1.
          1    1    1    2  502    0 -0.40213507701E+02  0.15916043452E+03  0.10377425672E+04  0.10506468512E+04  0.00000000000E+00 0. -1.
         22    1    3    3    0    0  0.16985678040E+01  0.10507617450E+02  0.17295044238E+02  0.20307971643E+02  0.00000000000E+00 0.  1.
         22    1    3    3    0    0  0.22848770727E+03 -0.13469494546E+03 -0.70157735774E+02  0.27435646265E+03  0.00000000000E+00 0.  1.
</event>
<event>
 7    1  0.3110367E-005  0.1297797E+03  0.7818608E-02  0.1345672E+00
          2   -1    0    0  502    0  0.00000000000E+00  0.00000000000E+00  0.28882786237E+03  0.28882786237E+03  0.00000000000E+00 0. -1.
          1   -1    0    0  501    0 -0.00000000000E+00 -0.00000000000E+00 -0.10181270906E+04  0.10181270906E+04  0.00000000000E+00 0. -1.
         25    2    1    2    0    0 -0.32736832960E+02 -0.14094373810E+03 -0.16315223202E+03  0.25135721324E+03  0.12499984116E+03 0.  0.
          2    1    1    2  501    0  0.63839032690E+02  0.11172151663E+03 -0.80385538222E+03  0.81408881265E+03  0.00000000000E+00 0. -1.
          1    1    1    2  502    0 -0.31102199730E+02  0.29222221472E+02  0.23770838604E+03  0.24150892706E+03  0.00000000000E+00 0. -1.
         22    1    3    3    0    0  0.33045043624E+02 -0.79032388487E+00 -0.12516777526E+02  0.35345003036E+02  0.00000000000E+00 0. -1.
         22    1    3    3    0    0 -0.65781876585E+02 -0.14015341422E+03 -0.15063545449E+03  0.21601221020E+03  0.00000000000E+00 0. -1.
</event>
<event>
 7    1  0.3110367E-005  0.3251563E+03  0.7818608E-02  0.1105802E+00
          2   -1    0    0  502    0  0.00000000000E+00  0.00000000000E+00  0.18856465872E+04  0.18856465872E+04  0.00000000000E+00 0. -1.
          1   -1    0    0  501    0 -0.00000000000E+00 -0.00000000000E+00 -0.11096713537E+04  0.11096713537E+04  0.00000000000E+00 0. -1.
         25    2    1    2    0    0 -0.38814774797E+03  0.46018035096E+02  0.15404967636E+03  0.43833053092E+03  0.12500407089E+03 0.  0.
          2    1    1    2  501    0  0.97004906364E+02 -0.18794698327E+03 -0.93914643908E+03  0.96266819539E+03  0.00000000000E+00 0. -1.
          1    1    1    2  502    0  0.29114284161E+03  0.14192894817E+03  0.15610719962E+04  0.15943192146E+04  0.00000000000E+00 0. -1.
         22    1    3    3    0    0 -0.24066991861E+03  0.89186618685E+02  0.99274478972E+02  0.27519390409E+03  0.00000000000E+00 0.  1.
         22    1    3    3    0    0 -0.14747782936E+03 -0.43168583590E+02  0.54775197385E+02  0.16313662682E+03  0.00000000000E+00 0.  1.
</event>
<event>
 7    1  0.3110367E-005  0.7667057E+02  0.7818608E-02  0.1467568E+00
          2   -1    0    0  502    0  0.00000000000E+00  0.00000000000E+00  0.53146794679E+03  0.53146794679E+03  0.00000000000E+00 0. -1.
          1   -1    0    0  501    0 -0.00000000000E+00 -0.00000000000E+00 -0.65588866891E+03  0.65588866891E+03  0.00000000000E+00 0. -1.
         25    2    1    2    0    0  0.10369249624E+02 -0.91392921899E+02  0.13915602183E+03  0.20845010231E+03  0.12500743671E+03 0.  0.
          2    1    1    2  501    0 -0.28951604556E+02  0.70819796047E+02 -0.61834318590E+03  0.62305853214E+03  0.00000000000E+00 0. -1.
          1    1    1    2  502    0  0.18582354933E+02  0.20573125852E+02  0.35476644195E+03  0.35584798125E+03  0.00000000000E+00 0. -1.
         22    1    3    3    0    0 -0.42401760599E+02 -0.54793587692E+01  0.82187086405E+02  0.92642591966E+02  0.00000000000E+00 0. -1.
         22    1    3    3    0    0  0.52771010222E+02 -0.85913563130E+02  0.56968935421E+02  0.11580751035E+03  0.00000000000E+00 0. -1.
</event>
<event>
 7    1  0.3110367E-005  0.6993868E+03  0.7818608E-02  0.1200922E+00
          2   -1    0    0  502    0  0.00000000000E+00  0.00000000000E+00  0.37910904424E+03  0.37910904424E+03  0.00000000000E+00 0. -1.
          1   -1    0    0  501    0 -0.00000000000E+00 -0.00000000000E+00 -0.16293847781E+04  0.16293847781E+04  0.00000000000E+00 0. -1.
         25    2    1    2    0    0  0.28056504613E+03  0.62217973826E+03 -0.86526784852E+03  0.11091161720E+04  0.12500344578E+03 0.  0.
          2    1    1    2  501    0  0.28460733716E+02  0.14660493987E+02 -0.15022616121E+03  0.15359961901E+03  0.00000000000E+00 0. -1.
          1    1    1    2  502    0 -0.30902577984E+03 -0.63684023224E+03 -0.23478172409E+03  0.74577803131E+03  0.00000000000E+00 0. -1.
         22    1    3    3    0    0  0.18950657217E+03  0.28553220338E+03 -0.38256645486E+03  0.51361315447E+03  0.00000000000E+00 0. -1.
         22    1    3    3    0    0  0.91058473955E+02  0.33664753488E+03 -0.48270139366E+03  0.59550301751E+03  0.00000000000E+00 0. -1.
</event>
<event>
 7    1  0.3110367E-005  0.1930026E+03  0.7818608E-02  0.1308939E+00
          2   -1    0    0  502    0  0.00000000000E+00  0.00000000000E+00  0.17951542325E+04  0.17951542325E+04  0.00000000000E+00 0. -1.
          1   -1    0    0  501    0 -0.00000000000E+00 -0.00000000000E+00 -0.51036063968E+03  0.51036063968E+03  0.00000000000E+00 0. -1.
         25    2    1    2    0    0  0.18492556977E+03  0.11384183030E+03  0.49854873234E+02  0.25547557738E+03  0.12499933429E+03 0.  0.
          2    1    1    2  501    0 -0.84033420394E+01 -0.38799224049E+02 -0.40096675754E+03  0.40292721005E+03  0.00000000000E+00 0. -1.
          1    1    1    2  502    0 -0.17652222773E+03 -0.75042606251E+02  0.16359054772E+04  0.16471120848E+04  0.00000000000E+00 0. -1.
         22    1    3    3    0    0  0.15499946823E+03  0.10229747784E+03  0.88107785285E+02  0.20555435035E+03  0.00000000000E+00 0.  1.
         22    1    3    3    0    0  0.29926101545E+02  0.11544352465E+02 -0.38252912052E+02  0.49921227028E+02  0.00000000000E+00 0.  1.
</event>
<event>
 7    1  0.3110367E-005  0.5594522E+03  0.7818608E-02  0.1177838E+00
          2   -1    0    0  502    0  0.00000000000E+00  0.00000000000E+00  0.27312241593E+04  0.27312241593E+04  0.00000000000E+00 0. -1.
          1   -1    0    0  501    0 -0.00000000000E+00 -0.00000000000E+00 -0.18104133770E+03  0.18104133770E+03  0.00000000000E+00 0. -1.
         25    2    1    2    0    0  0.24048379332E+03 -0.48458172546E+03  0.15927136840E+04  0.16867168312E+04  0.12499954353E+03 0.  0.
          2    1    1    2  501    0  0.11774406997E+02 -0.50304038702E+02 -0.40410997370E+02  0.65591018275E+02  0.00000000000E+00 0. -1.
          1    1    1    2  502    0 -0.25225820031E+03  0.53488576416E+03  0.99788013500E+03  0.11599576476E+04  0.00000000000E+00 0. -1.
         22    1    3    3    0    0  0.52433866872E+02 -0.19143975208E+03  0.44355715965E+03  0.48594386810E+03  0.00000000000E+00 0. -1.
         22    1    3    3    0    0  0.18804992644E+03 -0.29314197338E+03  0.11491565243E+04  0.12007729631E+04  0.00000000000E+00 0. -1.
</event>
<event>
 7    1  0.3110367E-005  0.2959409E+03  0.7818608E-02  0.1185693E+00
          2   -1    0    0  502    0  0.00000000000E+00  0.00000000000E+00  0.12203281115E+04  0.12203281115E+04  0.00000000000E+00 0. -1.
          1   -1    0    0  501    0 -0.00000000000E+00 -0.00000000000E+00 -0.85929968509E+03  0.85929968509E+03  0.00000000000E+00 0. -1.
         25    2    1    2    0    0 -0.21419125412E+03 -0.23119732633E+03  0.28225787234E+03  0.44116260096E+03  0.12499934778E+03 0.  0.
          2    1    1    2  501    0 -0.37413183984E+02  0.81235055146E+02 -0.75214051966E+03  0.75743926610E+03  0.00000000000E+00 0. -1.
          1    1    1    2  502    0  0.25160443810E+03  0.14996227119E+03  0.83091107377E+03  0.88102592957E+03  0.00000000000E+00 0. -1.
         22    1    3    3    0    0 -0.12501875362E+03 -0.51332584742E+02  0.14348899131E+03  0.19711370738E+03  0.00000000000E+00 0.  1.
         22    1    3    3    0    0 -0.89172500496E+02 -0.17986474159E+03  0.13876888103E+03  0.24404889357E+03  0.00000000000E+00 0.  1.
</event>
<event>
 7    1  0.3110367E-005  0.1607056E+03  0.7818608E-02  0.1221577E+00
          2   -1    0    0  502    0  0.00000000000E+00  0.00000000000E+00  0.19905181770E+04  0.19905181770E+04  0.00000000000E+00 0. -1.
          1   -1    0    0  501    0 -0.00000000000E+00 -0.00000000000E+00 -0.64648087473E+03  0.64648087473E+03  0.00000000000E+00 0. -1.
         25    2    1    2    0    0  0.12584306003E+03  0.92451484225E+02  0.96775002888E+03  0.98820541259E+03  0.12500426542E+03 0.  0.
          2    1    1    2  501    0 -0.34805190721E+02 -0.15735229463E+03 -0.62288033192E+03  0.64339028111E+03  0.00000000000E+00 0. -1.
          1    1    1    2  502    0 -0.91037869309E+02  0.64900810401E+02  0.99916760532E+03  0.10054033580E+04  0.00000000000E+00 0. -1.
         22    1    3    3    0    0 -0.52815611251E+01  0.65877468795E+02  0.33794330600E+03  0.34434490537E+03  0.00000000000E+00 0. -1.
         22    1    3    3    0    0  0.13112462116E+03  0.26574015429E+02  0.62980672288E+03  0.64386050722E+03  0.00000000000E+00 0. -1.
</event>
<event>
 7    1  0.3110367E-005  0.1362953E+03  0.7818608E-02  0.1399544E+00
          2   -1    0    0  502    0  0.00000000000E+00  0.00000000000E+00  0.71629667467E+03  0.71629667467E+03  0.00000000000E+00 0. -1.
          1   -1    0    0  501    0 -0.00000000000E+00 -0.00000000000E+00 -0.99546503381E+02  0.99546503381E+02  0.00000000000E+00 0. -1.
         25    2    1    2    0    0 -0.57231049549E+02  0.10455212096E+03  0.43780423817E+03  0.47064276791E+03  0.12500209998E+03 0.  0.
          2    1    1    2  501    0  0.82340627163E+02 -0.11151381995E+03 -0.23919951145E+02  0.14066796005E+03  0.00000000000E+00 0. -1.
          1    1    1    2  502    0 -0.25109577614E+02  0.69616989910E+01  0.20286588426E+03  0.20453245009E+03  0.00000000000E+00 0. -1.
         22    1    3    3    0    0 -0.62292357978E+02  0.13134357702E+03  0.37397363521E+03  0.40123279143E+03  0.00000000000E+00 0. -1.
         22    1    3    3    0    0  0.50613084289E+01 -0.26791456061E+02  0.63830602960E+02  0.69409976481E+02  0.00000000000E+00 0. -1.
</event>
<event>
 7    1  0.3110367E-005  0.1408398E+03  0.7818608E-02  0.1281667E+00
          2   -1    0    0  502    0  0.00000000000E+00  0.00000000000E+00  0.63992792935E+03  0.63992792935E+03  0.00000000000E+00 0. -1.
          1   -1    0    0  501    0 -0.00000000000E+00 -0.00000000000E+00 -0.25999842763E+03  0.25999842763E+03  0.00000000000E+00 0. -1.
         25    2    1    2    0    0 -0.11622598706E+03 -0.62540497114E+02  0.21459117428E+03  0.28123774497E+03  0.12500201305E+03 0.  0.
          2    1    1    2  501    0 -0.33350066295E+02  0.61639887332E+02 -0.20640599934E+03  0.21797967610E+03  0.00000000000E+00 0. -1.
          1    1    1    2  502    0  0.14957605336E+03  0.90060978218E+00  0.37174432677E+03  0.40070893592E+03  0.00000000000E+00 0. -1.
         22    1    3    3    0    0 -0.56426657288E+02  0.23121388405E+02  0.14049762147E+03  0.15316052982E+03  0.00000000000E+00 0.  1.
         22    1    3    3    0    0 -0.59799329776E+02 -0.85661885520E+02  0.74093552811E+02  0.12807721515E+03  0.00000000000E+00 0.  1.
</event>
<event>
 7    1  0.3110367E-005  0.2204855E+03  0.7818608E-02  0.1174295E+00
          2   -1    0    0  502    0  0.00000000000E+00  0.00000000000E+00  0.38144853244E+04  0.38144853244E+04  0.00000000000E+00 0. -1.
          1   -1    0    0  501    0 -0.00000000000E+00 -0.00000000000E+00 -0.15714713132E+04  0.15714713132E+04  0.00000000000E+00 0. -1.
         25    2    1    2    0    0 -0.24292838849E+03 -0.13611072705E+03  0.30824674396E+03  0.43380049765E+03  0.12500593843E+03 0.  0.
          2    1    1    2  501    0  0.23876418449E+02  0.13434669680E+03 -0.15021149416E+04  0.15082998429E+04  0.00000000000E+00 0. -1.
          1    1    1    2  502    0  0.21905197005E+03  0.17640302503E+01  0.34368822089E+04  0.34438562971E+04  0.00000000000E+00 0. -1.
         22    1    3    3    0    0  0.12813985622E+02 -0.52320058126E+01  0.33660845335E+02  0.36395392854E+02  0.00000000000E+00 0.  1.
         22    1    3    3    0    0 -0.25574237412E+03 -0.13087872124E+03  0.27458589862E+03  0.39740510479E+03  0.00000000000E+00 0.  1.
</event>
<event>
 7    1  0.3110367E-005  0.1070769E+03  0.7818608E-02  0.1386353E+00
          2   -1    0    0  502    0  0.00000000000E+00  0.00000000000E+00  0.34502839139E+03  0.34502839139E+03  0.00000000000E+00 0. -1.
          1   -1    0    0  501    0 -0.00000000000E+00 -0.00000000000E+00 -0.16998191666E+04  0.16998191666E+04  0.00000000000E+00 0. -1.
         25    2    1    2    0    0  0.24008171524E+02  0.73274083065E+02 -0.33541738512E+03  0.36616418250E+03  0.12500361097E+03 0.  0.
          2    1    1    2  501    0 -0.19885513761E+02 -0.10990166070E+03 -0.13456773926E+04  0.13503042078E+04  0.00000000000E+00 0. -1.
          1    1    1    2  502    0 -0.41226577636E+01  0.36627577632E+02  0.32630400248E+03  0.32837916771E+03  0.00000000000E+00 0. -1.
         22    1    3    3    0    0  0.33159416666E+02  0.10695012566E+03 -0.25489330807E+03  0.27840343890E+03  0.00000000000E+00 0.  1.
         22    1    3    3    0    0 -0.91512451423E+01 -0.33676042595E+02 -0.80524077054E+02  0.87760743604E+02  0.00000000000E+00 0.  1.
</event>
<event>
 7    1  0.3110367E-005  0.3885755E+03  0.7818608E-02  0.1157083E+00
          2   -1    0    0  502    0  0.00000000000E+00  0.00000000000E+00  0.39871376943E+04  0.39871376943E+04  0.00000000000E+00 0. -1.
          1   -1    0    0  501    0 -0.00000000000E+00 -0.00000000000E+00 -0.11207117941E+04  0.11207117941E+04  0.00000000000E+00 0. -1.
         25    2    1    2    0    0  0.37900117499E+03 -0.23700811698E+03 -0.52324336382E+02  0.46708459904E+03  0.12496178748E+03 0.  0.
          2    1    1    2  501    0 -0.34758708313E+03  0.14797583266E+03 -0.81894453408E+03  0.90187791708E+03  0.00000000000E+00 0. -1.
          1    1    1    2  502    0 -0.31414091859E+02  0.89032284310E+02  0.37376947707E+04  0.37388869723E+04  0.00000000000E+00 0. -1.
         22    1    3    3    0    0  0.11416505177E+02 -0.30483798009E+02 -0.30946609892E+02  0.44914264942E+02  0.00000000000E+00 0.  1.
         22    1    3    3    0    0  0.36758466981E+03 -0.20652431897E+03 -0.21377726490E+02  0.42217033410E+03  0.00000000000E+00 0.  1.
</event>
<event>
 7    1  0.3110367E-005  0.1034325E+03  0.7818608E-02  0.1288714E+00
          2   -1    0    0  502    0  0.00000000000E+00  0.00000000000E+00  0.17880726790E+04  0.17880726790E+04  0.00000000000E+00 0. -1.
          1   -1    0    0  501    0 -0.00000000000E+00 -0.00000000000E+00 -0.55976401364E+03  0.55976401364E+03  0.00000000000E+00 0. -1.
         25    2    1    2    0    0 -0.43854292741E+02 -0.37290809234E+02  0.65989807058E+03  0.67409524452E+03  0.12500052671E+03 0.  0.
          2    1    1    2  501    0 -0.17073854684E+02  0.10256359661E+03 -0.54597352581E+03  0.55578583892E+03  0.00000000000E+00 0. -1.
          1    1    1    2  502    0  0.60928147425E+02 -0.65272787377E+02  0.11143841206E+04  0.11179556092E+04  0.00000000000E+00 0. -1.
         22    1    3    3    0    0 -0.77933291712E+02  0.86853748009E+01  0.43621749504E+03  0.44320958549E+03  0.00000000000E+00 0.  1.
         22    1    3    3    0    0  0.34078998971E+02 -0.45976184035E+02  0.22368057554E+03  0.23088565902E+03  0.00000000000E+00 0.  1.
</event>
<event>
 7    1  0.3110367E-005  0.2845311E+03  0.7818608E-02  0.1095639E+00
          2   -1    0    0  502    0  0.00000000000E+00  0.00000000000E+00  0.12200971934E+04  0.12200971934E+04  0.00000000000E+00 0. -1.
          1   -1    0    0  501    0 -0.00000000000E+00 -0.00000000000E+00 -0.47557593828E+03  0.47557593828E+03  0.00000000000E+00 0. -1.
         25    2    1    2    0    0  0.61287690285E+02 -0.14324525672E+03  0.23740526177E+02  0.20115791844E+03  0.12500204404E+03 0.  0.
          2    1    1    2  501    0 -0.22214455540E+03  0.36718015905E+03 -0.24224241930E+03  0.49279900812E+03  0.00000000000E+00 0. -1.
          1    1    1    2  502    0  0.16085686511E+03 -0.22393490233E+03  0.96302314823E+03  0.10017162051E+04  0.00000000000E+00 0. -1.
         22    1    3    3    0    0 -0.27025361835E+02 -0.72431396860E+02 -0.19916138012E+02  0.79833138399E+02  0.00000000000E+00 0. -1.
         22    1    3    3    0    0  0.88313052120E+02 -0.70813859860E+02  0.43656664189E+02  0.12132478004E+03  0.00000000000E+00 0. -1.
</event>
<event>
 7    1  0.3110367E-005  0.1306880E+03  0.7818608E-02  0.1261848E+00
          2   -1    0    0  502    0  0.00000000000E+00  0.00000000000E+00  0.47841034917E+03  0.47841034917E+03  0.00000000000E+00 0. -1.
          1   -1    0    0  501    0 -0.00000000000E+00 -0.00000000000E+00 -0.43707835472E+03  0.43707835472E+03  0.00000000000E+00 0. -1.
         25    2    1    2    0    0  0.11213012952E+03 -0.70091035387E+01 -0.26769901729E+03  0.31608587050E+03  0.12500088077E+03 0.  0.
          2    1    1    2  501    0 -0.17609242491E+03 -0.58327539572E+02 -0.78356495919E+02  0.20137126020E+03  0.00000000000E+00 0. -1.
          1    1    1    2  502    0  0.63962295391E+02  0.65336643111E+02  0.38738750766E+03  0.39803157319E+03  0.00000000000E+00 0. -1.
         22    1    3    3    0    0  0.60556574633E+02  0.54916940475E+02 -0.17566005193E+03  0.19375093013E+03  0.00000000000E+00 0.  1.
         22    1    3    3    0    0  0.51573554885E+02 -0.61926044014E+02 -0.92038965363E+02  0.12233494037E+03  0.00000000000E+00 0.  1.
</event>
<event>
 7    1  0.3110367E-005  0.1508640E+03  0.7818608E-02  0.1314836E+00
          2   -1    0    0  502    0  0.00000000000E+00  0.00000000000E+00  0.79437191954E+03  0.79437191954E+03  0.00000000000E+00 0. -1.
          1   -1    0    0  501    0 -0.00000000000E+00 -0.00000000000E+00 -0.30867090918E+03  0.30867090918E+03  0.00000000000E+00 0. -1.
         25    2    1    2    0    0  0.11361660427E+03 -0.13355933754E+03 -0.89025081284E+02  0.23301660876E+03  0.12499778178E+03 0.  0.
          2    1    1    2  501    0 -0.48130829706E+02 -0.13142095568E+01 -0.13568054917E+03  0.14397053635E+03  0.00000000000E+00 0. -1.
          1    1    1    2  502    0 -0.65485774564E+02  0.13487354710E+03  0.71040664082E+03  0.72605568361E+03  0.00000000000E+00 0. -1.
         22    1    3    3    0    0  0.10251419913E+03 -0.14939575232E+03 -0.47653518034E+02  0.18734756368E+03  0.00000000000E+00 0. -1.
         22    1    3    3    0    0  0.11102405140E+02  0.15836414780E+02 -0.41371563251E+02  0.45669045083E+02  0.00000000000E+00 0. -1.
</event>
<event>
 7    1  0.3110367E-005  0.2568270E+03  0.7818608E-02  0.1143093E+00
          2   -1    0    0  502    0  0.00000000000E+00  0.00000000000E+00  0.20981689990E+04  0.20981689990E+04  0.00000000000E+00 0. -1.
          1   -1    0    0  501    0 -0.00000000000E+00 -0.00000000000E+00 -0.10547012604E+04  0.10547012604E+04  0.00000000000E+00 0. -1.
         25    2    1    2    0    0  0.23404588198E+01 -0.29993950373E+03 -0.27565823127E+03  0.42612442952E+03  0.12500154130E+03 0.  0.
          2    1    1    2  501    0 -0.14508239966E+03  0.21023140920E+03 -0.67696278172E+03  0.72355010604E+03  0.00000000000E+00 0. -1.
          1    1    1    2  502    0  0.14274194084E+03  0.89708094527E+02  0.19960887516E+04  0.20031957238E+04  0.00000000000E+00 0. -1.
         22    1    3    3    0    0  0.29074392529E+02 -0.94420779832E+02 -0.16201474414E+03  0.18976137985E+03  0.00000000000E+00 0. -1.
         22    1    3    3    0    0 -0.26733933709E+02 -0.20551872390E+03 -0.11364348712E+03  0.23636304967E+03  0.00000000000E+00 0. -1.
</event>
<event>
 7    1  0.3110367E-005  0.1548834E+03  0.7818608E-02  0.1364869E+00
          2   -1    0    0  502    0  0.00000000000E+00  0.00000000000E+00  0.72595574935E+03  0.72595574935E+03  0.00000000000E+00 0. -1.
          1   -1    0    0  501    0 -0.00000000000E+00 -0.00000000000E+00 -0.84894159293E+03  0.84894159293E+03  0.00000000000E+00 0. -1.
         25    2    1    2    0    0  0.15198500799E+03  0.10323976935E+03  0.96371835615E+02  0.24222104124E+03  0.12500243794E+03 0.  0.
          2    1    1    2  501    0 -0.12902715411E+03 -0.83317491798E+02 -0.76799251970E+03  0.78320005187E+03  0.00000000000E+00 0. -1.
          1    1    1    2  502    0 -0.22957853877E+02 -0.19922277554E+02  0.54863484049E+03  0.54947624917E+03  0.00000000000E+00 0. -1.
         22    1    3    3    0    0  0.68974704332E+02 -0.20079886825E+02  0.17504319533E+02  0.73939927610E+02  0.00000000000E+00 0. -1.
         22    1    3    3    0    0  0.83010303656E+02  0.12331965618E+03  0.78867516081E+02  0.16828111363E+03  0.00000000000E+00 0. -1.
</event>
<event>
 7    1  0.3110367E-005  0.1547991E+03  0.7818608E-02  0.1265735E+00
          2   -1    0    0  502    0  0.00000000000E+00  0.00000000000E+00  0.18173249421E+03  0.18173249421E+03  0.00000000000E+00 0. -1.
          1   -1    0    0  501    0 -0.00000000000E+00 -0.00000000000E+00 -0.24449219959E+04  0.24449219959E+04  0.00000000000E+00 0. -1.
         25    2    1    2    0    0 -0.16481918377E+03  0.94526620414E+02 -0.36838891235E+03  0.43293859351E+03  0.12499915882E+03 0.  0.
          2    1    1    2  501    0  0.15124343645E+03 -0.21460583020E+02 -0.20319723003E+04  0.20377062013E+04  0.00000000000E+00 0. -1.
          1    1    1    2  502    0  0.13575747322E+02 -0.73066037394E+02  0.13717171095E+03  0.15600969528E+03  0.00000000000E+00 0. -1.
         22    1    3    3    0    0 -0.21371721362E+02 -0.30310179324E+02 -0.66753151743E+02  0.76363870464E+02  0.00000000000E+00 0.  1.
         22    1    3    3    0    0 -0.14344746241E+03  0.12483679974E+03 -0.30163576060E+03  0.35657472305E+03  0.00000000000E+00 0.  1.
</event>
<event>
 7    1  0.3110367E-005  0.9540443E+02  0.7818608E-02  0.1334716E+00
          2   -1    0    0  502    0  0.00000000000E+00  0.00000000000E+00  0.26820157356E+04  0.26820157356E+04  0.00000000000E+00 0. -1.
          1   -1    0    0  501    0 -0.00000000000E+00 -0.00000000000E+00 -0.89344009113E+02  0.89344009113E+02  0.00000000000E+00 0. -1.
         25    2    1    2    0    0 -0.13128374374E+03  0.19723780660E+02  0.30746110071E+03  0.35746777985E+03  0.12500574499E+03 0.  0.
          2    1    1    2  501    0  0.53805325872E+02  0.34343184822E+02 -0.47313880678E+02  0.79454834596E+02  0.00000000000E+00 0. -1.
          1    1    1    2  502    0  0.77478417872E+02 -0.54066965482E+02  0.23325245065E+04  0.23344371303E+04  0.00000000000E+00 0. -1.
         22    1    3    3    0    0 -0.68133671463E+02  0.69382441892E+02  0.20804699556E+03  0.22965119810E+03  0.00000000000E+00 0.  1.
         22    1    3    3    0    0 -0.63150072281E+02 -0.49658661233E+02  0.99414105155E+02  0.12781658174E+03  0.00000000000E+00 0.  1.
</event>
<event>
 7    1  0.3110367E-005  0.8572196E+02  0.7818608E-02  0.1337790E+00
          2   -1    0    0  502    0  0.00000000000E+00  0.00000000000E+00  0.10097845659E+04  0.10097845659E+04  0.00000000000E+00 0. -1.
          1   -1    0    0  501    0 -0.00000000000E+00 -0.00000000000E+00 -0.62267787538E+02  0.62267787538E+02  0.00000000000E+00 0. -1.
         25    2    1    2    0    0 -0.29698130330E+02 -0.84837496929E+01  0.38850136927E+03  0.40928350293E+03  0.12500287555E+03 0.  0.
          2    1    1    2  501    0  0.58096592700E+02  0.71548780590E+02 -0.71053536256E+01  0.92438780485E+02  0.00000000000E+00 0. -1.
          1    1    1    2  502    0 -0.28398462371E+02 -0.63065030898E+02  0.56612076270E+03  0.57033007000E+03  0.00000000000E+00 0. -1.
         22    1    3    3    0    0 -0.71297925740E+02 -0.10074555226E+02  0.14117496635E+03  0.15847795431E+03  0.00000000000E+00 0.  1.
         22    1    3    3    0    0  0.41599795411E+02  0.15908055330E+01  0.24732640292E+03  0.25080554862E+03  0.00000000000E+00 0.  1.
</event>
<event>
 7    1  0.3110367E-005  0.1645860E+03  0.7818608E-02  0.1265687E+00
          2   -1    0    0  502    0  0.00000000000E+00  0.00000000000E+00  0.17405858360E+04  0.17405858360E+04  0.00000000000E+00 0. -1.
          1   -1    0    0  501    0 -0.00000000000E+00 -0.00000000000E+00 -0.12367487321E+04  0.12367487321E+04  0.00000000000E+00 0. -1.
         25    2    1    2    0    0 -0.16018586502E+03  0.11202099816E+03  0.14115867292E+03  0.27158663754E+03  0.12500126147E+03 0.  0.
          2    1    1    2  501    0  0.15855010092E+03 -0.42110276463E+02 -0.11649882067E+04  0.11764815900E+04  0.00000000000E+00 0. -1.
          1    1    1    2  502    0  0.16357640979E+01 -0.69910721699E+02  0.15276666376E+04  0.15292663406E+04  0.00000000000E+00 0. -1.
         22    1    3    3    0    0  0.82269243716E+01  0.24107601445E+02 -0.11427409970E+02  0.27918532029E+02  0.00000000000E+00 0. -1.
         22    1    3    3    0    0 -0.16841278939E+03  0.87913396717E+02  0.15258608289E+03  0.24366810551E+03  0.00000000000E+00 0. -1.
</event>
<event>
 7    1  0.3110367E-005  0.2244586E+03  0.7818608E-02  0.1179170E+00
          2   -1    0    0  502    0  0.00000000000E+00  0.00000000000E+00  0.71856110884E+03  0.71856110884E+03  0.00000000000E+00 0. -1.
          1   -1    0    0  501    0 -0.00000000000E+00 -0.00000000000E+00 -0.18542671435E+04  0.18542671435E+04  0.00000000000E+00 0. -1.
         25    2    1    2    0    0  0.20751131250E+03  0.11781682135E+03  0.62348038854E+03  0.67918762134E+03  0.12500512740E+03 0.  0.
          2    1    1    2  501    0 -0.25036922592E+02 -0.12435519032E+03 -0.16955337920E+04  0.17002723019E+04  0.00000000000E+00 0. -1.
          1    1    1    2  502    0 -0.18247438990E+03  0.65383689672E+01 -0.63652631222E+02  0.19336832911E+03  0.00000000000E+00 0. -1.
         22    1    3    3    0    0  0.99792073963E+02  0.40188281825E+02  0.43839611620E+03  0.45140304686E+03  0.00000000000E+00 0.  1.
         22    1    3    3    0    0  0.10771923853E+03  0.77628539523E+02  0.18508427234E+03  0.22778457447E+03  0.00000000000E+00 0.  1.
</event>
<event>
 7    1  0.3110367E-005  0.1459333E+03  0.7818608E-02  0.1379736E+00
          2   -1    0    0  502    0  0.00000000000E+00  0.00000000000E+00  0.66237476194E+03  0.66237476194E+03  0.00000000000E+00 0. -1.
          1   -1    0    0  501    0 -0.00000000000E+00 -0.00000000000E+00 -0.18766752780E+04  0.18766752780E+04  0.00000000000E+00 0. -1.
         25    2    1    2    0    0  0.44765334042E+02 -0.11059619019E+03 -0.62919711675E+02  0.18390149797E+03  0.12500167367E+03 0.  0.
          2    1    1    2  501    0 -0.60955795745E+02  0.13409614280E+03 -0.17498302078E+04  0.17560191174E+04  0.00000000000E+00 0. -1.
          1    1    1    2  502    0  0.16190461703E+02 -0.23499952602E+02  0.59844940347E+03  0.59912942453E+03  0.00000000000E+00 0. -1.
         22    1    3    3    0    0  0.31433097095E+02 -0.61216243279E+02 -0.99528864748E+02  0.12100191301E+03  0.00000000000E+00 0. -1.
         22    1    3    3    0    0  0.13332236947E+02 -0.49379946915E+02  0.36609153074E+02  0.62899584959E+02  0.00000000000E+00 0. -1.
</event>
<event>
 7    1  0.3110367E-005  0.1356641E+03  0.7818608E-02  0.1354733E+00
          2   -1    0    0  502    0  0.00000000000E+00  0.00000000000E+00  0.30937073005E+03  0.30937073005E+03  0.00000000000E+00 0. -1.
          1   -1    0    0  501    0 -0.00000000000E+00 -0.00000000000E+00 -0.31371483739E+04  0.31371483739E+04  0.00000000000E+00 0. -1.
         25    2    1    2    0    0  0.49351542901E+02  0.88754010966E+02  0.12626371260E+03  0.20465921707E+03  0.12502008144E+03 0.  0.
          2    1    1    2  501    0 -0.49778728858E+02 -0.12654100851E+03 -0.30939504413E+04  0.30969371776E+04  0.00000000000E+00 0. -1.
          1    1    1    2  502    0  0.42718595754E+00  0.37786997542E+02  0.13990908480E+03  0.14492270934E+03  0.00000000000E+00 0. -1.
         22    1    3    3    0    0  0.38493980622E+02  0.80530150300E+02  0.12553207464E+02  0.90135867828E+02  0.00000000000E+00 0.  1.
         22    1    3    3    0    0  0.10857562279E+02  0.82238606666E+01  0.11371050514E+03  0.11452334924E+03  0.00000000000E+00 0.  1.
</event>
<event>
 7    1  0.3110367E-005  0.6439761E+03  0.7818608E-02  0.1102066E+00
          2   -1    0    0  502    0  0.00000000000E+00  0.00000000000E+00  0.33449055561E+04  0.33449055561E+04  0.00000000000E+00 0. -1.
          1   -1    0    0  501    0 -0.00000000000E+00 -0.00000000000E+00 -0.26601378855E+03  0.26601378855E+03  0.00000000000E+00 0. -1.
         25    2    1    2    0    0 -0.12040507668E+03 -0.66681611915E+03  0.11758548889E+04  0.13628654741E+04  0.12500584553E+03 0.  0.
          2    1    1    2  501    0 -0.85689435164E+02  0.72208692027E+02 -0.98946646489E+02  0.14948984365E+03  0.00000000000E+00 0. -1.
          1    1    1    2  502    0  0.20609451184E+03  0.59460742712E+03  0.20019835252E+04  0.20985640269E+04  0.00000000000E+00 0. -1.
         22    1    3    3    0    0 -0.41424418449E+01 -0.99764968833E+02  0.26987387834E+03  0.28775357346E+03  0.00000000000E+00 0.  1.
         22    1    3    3    0    0 -0.11626263484E+03 -0.56705115031E+03  0.90598101057E+03  0.10751119006E+04  0.00000000000E+00 0.  1.
</event>
<event>
 7    1  0.3110367E-005  0.3404499E+03  0.7818608E-02  0.1153951E+00
          2   -1    0    0  502    0  0.00000000000E+00  0.00000000000E+00  0.10177920037E+04  0.10177920037E+04  0.00000000000E+00 0. -1.
          1   -1    0    0  501    0 -0.00000000000E+00 -0.00000000000E+00 -0.41966578850E+03  0.41966578850E+03  0.00000000000E+00 0. -1.
         25    2    1    2    0    0  0.25559179399E+03 -0.19017888299E+03 -0.19633041615E+03  0.39454414090E+03  0.12499709646E+03 0.  0.
          2    1    1    2  501    0 -0.36173451326E+03  0.22526444181E+03  0.26507528176E+03  0.50185738196E+03  0.00000000000E+00 0. -1.
          1    1    1    2  502    0  0.10614271927E+03 -0.35085558818E+02  0.52938134963E+03  0.54105626938E+03  0.00000000000E+00 0. -1.
         22    1    3    3    0    0  0.12859020790E+03 -0.63152076690E+02 -0.23314486751E+02  0.14514541554E+03  0.00000000000E+00 0. -1.
         22    1    3    3    0    0  0.12700158608E+03 -0.12702680630E+03 -0.17301592940E+03  0.24939872537E+03  0.00000000000E+00 0. -1.
</event>
<event>
 7    1  0.3110367E-005  0.1291159E+03  0.7818608E-02  0.1276210E+00
          2   -1    0    0  502    0  0.00000000000E+00  0.00000000000E+00  0.10915372034E+04  0.10915372034E+04  0.00000000000E+00 0. -1.
          1   -1    0    0  501    0 -0.00000000000E+00 -0.00000000000E+00 -0.15337867418E+03  0.15337867418E+03  0.00000000000E+00 0. -1.
         25    2    1    2    0    0 -0.52147863435E+02 -0.46894002509E+02 -0.80180649821E+02  0.16423656520E+03  0.12500506234E+03 0.  0.
          2    1    1    2  501    0  0.18047494241E+03  0.32643642516E+02  0.30615838829E+03  0.35688901770E+03  0.00000000000E+00 0. -1.
          1    1    1    2  502    0 -0.12832707897E+03  0.14250359992E+02  0.71218079074E+03  0.72379029467E+03  0.00000000000E+00 0. -1.
         22    1    3    3    0    0 -0.85978114294E+02 -0.73199453317E+01 -0.28489582649E+02  0.90870644637E+02  0.00000000000E+00 0.  1.
         22    1    3    3    0    0  0.33830250859E+02 -0.39574057177E+02 -0.51691067171E+02  0.73365920562E+02  0.00000000000E+00 0.  1.
</event>
<event>
 7    1  0.3110367E-005  0.1661478E+03  0.7818608E-02  0.1283330E+00
          2   -1    0    0  502    0  0.00000000000E+00  0.00000000000E+00  0.89285784213E+03  0.89285784213E+03  0.00000000000E+00 0. -1.
          1   -1    0    0  501    0 -0.00000000000E+00 -0.00000000000E+00 -0.54702867267E+03  0.54702867267E+03  0.00000000000E+00 0. -1.
         25    2    1    2    0    0 -0.21036270817E+03  0.63759604920E+02  0.59075364478E+03  0.64259914626E+03  0.12500415093E+03 0.  0.
          2    1    1    2  501    0  0.16215868311E+03 -0.30650503278E+02 -0.50470761759E+03  0.53100345679E+03  0.00000000000E+00 0. -1.
          1    1    1    2  502    0  0.48204025061E+02 -0.33109101643E+02  0.25978314228E+03  0.26628391175E+03  0.00000000000E+00 0. -1.
         22    1    3    3    0    0  0.15086194527E+02 -0.41903678989E+01  0.59034831233E+02  0.61075885153E+02  0.00000000000E+00 0.  1.
         22    1    3    3    0    0 -0.22544890270E+03  0.67949972819E+02  0.53171881354E+03  0.58152326111E+03  0.00000000000E+00 0.  1.
</event>
<event>
 7    1  0.3110367E-005  0.1743651E+03  0.7818608E-02  0.1222994E+00
          2   -1    0    0  502    0  0.00000000000E+00  0.00000000000E+00  0.12894728963E+04  0.12894728963E+04  0.00000000000E+00 0. -1.
          1   -1    0    0  501    0 -0.00000000000E+00 -0.00000000000E+00 -0.53335679402E+02  0.53335679402E+02  0.00000000000E+00 0. -1.
         25    2    1    2    0    0 -0.17700640388E+03 -0.12471704710E+03  0.88488080186E+03  0.91952406954E+03  0.12499948839E+03 0.  0.
          2    1    1    2  501    0  0.48075878185E+02  0.89426094694E+02  0.13261971609E+03  0.16702187154E+03  0.00000000000E+00 0. -1.
          1    1    1    2  502    0  0.12893052570E+03  0.35290952407E+02  0.21863669891E+03  0.25626263460E+03  0.00000000000E+00 0. -1.
         22    1    3    3    0    0 -0.18210859192E+03 -0.11972647962E+03  0.88590054169E+03  0.91231449563E+03  0.00000000000E+00 0. -1.
         22    1    3    3    0    0  0.51021880327E+01 -0.49905674848E+01 -0.10197398304E+01  0.72095739030E+01  0.00000000000E+00 0. -1.
</event>
<event>
 7    1  0.3110367E-005  0.1918332E+03  0.7818608E-02  0.1232279E+00
          2   -1    0    0  502    0  0.00000000000E+00  0.00000000000E+00  0.15436134220E+04  0.15436134220E+04  0.00000000000E+00 0. -1.
          1   -1    0    0  501    0 -0.00000000000E+00 -0.00000000000E+00 -0.11283785054E+04  0.11283785054E+04  0.00000000000E+00 0. -1.
         25    2    1    2    0    0  0.15713498151E+03  0.73428983360E+02 -0.12387048856E+03  0.24709035076E+03  0.12500610181E+03 0.  0.
          2    1    1    2  501    0  0.35875391596E+02 -0.75751201216E+02 -0.93472978277E+03  0.93848018359E+03  0.00000000000E+00 0. -1.
          1    1    1    2  502    0 -0.19301037311E+03  0.23222178558E+01  0.14738351878E+04  0.14864213931E+04  0.00000000000E+00 0. -1.
         22    1    3    3    0    0  0.16055669905E+03  0.27394669632E+02 -0.73273072630E+02  0.17859973322E+03  0.00000000000E+00 0. -1.
         22    1    3    3    0    0 -0.34217175399E+01  0.46034313728E+02 -0.50597415935E+02  0.68490617537E+02  0.00000000000E+00 0. -1.
</event>
<event>
 7    1  0.3110367E-005  0.2102074E+03  0.7818608E-02  0.1373336E+00
          2   -1    0    0  502    0  0.00000000000E+00  0.00000000000E+00  0.75625855976E+03  0.75625855976E+03  0.00000000000E+00 0. -1.
          1   -1    0    0  501    0 -0.00000000000E+00 -0.00000000000E+00 -0.11740010805E+04  0.11740010805E+04  0.00000000000E+00 0. -1.
         25    2    1    2    0    0  0.21352642945E+03 -0.50697658409E+02 -0.21023099182E+03  0.32861249283E+03  0.12500124750E+03 0.  0.
          2    1    1    2  501    0 -0.20611040068E+03  0.31180494247E+02 -0.89240877264E+03  0.91643174213E+03  0.00000000000E+00 0. -1.
          1    1    1    2  502    0 -0.74160287777E+01  0.19517164162E+02  0.68489724373E+03  0.68521540529E+03  0.00000000000E+00 0. -1.
         22    1    3    3    0    0  0.26247214593E+02  0.37326231746E+02 -0.37808871848E+02  0.59259384410E+02  0.00000000000E+00 0.  1.
         22    1    3    3    0    0  0.18727921486E+03 -0.88023890155E+02 -0.17242211997E+03  0.26935310842E+03  0.00000000000E+00 0.  1.
</event>
<event>
 7    1  0.3110367E-005  0.4464217E+03  0.7818608E-02  0.1158639E+00
          2   -1    0    0  502    0  0.00000000000E+00  0.00000000000E+00  0.26363493532E+04  0.26363493532E+04  0.00000000000E+00 0. -1.
          1   -1    0    0  501    0 -0.00000000000E+00 -0.00000000000E+00 -0.16603924645E+04  0.16603924645E+04  0.00000000000E+00 0. -1.
         25    2    1    2    0    0 -0.47152743422E+03  0.12258749832E+03 -0.65378887989E+03  0.82488255664E+03  0.12500206728E+03 0.  0.
          2    1    1    2  501    0  0.61688963449E+02  0.52024794772E+02 -0.89978679401E+03  0.90339824118E+03  0.00000000000E+00 0. -1.
          1    1    1    2  502    0  0.40983847077E+03 -0.17461229309E+03  0.25295325627E+04  0.25684610199E+04  0.00000000000E+00 0. -1.
         22    1    3    3    0    0 -0.39418383414E+03  0.94763978360E+02 -0.45301035936E+03  0.60793049963E+03  0.00000000000E+00 0. -1.
         22    1    3    3    0    0 -0.77343600073E+02  0.27823519960E+02 -0.20077852054E+03  0.21695205702E+03  0.00000000000E+00 0. -1.
</event>
<event>
 7    1  0.3110367E-005  0.3780765E+03  0.7818608E-02  0.1070435E+00
          2   -1    0    0  502    0  0.00000000000E+00  0.00000000000E+00  0.20578392232E+04  0.20578392232E+04  0.00000000000E+00 0. -1.
          1   -1    0    0  501    0 -0.00000000000E+00 -0.00000000000E+00 -0.10681582582E+04  0.10681582582E+04  0.00000000000E+00 0. -1.
         25    2    1    2    0    0  0.25397154492E+03 -0.55219875600E+03 -0.19003120352E+03  0.64896920245E+03  0.12499662258E+03 0.  0.
          2    1    1    2  501    0 -0.20611328585E+03  0.26534410528E+03 -0.59248749828E+03  0.68112525751E+03  0.00000000000E+00 0. -1.
          1    1    1    2  502    0 -0.47858259075E+02  0.28685465072E+03  0.17721996668E+04  0.17959030214E+04  0.00000000000E+00 0. -1.
         22    1    3    3    0    0  0.74575853670E+02 -0.18830186223E+03 -0.12520728261E+03  0.23810924570E+03  0.00000000000E+00 0. -1.
         22    1    3    3    0    0  0.17939569125E+03 -0.36389689377E+03 -0.64823920912E+02  0.41085995674E+03  0.00000000000E+00 0. -1.
</event>
<event>
 7    1  0.3110367E-005  0.1071873E+03  0.7818608E-02  0.1320878E+00
          2   -1    0    0  502    0  0.00000000000E+00  0.00000000000E+00  0.12895253930E+04  0.12895253930E+04  0.00000000000E+00 0. -1.
          1   -1    0    0  501    0 -0.00000000000E+00 -0.00000000000E+00 -0.48536572919E+03  0.48536572919E+03  0.00000000000E+00 0. -1.
         25    2    1    2    0    0  0.44120480274E+02 -0.14348583769E+03  0.31933753105E+03  0.37435086119E+03  0.12500922422E+03 0.  0.
          2    1    1    2  501    0 -0.66497872185E+02  0.83316761571E+02 -0.45053917461E+03  0.46297861465E+03  0.00000000000E+00 0. -1.
          1    1    1    2  502    0  0.22377391912E+02  0.60169076118E+02  0.93536130734E+03  0.93756164633E+03  0.00000000000E+00 0. -1.
         22    1    3    3    0    0 -0.21075326675E+01 -0.98603344489E+02  0.28448666487E+03  0.30109753191E+03  0.00000000000E+00 0. -1.
         22    1    3    3    0    0  0.46228012941E+02 -0.44882493200E+02  0.34850866188E+02  0.73253329279E+02  0.00000000000E+00 0. -1.
</event>
<event>
 7    1  0.3110367E-005  0.1524089E+03  0.7818608E-02  0.1310416E+00
          2   -1    0    0  502    0  0.00000000000E+00  0.00000000000E+00  0.14542574422E+04  0.14542574422E+04  0.00000000000E+00 0. -1.
          1   -1    0    0  501    0 -0.00000000000E+00 -0.00000000000E+00 -0.18553374570E+03  0.18553374570E+03  0.00000000000E+00 0. -1.
         25    2    1    2    0    0 -0.97301088167E+02  0.13960899571E+03  0.22700813464E+03  0.31002602357E+03  0.12500107463E+03 0.  0.
          2    1    1    2  501    0  0.11750211405E+03 -0.94306088413E+02 -0.10393716938E+03  0.18303912231E+03  0.00000000000E+00 0. -1.
          1    1    1    2  502    0 -0.20201025881E+02 -0.45302907301E+02  0.11456527312E+04  0.11467260420E+04  0.00000000000E+00 0. -1.
         22    1    3    3    0    0 -0.23165984864E+02 -0.22870585370E+02  0.35344708685E+02  0.48051794575E+02  0.00000000000E+00 0.  1.
         22    1    3    3    0    0 -0.74135103303E+02  0.16247958108E+03  0.19166342595E+03  0.26197422900E+03  0.00000000000E+00 0.  1.
</event>
<event>
 7    1  0.3110367E-005  0.3446365E+03  0.7818608E-02  0.1085430E+00
          2   -1    0    0  502    0  0.00000000000E+00  0.00000000000E+00  0.28842688330E+04  0.28842688330E+04  0.00000000000E+00 0. -1.
          1   -1    0    0  501    0 -0.00000000000E+00 -0.00000000000E+00 -0.17490586936E+04  0.17490586936E+04  0.00000000000E+00 0. -1.
         25    2    1    2    0    0  0.39720227736E+03 -0.76647687734E+02 -0.61094650608E+03  0.74331977182E+03  0.12499653078E+03 0.  0.
          2    1    1    2  501    0 -0.30368903318E+03 -0.16647468678E+03 -0.10377126101E+04  0.10939782042E+04  0.00000000000E+00 0. -1.
          1    1    1    2  502    0 -0.93513244180E+02  0.24312237451E+03  0.27838692555E+04  0.27960295506E+04  0.00000000000E+00 0. -1.
         22    1    3    3    0    0  0.25044716774E+03  0.76243346869E+01 -0.31613866854E+03  0.40339257809E+03  0.00000000000E+00 0. -1.
         22    1    3    3    0    0  0.14675510962E+03 -0.84272022421E+02 -0.29480783754E+03  0.33992719373E+03  0.00000000000E+00 0. -1.
</event>
<event>
 7    1  0.3110367E-005  0.9664483E+02  0.7818608E-02  0.1305113E+00
          2   -1    0    0  502    0  0.00000000000E+00  0.00000000000E+00  0.13205541145E+04  0.13205541145E+04  0.00000000000E+00 0. -1.
          1   -1    0    0  501    0 -0.00000000000E+00 -0.00000000000E+00 -0.79795507078E+03  0.79795507078E+03  0.00000000000E+00 0. -1.
         25    2    1    2    0    0  0.12635533641E+03 -0.12156692832E+02  0.18578976762E+03  0.25740337771E+03  0.12500081953E+03 0.  0.
          2    1    1    2  501    0 -0.59053919407E+02 -0.57026840331E+02 -0.75780789264E+03  0.76224158117E+03  0.00000000000E+00 0. -1.
          1    1    1    2  502    0 -0.67301416998E+02  0.69183533163E+02  0.10946171687E+04  0.10988642264E+04  0.00000000000E+00 0. -1.
         22    1    3    3    0    0 -0.18093361806E+02  0.21641788272E+02  0.43496304665E+02  0.51842697273E+02  0.00000000000E+00 0.  1.
         22    1    3    3    0    0  0.14444869821E+03 -0.33798481103E+02  0.14229346296E+03  0.20556068043E+03  0.00000000000E+00 0.  1.
</event>
<event>
 7    1  0.3110367E-005  0.2422801E+03  0.7818608E-02  0.1152902E+00
          2   -1    0    0  502    0  0.00000000000E+00  0.00000000000E+00  0.11220363780E+04  0.11220363780E+04  0.00000000000E+00 0. -1.
          1   -1    0    0  501    0 -0.00000000000E+00 -0.00000000000E+00 -0.15283908388E+04  0.15283908388E+04  0.00000000000E+00 0. -1.
         25    2    1    2    0    0 -0.10026276982E+02  0.29838779281E+03 -0.54317148662E+02  0.32819363150E+03  0.12499962397E+03 0.  0.
          2    1    1    2  501    0 -0.12115689272E+03 -0.20847391027E+03 -0.13197210873E+04  0.13415677814E+04  0.00000000000E+00 0. -1.
          1    1    1    2  502    0  0.13118316970E+03 -0.89913882535E+02  0.96768377509E+03  0.98066580386E+03  0.00000000000E+00 0. -1.
         22    1    3    3    0    0  0.55187958653E+02  0.18003749217E+03 -0.25476568856E+02  0.19002174857E+03  0.00000000000E+00 0.  1.
         22    1    3    3    0    0 -0.65214235635E+02  0.11835030064E+03 -0.28840579806E+02  0.13817188294E+03  0.00000000000E+00 0.  1.
</event>
<event>
 7    1  0.3110367E-005  0.8577981E+02  0.7818608E-02  0.1393555E+00
          2   -1    0    0  502    0  0.00000000000E+00  0.00000000000E+00  0.24497181072E+04  0.24497181072E+04  0.00000000000E+00 0. -1.
          1   -1    0    0  501    0 -0.00000000000E+00 -0.00000000000E+00 -0.14006349339E+02  0.14006349339E+02  0.00000000000E+00 0. -1.
         25    2    1    2    0    0  0.98174855206E+02 -0.42821162993E+02  0.15117165587E+04  0.15206525627E+04  0.12500123347E+03 0.  0.
          2    1    1    2  501    0 -0.41612948407E+02 -0.12405740728E+02  0.53090430437E+02  0.68586687354E+02  0.00000000000E+00 0. -1.
          1    1    1    2  502    0 -0.56561906798E+02  0.55226903721E+02  0.87090476870E+03  0.87448520647E+03  0.00000000000E+00 0. -1.
         22    1    3    3    0    0  0.21858087941E+02 -0.14290408492E+02  0.47784834659E+02  0.54455323033E+02  0.00000000000E+00 0. -1.
         22    1    3    3    0    0  0.76316767265E+02 -0.28530754502E+02  0.14639317240E+04  0.14661972397E+04  0.00000000000E+00 0. -1.
</event>
<event>
 7    1  0.3110367E-005  0.6937263E+02  0.7818608E-02  0.1368148E+00
          2   -1    0    0  502    0  0.00000000000E+00  0.00000000000E+00  0.54117724604E+03  0.54117724604E+03  0.00000000000E+00 0. -1.
          1   -1    0    0  501    0 -0.00000000000E+00 -0.00000000000E+00 -0.57762238580E+02  0.57762238580E+02  0.00000000000E+00 0. -1.
         25    2    1    2    0    0 -0.26547862765E+02 -0.11481268139E+02  0.40761772267E+03  0.42733384262E+03  0.12500158672E+03 0.  0.
          2    1    1    2  501    0  0.64298839075E+01  0.74380018551E+02  0.50519987645E+01  0.74828158191E+02  0.00000000000E+00 0. -1.
          1    1    1    2  502    0  0.20117978858E+02 -0.62898750412E+02  0.70745286026E+02  0.96777483805E+02  0.00000000000E+00 0. -1.
         22    1    3    3    0    0 -0.37513303009E+02  0.98869802767E+01  0.30227921772E+02  0.49180560553E+02  0.00000000000E+00 0.  1.
         22    1    3    3    0    0  0.10965440244E+02 -0.21368248416E+02  0.37738980089E+03  0.37815328207E+03  0.00000000000E+00 0.  1.
</event>
<event>
 7    1  0.3110367E-005  0.2440038E+03  0.7818608E-02  0.1261127E+00
          2   -1    0    0  502    0  0.00000000000E+00  0.00000000000E+00  0.17577792283E+04  0.17577792283E+04  0.00000000000E+00 0. -1.
          1   -1    0    0  501    0 -0.00000000000E+00 -0.00000000000E+00 -0.85980320931E+03  0.85980320931E+03  0.00000000000E+00 0. -1.
         25    2    1    2    0    0 -0.20224822052E+03 -0.16854323308E+03 -0.36363135996E+02  0.29369803925E+03  0.12500038593E+03 0.  0.
          2    1    1    2  501    0  0.15560996966E+03  0.18458216420E+03 -0.67341036081E+03  0.71537860748E+03  0.00000000000E+00 0. -1.
          1    1    1    2  502    0  0.46638250860E+02 -0.16038931127E+02  0.16077495158E+04  0.16085057909E+04  0.00000000000E+00 0. -1.
         22    1    3    3    0    0 -0.84471975956E+02 -0.27473425643E+02  0.36466375107E+02  0.96021353625E+02  0.00000000000E+00 0.  1.
         22    1    3    3    0    0 -0.11777624456E+03 -0.14106980743E+03 -0.72829511103E+02  0.19767668562E+03  0.00000000000E+00 0.  1.
</event>
<event>
 7    1  0.3110367E-005  0.8394094E+02  0.7818608E-02  0.1344003E+00
          2   -1    0    0  502    0  0.00000000000E+00  0.00000000000E+00  0.54818221170E+03  0.54818221170E+03  0.00000000000E+00 0. -1.
          1   -1    0    0  501    0 -0.00000000000E+00 -0.00000000000E+00 -0.20125870223E+03  0.20125870223E+03  0.00000000000E+00 0. -1.
         25    2    1    2    0    0  0.12118262893E+03  0.63387198669E+02 -0.14243458328E+03  0.23370003715E+03  0.12499972136E+03 0.  0.
          2    1    1    2  501    0 -0.66931298379E+02 -0.74461761874E+00  0.12204024252E+03  0.13919114179E+03  0.00000000000E+00 0. -1.
          1    1    1    2  502    0 -0.54251330553E+02 -0.62642581050E+02  0.36731785023E+03  0.37654973499E+03  0.00000000000E+00 0. -1.
         22    1    3    3    0    0  0.95501545384E+02  0.18793804677E+00 -0.13459322330E+03  0.16503307623E+03  0.00000000000E+00 0.  1.
         22    1    3    3    0    0  0.25681083549E+02  0.63199260622E+02 -0.78413599722E+01  0.68666960917E+02  0.00000000000E+00 0.  1.
</event>
<event>
 7    1  0.3110367E-005  0.2504352E+03  0.7818608E-02  0.1272048E+00
          2   -1    0    0  502    0  0.00000000000E+00  0.00000000000E+00  0.75028057641E+03  0.75028057641E+03  0.00000000000E+00 0. -1.
          1   -1    0    0  501    0 -0.00000000000E+00 -0.00000000000E+00 -0.10247736104E+04  0.10247736104E+04  0.00000000000E+00 0. -1.
         25    2    1    2    0    0 -0.23050086298E+03 -0.15187177087E+03 -0.51573481302E+03  0.59816557439E+03  0.12499589754E+03 0.  0.
          2    1    1    2  501    0  0.61006864017E+01  0.42778723814E+02 -0.44479363940E+03  0.44688770316E+03  0.00000000000E+00 0. -1.
          1    1    1    2  502    0  0.22440017657E+03  0.10909304705E+03  0.68603541844E+03  0.73000090925E+03  0.00000000000E+00 0. -1.
         22    1    3    3    0    0 -0.15863653200E+03 -0.12064966860E+03 -0.46200149680E+03  0.50315730628E+03  0.00000000000E+00 0. -1.
         22    1    3    3    0    0 -0.71864330974E+02 -0.31222102268E+02 -0.53733316218E+02  0.95008268104E+02  0.00000000000E+00 0. -1.
</event>
<event>
 7    1  0.3110367E-005  0.2737806E+03  0.7818608E-02  0.1182721E+00
          2   -1    0    0  502    0  0.00000000000E+00  0.00000000000E+00  0.28844285205E+04  0.28844285205E+04  0.00000000000E+00 0. -1.
          1   -1    0    0  501    0 -0.00000000000E+00 -0.00000000000E+00 -0.96155804864E+02  0.96155804864E+02  0.00000000000E+00 0. -1.
         25    2    1    2    0    0 -0.18761780254E+03  0.83429382866E+02  0.22902267808E+04  0.23028079485E+04  0.12499935201E+03 0.  0.
          2    1    1    2  501    0  0.27851317979E+03 -0.41895127373E+02  0.15712602527E+03  0.32251105536E+03  0.00000000000E+00 0. -1.
          1    1    1    2  502    0 -0.90895377253E+02 -0.41534255493E+02  0.34091990950E+03  0.35526532152E+03  0.00000000000E+00 0. -1.
         22    1    3    3    0    0 -0.80358434246E+02  0.60879968584E+02  0.16648101167E+04  0.16678598782E+04  0.00000000000E+00 0.  1.
         22    1    3    3    0    0 -0.10725936829E+03  0.22549414282E+02  0.62541666415E+03  0.63494807029E+03  0.00000000000E+00 0.  1.
</event>
<event>
 7    1  0.3110367E-005  0.5050123E+02  0.7818608E-02  0.1444655E+00
          2   -1    0    0  502    0  0.00000000000E+00  0.00000000000E+00  0.15641550653E+03  0.15641550653E+03  0.00000000000E+00 0. -1.
          1   -1    0    0  501    0 -0.00000000000E+00 -0.00000000000E+00 -0.21401288087E+03  0.21401288087E+03  0.00000000000E+00 0. -1.
         25    2    1    2    0    0 -0.63577221185E+02 -0.24029332177E+02  0.39439760053E+02  0.14763581060E+03  0.12498546331E+03 0.  0.
          2    1    1    2  501    0  0.19336240840E+02  0.46799129917E+02 -0.14505829618E+03  0.15364230557E+03  0.00000000000E+00 0. -1.
          1    1    1    2  502    0  0.44240980345E+02 -0.22769797739E+02  0.48021161790E+02  0.69150271226E+02  0.00000000000E+00 0. -1.
         22    1    3    3    0    0 -0.58746545478E+02  0.23972879997E-01 -0.35597185936E+02  0.68690005291E+02  0.00000000000E+00 0.  1.
         22    1    3    3    0    0 -0.48306757067E+01 -0.24053305057E+02  0.75036945989E+02  0.78945805305E+02  0.00000000000E+00 0.  1.
</event>
<event>
 7    1  0.3110367E-005  0.1096134E+03  0.7818608E-02  0.1311440E+00
          2   -1    0    0  502    0  0.00000000000E+00  0.00000000000E+00  0.10408452280E+04  0.10408452280E+04  0.00000000000E+00 0. -1.
          1   -1    0    0  501    0 -0.00000000000E+00 -0.00000000000E+00 -0.88456212238E+02  0.88456212238E+02  0.00000000000E+00 0. -1.
         25    2    1    2    0    0  0.92042417922E+02 -0.49563122497E+02  0.36505090659E+03  0.39976872226E+03  0.12499822834E+03 0.  0.
          2    1    1    2  501    0 -0.41167768638E+02 -0.54538999850E+02 -0.48134176133E+02  0.83583410981E+02  0.00000000000E+00 0. -1.
          1    1    1    2  502    0 -0.50874649284E+02  0.10410212235E+03  0.63547228535E+03  0.64594930704E+03  0.00000000000E+00 0. -1.
         22    1    3    3    0    0  0.12269644917E+03 -0.31431946236E+02  0.26898420242E+03  0.29731277644E+03  0.00000000000E+00 0. -1.
         22    1    3    3    0    0 -0.30654031248E+02 -0.18131176261E+02  0.96066704167E+02  0.10245594582E+03  0.00000000000E+00 0. -1.
</event>
<event>
 7    1  0.3110367E-005  0.4694516E+03  0.7818608E-02  0.1086877E+00
          2   -1    0    0  502    0  0.00000000000E+00  0.00000000000E+00  0.11904474606E+04  0.11904474606E+04  0.00000000000E+00 0. -1.
          1   -1    0    0  501    0 -0.00000000000E+00 -0.00000000000E+00 -0.69299156035E+03  0.69299156035E+03  0.00000000000E+00 0. -1.
         25    2    1    2    0    0  0.27192350864E+03 -0.50474399074E+03 -0.18875582014E+03  0.61641057081E+03  0.12499736570E+03 0.  0.
          2    1    1    2  501    0 -0.24405113809E+03  0.31924553430E+03 -0.13558027505E+03  0.42409984692E+03  0.00000000000E+00 0. -1.
          1    1    1    2  502    0 -0.27872370552E+02  0.18549845644E+03  0.82179199541E+03  0.84292860321E+03  0.00000000000E+00 0. -1.
         22    1    3    3    0    0  0.17937349060E+03 -0.43313973854E+03 -0.16505210799E+03  0.49701818939E+03  0.00000000000E+00 0. -1.
         22    1    3    3    0    0  0.92550018038E+02 -0.71604252202E+02 -0.23703712149E+02  0.11939238142E+03  0.00000000000E+00 0. -1.
</event>
<event>
 7    1  0.3110367E-005  0.1687782E+03  0.7818608E-02  0.1302699E+00
          2   -1    0    0  502    0  0.00000000000E+00  0.00000000000E+00  0.29925980474E+03  0.29925980474E+03  0.00000000000E+00 0. -1.
          1   -1    0    0  501    0 -0.00000000000E+00 -0.00000000000E+00 -0.10068641960E+04  0.10068641960E+04  0.00000000000E+00 0. -1.
         25    2    1    2    0    0  0.50310261179E+02 -0.13895052137E+03  0.24339951758E+03  0.31098014021E+03  0.12500781047E+03 0.  0.
          2    1    1    2  501    0 -0.12822599902E+02  0.16902298163E+03 -0.92519140089E+03  0.94059147119E+03  0.00000000000E+00 0. -1.
          1    1    1    2  502    0 -0.37487661277E+02 -0.30072460258E+02 -0.25812507926E+02  0.54552389310E+02  0.00000000000E+00 0. -1.
         22    1    3    3    0    0 -0.35858369374E+02 -0.84039090069E+02  0.11315435252E+03  0.14543829898E+03  0.00000000000E+00 0. -1.
         22    1    3    3    0    0  0.86168630553E+02 -0.54911431301E+02  0.13024516506E+03  0.16554184124E+03  0.00000000000E+00 0. -1.
</event>
<event>
 7    1  0.3110367E-005  0.2718557E+03  0.7818608E-02  0.1140911E+00
          2   -1    0    0  502    0  0.00000000000E+00  0.00000000000E+00  0.59346457234E+03  0.59346457234E+03  0.00000000000E+00 0. -1.
          1   -1    0    0  501    0 -0.00000000000E+00 -0.00000000000E+00 -0.95676189764E+03  0.95676189764E+03  0.00000000000E+00 0. -1.
         25    2    1    2    0    0  0.11487398870E+03 -0.16430903761E+03 -0.16212765760E+03  0.28653769409E+03  0.12499991862E+03 0.  0.
          2    1    1    2  501    0 -0.10492514480E+03 -0.12539317170E+03 -0.68250056116E+03  0.70181176216E+03  0.00000000000E+00 0. -1.
          1    1    1    2  502    0 -0.99488439001E+01  0.28970220931E+03  0.48133089345E+03  0.56187701373E+03  0.00000000000E+00 0. -1.
         22    1    3    3    0    0  0.21554024283E+02 -0.74164421033E+02  0.20738406612E+01  0.77260844708E+02  0.00000000000E+00 0. -1.
         22    1    3    3    0    0  0.93319964418E+02 -0.90144616578E+02 -0.16420149826E+03  0.20927684938E+03  0.00000000000E+00 0. -1.
</event>
<event>
 7    1  0.3267541E-005  0.1141526E+03  0.7818608E-02  0.1333326E+00
          2   -1    0    0  502    0  0.00000000000E+00  0.00000000000E+00  0.21429938849E+04  0.21429938849E+04  0.00000000000E+00 0. -1.
          1   -1    0    0  501    0 -0.00000000000E+00 -0.00000000000E+00 -0.30691042119E+03  0.30691042119E+03  0.00000000000E+00 0. -1.
         25    2    1    2    0    0 -0.32070596270E+02 -0.87869570475E+02 -0.13210017399E+03  0.20450281210E+03  0.12498543766E+03 0.  0.
          2    1    1    2  501    0 -0.52838637862E+02  0.11138784332E+02 -0.13173164822E+03  0.14237001549E+03  0.00000000000E+00 0. -1.
          1    1    1    2  502    0  0.84909234132E+02  0.76730786143E+02  0.20999152859E+04  0.21030314785E+04  0.00000000000E+00 0. -1.
         22    1    3    3    0    0 -0.44498559008E+02 -0.10368890435E+03 -0.14257506993E+03  0.18182178419E+03  0.00000000000E+00 0. -1.
         22    1    3    3    0    0  0.12427962737E+02  0.15819333874E+02  0.10474895945E+02  0.22681027910E+02  0.00000000000E+00 0. -1.
</event>
<event>
 7    1  0.3110367E-005  0.4352575E+03  0.7818608E-02  0.1240914E+00
          2   -1    0    0  502    0  0.00000000000E+00  0.00000000000E+00  0.23994471054E+04  0.23994471054E+04  0.00000000000E+00 0. -1.
          1   -1    0    0  501    0 -0.00000000000E+00 -0.00000000000E+00 -0.82336283975E+03  0.82336283975E+03  0.00000000000E+00 0. -1.
         25    2    1    2    0    0  0.18523917552E+03 -0.42891014340E+03 -0.33056186220E+03  0.58581030034E+03  0.12500039995E+03 0.  0.
          2    1    1    2  501    0 -0.84628670539E+01  0.32747058214E+02 -0.34362921109E+03  0.34528976911E+03  0.00000000000E+00 0. -1.
          1    1    1    2  502    0 -0.17677630846E+03  0.39616308518E+03  0.22502753389E+04  0.22917098757E+04  0.00000000000E+00 0. -1.
         22    1    3    3    0    0  0.14085771532E+02 -0.54480107134E+02 -0.97906937588E+02  0.11292590252E+03  0.00000000000E+00 0. -1.
         22    1    3    3    0    0  0.17115340398E+03 -0.37443003626E+03 -0.23265492461E+03  0.47288439782E+03  0.00000000000E+00 0. -1.
</event>
<event>
 7    1  0.3110367E-005  0.8118267E+02  0.7818608E-02  0.1382133E+00
          2   -1    0    0  502    0  0.00000000000E+00  0.00000000000E+00  0.60637403318E+03  0.60637403318E+03  0.00000000000E+00 0. -1.
          1   -1    0    0  501    0 -0.00000000000E+00 -0.00000000000E+00 -0.10112145152E+03  0.10112145152E+03  0.00000000000E+00 0. -1.
         25    2    1    2    0    0 -0.64186413850E+01 -0.67289415651E+02  0.11743046182E+01  0.14212083829E+03  0.12501155654E+03 0.  0.
          2    1    1    2  501    0  0.52010072395E+02  0.88553851685E+02  0.60996676952E+02  0.11944633472E+03  0.00000000000E+00 0. -1.
          1    1    1    2  502    0 -0.45591431010E+02 -0.21264436034E+02  0.44308160010E+03  0.44592831169E+03  0.00000000000E+00 0. -1.
         22    1    3    3    0    0  0.55399656822E+02 -0.11876926855E+02 -0.12401424546E+02  0.57999816364E+02  0.00000000000E+00 0.  1.
         22    1    3    3    0    0 -0.61818298207E+02 -0.55412488796E+02  0.13575729164E+02  0.84121021928E+02  0.00000000000E+00 0.  1.
</event>
<event>
 7    1  0.3110367E-005  0.2543519E+03  0.7818608E-02  0.1118307E+00
          2   -1    0    0  502    0  0.00000000000E+00  0.00000000000E+00  0.21903053230E+04  0.21903053230E+04  0.00000000000E+00 0. -1.
          1   -1    0    0  501    0 -0.00000000000E+00 -0.00000000000E+00 -0.27773280751E+03  0.27773280751E+03  0.00000000000E+00 0. -1.
         25    2    1    2    0    0 -0.15154306200E+03 -0.68277473746E+02  0.73512605267E+02  0.22058204564E+03  0.12500089065E+03 0.  0.
          2    1    1    2  501    0  0.10881283136E+03 -0.20344021627E+03 -0.12624657159E+03  0.26299496327E+03  0.00000000000E+00 0. -1.
          1    1    1    2  502    0  0.42730230644E+02  0.27171769001E+03  0.19653064818E+04  0.19844611216E+04  0.00000000000E+00 0. -1.
         22    1    3    3    0    0 -0.10984425256E+03 -0.70632354725E+02 -0.60391693337E+01  0.13073316687E+03  0.00000000000E+00 0.  1.
         22    1    3    3    0    0 -0.41698809445E+02  0.23548809786E+01  0.79551774601E+02  0.89848878767E+02  0.00000000000E+00 0.  1.
</event>
<event>
 7    1  0.3110367E-005  0.9868038E+02  0.7818608E-02  0.1352486E+00
          2   -1    0    0  502    0  0.00000000000E+00  0.00000000000E+00  0.21238847854E+03  0.21238847854E+03  0.00000000000E+00 0. -1.
          1   -1    0    0  501    0 -0.00000000000E+00 -0.00000000000E+00 -0.21359269254E+03  0.21359269254E+03  0.00000000000E+00 0. -1.
         25    2    1    2    0    0 -0.46200988671E+02 -0.85651264856E+02  0.37473374352E+02  0.16279161283E+03  0.12500473950E+03 0.  0.
          2    1    1    2  501    0 -0.42035010243E+02  0.32202464841E+02 -0.12043303169E+03  0.13156008495E+03  0.00000000000E+00 0. -1.
          1    1    1    2  502    0  0.88235998914E+02  0.53448800015E+02  0.81755443340E+02  0.13162947331E+03  0.00000000000E+00 0. -1.
         22    1    3    3    0    0  0.32890557117E+02  0.36264119340E+01  0.27638531868E+02  0.43114128251E+02  0.00000000000E+00 0. -1.
         22    1    3    3    0    0 -0.79091545788E+02 -0.89277676790E+02  0.98348424844E+01  0.11967748458E+03  0.00000000000E+00 0. -1.
</event>
<event>
 7    1  0.3110367E-005  0.1721560E+03  0.7818608E-02  0.1176536E+00
          2   -1    0    0  502    0  0.00000000000E+00  0.00000000000E+00  0.20493815337E+04  0.20493815337E+04  0.00000000000E+00 0. -1.
          1   -1    0    0  501    0 -0.00000000000E+00 -0.00000000000E+00 -0.16365006857E+04  0.16365006857E+04  0.00000000000E+00 0. -1.
         25    2    1    2    0    0 -0.78167040286E+02 -0.21967943011E+03 -0.96191421888E+02  0.28150767648E+03  0.12499857629E+03 0.  0.
          2    1    1    2  501    0 -0.78849082020E+02  0.15353986942E+03 -0.14387744399E+04  0.14490905970E+04  0.00000000000E+00 0. -1.
          1    1    1    2  502    0  0.15701612231E+03  0.66139560687E+02  0.19478467098E+04  0.19552839459E+04  0.00000000000E+00 0. -1.
         22    1    3    3    0    0 -0.22857512138E+02 -0.15670065061E+03 -0.61307059706E+01  0.15847758617E+03  0.00000000000E+00 0.  1.
         22    1    3    3    0    0 -0.55309528148E+02 -0.62978779500E+02 -0.90060715917E+02  0.12303009031E+03  0.00000000000E+00 0.  1.
</event>
<event>
 7    1  0.3110367E-005  0.1133812E+03  0.7818608E-02  0.1357007E+00
          2   -1    0    0  502    0  0.00000000000E+00  0.00000000000E+00  0.39744280790E+03  0.39744280790E+03  0.00000000000E+00 0. -1.
          1   -1    0    0  501    0 -0.00000000000E+00 -0.00000000000E+00 -0.29051301389E+04  0.29051301389E+04  0.00000000000E+00 0. -1.
         25    2    1    2    0    0  0.15231875993E+02  0.15164364544E+03 -0.55181701922E+03  0.58596460131E+03  0.12499874413E+03 0.  0.
          2    1    1    2  501    0  0.13012074712E+02 -0.42403306838E+02 -0.23276557496E+04  0.23280783155E+04  0.00000000000E+00 0. -1.
          1    1    1    2  502    0 -0.28243950705E+02 -0.10924033860E+03  0.37178543788E+03  0.38853002992E+03  0.00000000000E+00 0. -1.
         22    1    3    3    0    0  0.59964067459E+02  0.29484536191E+02 -0.17500158640E+03  0.18732480482E+03  0.00000000000E+00 0. -1.
         22    1    3    3    0    0 -0.44732191466E+02  0.12215910925E+03 -0.37681543283E+03  0.39863979648E+03  0.00000000000E+00 0. -1.
</event>
<event>
 7    1  0.3110367E-005  0.2313564E+03  0.7818608E-02  0.1158072E+00
          2   -1    0    0  502    0  0.00000000000E+00  0.00000000000E+00  0.21083632822E+04  0.21083632822E+04  0.00000000000E+00 0. -1.
          1   -1    0    0  501    0 -0.00000000000E+00 -0.00000000000E+00 -0.48201154312E+03  0.48201154312E+03  0.00000000000E+00 0. -1.
         25    2    1    2    0    0 -0.97469648669E+02  0.53151871744E+02 -0.30403680274E+03  0.34696814698E+03  0.12499225463E+03 0.  0.
          2    1    1    2  501    0 -0.68132213199E+01  0.15659903245E+03 -0.10880113126E+03  0.19080713590E+03  0.00000000000E+00 0. -1.
          1    1    1    2  502    0  0.10428286999E+03 -0.20975090419E+03  0.20391896731E+04  0.20525995424E+04  0.00000000000E+00 0. -1.
         22    1    3    3    0    0 -0.75031137474E+02  0.57140533961E+02 -0.30948458246E+03  0.32353580790E+03  0.00000000000E+00 0.  1.
         22    1    3    3    0    0 -0.22438511195E+02 -0.39886622164E+01  0.54477797220E+01  0.23432339081E+02  0.00000000000E+00 0.  1.
</event>
<event>
 7    1  0.3110367E-005  0.6330987E+02  0.7818608E-02  0.1488208E+00
          2   -1    0    0  502    0  0.00000000000E+00  0.00000000000E+00  0.19686173218E+04  0.19686173218E+04  0.00000000000E+00 0. -1.
          1   -1    0    0  501    0 -0.00000000000E+00 -0.00000000000E+00 -0.47034222740E+02  0.47034222740E+02  0.00000000000E+00 0. -1.
         25    2    1    2    0    0 -0.13629241896E+02  0.43975654610E+02  0.22554488570E+03  0.26194552313E+03  0.12500138876E+03 0.  0.
          2    1    1    2  501    0 -0.48746105015E+01 -0.66313185054E+02  0.97907150424E+01  0.67209065167E+02  0.00000000000E+00 0. -1.
          1    1    1    2  502    0  0.18503852397E+02  0.22337530444E+02  0.16862474983E+04  0.16864969562E+04  0.00000000000E+00 0. -1.
         22    1    3    3    0    0 -0.17355974283E+02 -0.27584300773E+02  0.89379527105E+01  0.33793645721E+02  0.00000000000E+00 0. -1.
         22    1    3    3    0    0  0.37267323871E+01  0.71559955383E+02  0.21660693299E+03  0.22815187741E+03  0.00000000000E+00 0. -1.
</event>
<event>
 7    1  0.3110367E-005  0.4450050E+03  0.7818608E-02  0.1137950E+00
          2   -1    0    0  502    0  0.00000000000E+00  0.00000000000E+00  0.57712744414E+03  0.57712744414E+03  0.00000000000E+00 0. -1.
          1   -1    0    0  501    0 -0.00000000000E+00 -0.00000000000E+00 -0.13643125587E+04  0.13643125587E+04  0.00000000000E+00 0. -1.
         25    2    1    2    0    0 -0.44939123452E+03 -0.14137715539E+03 -0.67175942730E+03  0.82995728569E+03  0.12501354392E+03 0.  0.
          2    1    1    2  501    0  0.81915269015E+01  0.10319426405E+03 -0.50875475332E+03  0.51917969555E+03  0.00000000000E+00 0. -1.
          1    1    1    2  502    0  0.44119970762E+03  0.38182891336E+02  0.39332906606E+03  0.59230302160E+03  0.00000000000E+00 0. -1.
         22    1    3    3    0    0 -0.29311169290E+03 -0.13584968767E+03 -0.37863602316E+03  0.49772968586E+03  0.00000000000E+00 0.  1.
         22    1    3    3    0    0 -0.15627954162E+03 -0.55274677225E+01 -0.29312340415E+03  0.33222759983E+03  0.00000000000E+00 0.  1.
</event>
<event>
 7    1  0.3110367E-005  0.4615164E+03  0.7818608E-02  0.1083994E+00
          2   -1    0    0  502    0  0.00000000000E+00  0.00000000000E+00  0.14557364245E+04  0.14557364245E+04  0.00000000000E+00 0. -1.
          1   -1    0    0  501    0 -0.00000000000E+00 -0.00000000000E+00 -0.24347429492E+04  0.24347429492E+04  0.00000000000E+00 0. -1.
         25    2    1    2    0    0  0.23602843372E+03 -0.59694651001E+03 -0.20312438344E+03  0.68479091981E+03  0.12499812547E+03 0.  0.
          2    1    1    2  501    0 -0.54974310446E+02  0.19050848494E+03 -0.19448364567E+04  0.19549180292E+04  0.00000000000E+00 0. -1.
          1    1    1    2  502    0 -0.18105412327E+03  0.40643802507E+03  0.11689543154E+04  0.12507704247E+04  0.00000000000E+00 0. -1.
         22    1    3    3    0    0  0.79235506691E+02 -0.18121295757E+03 -0.38085220053E+01  0.19781533396E+03  0.00000000000E+00 0. -1.
         22    1    3    3    0    0  0.15679292703E+03 -0.41573355244E+03 -0.19931586143E+03  0.48697558584E+03  0.00000000000E+00 0. -1.
</event>
<event>
 7    1  0.3110367E-005  0.5977802E+02  0.7818608E-02  0.1450337E+00
          2   -1    0    0  502    0  0.00000000000E+00  0.00000000000E+00  0.52485576099E+03  0.52485576099E+03  0.00000000000E+00 0. -1.
          1   -1    0    0  501    0 -0.00000000000E+00 -0.00000000000E+00 -0.71988628597E+03  0.71988628597E+03  0.00000000000E+00 0. -1.
         25    2    1    2    0    0 -0.53448449381E+02 -0.61867453615E+02 -0.24542050317E+03  0.28729980854E+03  0.12500255219E+03 0.  0.
          2    1    1    2  501    0 -0.21929597146E+01  0.40245908102E+02 -0.45085607099E+03  0.45265410519E+03  0.00000000000E+00 0. -1.
          1    1    1    2  502    0  0.55641409096E+02  0.21621545513E+02  0.50124604918E+03  0.50478813323E+03  0.00000000000E+00 0. -1.
         22    1    3    3    0    0  0.94797482704E+01  0.28161244478E+02 -0.10441519872E+03  0.10856083567E+03  0.00000000000E+00 0.  1.
         22    1    3    3    0    0 -0.62928197652E+02 -0.90028698093E+02 -0.14100530445E+03  0.17873897287E+03  0.00000000000E+00 0.  1.
</event>
<event>
 7    1  0.3110367E-005  0.6456323E+02  0.7818608E-02  0.1400438E+00
          2   -1    0    0  502    0  0.00000000000E+00  0.00000000000E+00  0.13144192554E+03  0.13144192554E+03  0.00000000000E+00 0. -1.
          1   -1    0    0  501    0 -0.00000000000E+00 -0.00000000000E+00 -0.24313183496E+03  0.24313183496E+03  0.00000000000E+00 0. -1.
         25    2    1    2    0    0 -0.41052605138E+02 -0.23753013713E+02 -0.86638324782E+02  0.15932002601E+03  0.12500859698E+03 0.  0.
          2    1    1    2  501    0 -0.22005692343E+02  0.49989746142E+02 -0.99944128626E+02  0.11389492553E+03  0.00000000000E+00 0. -1.
          1    1    1    2  502    0  0.63058297482E+02 -0.26236732429E+02  0.74892543981E+02  0.10135880896E+03  0.00000000000E+00 0. -1.
         22    1    3    3    0    0  0.12187099066E+02 -0.60019245604E+02 -0.15150858181E+02  0.63090282374E+02  0.00000000000E+00 0. -1.
         22    1    3    3    0    0 -0.53239704204E+02  0.36266231891E+02 -0.71487466601E+02  0.96229743636E+02  0.00000000000E+00 0. -1.
</event>
<event>
 7    1  0.3110367E-005  0.8620502E+02  0.7818608E-02  0.1356825E+00
          2   -1    0    0  502    0  0.00000000000E+00  0.00000000000E+00  0.16696332809E+04  0.16696332809E+04  0.00000000000E+00 0. -1.
          1   -1    0    0  501    0 -0.00000000000E+00 -0.00000000000E+00 -0.13286401416E+04  0.13286401416E+04  0.00000000000E+00 0. -1.
         25    2    1    2    0    0  0.83589794615E+02 -0.11087999903E+03  0.22676032323E+03  0.29381492437E+03  0.12500135058E+03 0.  0.
          2    1    1    2  501    0 -0.65855459621E+02  0.55209003203E+02 -0.12930804545E+04  0.12959328831E+04  0.00000000000E+00 0. -1.
          1    1    1    2  502    0 -0.17734334994E+02  0.55670995826E+02  0.14073132706E+04  0.14085256150E+04  0.00000000000E+00 0. -1.
         22    1    3    3    0    0  0.11154396172E+03 -0.55397196443E+02  0.15702731726E+03  0.20042076523E+03  0.00000000000E+00 0. -1.
         22    1    3    3    0    0 -0.27954167103E+02 -0.55482802586E+02  0.69733005964E+02  0.93394159143E+02  0.00000000000E+00 0. -1.
</event>
<event>
 7    1  0.3110367E-005  0.9594824E+02  0.7818608E-02  0.1398542E+00
          2   -1    0    0  502    0  0.00000000000E+00  0.00000000000E+00  0.29351179807E+03  0.29351179807E+03  0.00000000000E+00 0. -1.
          1   -1    0    0  501    0 -0.00000000000E+00 -0.00000000000E+00 -0.13932308943E+04  0.13932308943E+04  0.00000000000E+00 0. -1.
         25    2    1    2    0    0  0.12270442334E+03  0.29421193076E+01  0.55615792794E+02  0.18380237646E+03  0.12500066244E+03 0.  0.
          2    1    1    2  501    0 -0.33514421077E+02  0.16394087568E+02 -0.13168749857E+04  0.13174033971E+04  0.00000000000E+00 0. -1.
          1    1    1    2  502    0 -0.89190002258E+02 -0.19336206875E+02  0.16154009673E+03  0.18553691884E+03  0.00000000000E+00 0. -1.
         22    1    3    3    0    0 -0.11753759089E+02  0.35000341674E+02  0.13289785168E+02  0.39240198264E+02  0.00000000000E+00 0.  1.
         22    1    3    3    0    0  0.13445818242E+03 -0.32058222366E+02  0.42326007626E+02  0.14456217819E+03  0.00000000000E+00 0.  1.
</event>
<event>
 7    1  0.3110367E-005  0.1019646E+03  0.7818608E-02  0.1350356E+00
          2   -1    0    0  502    0  0.00000000000E+00  0.00000000000E+00  0.19737032194E+03  0.19737032194E+03  0.00000000000E+00 0. -1.
          1   -1    0    0  501    0 -0.00000000000E+00 -0.00000000000E+00 -0.23079823066E+04  0.23079823066E+04  0.00000000000E+00 0. -1.
         25    2    1    2    0    0  0.12061610069E+02  0.78835988867E+02  0.30823635400E+02  0.15144693085E+03  0.12500192313E+03 0.  0.
          2    1    1    2  501    0  0.48020925383E+02  0.20425560060E+02 -0.22155899749E+04  0.22162044467E+04  0.00000000000E+00 0. -1.
          1    1    1    2  502    0 -0.60082535452E+02 -0.99261548928E+02  0.74154354880E+02  0.13770125094E+03  0.00000000000E+00 0. -1.
         22    1    3    3    0    0  0.58694024035E+02  0.39766906141E+02 -0.18337992401E+02  0.73230302790E+02  0.00000000000E+00 0.  1.
         22    1    3    3    0    0 -0.46632413966E+02  0.39069082727E+02  0.49161627802E+02  0.78216628062E+02  0.00000000000E+00 0.  1.
</event>
<event>
 7    1  0.3110367E-005  0.9131210E+02  0.7818608E-02  0.1330508E+00
          2   -1    0    0  502    0  0.00000000000E+00  0.00000000000E+00  0.28313249235E+03  0.28313249235E+03  0.00000000000E+00 0. -1.
          1   -1    0    0  501    0 -0.00000000000E+00 -0.00000000000E+00 -0.75787495823E+03  0.75787495823E+03  0.00000000000E+00 0. -1.
         25    2    1    2    0    0  0.15087662567E+03  0.47955188455E+02 -0.23009872454E+03  0.30599598762E+03  0.12499866051E+03 0.  0.
          2    1    1    2  501    0 -0.66889382248E+02 -0.17720121778E+02 -0.47913440506E+03  0.48410532974E+03  0.00000000000E+00 0. -1.
          1    1    1    2  502    0 -0.83987243423E+02 -0.30235066677E+02  0.23449066372E+03  0.25090613322E+03  0.00000000000E+00 0. -1.
         22    1    3    3    0    0  0.99336322276E+02  0.34166475744E+02 -0.22976718312E+03  0.25264206187E+03  0.00000000000E+00 0. -1.
         22    1    3    3    0    0  0.51540303396E+02  0.13788712711E+02 -0.33154141510E+00  0.53353925742E+02  0.00000000000E+00 0. -1.
</event>
<event>
 7    1  0.3110367E-005  0.5888663E+03  0.7818608E-02  0.1182333E+00
          2   -1    0    0  502    0  0.00000000000E+00  0.00000000000E+00  0.16531255404E+04  0.16531255404E+04  0.00000000000E+00 0. -1.
          1   -1    0    0  501    0 -0.00000000000E+00 -0.00000000000E+00 -0.17706430380E+04  0.17706430380E+04  0.00000000000E+00 0. -1.
         25    2    1    2    0    0 -0.36413430919E+03 -0.47617868704E+03  0.26298118949E+03  0.66642637986E+03  0.12500030652E+03 0.  0.
          2    1    1    2  501    0 -0.25478197087E+02  0.39095689904E+02 -0.14964139015E+04  0.14971413347E+04  0.00000000000E+00 0. -1.
          1    1    1    2  502    0  0.38961250628E+03  0.43708299714E+03  0.11159152144E+04  0.12602008638E+04  0.00000000000E+00 0. -1.
         22    1    3    3    0    0 -0.14745236729E+03 -0.28875972834E+03  0.16378033199E+03  0.36324699377E+03  0.00000000000E+00 0.  1.
         22    1    3    3    0    0 -0.21668194190E+03 -0.18741895870E+03  0.99200857499E+02  0.30317938610E+03  0.00000000000E+00 0.  1.
</event>
<event>
 7    1  0.3110367E-005  0.1377879E+03  0.7818608E-02  0.1317951E+00
          2   -1    0    0  502    0  0.00000000000E+00  0.00000000000E+00  0.93701814467E+03  0.93701814467E+03  0.00000000000E+00 0. -1.
          1   -1    0    0  501    0 -0.00000000000E+00 -0.00000000000E+00 -0.34010081896E+03  0.34010081896E+03  0.00000000000E+00 0. -1.
         25    2    1    2    0    0 -0.14018164719E+03  0.50642082771E+02  0.12209924615E+02  0.19490974745E+03  0.12500085054E+03 0.  0.
          2    1    1    2  501    0  0.34695390072E+02  0.37737561234E+02 -0.24034876461E+03  0.24575480112E+03  0.00000000000E+00 0. -1.
          1    1    1    2  502    0  0.10548625712E+03 -0.88379644005E+02  0.82505616571E+03  0.83645441507E+03  0.00000000000E+00 0. -1.
         22    1    3    3    0    0 -0.13400963337E+03  0.61052022559E+02 -0.30612884592E+02  0.15040970712E+03  0.00000000000E+00 0.  1.
         22    1    3    3    0    0 -0.61720138259E+01 -0.10409939787E+02  0.42822809206E+02  0.44500040330E+02  0.00000000000E+00 0.  1.
</event>
<event>
 7    1  0.3110367E-005  0.2630023E+03  0.7818608E-02  0.1293604E+00
          2   -1    0    0  502    0  0.00000000000E+00  0.00000000000E+00  0.89439310108E+03  0.89439310108E+03  0.00000000000E+00 0. -1.
          1   -1    0    0  501    0 -0.00000000000E+00 -0.00000000000E+00 -0.64243050435E+03  0.64243050435E+03  0.00000000000E+00 0. -1.
         25    2    1    2    0    0 -0.28450615417E+03 -0.36140623401E+02  0.91163266933E+02  0.32586057679E+03  0.12499791137E+03 0.  0.
          2    1    1    2  501    0  0.25439190140E+03  0.50922693584E+02 -0.49257864460E+03  0.55672442136E+03  0.00000000000E+00 0. -1.
          1    1    1    2  502    0  0.30114252775E+02 -0.14782070183E+02  0.65337797440E+03  0.65423860727E+03  0.00000000000E+00 0. -1.
         22    1    3    3    0    0 -0.25276082632E+03 -0.65034139656E+02  0.48733217801E+02  0.26550405112E+03  0.00000000000E+00 0.  1.
         22    1    3    3    0    0 -0.31745327851E+02  0.28893516255E+02  0.42430049131E+02  0.60356525672E+02  0.00000000000E+00 0.  1.
</event>
<event>
 7    1  0.3110367E-005  0.3001919E+03  0.7818608E-02  0.1105220E+00
          2   -1    0    0  502    0  0.00000000000E+00  0.00000000000E+00  0.20935378311E+04  0.20935378311E+04  0.00000000000E+00 0. -1.
          1   -1    0    0  501    0 -0.00000000000E+00 -0.00000000000E+00 -0.30085319841E+03  0.30085319841E+03  0.00000000000E+00 0. -1.
         25    2    1    2    0    0  0.22392038489E+03 -0.16894345710E+03  0.32440848129E+03  0.44670910985E+03  0.12500374243E+03 0.  0.
          2    1    1    2  501    0 -0.32264458813E+03 -0.39691697316E+02 -0.11715047601E+03  0.34554188619E+03  0.00000000000E+00 0. -1.
          1    1    1    2  502    0  0.98724203232E+02  0.20863515442E+03  0.15854266274E+04  0.16021400335E+04  0.00000000000E+00 0. -1.
         22    1    3    3    0    0  0.16481636815E+03 -0.17565127234E+03  0.21834169962E+03  0.32510137262E+03  0.00000000000E+00 0. -1.
         22    1    3    3    0    0  0.59104016746E+02  0.67078152376E+01  0.10606678167E+03  0.12160773724E+03  0.00000000000E+00 0. -1.
</event>
<event>
 7    1  0.3110367E-005  0.8978701E+02  0.7818608E-02  0.1346294E+00
          2   -1    0    0  502    0  0.00000000000E+00  0.00000000000E+00  0.72026335275E+02  0.72026335275E+02  0.00000000000E+00 0. -1.
          1   -1    0    0  501    0 -0.00000000000E+00 -0.00000000000E+00 -0.87443133085E+03  0.87443133085E+03  0.00000000000E+00 0. -1.
         25    2    1    2    0    0 -0.71526246105E+01  0.13893209187E+03 -0.17332027562E+03  0.25498648893E+03  0.12499962164E+03 0.  0.
          2    1    1    2  501    0  0.72200138527E+01 -0.60930808282E+02 -0.60742829147E+03  0.61051930459E+03  0.00000000000E+00 0. -1.
          1    1    1    2  502    0 -0.67389242127E-01 -0.78001283585E+02 -0.21656428481E+02  0.80951872596E+02  0.00000000000E+00 0. -1.
         22    1    3    3    0    0  0.18586192492E+02  0.15467621037E+03 -0.13447675915E+03  0.20580130067E+03  0.00000000000E+00 0. -1.
         22    1    3    3    0    0 -0.25738817102E+02 -0.15744118501E+02 -0.38843516468E+02  0.49185188266E+02  0.00000000000E+00 0. -1.
</event>
<event>
 7    1  0.3110367E-005  0.9954632E+02  0.7818608E-02  0.1384917E+00
          2   -1    0    0  502    0  0.00000000000E+00  0.00000000000E+00  0.36729475147E+03  0.36729475147E+03  0.00000000000E+00 0. -1.
          1   -1    0    0  501    0 -0.00000000000E+00 -0.00000000000E+00 -0.75919901836E+03  0.75919901836E+03  0.00000000000E+00 0. -1.
         25    2    1    2    0    0 -0.30499576844E+02  0.10056362043E+03  0.14166884198E+03  0.21618607519E+03  0.12499236928E+03 0.  0.
          2    1    1    2  501    0  0.63032999472E+02 -0.77102987129E+02 -0.71632051910E+03  0.72321028459E+03  0.00000000000E+00 0. -1.
          1    1    1    2  502    0 -0.32533422627E+02 -0.23460633299E+02  0.18274741024E+03  0.18709741006E+03  0.00000000000E+00 0. -1.
         22    1    3    3    0    0  0.22096534262E+02  0.10330172452E+03  0.11819893762E+03  0.15852599777E+03  0.00000000000E+00 0. -1.
         22    1    3    3    0    0 -0.52596111107E+02 -0.27381040900E+01  0.23469904365E+02  0.57660077424E+02  0.00000000000E+00 0. -1.
</event>
<event>
 7    1  0.3110367E-005  0.1103008E+03  0.7818608E-02  0.1275209E+00
          2   -1    0    0  502    0  0.00000000000E+00  0.00000000000E+00  0.68770116084E+03  0.68770116084E+03  0.00000000000E+00 0. -1.
          1   -1    0    0  501    0 -0.00000000000E+00 -0.00000000000E+00 -0.20563449393E+03  0.20563449393E+03  0.00000000000E+00 0. -1.
         25    2    1    2    0    0  0.12627264057E+03 -0.14781004295E+03  0.25437792366E+03  0.34369460452E+03  0.12500105830E+03 0.  0.
          2    1    1    2  501    0 -0.85572080850E+02  0.61777937185E+02 -0.13688542714E+03  0.17284882038E+03  0.00000000000E+00 0. -1.
          1    1    1    2  502    0 -0.40700559719E+02  0.86032105766E+02  0.36457417038E+03  0.37679222987E+03  0.00000000000E+00 0. -1.
         22    1    3    3    0    0  0.12755410591E+03 -0.68050624921E+02  0.12213754708E+03  0.18925780801E+03  0.00000000000E+00 0. -1.
         22    1    3    3    0    0 -0.12814653377E+01 -0.79759418030E+02  0.13224037658E+03  0.15443679651E+03  0.00000000000E+00 0. -1.
</event>
<event>
 7    1  0.3110367E-005  0.3135572E+03  0.7818608E-02  0.1193711E+00
          2   -1    0    0  502    0  0.00000000000E+00  0.00000000000E+00  0.81400971648E+02  0.81400971648E+02  0.00000000000E+00 0. -1.
          1   -1    0    0  501    0 -0.00000000000E+00 -0.00000000000E+00 -0.24203009977E+04  0.24203009977E+04  0.00000000000E+00 0. -1.
         25    2    1    2    0    0  0.25265161782E+02  0.29113541058E+03 -0.14546904044E+04  0.14890067163E+04  0.12497468893E+03 0.  0.
          2    1    1    2  501    0  0.99517474915E+01 -0.35989494196E+03 -0.85905449778E+03  0.93144942787E+03  0.00000000000E+00 0. -1.
          1    1    1    2  502    0 -0.35216909273E+02  0.68759531385E+02 -0.25155123921E+02  0.81245825213E+02  0.00000000000E+00 0. -1.
         22    1    3    3    0    0 -0.17111330400E+02  0.15138440333E+03 -0.99729467807E+03  0.10088640692E+04  0.00000000000E+00 0. -1.
         22    1    3    3    0    0  0.42376492182E+02  0.13975100725E+03 -0.45739572631E+03  0.48014264709E+03  0.00000000000E+00 0. -1.
</event>
<event>
 7    1  0.3110367E-005  0.4523090E+03  0.7818608E-02  0.1113137E+00
          2   -1    0    0  502    0  0.00000000000E+00  0.00000000000E+00  0.35432477260E+04  0.35432477260E+04  0.00000000000E+00 0. -1.
          1   -1    0    0  501    0 -0.00000000000E+00 -0.00000000000E+00 -0.19446959319E+03  0.19446959319E+03  0.00000000000E+00 0. -1.
         25    2    1    2    0    0  0.21885253118E+02 -0.43921481109E+03  0.18450075261E+03  0.49300436047E+03  0.12499662854E+03 0.  0.
          2    1    1    2  501    0 -0.13642031177E+03  0.51704020156E+03  0.19305421918E+04  0.20032309467E+04  0.00000000000E+00 0. -1.
          1    1    1    2  502    0  0.11453505865E+03 -0.77825390478E+02  0.12337351884E+04  0.12414820120E+04  0.00000000000E+00 0. -1.
         22    1    3    3    0    0  0.27428536557E+02 -0.16705757164E+03  0.13453918262E+03  0.21624372481E+03  0.00000000000E+00 0. -1.
         22    1    3    3    0    0 -0.55432834390E+01 -0.27215723944E+03  0.49961569992E+02  0.27676063566E+03  0.00000000000E+00 0. -1.
</event>
<event>
 7    1  0.3110367E-005  0.9969290E+02  0.7818608E-02  0.1352275E+00
          2   -1    0    0  502    0  0.00000000000E+00  0.00000000000E+00  0.94295907023E+02  0.94295907023E+02  0.00000000000E+00 0. -1.
          1   -1    0    0  501    0 -0.00000000000E+00 -0.00000000000E+00 -0.12410474582E+04  0.12410474582E+04  0.00000000000E+00 0. -1.
         25    2    1    2    0    0 -0.10554133013E+03 -0.58768647627E+02 -0.63967253929E+03  0.66287156265E+03  0.12500009895E+03 0.  0.
          2    1    1    2  501    0  0.65437457765E+01  0.52098989142E+02 -0.55833104857E+03  0.56079469066E+03  0.00000000000E+00 0. -1.
          1    1    1    2  502    0  0.98997584355E+02  0.66696584846E+01  0.51252036708E+02  0.11167711189E+03  0.00000000000E+00 0. -1.
         22    1    3    3    0    0 -0.48979369135E+02  0.10164134570E+02 -0.68721853485E+02  0.84999890463E+02  0.00000000000E+00 0.  1.
         22    1    3    3    0    0 -0.56561960997E+02 -0.68932782196E+02 -0.57095068581E+03  0.57787167219E+03  0.00000000000E+00 0.  1.
</event>
<event>
 7    1  0.3110367E-005  0.5739613E+03  0.7818608E-02  0.1176946E+00
          2   -1    0    0  502    0  0.00000000000E+00  0.00000000000E+00  0.16619313835E+04  0.16619313835E+04  0.00000000000E+00 0. -1.
          1   -1    0    0  501    0 -0.00000000000E+00 -0.00000000000E+00 -0.40746234545E+03  0.40746234545E+03  0.00000000000E+00 0. -1.
         25    2    1    2    0    0 -0.57593151767E+03  0.13711715968E+03  0.42069320959E+02  0.60654164157E+03  0.12499882668E+03 0.  0.
          2    1    1    2  501    0  0.52636534792E+03 -0.12568531613E+03  0.46435491021E+03  0.71307977171E+03  0.00000000000E+00 0. -1.
          1    1    1    2  502    0  0.49566169752E+02 -0.11431843556E+02  0.74804480684E+03  0.74977231562E+03  0.00000000000E+00 0. -1.
         22    1    3    3    0    0 -0.49463874863E+03  0.12413351605E+03  0.79450779252E+02  0.51612890617E+03  0.00000000000E+00 0. -1.
         22    1    3    3    0    0 -0.81292769038E+02  0.12983643632E+02 -0.37381458292E+02  0.90412735407E+02  0.00000000000E+00 0. -1.
</event>
<event>
 7    1  0.3110367E-005  0.2171584E+03  0.7818608E-02  0.1176042E+00
          2   -1    0    0  502    0  0.00000000000E+00  0.00000000000E+00  0.28146322544E+03  0.28146322544E+03  0.00000000000E+00 0. -1.
          1   -1    0    0  501    0 -0.00000000000E+00 -0.00000000000E+00 -0.40415508612E+03  0.40415508612E+03  0.00000000000E+00 0. -1.
         25    2    1    2    0    0  0.27836209635E+03 -0.13672533977E+03 -0.10123789200E+03  0.34936342902E+03  0.12500567803E+03 0.  0.
          2    1    1    2  501    0 -0.15687906818E+03  0.75975027817E+02 -0.75649136352E+02  0.19001589069E+03  0.00000000000E+00 0. -1.
          1    1    1    2  502    0 -0.12148302817E+03  0.60750311951E+02  0.54195167679E+02  0.14623899185E+03  0.00000000000E+00 0. -1.
         22    1    3    3    0    0  0.15460689509E+03 -0.14280660033E+03 -0.63433342706E+02  0.21981994012E+03  0.00000000000E+00 0.  1.
         22    1    3    3    0    0  0.12375520126E+03  0.60812605616E+01 -0.37804549299E+02  0.12954348890E+03  0.00000000000E+00 0.  1.
</event>
<event>
 7    1  0.3110367E-005  0.2800314E+03  0.7818608E-02  0.1110597E+00
          2   -1    0    0  502    0  0.00000000000E+00  0.00000000000E+00  0.83264756050E+03  0.83264756050E+03  0.00000000000E+00 0. -1.
          1   -1    0    0  501    0 -0.00000000000E+00 -0.00000000000E+00 -0.73957076520E+03  0.73957076520E+03  0.00000000000E+00 0. -1.
         25    2    1    2    0    0 -0.11610009977E+02  0.29464976701E+03 -0.50504825404E+03  0.59804016667E+03  0.12500009804E+03 0.  0.
          2    1    1    2  501    0  0.22483702063E+03 -0.20581629508E+03 -0.28683751571E+02  0.30616138027E+03  0.00000000000E+00 0. -1.
          1    1    1    2  502    0 -0.21322701065E+03 -0.88833471936E+02  0.62680880091E+03  0.66801677876E+03  0.00000000000E+00 0. -1.
         22    1    3    3    0    0  0.92038038267E+01  0.28894019653E+03 -0.41713414208E+03  0.50751555609E+03  0.00000000000E+00 0.  1.
         22    1    3    3    0    0 -0.20813813804E+02  0.57095704766E+01 -0.87914111957E+02  0.90524610583E+02  0.00000000000E+00 0.  1.
</event>
<event>
 7    1  0.3110367E-005  0.1025597E+04  0.7818608E-02  0.9525005E-01
          2   -1    0    0  502    0  0.00000000000E+00  0.00000000000E+00  0.22056654810E+04  0.22056654810E+04  0.00000000000E+00 0. -1.
          1   -1    0    0  501    0 -0.00000000000E+00 -0.00000000000E+00 -0.12908987350E+04  0.12908987350E+04  0.00000000000E+00 0. -1.
         25    2    1    2    0    0  0.55216788008E+03 -0.38945993881E+03  0.68491639679E+03  0.97020803015E+03  0.12499895782E+03 0.  0.
          2    1    1    2  501    0 -0.11809468300E+04  0.17896504291E+03 -0.69989657926E+03  0.13843840232E+04  0.00000000000E+00 0. -1.
          1    1    1    2  502    0  0.62877894996E+03  0.21049489590E+03  0.92974692847E+03  0.11419721626E+04  0.00000000000E+00 0. -1.
         22    1    3    3    0    0  0.34618208599E+03 -0.17861390698E+03  0.43324097920E+03  0.58261712169E+03  0.00000000000E+00 0. -1.
         22    1    3    3    0    0  0.20598579408E+03 -0.21084603184E+03  0.25167541759E+03  0.38759090846E+03  0.00000000000E+00 0. -1.
</event>
<event>
 7    1  0.3110367E-005  0.2038510E+03  0.7818608E-02  0.1238496E+00
          2   -1    0    0  502    0  0.00000000000E+00  0.00000000000E+00  0.33399212588E+03  0.33399212588E+03  0.00000000000E+00 0. -1.
          1   -1    0    0  501    0 -0.00000000000E+00 -0.00000000000E+00 -0.12641786222E+04  0.12641786222E+04  0.00000000000E+00 0. -1.
         25    2    1    2    0    0  0.73062221996E+01  0.19232964605E+03  0.12005668706E+03  0.25900178503E+03  0.12499697160E+03 0.  0.
          2    1    1    2  501    0  0.71907656383E+02  0.17532649936E+02 -0.11056405254E+04  0.11081151007E+04  0.00000000000E+00 0. -1.
          1    1    1    2  502    0 -0.79213878582E+02 -0.20986229598E+03  0.55397342012E+02  0.23105386242E+03  0.00000000000E+00 0. -1.
         22    1    3    3    0    0  0.56037725906E+01 -0.10047925174E+02  0.39555187375E+02  0.41194367526E+02  0.00000000000E+00 0. -1.
         22    1    3    3    0    0  0.17024496089E+01  0.20237757122E+03  0.80501499682E+02  0.21780741750E+03  0.00000000000E+00 0. -1.
</event>
<event>
 7    1  0.3110367E-005  0.8304208E+02  0.7818608E-02  0.1382861E+00
          2   -1    0    0  502    0  0.00000000000E+00  0.00000000000E+00  0.26086148350E+03  0.26086148350E+03  0.00000000000E+00 0. -1.
          1   -1    0    0  501    0 -0.00000000000E+00 -0.00000000000E+00 -0.13421725820E+03  0.13421725820E+03  0.00000000000E+00 0. -1.
         25    2    1    2    0    0 -0.70731605342E+02 -0.58482067627E+02 -0.33591352059E+02  0.15866758383E+03  0.12499564392E+03 0.  0.
          2    1    1    2  501    0 -0.11965439263E+02  0.47403338591E+02 -0.71239599214E+01  0.49406467707E+02  0.00000000000E+00 0. -1.
          1    1    1    2  502    0  0.82697044606E+02  0.11078729036E+02  0.16735953728E+03  0.18700469016E+03  0.00000000000E+00 0. -1.
         22    1    3    3    0    0 -0.74882953297E+02 -0.72189158505E+02  0.17616694300E+02  0.10549445113E+03  0.00000000000E+00 0. -1.
         22    1    3    3    0    0  0.41513479547E+01  0.13707090878E+02 -0.51208046359E+02  0.53173132709E+02  0.00000000000E+00 0. -1.
</event>
<event>
 7    1  0.3110367E-005  0.3351163E+03  0.7818608E-02  0.1165370E+00
          2   -1    0    0  502    0  0.00000000000E+00  0.00000000000E+00  0.21221924034E+04  0.21221924034E+04  0.00000000000E+00 0. -1.
          1   -1    0    0  501    0 -0.00000000000E+00 -0.00000000000E+00 -0.56112900140E+03  0.56112900140E+03  0.00000000000E+00 0. -1.
         25    2    1    2    0    0 -0.28339230764E+03 -0.32366459469E+03 -0.19250664371E+03  0.48759774878E+03  0.12499114714E+03 0.  0.
          2    1    1    2  501    0  0.59072723898E+02  0.79976811735E+02 -0.19516991526E+03  0.21903692142E+03  0.00000000000E+00 0. -1.
          1    1    1    2  502    0  0.22431958374E+03  0.24368778296E+03  0.19487399610E+04  0.19766867346E+04  0.00000000000E+00 0. -1.
         22    1    3    3    0    0 -0.27641621315E+03 -0.29246281361E+03 -0.20695093739E+03  0.45251421052E+03  0.00000000000E+00 0. -1.
         22    1    3    3    0    0 -0.69760944846E+01 -0.31201781082E+02  0.14444293683E+02  0.35083538262E+02  0.00000000000E+00 0. -1.
</event>
<event>
 7    1  0.3110367E-005  0.3887138E+03  0.7818608E-02  0.1153234E+00
          2   -1    0    0  502    0  0.00000000000E+00  0.00000000000E+00  0.71621889402E+03  0.71621889402E+03  0.00000000000E+00 0. -1.
          1   -1    0    0  501    0 -0.00000000000E+00 -0.00000000000E+00 -0.10042474679E+04  0.10042474679E+04  0.00000000000E+00 0. -1.
         25    2    1    2    0    0 -0.12985979238E+03 -0.42321072007E+03 -0.22681600674E+03  0.51287571562E+03  0.12500047802E+03 0.  0.
          2    1    1    2  501    0  0.49005846010E+02  0.36653357115E+03 -0.57541358712E+03  0.68399504967E+03  0.00000000000E+00 0. -1.
          1    1    1    2  502    0  0.80853946366E+02  0.56677148911E+02  0.51420101999E+03  0.52359559663E+03  0.00000000000E+00 0. -1.
         22    1    3    3    0    0 -0.81064997932E+01  0.79601447398E+01 -0.10018258977E+02  0.15147433978E+02  0.00000000000E+00 0.  1.
         22    1    3    3    0    0 -0.12175329258E+03 -0.43117086481E+03 -0.21679774776E+03  0.49772828164E+03  0.00000000000E+00 0.  1.
</event>
<event>
 7    1  0.3110367E-005  0.1897253E+03  0.7818608E-02  0.1228908E+00
          2   -1    0    0  502    0  0.00000000000E+00  0.00000000000E+00  0.15867094097E+04  0.15867094097E+04  0.00000000000E+00 0. -1.
          1   -1    0    0  501    0 -0.00000000000E+00 -0.00000000000E+00 -0.29119445622E+03  0.29119445622E+03  0.00000000000E+00 0. -1.
         25    2    1    2    0    0  0.14951146460E+03 -0.12276246310E+03  0.18918336199E+03  0.29805115972E+03  0.12497939415E+03 0.  0.
          2    1    1    2  501    0 -0.18694440329E+03  0.43401043957E+02 -0.19614891428E+03  0.27441985553E+03  0.00000000000E+00 0. -1.
          1    1    1    2  502    0  0.37432938688E+02  0.79361419138E+02  0.13024805058E+04  0.13054328507E+04  0.00000000000E+00 0. -1.
         22    1    3    3    0    0  0.76318516040E+02 -0.84168089638E+02  0.18257787208E+03  0.21504293194E+03  0.00000000000E+00 0. -1.
         22    1    3    3    0    0  0.73192948560E+02 -0.38594373457E+02  0.66054899117E+01  0.83008227776E+02  0.00000000000E+00 0. -1.
</event>
<event>
 7    1  0.3110367E-005  0.5157126E+02  0.7818608E-02  0.1440699E+00
          2   -1    0    0  502    0  0.00000000000E+00  0.00000000000E+00  0.22279593018E+04  0.22279593018E+04  0.00000000000E+00 0. -1.
          1   -1    0    0  501    0 -0.00000000000E+00 -0.00000000000E+00 -0.26370205676E+02  0.26370205676E+02  0.00000000000E+00 0. -1.
         25    2    1    2    0    0 -0.46056289941E+02 -0.19977411122E+02  0.15045548949E+04  0.15105730796E+04  0.12500127226E+03 0.  0.
          2    1    1    2  501    0 -0.44987046471E+01  0.49978401385E+02  0.63565140315E+01  0.50581461220E+02  0.00000000000E+00 0. -1.
          1    1    1    2  502    0  0.50554994588E+02 -0.30000990263E+02  0.69067768716E+03  0.69317496668E+03  0.00000000000E+00 0. -1.
         22    1    3    3    0    0  0.24284408275E+02  0.30785076737E+02  0.25350618401E+03  0.25652064004E+03  0.00000000000E+00 0.  1.
         22    1    3    3    0    0 -0.70340698216E+02 -0.50762487859E+02  0.12510487109E+04  0.12540524395E+04  0.00000000000E+00 0.  1.
</event>
<event>
 7    1  0.3110367E-005  0.1460531E+03  0.7818608E-02  0.1326438E+00
          2   -1    0    0  502    0  0.00000000000E+00  0.00000000000E+00  0.62385571878E+03  0.62385571878E+03  0.00000000000E+00 0. -1.
          1   -1    0    0  501    0 -0.00000000000E+00 -0.00000000000E+00 -0.96273182020E+03  0.96273182020E+03  0.00000000000E+00 0. -1.
         25    2    1    2    0    0  0.91522705474E+02 -0.97402928311E+02 -0.12319236951E+03  0.22060162359E+03  0.12499992146E+03 0.  0.
          2    1    1    2  501    0 -0.12929660653E+03  0.73237703358E+02 -0.78296181235E+03  0.79693824934E+03  0.00000000000E+00 0. -1.
          1    1    1    2  502    0  0.37773901055E+02  0.24165224953E+02  0.56727808044E+03  0.56904766606E+03  0.00000000000E+00 0. -1.
         22    1    3    3    0    0  0.52550563623E+02 -0.11834911735E+03 -0.58177950832E+02  0.14196037925E+03  0.00000000000E+00 0.  1.
         22    1    3    3    0    0  0.38972141851E+02  0.20946189036E+02 -0.65014418675E+02  0.78641244339E+02  0.00000000000E+00 0.  1.
</event>
<event>
 7    1  0.3110367E-005  0.9384127E+02  0.7818608E-02  0.1427475E+00
          2   -1    0    0  502    0  0.00000000000E+00  0.00000000000E+00  0.26332436247E+04  0.26332436247E+04  0.00000000000E+00 0. -1.
          1   -1    0    0  501    0 -0.00000000000E+00 -0.00000000000E+00 -0.52396135145E+02  0.52396135145E+02  0.00000000000E+00 0. -1.
         25    2    1    2    0    0  0.29758143326E+02 -0.10799580438E+03  0.60504196300E+03  0.62789619732E+03  0.12501686587E+03 0.  0.
          2    1    1    2  501    0 -0.44306432109E+02  0.81226709797E+02  0.11539892181E+02  0.93241661409E+02  0.00000000000E+00 0. -1.
          1    1    1    2  502    0  0.14548288784E+02  0.26769094581E+02  0.19642656344E+04  0.19645019011E+04  0.00000000000E+00 0. -1.
         22    1    3    3    0    0  0.49725430110E+02 -0.14645688813E+02  0.37892268737E+03  0.38245198078E+03  0.00000000000E+00 0. -1.
         22    1    3    3    0    0 -0.19967286785E+02 -0.93350115565E+02  0.22611927563E+03  0.24544421654E+03  0.00000000000E+00 0. -1.
</event>
<event>
 7    1  0.3110367E-005  0.1658529E+03  0.7818608E-02  0.1242368E+00
          2   -1    0    0  502    0  0.00000000000E+00  0.00000000000E+00  0.10224543562E+04  0.10224543562E+04  0.00000000000E+00 0. -1.
          1   -1    0    0  501    0 -0.00000000000E+00 -0.00000000000E+00 -0.78392658119E+03  0.78392658119E+03  0.00000000000E+00 0. -1.
         25    2    1    2    0    0 -0.47294874448E+02  0.86624523466E+02  0.12076356015E+03  0.19988654623E+03  0.12502072104E+03 0.  0.
          2    1    1    2  501    0 -0.67832009948E+02  0.55219067441E+02 -0.73205468694E+03  0.73726141338E+03  0.00000000000E+00 0. -1.
          1    1    1    2  502    0  0.11512688440E+03 -0.14184359091E+03  0.84981890177E+03  0.86923297774E+03  0.00000000000E+00 0. -1.
         22    1    3    3    0    0 -0.62058820478E+02  0.93507256467E+02  0.13685699592E+03  0.17698797005E+03  0.00000000000E+00 0.  1.
         22    1    3    3    0    0  0.14763946031E+02 -0.68827330008E+01 -0.16093435771E+02  0.22898576176E+02  0.00000000000E+00 0.  1.
</event>
<event>
 7    1  0.3110367E-005  0.1194961E+04  0.7818608E-02  0.1142120E+00
          2   -1    0    0  502    0  0.00000000000E+00  0.00000000000E+00  0.19663291296E+04  0.19663291296E+04  0.00000000000E+00 0. -1.
          1   -1    0    0  501    0 -0.00000000000E+00 -0.00000000000E+00 -0.10321809517E+04  0.10321809517E+04  0.00000000000E+00 0. -1.
         25    2    1    2    0    0  0.10966740203E+04 -0.41600143087E+03  0.59031965135E+03  0.13190357914E+04  0.12500812338E+03 0.  0.
          2    1    1    2  501    0 -0.11333211033E+04  0.41698147710E+03 -0.12059737082E+03  0.12136037250E+04  0.00000000000E+00 0. -1.
          1    1    1    2  502    0  0.36647083054E+02 -0.98004623567E+00  0.46442589730E+03  0.46587056493E+03  0.00000000000E+00 0. -1.
         22    1    3    3    0    0  0.32117217009E+03 -0.11675056685E+03  0.23672711931E+03  0.41571863889E+03  0.00000000000E+00 0.  1.
         22    1    3    3    0    0  0.77550185017E+03 -0.29925086401E+03  0.35359253204E+03  0.90331715247E+03  0.00000000000E+00 0.  1.
</event>
<event>
 7    1  0.3110367E-005  0.8832578E+03  0.7818608E-02  0.1152911E+00
          2   -1    0    0  502    0  0.00000000000E+00  0.00000000000E+00  0.31931244667E+04  0.31931244667E+04  0.00000000000E+00 0. -1.
          1   -1    0    0  501    0 -0.00000000000E+00 -0.00000000000E+00 -0.36545125614E+03  0.36545125614E+03  0.00000000000E+00 0. -1.
         25    2    1    2    0    0 -0.87434541413E+03  0.13321677598E+03  0.87145164931E+03  0.12479101141E+04  0.12500025225E+03 0.  0.
          2    1    1    2  501    0  0.87800590018E+03 -0.89750278575E+02  0.92493790057E+03  0.12784598520E+04  0.00000000000E+00 0. -1.
          1    1    1    2  502    0 -0.36604860508E+01 -0.43466497407E+02  0.10312836607E+04  0.10322057568E+04  0.00000000000E+00 0. -1.
         22    1    3    3    0    0 -0.23748839997E+03  0.86036102147E+02  0.20993336219E+03  0.32844324860E+03  0.00000000000E+00 0.  1.
         22    1    3    3    0    0 -0.63685701415E+03  0.47180673836E+02  0.66151828712E+03  0.91946686545E+03  0.00000000000E+00 0.  1.
</event>
<event>
 7    1  0.3110367E-005  0.7497463E+03  0.7818608E-02  0.1107786E+00
          2   -1    0    0  502    0  0.00000000000E+00  0.00000000000E+00  0.12095982548E+04  0.12095982548E+04  0.00000000000E+00 0. -1.
          1   -1    0    0  501    0 -0.00000000000E+00 -0.00000000000E+00 -0.81980224559E+03  0.81980224559E+03  0.00000000000E+00 0. -1.
         25    2    1    2    0    0  0.37209308354E+03 -0.60664741342E+03  0.38973101153E+03  0.82096880708E+03  0.12500069528E+03 0.  0.
          2    1    1    2  501    0  0.68772832685E+02 -0.57158589555E+02 -0.33296972607E+03  0.34476897389E+03  0.00000000000E+00 0. -1.
          1    1    1    2  502    0 -0.44086591623E+03  0.66380600298E+03  0.33303472375E+03  0.86366271941E+03  0.00000000000E+00 0. -1.
         22    1    3    3    0    0  0.16085933428E+03 -0.15758278555E+03  0.14300443183E+03  0.26675518223E+03  0.00000000000E+00 0. -1.
         22    1    3    3    0    0  0.21123374926E+03 -0.44906462787E+03  0.24672657971E+03  0.55421362485E+03  0.00000000000E+00 0. -1.
</event>
<event>
 7    1  0.3110367E-005  0.4836383E+02  0.7818608E-02  0.1476127E+00
          2   -1    0    0  502    0  0.00000000000E+00  0.00000000000E+00  0.27475827323E+03  0.27475827323E+03  0.00000000000E+00 0. -1.
          1   -1    0    0  501    0 -0.00000000000E+00 -0.00000000000E+00 -0.20896000269E+04  0.20896000269E+04  0.00000000000E+00 0. -1.
         25    2    1    2    0    0 -0.11849391928E+02 -0.79125733316E+01 -0.21626671834E+03  0.25019938156E+03  0.12500168064E+03 0.  0.
          2    1    1    2  501    0  0.56513767274E+01  0.48787228374E+02 -0.18543822549E+04  0.18550325278E+04  0.00000000000E+00 0. -1.
          1    1    1    2  502    0  0.61980152007E+01 -0.40874655042E+02  0.25580721959E+03  0.25912639081E+03  0.00000000000E+00 0. -1.
         22    1    3    3    0    0 -0.41051436289E+02 -0.53952049888E+02 -0.90097533665E+02  0.11275464372E+03  0.00000000000E+00 0.  1.
         22    1    3    3    0    0  0.29202044361E+02  0.46039476556E+02 -0.12616918468E+03  0.13744473784E+03  0.00000000000E+00 0.  1.
</event>
<event>
 7    1  0.3110367E-005  0.1671182E+03  0.7818608E-02  0.1277120E+00
          2   -1    0    0  502    0  0.00000000000E+00  0.00000000000E+00  0.73543121561E+03  0.73543121561E+03  0.00000000000E+00 0. -1.
          1   -1    0    0  501    0 -0.00000000000E+00 -0.00000000000E+00 -0.14862321540E+04  0.14862321540E+04  0.00000000000E+00 0. -1.
         25    2    1    2    0    0 -0.14438615804E+03 -0.46412127098E+02 -0.54236605668E+03  0.57687715634E+03  0.12499946354E+03 0.  0.
          2    1    1    2  501    0 -0.22831091254E+02  0.57296314055E+02 -0.91578430189E+03  0.91785892920E+03  0.00000000000E+00 0. -1.
          1    1    1    2  502    0  0.16721724930E+03 -0.10884186957E+02  0.70734942022E+03  0.72692728404E+03  0.00000000000E+00 0. -1.
         22    1    3    3    0    0 -0.75365255103E+02 -0.76065670556E+02 -0.41876292404E+03  0.43223638725E+03  0.00000000000E+00 0. -1.
         22    1    3    3    0    0 -0.69020902941E+02  0.29653543458E+02 -0.12360313264E+03  0.14464076908E+03  0.00000000000E+00 0. -1.
</event>
<event>
 7    1  0.3110367E-005  0.6264163E+02  0.7818608E-02  0.1441219E+00
          2   -1    0    0  502    0  0.00000000000E+00  0.00000000000E+00  0.15927807489E+03  0.15927807489E+03  0.00000000000E+00 0. -1.
          1   -1    0    0  501    0 -0.00000000000E+00 -0.00000000000E+00 -0.69903110332E+03  0.69903110332E+03  0.00000000000E+00 0. -1.
         25    2    1    2    0    0 -0.85896182231E+02 -0.36089024254E+02 -0.40898995935E+03  0.43769673173E+03  0.12500028131E+03 0.  0.
          2    1    1    2  501    0  0.44756871353E+02  0.35052947551E+02 -0.26974261423E+03  0.27566821470E+03  0.00000000000E+00 0. -1.
          1    1    1    2  502    0  0.41139310878E+02  0.10360767029E+01  0.13897954515E+03  0.14494423177E+03  0.00000000000E+00 0. -1.
         22    1    3    3    0    0 -0.24554323041E+02 -0.36931746368E+02 -0.34929323094E+03  0.35209747208E+03  0.00000000000E+00 0. -1.
         22    1    3    3    0    0 -0.61341859190E+02  0.84272211380E+00 -0.59696728415E+02  0.85599259652E+02  0.00000000000E+00 0. -1.
</event>
<event>
 7    1  0.3110367E-005  0.7889309E+02  0.7818608E-02  0.1425063E+00
          2   -1    0    0  502    0  0.00000000000E+00  0.00000000000E+00  0.17949452862E+03  0.17949452862E+03  0.00000000000E+00 0. -1.
          1   -1    0    0  501    0 -0.00000000000E+00 -0.00000000000E+00 -0.23888636386E+03  0.23888636386E+03  0.00000000000E+00 0. -1.
         25    2    1    2    0    0 -0.76602992911E+02 -0.83320281342E+02 -0.15175104438E+03  0.22685579877E+03  0.12499954464E+03 0.  0.
          2    1    1    2  501    0  0.20588640839E+02  0.30636545112E+02 -0.29622381985E+02  0.47328379884E+02  0.00000000000E+00 0. -1.
          1    1    1    2  502    0  0.56014352072E+02  0.52683736230E+02  0.12198159113E+03  0.14419671382E+03  0.00000000000E+00 0. -1.
         22    1    3    3    0    0 -0.31438372260E+02 -0.75425675097E+02 -0.16056907971E+03  0.18016612632E+03  0.00000000000E+00 0.  1.
         22    1    3    3    0    0 -0.45164620651E+02 -0.78946062456E+01  0.88180353342E+01  0.46689672450E+02  0.00000000000E+00 0.  1.
</event>
<event>
 7    1  0.3110367E-005  0.1885488E+03  0.7818608E-02  0.1194159E+00
          2   -1    0    0  502    0  0.00000000000E+00  0.00000000000E+00  0.20288011129E+04  0.20288011129E+04  0.00000000000E+00 0. -1.
          1   -1    0    0  501    0 -0.00000000000E+00 -0.00000000000E+00 -0.41234267390E+03  0.41234267390E+03  0.00000000000E+00 0. -1.
         25    2    1    2    0    0  0.15454515343E+01  0.29962976138E+03  0.17481342622E+03  0.36873405901E+03  0.12499875983E+03 0.  0.
          2    1    1    2  501    0  0.40716370923E+02 -0.12118540865E+03 -0.29740481068E+03  0.32371800621E+03  0.00000000000E+00 0. -1.
          1    1    1    2  502    0 -0.42261822457E+02 -0.17844435273E+03  0.17390498235E+04  0.17486917216E+04  0.00000000000E+00 0. -1.
         22    1    3    3    0    0 -0.26723990481E+02  0.32361406224E+01  0.14971548750E+02  0.30802460053E+02  0.00000000000E+00 0. -1.
         22    1    3    3    0    0  0.28269442015E+02  0.29639362076E+03  0.15984187747E+03  0.33793159895E+03  0.00000000000E+00 0. -1.
</event>
<event>
 7    1  0.3110367E-005  0.1686736E+03  0.7818608E-02  0.1218003E+00
          2   -1    0    0  502    0  0.00000000000E+00  0.00000000000E+00  0.53194690760E+03  0.53194690760E+03  0.00000000000E+00 0. -1.
          1   -1    0    0  501    0 -0.00000000000E+00 -0.00000000000E+00 -0.15753274653E+03  0.15753274653E+03  0.00000000000E+00 0. -1.
         25    2    1    2    0    0 -0.16049542452E+03  0.81518667821E+02 -0.52379807741E+00  0.21915528270E+03  0.12499875630E+03 0.  0.
          2    1    1    2  501    0 -0.10309023536E+02 -0.11011544284E+03  0.15409528090E+03  0.18967615115E+03  0.00000000000E+00 0. -1.
          1    1    1    2  502    0  0.17080444805E+03  0.28596775023E+02  0.22084267824E+03  0.28064822029E+03  0.00000000000E+00 0. -1.
         22    1    3    3    0    0 -0.14818524636E+03  0.16278483211E+02 -0.18894049525E+02  0.15026922960E+03  0.00000000000E+00 0.  1.
         22    1    3    3    0    0 -0.12310178150E+02  0.65240184610E+02  0.18370251447E+02  0.68886053104E+02  0.00000000000E+00 0.  1.
</event>
<event>
 7    1  0.3110367E-005  0.6933240E+02  0.7818608E-02  0.1464696E+00
          2   -1    0    0  502    0  0.00000000000E+00  0.00000000000E+00  0.20419901305E+04  0.20419901305E+04  0.00000000000E+00 0. -1.
          1   -1    0    0  501    0 -0.00000000000E+00 -0.00000000000E+00 -0.31231168544E+02  0.31231168544E+02  0.00000000000E+00 0. -1.
         25    2    1    2    0    0 -0.35228875522E+02 -0.21933014668E+02  0.14048054947E+04  0.14109664577E+04  0.12500294378E+03 0.  0.
          2    1    1    2  501    0  0.49612263364E+02  0.49729867567E+02  0.16742482501E+02  0.72213206026E+02  0.00000000000E+00 0. -1.
          1    1    1    2  502    0 -0.14383387842E+02 -0.27796852899E+02  0.58921098475E+03  0.59004163533E+03  0.00000000000E+00 0. -1.
         22    1    3    3    0    0 -0.72703079456E+01 -0.68490835727E+02  0.52686498145E+03  0.53134787158E+03  0.00000000000E+00 0. -1.
         22    1    3    3    0    0 -0.27958567576E+02  0.46557821059E+02  0.87794051328E+03  0.87961858613E+03  0.00000000000E+00 0. -1.
</event>
<event>
 7    1  0.3110367E-005  0.4687037E+03  0.7818608E-02  0.1043462E+00
          2   -1    0    0  502    0  0.00000000000E+00  0.00000000000E+00  0.54918472921E+03  0.54918472921E+03  0.00000000000E+00 0. -1.
          1   -1    0    0  501    0 -0.00000000000E+00 -0.00000000000E+00 -0.85419949201E+03  0.85419949201E+03  0.00000000000E+00 0. -1.
         25    2    1    2    0    0 -0.43196281420E+02  0.13990483729E+03  0.12711059800E+03  0.23069840425E+03  0.12500146948E+03 0.  0.
          2    1    1    2  501    0  0.50609545532E+03 -0.66369241285E+02 -0.48110897569E+03  0.70142949223E+03  0.00000000000E+00 0. -1.
          1    1    1    2  502    0 -0.46289917390E+03 -0.73535596009E+02  0.48983614894E+02  0.47125632474E+03  0.00000000000E+00 0. -1.
         22    1    3    3    0    0 -0.27104841971E+02  0.11995111569E+03  0.25092643292E+02  0.12550929592E+03  0.00000000000E+00 0.  1.
         22    1    3    3    0    0 -0.16091439449E+02  0.19953721603E+02  0.10201795471E+03  0.10518910833E+03  0.00000000000E+00 0.  1.
</event>
<event>
 7    1  0.3110367E-005  0.3455556E+03  0.7818608E-02  0.1268588E+00
          2   -1    0    0  502    0  0.00000000000E+00  0.00000000000E+00  0.21654121364E+03  0.21654121364E+03  0.00000000000E+00 0. -1.
          1   -1    0    0  501    0 -0.00000000000E+00 -0.00000000000E+00 -0.84746871837E+03  0.84746871837E+03  0.00000000000E+00 0. -1.
         25    2    1    2    0    0 -0.23283971642E+03  0.24624040724E+03 -0.36934679843E+03  0.51661496989E+03  0.12500119160E+03 0.  0.
          2    1    1    2  501    0  0.26496548737E+03 -0.24217660859E+03 -0.86360552975E+02  0.36920775229E+03  0.00000000000E+00 0. -1.
          1    1    1    2  502    0 -0.32125770948E+02 -0.40637986527E+01 -0.17522015332E+03  0.17818720984E+03  0.00000000000E+00 0. -1.
         22    1    3    3    0    0 -0.19278427824E+03  0.24420539676E+03 -0.35926254621E+03  0.47525954052E+03  0.00000000000E+00 0.  1.
         22    1    3    3    0    0 -0.40055438179E+02  0.20350104803E+01 -0.10084252215E+02  0.41355429367E+02  0.00000000000E+00 0.  1.
</event>
<event>
 7    1  0.3110367E-005  0.1036868E+03  0.7818608E-02  0.1430624E+00
          2   -1    0    0  502    0  0.00000000000E+00  0.00000000000E+00  0.56636590326E+03  0.56636590326E+03  0.00000000000E+00 0. -1.
          1   -1    0    0  501    0 -0.00000000000E+00 -0.00000000000E+00 -0.43567287766E+03  0.43567287766E+03  0.00000000000E+00 0. -1.
         25    2    1    2    0    0 -0.10475389177E+03  0.60025190399E+02  0.12537115467E+03  0.21428288908E+03  0.12499131492E+03 0.  0.
          2    1    1    2  501    0  0.97253462499E+02 -0.34168405231E+02 -0.38395382002E+03  0.39755031354E+03  0.00000000000E+00 0. -1.
          1    1    1    2  502    0  0.75004292727E+01 -0.25856785169E+02  0.38927569095E+03  0.39020557831E+03  0.00000000000E+00 0. -1.
         22    1    3    3    0    0 -0.80844920051E+02  0.15537375419E+02  0.35428875346E+01  0.82400626121E+02  0.00000000000E+00 0. -1.
         22    1    3    3    0    0 -0.23908971720E+02  0.44487814981E+02  0.12182826714E+03  0.13188226296E+03  0.00000000000E+00 0. -1.
</event>
<event>
 7    1  0.3110367E-005  0.9686198E+02  0.7818608E-02  0.1444701E+00
          2   -1    0    0  502    0  0.00000000000E+00  0.00000000000E+00  0.14350271273E+04  0.14350271273E+04  0.00000000000E+00 0. -1.
          1   -1    0    0  501    0 -0.00000000000E+00 -0.00000000000E+00 -0.44630226011E+03  0.44630226011E+03  0.00000000000E+00 0. -1.
         25    2    1    2    0    0 -0.10635082118E+02 -0.12021751506E+03 -0.26653842884E+03  0.31817319933E+03  0.12500437922E+03 0.  0.
          2    1    1    2  501    0 -0.66963950240E+01  0.25053387244E+02 -0.15118120758E+03  0.15338928073E+03  0.00000000000E+00 0. -1.
          1    1    1    2  502    0  0.17331477142E+02  0.95164127820E+02  0.14064445036E+04  0.14097669074E+04  0.00000000000E+00 0. -1.
         22    1    3    3    0    0 -0.63017992085E+02 -0.40458966761E+02 -0.14914090403E+03  0.16688680168E+03  0.00000000000E+00 0. -1.
         22    1    3    3    0    0  0.52382909967E+02 -0.79758548302E+02 -0.11739752480E+03  0.15128639765E+03  0.00000000000E+00 0. -1.
</event>
<event>
 7    1  0.3110367E-005  0.1500801E+03  0.7818608E-02  0.1270916E+00
          2   -1    0    0  502    0  0.00000000000E+00  0.00000000000E+00  0.13659127071E+04  0.13659127071E+04  0.00000000000E+00 0. -1.
          1   -1    0    0  501    0 -0.00000000000E+00 -0.00000000000E+00 -0.42665246220E+03  0.42665246220E+03  0.00000000000E+00 0. -1.
         25    2    1    2    0    0  0.11542191362E+03  0.12459507677E+03 -0.42676818889E+02  0.21516122872E+03  0.12500756848E+03 0.  0.
          2    1    1    2  501    0  0.23797493090E+02 -0.68903899289E+02 -0.28879622984E+03  0.29785454568E+03  0.00000000000E+00 0. -1.
          1    1    1    2  502    0 -0.13921940671E+03 -0.55691177479E+02  0.12707332936E+04  0.12795493949E+04  0.00000000000E+00 0. -1.
         22    1    3    3    0    0 -0.70806440176E+01 -0.12481253232E+01 -0.38836468579E+02  0.39496387533E+02  0.00000000000E+00 0.  1.
         22    1    3    3    0    0  0.12250255764E+03  0.12584320209E+03 -0.38403503099E+01  0.17566484119E+03  0.00000000000E+00 0.  1.
</event>
<event>
 7    1  0.3110367E-005  0.1395212E+03  0.7818608E-02  0.1260708E+00
          2   -1    0    0  502    0  0.00000000000E+00  0.00000000000E+00  0.17370014027E+04  0.17370014027E+04  0.00000000000E+00 0. -1.
          1   -1    0    0  501    0 -0.00000000000E+00 -0.00000000000E+00 -0.85872867642E+03  0.85872867642E+03  0.00000000000E+00 0. -1.
         25    2    1    2    0    0 -0.16597661648E+03 -0.13898848175E+03  0.19428831216E+02  0.25073665593E+03  0.12500142348E+03 0.  0.
          2    1    1    2  501    0  0.86146342920E+02  0.10540295825E+03 -0.73565514202E+03  0.74814401287E+03  0.00000000000E+00 0. -1.
          1    1    1    2  502    0  0.79830273557E+02  0.33585523500E+02  0.15944990371E+04  0.15968494104E+04  0.00000000000E+00 0. -1.
         22    1    3    3    0    0 -0.23010400095E+02 -0.23210688802E+02  0.54411604827E+02  0.63473122871E+02  0.00000000000E+00 0.  1.
         22    1    3    3    0    0 -0.14296621638E+03 -0.11577779294E+03 -0.34982773610E+02  0.18726353306E+03  0.00000000000E+00 0.  1.
</event>
<event>
 7    1  0.3110367E-005  0.4811079E+03  0.7818608E-02  0.1201822E+00
          2   -1    0    0  502    0  0.00000000000E+00  0.00000000000E+00  0.65047718207E+03  0.65047718207E+03  0.00000000000E+00 0. -1.
          1   -1    0    0  501    0 -0.00000000000E+00 -0.00000000000E+00 -0.78170595569E+03  0.78170595569E+03  0.00000000000E+00 0. -1.
         25    2    1    2    0    0 -0.46861844784E+03 -0.11055944009E+03  0.24932658781E+03  0.55643126840E+03  0.12500147841E+03 0.  0.
          2    1    1    2  501    0  0.45585321922E+03  0.15484478199E+03 -0.53197160424E+03  0.71747672554E+03  0.00000000000E+00 0. -1.
          1    1    1    2  502    0  0.12765228625E+02 -0.44285341901E+02  0.15141624280E+03  0.15827514382E+03  0.00000000000E+00 0. -1.
         22    1    3    3    0    0 -0.38390111630E+03 -0.13739297725E+03  0.21680227335E+03  0.46180095606E+03  0.00000000000E+00 0.  1.
         22    1    3    3    0    0 -0.84717331548E+02  0.26833537158E+02  0.32524314460E+02  0.94630312333E+02  0.00000000000E+00 0.  1.
</event>
<event>
 7    1  0.3110367E-005  0.1400836E+03  0.7818608E-02  0.1267419E+00
          2   -1    0    0  502    0  0.00000000000E+00  0.00000000000E+00  0.15370996005E+03  0.15370996005E+03  0.00000000000E+00 0. -1.
          1   -1    0    0  501    0 -0.00000000000E+00 -0.00000000000E+00 -0.12906663673E+04  0.12906663673E+04  0.00000000000E+00 0. -1.
         25    2    1    2    0    0  0.17846968776E+03  0.10904227673E+03 -0.93079100061E+02  0.26082519397E+03  0.12499766149E+03 0.  0.
          2    1    1    2  501    0 -0.99030146626E+02 -0.94336164394E+02 -0.10845231574E+04  0.10931133339E+04  0.00000000000E+00 0. -1.
          1    1    1    2  502    0 -0.79439541131E+02 -0.14706112336E+02  0.40645850202E+02  0.90437799474E+02  0.00000000000E+00 0. -1.
         22    1    3    3    0    0  0.13589414554E+03  0.49222478023E+02 -0.11444285191E+03  0.18435627868E+03  0.00000000000E+00 0.  1.
         22    1    3    3    0    0  0.42575542216E+02  0.59819798707E+02  0.21363751849E+02  0.76468915288E+02  0.00000000000E+00 0.  1.
</event>
<event>
 7    1  0.3110367E-005  0.3528358E+03  0.7818608E-02  0.1191261E+00
          2   -1    0    0  502    0  0.00000000000E+00  0.00000000000E+00  0.22551782002E+04  0.22551782002E+04  0.00000000000E+00 0. -1.
          1   -1    0    0  501    0 -0.00000000000E+00 -0.00000000000E+00 -0.85678378505E+02  0.85678378505E+02  0.00000000000E+00 0. -1.
         25    2    1    2    0    0 -0.32108032306E+03  0.14618330018E+03  0.99589927779E+03  0.10639092786E+04  0.12500180157E+03 0.  0.
          2    1    1    2  501    0  0.32687484561E+02  0.62496012222E+02  0.25612777799E+02  0.75034909057E+02  0.00000000000E+00 0. -1.
          1    1    1    2  502    0  0.28839283850E+03 -0.20867931240E+03  0.11479877661E+04  0.12019123911E+04  0.00000000000E+00 0. -1.
         22    1    3    3    0    0 -0.26250023436E+03  0.16185028574E+03  0.75632419042E+03  0.81677914337E+03  0.00000000000E+00 0. -1.
         22    1    3    3    0    0 -0.58580088702E+02 -0.15666985567E+02  0.23957508737E+03  0.24713013519E+03  0.00000000000E+00 0. -1.
</event>
<event>
 7    1  0.3110367E-005  0.6384516E+03  0.7818608E-02  0.1047075E+00
          2   -1    0    0  502    0  0.00000000000E+00  0.00000000000E+00  0.11936184159E+04  0.11936184159E+04  0.00000000000E+00 0. -1.
          1   -1    0    0  501    0 -0.00000000000E+00 -0.00000000000E+00 -0.12270529992E+04  0.12270529992E+04  0.00000000000E+00 0. -1.
         25    2    1    2    0    0  0.59279092484E+03  0.20121545985E+03 -0.24483611158E+03  0.68370641247E+03  0.12498397922E+03 0.  0.
          2    1    1    2  501    0  0.56383356475E+02 -0.23225041534E+03 -0.62998706661E+03  0.67379747878E+03  0.00000000000E+00 0. -1.
          1    1    1    2  502    0 -0.64917428132E+03  0.31034955498E+02  0.84138859494E+03  0.10631675238E+04  0.00000000000E+00 0. -1.
         22    1    3    3    0    0  0.20760353680E+03  0.69384134022E+02 -0.15096502387E+03  0.26590190856E+03  0.00000000000E+00 0.  1.
         22    1    3    3    0    0  0.38518738805E+03  0.13183132582E+03 -0.93871087708E+02  0.41780450391E+03  0.00000000000E+00 0.  1.
</event>
<event>
 7    1  0.3110367E-005  0.1891144E+03  0.7818608E-02  0.1269488E+00
          2   -1    0    0  502    0  0.00000000000E+00  0.00000000000E+00  0.68774143746E+03  0.68774143746E+03  0.00000000000E+00 0. -1.
          1   -1    0    0  501    0 -0.00000000000E+00 -0.00000000000E+00 -0.52944462191E+03  0.52944462191E+03  0.00000000000E+00 0. -1.
         25    2    1    2    0    0  0.14636701867E+03  0.16617515183E+03 -0.10836722648E+03  0.27641567209E+03  0.12499873103E+03 0.  0.
          2    1    1    2  501    0  0.64855449099E+01 -0.58295709459E+02 -0.31982747489E+03  0.32516159941E+03  0.00000000000E+00 0. -1.
          1    1    1    2  502    0 -0.15285256358E+03 -0.10787944237E+03  0.58649151692E+03  0.61560878787E+03  0.00000000000E+00 0. -1.
         22    1    3    3    0    0  0.19975119472E+02  0.11132814456E+03 -0.71423331851E+02  0.13376940420E+03  0.00000000000E+00 0.  1.
         22    1    3    3    0    0  0.12639189920E+03  0.54847007272E+02 -0.36943894627E+02  0.14264626788E+03  0.00000000000E+00 0.  1.
</event>
<event>
 7    1  0.3110367E-005  0.2238022E+03  0.7818608E-02  0.1189044E+00
          2   -1    0    0  502    0  0.00000000000E+00  0.00000000000E+00  0.22071846838E+04  0.22071846838E+04  0.00000000000E+00 0. -1.
          1   -1    0    0  501    0 -0.00000000000E+00 -0.00000000000E+00 -0.17109375161E+03  0.17109375161E+03  0.00000000000E+00 0. -1.
         25    2    1    2    0    0  0.96901558581E+02  0.61552087364E+02 -0.47600207292E+02  0.17626558709E+03  0.12500082377E+03 0.  0.
          2    1    1    2  501    0  0.61647470155E+02 -0.21950663060E+03  0.19472675030E+03  0.29983675348E+03  0.00000000000E+00 0. -1.
          1    1    1    2  502    0 -0.15854902874E+03  0.15795454323E+03  0.18889643892E+04  0.19021760948E+04  0.00000000000E+00 0. -1.
         22    1    3    3    0    0  0.10099549817E+03  0.82512876756E+02 -0.67696952446E+02  0.14693992940E+03  0.00000000000E+00 0. -1.
         22    1    3    3    0    0 -0.40939395863E+01 -0.20960789391E+02  0.20096745153E+02  0.29325657691E+02  0.00000000000E+00 0. -1.
</event>
<event>
 7    1  0.3110367E-005  0.3068138E+03  0.7818608E-02  0.1191903E+00
          2   -1    0    0  502    0  0.00000000000E+00  0.00000000000E+00  0.34530392129E+03  0.34530392129E+03  0.00000000000E+00 0. -1.
          1   -1    0    0  501    0 -0.00000000000E+00 -0.00000000000E+00 -0.54567598061E+03  0.54567598061E+03  0.00000000000E+00 0. -1.
         25    2    1    2    0    0 -0.45839619362E+02  0.24816060974E+03  0.17027076122E+03  0.32909299354E+03  0.12500042934E+03 0.  0.
          2    1    1    2  501    0  0.10457096356E+03 -0.30326680035E+03 -0.35743218029E+03  0.48027450704E+03  0.00000000000E+00 0. -1.
          1    1    1    2  502    0 -0.58731344199E+02  0.55106190604E+02 -0.13210640259E+02  0.81612401327E+02  0.00000000000E+00 0. -1.
         22    1    3    3    0    0 -0.49569087922E+02  0.23525621761E+03  0.18915964082E+03  0.30591494262E+03  0.00000000000E+00 0. -1.
         22    1    3    3    0    0  0.37294685598E+01  0.12904392131E+02 -0.18888879594E+02  0.23178050917E+02  0.00000000000E+00 0. -1.
</event>
<event>
 7    1  0.3110367E-005  0.2064238E+03  0.7818608E-02  0.1171892E+00
          2   -1    0    0  502    0  0.00000000000E+00  0.00000000000E+00  0.21890447875E+03  0.21890447875E+03  0.00000000000E+00 0. -1.
          1   -1    0    0  501    0 -0.00000000000E+00 -0.00000000000E+00 -0.49079656933E+03  0.49079656933E+03  0.00000000000E+00 0. -1.
         25    2    1    2    0    0 -0.23665927642E+03 -0.11778417586E+03 -0.44740076862E+00  0.29241456558E+03  0.12500141119E+03 0.  0.
          2    1    1    2  501    0  0.74969640214E+02  0.12967330474E+03 -0.16748289768E+03  0.22469119682E+03  0.00000000000E+00 0. -1.
          1    1    1    2  502    0  0.16168963620E+03 -0.11889128875E+02 -0.10396179213E+03  0.19259528567E+03  0.00000000000E+00 0. -1.
         22    1    3    3    0    0 -0.24015304713E+03 -0.79457121122E+02  0.77089633626E+01  0.25307380003E+03  0.00000000000E+00 0.  1.
         22    1    3    3    0    0  0.34937707119E+01 -0.38327054740E+02 -0.81563641312E+01  0.39340765558E+02  0.00000000000E+00 0.  1.
</event>
<event>
 7    1  0.3110367E-005  0.2052256E+03  0.7818608E-02  0.1256893E+00
          2   -1    0    0  502    0  0.00000000000E+00  0.00000000000E+00  0.24455588207E+03  0.24455588207E+03  0.00000000000E+00 0. -1.
          1   -1    0    0  501    0 -0.00000000000E+00 -0.00000000000E+00 -0.16522132732E+04  0.16522132732E+04  0.00000000000E+00 0. -1.
         25    2    1    2    0    0  0.16364760736E+03  0.17288556586E+03 -0.26756494154E+02  0.27020672790E+03  0.12500323013E+03 0.  0.
          2    1    1    2  501    0 -0.10612836117E+02 -0.60205119640E+02 -0.14291763507E+04  0.14304832505E+04  0.00000000000E+00 0. -1.
          1    1    1    2  502    0 -0.15303477125E+03 -0.11268044622E+03  0.48275453678E+02  0.19607917686E+03  0.00000000000E+00 0. -1.
         22    1    3    3    0    0  0.77314976461E+02  0.16123394607E+03  0.87303063769E+00  0.17881485713E+03  0.00000000000E+00 0.  1.
         22    1    3    3    0    0  0.86332630901E+02  0.11651619798E+02 -0.27629524791E+02  0.91391870768E+02  0.00000000000E+00 0.  1.
</event>
<event>
 7    1  0.3110367E-005  0.5409922E+03  0.7818608E-02  0.1069659E+00
          2   -1    0    0  502    0  0.00000000000E+00  0.00000000000E+00  0.14318243909E+04  0.14318243909E+04  0.00000000000E+00 0. -1.
          1   -1    0    0  501    0 -0.00000000000E+00 -0.00000000000E+00 -0.17588806227E+04  0.17588806227E+04  0.00000000000E+00 0. -1.
         25    2    1    2    0    0  0.76595053941E+02  0.71951725945E+03 -0.73167157688E+03  0.10365997774E+04  0.12499565285E+03 0.  0.
          2    1    1    2  501    0  0.37060686238E+02 -0.20204911666E+03 -0.80646202564E+03  0.83221291675E+03  0.00000000000E+00 0. -1.
          1    1    1    2  502    0 -0.11365574018E+03 -0.51746814279E+03  0.12110773708E+04  0.13218923194E+04  0.00000000000E+00 0. -1.
         22    1    3    3    0    0 -0.78101802259E+01  0.20262270531E+03 -0.27532572319E+03  0.34193744088E+03  0.00000000000E+00 0. -1.
         22    1    3    3    0    0  0.84405234167E+02  0.51689455414E+03 -0.45634585368E+03  0.69466233655E+03  0.00000000000E+00 0. -1.
</event>
<event>
 7    1  0.3110367E-005  0.8006360E+02  0.7818608E-02  0.1423648E+00
          2   -1    0    0  502    0  0.00000000000E+00  0.00000000000E+00  0.16637952198E+04  0.16637952198E+04  0.00000000000E+00 0. -1.
          1   -1    0    0  501    0 -0.00000000000E+00 -0.00000000000E+00 -0.23832688990E+02  0.23832688990E+02  0.00000000000E+00 0. -1.
         25    2    1    2    0    0  0.41715105922E+02 -0.26247444085E+02  0.11271632315E+04  0.11351433194E+04  0.12499730691E+03 0.  0.
          2    1    1    2  501    0 -0.78480089355E+02  0.25783097489E+02  0.70330845908E+02  0.10849110760E+03  0.00000000000E+00 0. -1.
          1    1    1    2  502    0  0.36764983433E+02  0.46434659587E+00  0.44246845337E+03  0.44399348177E+03  0.00000000000E+00 0. -1.
         22    1    3    3    0    0 -0.62439619606E+01  0.26364237373E+02  0.62714980804E+02  0.68317120040E+02  0.00000000000E+00 0.  1.
         22    1    3    3    0    0  0.47959067883E+02 -0.52611681458E+02  0.10644482507E+04  0.10668261994E+04  0.00000000000E+00 0.  1.
</event>
<event>
 7    1  0.3110367E-005  0.3174157E+03  0.7818608E-02  0.1203889E+00
          2   -1    0    0  502    0  0.00000000000E+00  0.00000000000E+00  0.19459146703E+04  0.19459146703E+04  0.00000000000E+00 0. -1.
          1   -1    0    0  501    0 -0.00000000000E+00 -0.00000000000E+00 -0.21491749946E+03  0.21491749946E+03  0.00000000000E+00 0. -1.
         25    2    1    2    0    0  0.17806225714E+03 -0.21320108666E+03  0.26266053110E+03  0.40221511241E+03  0.12500228513E+03 0.  0.
          2    1    1    2  501    0 -0.94561252677E+01 -0.67655095150E+02 -0.11933443954E+03  0.13750395873E+03  0.00000000000E+00 0. -1.
          1    1    1    2  502    0 -0.16860613187E+03  0.28085618180E+03  0.15876710792E+04  0.16211130986E+04  0.00000000000E+00 0. -1.
         22    1    3    3    0    0  0.14323483108E+03 -0.11072050587E+03  0.99964168991E+02  0.20680445434E+03  0.00000000000E+00 0. -1.
         22    1    3    3    0    0  0.34827426062E+02 -0.10248058078E+03  0.16269636210E+03  0.19541065807E+03  0.00000000000E+00 0. -1.
</event>
<event>
 7    1  0.3110367E-005  0.7014992E+03  0.7818608E-02  0.1064333E+00
          2   -1    0    0  502    0  0.00000000000E+00  0.00000000000E+00  0.50883905814E+03  0.50883905814E+03  0.00000000000E+00 0. -1.
          1   -1    0    0  501    0 -0.00000000000E+00 -0.00000000000E+00 -0.17981899171E+04  0.17981899171E+04  0.00000000000E+00 0. -1.
         25    2    1    2    0    0  0.68003706077E+03  0.20760883035E+03 -0.10637905736E+04  0.12856234999E+04  0.12500227489E+03 0.  0.
          2    1    1    2  501    0 -0.69602227680E+03 -0.37855212250E+02 -0.37777770087E+03  0.79284047460E+03  0.00000000000E+00 0. -1.
          1    1    1    2  502    0  0.15985216022E+02 -0.16975361810E+03  0.15221741544E+03  0.22856500072E+03  0.00000000000E+00 0. -1.
         22    1    3    3    0    0  0.21175566079E+03  0.96038427544E+02 -0.26087282338E+03  0.34945453126E+03  0.00000000000E+00 0. -1.
         22    1    3    3    0    0  0.46828139998E+03  0.11157040280E+03 -0.80291775018E+03  0.93616896867E+03  0.00000000000E+00 0. -1.
</event>
<event>
 7    1  0.3110367E-005  0.1992081E+03  0.7818608E-02  0.1234507E+00
          2   -1    0    0  502    0  0.00000000000E+00  0.00000000000E+00  0.19337246834E+04  0.19337246834E+04  0.00000000000E+00 0. -1.
          1   -1    0    0  501    0 -0.00000000000E+00 -0.00000000000E+00 -0.27820970346E+03  0.27820970346E+03  0.00000000000E+00 0. -1.
         25    2    1    2    0    0  0.21511227404E+03  0.14576426373E+03  0.33679715515E+03  0.44337085549E+03  0.12499952306E+03 0.  0.
          2    1    1    2  501    0 -0.38302461383E+02 -0.68966199426E+02 -0.21176847489E+03  0.22598518131E+03  0.00000000000E+00 0. -1.
          1    1    1    2  502    0 -0.17680981265E+03 -0.76798064303E+02  0.15304862997E+04  0.15425783500E+04  0.00000000000E+00 0. -1.
         22    1    3    3    0    0  0.26881820862E+02  0.27000931763E+02 -0.18360210770E+01  0.38145164600E+02  0.00000000000E+00 0. -1.
         22    1    3    3    0    0  0.18823045317E+03  0.11876333197E+03  0.33863317622E+03  0.40522569090E+03  0.00000000000E+00 0. -1.
</event>
<event>
 7    1  0.3110367E-005  0.5778020E+02  0.7818608E-02  0.1427534E+00
          2   -1    0    0  502    0  0.00000000000E+00  0.00000000000E+00  0.46683844285E+02  0.46683844285E+02  0.00000000000E+00 0. -1.
          1   -1    0    0  501    0 -0.00000000000E+00 -0.00000000000E+00 -0.62988619167E+03  0.62988619167E+03  0.00000000000E+00 0. -1.
         25    2    1    2    0    0  0.16340236501E+02  0.62786081370E+01 -0.19632624901E+03  0.23340049788E+03  0.12500148845E+03 0.  0.
          2    1    1    2  501    0  0.49211465640E+02 -0.49468578410E+01 -0.37285596336E+03  0.37612206684E+03  0.00000000000E+00 0. -1.
          1    1    1    2  502    0 -0.65551702141E+02 -0.13317502960E+01 -0.14020135018E+02  0.67047471231E+02  0.00000000000E+00 0. -1.
         22    1    3    3    0    0  0.62292740862E+00  0.31654530879E+00 -0.21105167521E+03  0.21105283189E+03  0.00000000000E+00 0. -1.
         22    1    3    3    0    0  0.15717309093E+02  0.59620628283E+01  0.14725426205E+02  0.22347665990E+02  0.00000000000E+00 0. -1.
</event>
<event>
 7    1  0.3110367E-005  0.3022587E+03  0.7818608E-02  0.1108751E+00
          2   -1    0    0  502    0  0.00000000000E+00  0.00000000000E+00  0.11377870099E+04  0.11377870099E+04  0.00000000000E+00 0. -1.
          1   -1    0    0  501    0 -0.00000000000E+00 -0.00000000000E+00 -0.14572077513E+04  0.14572077513E+04  0.00000000000E+00 0. -1.
         25    2    1    2    0    0 -0.50030087410E+02  0.39477199244E+03 -0.74469860467E+03  0.85355085440E+03  0.12500045437E+03 0.  0.
          2    1    1    2  501    0  0.18105774301E+03 -0.12338276150E+03 -0.61790630934E+03  0.65560157051E+03  0.00000000000E+00 0. -1.
          1    1    1    2  502    0 -0.13102765560E+03 -0.27138923094E+03  0.10431841726E+04  0.10858423363E+04  0.00000000000E+00 0. -1.
         22    1    3    3    0    0  0.33697398314E+02  0.88165516690E+02 -0.23018585787E+03  0.24878545406E+03  0.00000000000E+00 0. -1.
         22    1    3    3    0    0 -0.83727485725E+02  0.30660647575E+03 -0.51451274679E+03  0.60476540034E+03  0.00000000000E+00 0. -1.
</event>
<event>
 7    1  0.3110367E-005  0.5656437E+03  0.7818608E-02  0.1168967E+00
          2   -1    0    0  502    0  0.00000000000E+00  0.00000000000E+00  0.84314420579E+03  0.84314420579E+03  0.00000000000E+00 0. -1.
          1   -1    0    0  501    0 -0.00000000000E+00 -0.00000000000E+00 -0.84207817933E+03  0.84207817933E+03  0.00000000000E+00 0. -1.
         25    2    1    2    0    0 -0.13331577541E+02 -0.56164511256E+03 -0.45754335876E+03  0.73525053979E+03  0.12499787075E+03 0.  0.
          2    1    1    2  501    0 -0.41472215796E+02  0.57546739994E+03  0.98321383062E+02  0.58527751319E+03  0.00000000000E+00 0. -1.
          1    1    1    2  502    0  0.54803793338E+02 -0.13822287377E+02  0.36028800216E+03  0.36469433214E+03  0.00000000000E+00 0. -1.
         22    1    3    3    0    0 -0.60745249499E+02 -0.44313900478E+03 -0.36986238663E+03  0.58039671599E+03  0.00000000000E+00 0.  1.
         22    1    3    3    0    0  0.47413671958E+02 -0.11850610779E+03 -0.87680972123E+02  0.15485382380E+03  0.00000000000E+00 0.  1.
</event>
<event>
 7    1  0.3110367E-005  0.4490184E+02  0.7818608E-02  0.1488287E+00
          2   -1    0    0  502    0  0.00000000000E+00  0.00000000000E+00  0.24978074470E+04  0.24978074470E+04  0.00000000000E+00 0. -1.
          1   -1    0    0  501    0 -0.00000000000E+00 -0.00000000000E+00 -0.18239686338E+03  0.18239686338E+03  0.00000000000E+00 0. -1.
         25    2    1    2    0    0 -0.51886811155E+02 -0.57360960565E+02  0.99763587102E+03  0.10084070250E+04  0.12499950369E+03 0.  0.
          2    1    1    2  501    0  0.12721099207E+02  0.38845108885E+02 -0.17433300884E+03  0.17906079085E+03  0.00000000000E+00 0. -1.
          1    1    1    2  502    0  0.39165711948E+02  0.18515851680E+02  0.14921077214E+04  0.14927364945E+04  0.00000000000E+00 0. -1.
         22    1    3    3    0    0 -0.52196311104E+02 -0.92974958867E+02  0.84336369447E+03  0.85007712534E+03  0.00000000000E+00 0. -1.
         22    1    3    3    0    0  0.30949994915E+00  0.35613998302E+02  0.15427217655E+03  0.15832989965E+03  0.00000000000E+00 0. -1.
</event>
<event>
 7    1  0.3110367E-005  0.5921059E+02  0.7818608E-02  0.1479327E+00
          2   -1    0    0  502    0  0.00000000000E+00  0.00000000000E+00  0.20673444344E+04  0.20673444344E+04  0.00000000000E+00 0. -1.
          1   -1    0    0  501    0 -0.00000000000E+00 -0.00000000000E+00 -0.13764948228E+04  0.13764948228E+04  0.00000000000E+00 0. -1.
         25    2    1    2    0    0 -0.27976350054E+02  0.51231606253E+02  0.88656807247E+02  0.16399247536E+03  0.12500459536E+03 0.  0.
          2    1    1    2  501    0  0.32037569852E+02  0.79591713498E+01 -0.13381700065E+04  0.13385771254E+04  0.00000000000E+00 0. -1.
          1    1    1    2  502    0 -0.40612197984E+01 -0.59190777602E+02  0.19403628109E+04  0.19412696565E+04  0.00000000000E+00 0. -1.
         22    1    3    3    0    0  0.61459604539E+01  0.46035141639E+02  0.11272238792E+03  0.12191531419E+03  0.00000000000E+00 0. -1.
         22    1    3    3    0    0 -0.34122310507E+02  0.51964646137E+01 -0.24065580673E+02  0.42077161168E+02  0.00000000000E+00 0. -1.
</event>
<event>
 7    1  0.3110367E-005  0.1533045E+03  0.7818608E-02  0.1204506E+00
          2   -1    0    0  502    0  0.00000000000E+00  0.00000000000E+00  0.81095512224E+03  0.81095512224E+03  0.00000000000E+00 0. -1.
          1   -1    0    0  501    0 -0.00000000000E+00 -0.00000000000E+00 -0.23235611589E+03  0.23235611589E+03  0.00000000000E+00 0. -1.
         25    2    1    2    0    0  0.14421146002E+03 -0.39929346453E+02  0.87246578123E+02  0.21360574236E+03  0.12499659942E+03 0.  0.
          2    1    1    2  501    0 -0.13501549845E+03 -0.10027237748E+03 -0.11730164073E+03  0.20504489612E+03  0.00000000000E+00 0. -1.
          1    1    1    2  502    0 -0.91959615772E+01  0.14020172394E+03  0.60865406895E+03  0.62466059965E+03  0.00000000000E+00 0. -1.
         22    1    3    3    0    0  0.79385198447E+02 -0.47377511138E+02 -0.13646997086E+02  0.93449873320E+02  0.00000000000E+00 0. -1.
         22    1    3    3    0    0  0.64826261576E+02  0.74481646847E+01  0.10089357521E+03  0.12015586904E+03  0.00000000000E+00 0. -1.
</event>
<event>
 7    1  0.3110367E-005  0.5372134E+02  0.7818608E-02  0.1456225E+00
          2   -1    0    0  502    0  0.00000000000E+00  0.00000000000E+00  0.48730247651E+03  0.48730247651E+03  0.00000000000E+00 0. -1.
          1   -1    0    0  501    0 -0.00000000000E+00 -0.00000000000E+00 -0.92371188414E+02  0.92371188414E+02  0.00000000000E+00 0. -1.
         25    2    1    2    0    0 -0.50318351124E+02  0.33662816568E+02 -0.44902266892E+00  0.13888996292E+03  0.12500039400E+03 0.  0.
          2    1    1    2  501    0  0.38522301260E+02  0.19003306499E+02  0.12473897369E+01  0.42972657974E+02  0.00000000000E+00 0. -1.
          1    1    1    2  502    0  0.11796049864E+02 -0.52666123066E+02  0.39413292103E+03  0.39781104403E+03  0.00000000000E+00 0. -1.
         22    1    3    3    0    0 -0.43424871858E+02 -0.70107032396E+01  0.54589998057E+02  0.70106614122E+02  0.00000000000E+00 0. -1.
         22    1    3    3    0    0 -0.68934792657E+01  0.40673519807E+02 -0.55039020726E+02  0.68783348801E+02  0.00000000000E+00 0. -1.
</event>
<event>
 7    1  0.3110367E-005  0.1776093E+03  0.7818608E-02  0.1252475E+00
          2   -1    0    0  502    0  0.00000000000E+00  0.00000000000E+00  0.44247655179E+03  0.44247655179E+03  0.00000000000E+00 0. -1.
          1   -1    0    0  501    0 -0.00000000000E+00 -0.00000000000E+00 -0.28695506866E+03  0.28695506866E+03  0.00000000000E+00 0. -1.
         25    2    1    2    0    0  0.98151550472E+02  0.12521753424E+03  0.22620307972E+03  0.30348874519E+03  0.12499770974E+03 0.  0.
          2    1    1    2  501    0  0.73756882411E+02  0.25714691345E+01 -0.17335048503E+03  0.18840668995E+03  0.00000000000E+00 0. -1.
          1    1    1    2  502    0 -0.17190843288E+03 -0.12778900338E+03  0.10266888844E+03  0.23753618531E+03  0.00000000000E+00 0. -1.
         22    1    3    3    0    0 -0.72995058692E+01 -0.20892057218E+02  0.25750853695E+02  0.33953899728E+02  0.00000000000E+00 0. -1.
         22    1    3    3    0    0  0.10545105634E+03  0.14610959146E+03  0.20045222603E+03  0.26953484547E+03  0.00000000000E+00 0. -1.
</event>
<event>
 7    1  0.3110367E-005  0.1898483E+03  0.7818608E-02  0.1208500E+00
          2   -1    0    0  502    0  0.00000000000E+00  0.00000000000E+00  0.13191421878E+04  0.13191421878E+04  0.00000000000E+00 0. -1.
          1   -1    0    0  501    0 -0.00000000000E+00 -0.00000000000E+00 -0.79759784455E+03  0.79759784455E+03  0.00000000000E+00 0. -1.
         25    2    1    2    0    0  0.20855645841E+03  0.10658888098E+03 -0.65497212903E+03  0.70673219785E+03  0.12499969512E+03 0.  0.
          2    1    1    2  501    0 -0.10445436217E+03 -0.75329184712E+02 -0.78150836544E+02  0.15064114012E+03  0.00000000000E+00 0. -1.
          1    1    1    2  502    0 -0.10410209625E+03 -0.31259696270E+02  0.12546673088E+04  0.12593666944E+04  0.00000000000E+00 0. -1.
         22    1    3    3    0    0  0.12437401277E+03  0.92909288526E+02 -0.26139441342E+03  0.30401985184E+03  0.00000000000E+00 0.  1.
         22    1    3    3    0    0  0.84182445640E+02  0.13679592456E+02 -0.39357771561E+03  0.40271234601E+03  0.00000000000E+00 0.  1.
</event>
<event>
 7    1  0.3110367E-005  0.1472210E+03  0.7818608E-02  0.1314014E+00
          2   -1    0    0  502    0  0.00000000000E+00  0.00000000000E+00  0.32950765697E+02  0.32950765697E+02  0.00000000000E+00 0. -1.
          1   -1    0    0  501    0 -0.00000000000E+00 -0.00000000000E+00 -0.12224319428E+04  0.12224319428E+04  0.00000000000E+00 0. -1.
         25    2    1    2    0    0  0.15518632135E+03 -0.71234465814E+02 -0.48455654346E+03  0.52875143657E+03  0.12500357760E+03 0.  0.
          2    1    1    2  501    0 -0.34637276422E+02  0.35651822762E+02 -0.23402981649E+03  0.23925038849E+03  0.00000000000E+00 0. -1.
          1    1    1    2  502    0 -0.12054904493E+03  0.35582643051E+02 -0.47089481719E+03  0.48738088347E+03  0.00000000000E+00 0. -1.
         22    1    3    3    0    0  0.13594190891E+03 -0.85552547214E+02 -0.47743546953E+03  0.50373015445E+03  0.00000000000E+00 0.  1.
         22    1    3    3    0    0  0.19244412443E+02  0.14318081401E+02 -0.71210739281E+01  0.25021282125E+02  0.00000000000E+00 0.  1.
</event>
<event>
 7    1  0.3110367E-005  0.6485321E+03  0.7818608E-02  0.1098481E+00
          2   -1    0    0  502    0  0.00000000000E+00  0.00000000000E+00  0.13575236023E+04  0.13575236023E+04  0.00000000000E+00 0. -1.
          1   -1    0    0  501    0 -0.00000000000E+00 -0.00000000000E+00 -0.47275417369E+03  0.47275417369E+03  0.00000000000E+00 0. -1.
         25    2    1    2    0    0  0.46973278284E+03  0.41877406047E+03  0.49986784105E+03  0.81333441090E+03  0.12499761770E+03 0.  0.
          2    1    1    2  501    0  0.10019375644E+03 -0.59570025707E+02 -0.12584898390E+03  0.17153816934E+03  0.00000000000E+00 0. -1.
          1    1    1    2  502    0 -0.56992653928E+03 -0.35920403476E+03  0.51075057148E+03  0.84540519577E+03  0.00000000000E+00 0. -1.
         22    1    3    3    0    0  0.11125072507E+03  0.13262564690E+03  0.76967146739E+02  0.18944716341E+03  0.00000000000E+00 0. -1.
         22    1    3    3    0    0  0.35848205777E+03  0.28614841357E+03  0.42290069431E+03  0.62388724749E+03  0.00000000000E+00 0. -1.
</event>
<event>
 7    1  0.3110367E-005  0.1532146E+03  0.7818608E-02  0.1233564E+00
          2   -1    0    0  502    0  0.00000000000E+00  0.00000000000E+00  0.45745816051E+04  0.45745816051E+04  0.00000000000E+00 0. -1.
          1   -1    0    0  501    0 -0.00000000000E+00 -0.00000000000E+00 -0.12516124990E+02  0.12516124990E+02  0.00000000000E+00 0. -1.
         25    2    1    2    0    0 -0.12312769352E+02 -0.19342247018E+03  0.27025194924E+04  0.27123423397E+04  0.12500201929E+03 0.  0.
          2    1    1    2  501    0 -0.61179381212E+02  0.83565324762E+02  0.68280590321E+03  0.69061565407E+03  0.00000000000E+00 0. -1.
          1    1    1    2  502    0  0.73492150563E+02  0.10985714541E+03  0.11767400845E+04  0.11841397363E+04  0.00000000000E+00 0. -1.
         22    1    3    3    0    0  0.26672940008E+02  0.16151820495E+01  0.17733992061E+03  0.17934185787E+03  0.00000000000E+00 0.  1.
         22    1    3    3    0    0 -0.38985709360E+02 -0.19503765223E+03  0.25251795718E+04  0.25330004818E+04  0.00000000000E+00 0.  1.
</event>
<event>
 7    1  0.3110367E-005  0.1062325E+03  0.7818608E-02  0.1380825E+00
          2   -1    0    0  502    0  0.00000000000E+00  0.00000000000E+00  0.13264638882E+03  0.13264638882E+03  0.00000000000E+00 0. -1.
          1   -1    0    0  501    0 -0.00000000000E+00 -0.00000000000E+00 -0.33734075022E+03  0.33734075022E+03  0.00000000000E+00 0. -1.
         25    2    1    2    0    0 -0.45540103755E+02  0.11835729752E+03 -0.16915749473E+03  0.24560748550E+03  0.12500571181E+03 0.  0.
          2    1    1    2  501    0 -0.16593511887E+02 -0.35134263646E+02 -0.96445368665E+02  0.10397822010E+03  0.00000000000E+00 0. -1.
          1    1    1    2  502    0  0.62133615641E+02 -0.83223033872E+02  0.60908501992E+02  0.12040143344E+03  0.00000000000E+00 0. -1.
         22    1    3    3    0    0  0.32722487554E+02 -0.19694020200E+01 -0.45930454808E+02  0.56429127363E+02  0.00000000000E+00 0. -1.
         22    1    3    3    0    0 -0.78262591309E+02  0.12032669954E+03 -0.12322703992E+03  0.18917835814E+03  0.00000000000E+00 0. -1.
</event>
<event>
 7    1  0.3110367E-005  0.6298890E+02  0.7818608E-02  0.1541517E+00
          2   -1    0    0  502    0  0.00000000000E+00  0.00000000000E+00  0.39616018121E+03  0.39616018121E+03  0.00000000000E+00 0. -1.
          1   -1    0    0  501    0 -0.00000000000E+00 -0.00000000000E+00 -0.35199846179E+03  0.35199846179E+03  0.00000000000E+00 0. -1.
         25    2    1    2    0    0 -0.19857904348E+02  0.64981353892E+02 -0.41432780254E+02  0.14819211091E+03  0.12500925461E+03 0.  0.
          2    1    1    2  501    0  0.35446987034E+02 -0.51886444422E+02 -0.25303735409E+03  0.26072321448E+03  0.00000000000E+00 0. -1.
          1    1    1    2  502    0 -0.15589082686E+02 -0.13094909470E+02  0.33863185377E+03  0.33924331760E+03  0.00000000000E+00 0. -1.
         22    1    3    3    0    0 -0.29563067703E+02 -0.24134844069E+02 -0.44339651993E+02  0.58501883808E+02  0.00000000000E+00 0.  1.
         22    1    3    3    0    0  0.97051633549E+01  0.89116197961E+02  0.29068717391E+01  0.89690227104E+02  0.00000000000E+00 0.  1.
</event>
<event>
 7    1  0.3110367E-005  0.5243791E+02  0.7818608E-02  0.1547949E+00
          2   -1    0    0  502    0  0.00000000000E+00  0.00000000000E+00  0.67311233900E+03  0.67311233900E+03  0.00000000000E+00 0. -1.
          1   -1    0    0  501    0 -0.00000000000E+00 -0.00000000000E+00 -0.63858600694E+02  0.63858600694E+02  0.00000000000E+00 0. -1.
         25    2    1    2    0    0 -0.30193202789E+02  0.15122028118E+02  0.66460775638E+02  0.14554133253E+03  0.12499975819E+03 0.  0.
          2    1    1    2  501    0 -0.75393061100E+01  0.22214616591E+02 -0.17097437217E+02  0.29028480607E+02  0.00000000000E+00 0. -1.
          1    1    1    2  502    0  0.37732508899E+02 -0.37336644710E+02  0.55989039989E+03  0.56240112656E+03  0.00000000000E+00 0. -1.
         22    1    3    3    0    0 -0.47408967919E+02  0.12331289680E+02 -0.23198279492E+02  0.54201763031E+02  0.00000000000E+00 0. -1.
         22    1    3    3    0    0  0.17215765130E+02  0.27907384379E+01  0.89659055130E+02  0.91339569502E+02  0.00000000000E+00 0. -1.
</event>
<event>
 7    1  0.3110367E-005  0.1080502E+03  0.7818608E-02  0.1266857E+00
          2   -1    0    0  502    0  0.00000000000E+00  0.00000000000E+00  0.20603920162E+04  0.20603920162E+04  0.00000000000E+00 0. -1.
          1   -1    0    0  501    0 -0.00000000000E+00 -0.00000000000E+00 -0.86813434088E+03  0.86813434088E+03  0.00000000000E+00 0. -1.
         25    2    1    2    0    0 -0.11202301628E+03 -0.99332798668E+02  0.68921482607E+02  0.20686062066E+03  0.12499993819E+03 0.  0.
          2    1    1    2  501    0  0.41227727809E+01  0.10523373149E+03 -0.79416730011E+03  0.80111973891E+03  0.00000000000E+00 0. -1.
          1    1    1    2  502    0  0.10790024350E+03 -0.59009328243E+01  0.19175034928E+04  0.19205459975E+04  0.00000000000E+00 0. -1.
         22    1    3    3    0    0 -0.67394681382E+02 -0.47516498899E+02  0.10177823430E+03  0.13099110551E+03  0.00000000000E+00 0.  1.
         22    1    3    3    0    0 -0.44628334895E+02 -0.51816299769E+02 -0.32856751689E+02  0.75869515148E+02  0.00000000000E+00 0.  1.
</event>
<event>
 7    1  0.3110367E-005  0.1891470E+03  0.7818608E-02  0.1218146E+00
          2   -1    0    0  502    0  0.00000000000E+00  0.00000000000E+00  0.17536887847E+04  0.17536887847E+04  0.00000000000E+00 0. -1.
          1   -1    0    0  501    0 -0.00000000000E+00 -0.00000000000E+00 -0.10301488678E+03  0.10301488678E+03  0.00000000000E+00 0. -1.
         25    2    1    2    0    0 -0.17954368598E+03  0.17299587903E+03  0.34272812768E+03  0.44187268597E+03  0.12500156706E+03 0.  0.
          2    1    1    2  501    0  0.15056148294E+03 -0.78880525080E+02  0.88907094774E+02  0.19182118987E+03  0.00000000000E+00 0. -1.
          1    1    1    2  502    0  0.28982203036E+02 -0.94115353952E+02  0.12190386755E+04  0.12230097956E+04  0.00000000000E+00 0. -1.
         22    1    3    3    0    0  0.15303457827E+02  0.39204798095E+02  0.61319219807E+02  0.74372432614E+02  0.00000000000E+00 0.  1.
         22    1    3    3    0    0 -0.19484714381E+03  0.13379108094E+03  0.28140890788E+03  0.36750025336E+03  0.00000000000E+00 0.  1.
</event>
<event>
 7    1  0.3110367E-005  0.1028834E+03  0.7818608E-02  0.1276431E+00
          2   -1    0    0  502    0  0.00000000000E+00  0.00000000000E+00  0.68771059930E+03  0.68771059930E+03  0.00000000000E+00 0. -1.
          1   -1    0    0  501    0 -0.00000000000E+00 -0.00000000000E+00 -0.32711497562E+04  0.32711497562E+04  0.00000000000E+00 0. -1.
         25    2    1    2    0    0 -0.13623889569E+03 -0.10276822409E+03  0.14016628488E+03  0.25375942251E+03  0.12499965005E+03 0.  0.
          2    1    1    2  501    0  0.35595355897E+02  0.96347684157E+02 -0.32083415927E+04  0.32099853086E+04  0.00000000000E+00 0. -1.
          1    1    1    2  502    0  0.10064353980E+03  0.64205399324E+01  0.48473615099E+03  0.49511562439E+03  0.00000000000E+00 0. -1.
         22    1    3    3    0    0 -0.60823900769E+02 -0.83025691812E+02  0.11826631532E+02  0.10359865645E+03  0.00000000000E+00 0.  1.
         22    1    3    3    0    0 -0.75414994924E+02 -0.19742532277E+02  0.12833965335E+03  0.15016076605E+03  0.00000000000E+00 0.  1.
</event>
<event>
 7    1  0.3110367E-005  0.2082359E+03  0.7818608E-02  0.1269407E+00
          2   -1    0    0  502    0  0.00000000000E+00  0.00000000000E+00  0.12237749236E+04  0.12237749236E+04  0.00000000000E+00 0. -1.
          1   -1    0    0  501    0 -0.00000000000E+00 -0.00000000000E+00 -0.96616732063E+03  0.96616732063E+03  0.00000000000E+00 0. -1.
         25    2    1    2    0    0 -0.15777150442E+03  0.14864563702E+03 -0.11585097265E+03  0.27573533634E+03  0.12498461837E+03 0.  0.
          2    1    1    2  501    0  0.46008763117E+02  0.26930613159E+02 -0.75996493032E+03  0.76183250096E+03  0.00000000000E+00 0. -1.
          1    1    1    2  502    0  0.11176274130E+03 -0.17557625018E+03  0.11334235060E+04  0.11523744070E+04  0.00000000000E+00 0. -1.
         22    1    3    3    0    0 -0.52024150716E+02  0.87659178740E+02 -0.11498031694E+03  0.15365909397E+03  0.00000000000E+00 0.  1.
         22    1    3    3    0    0 -0.10574735370E+03  0.60986458282E+02 -0.87065570226E+00  0.12207624237E+03  0.00000000000E+00 0.  1.
</event>
<event>
 7    1  0.3110367E-005  0.2104733E+03  0.7818608E-02  0.1149299E+00
          2   -1    0    0  502    0  0.00000000000E+00  0.00000000000E+00  0.38137248787E+03  0.38137248787E+03  0.00000000000E+00 0. -1.
          1   -1    0    0  501    0 -0.00000000000E+00 -0.00000000000E+00 -0.44089203607E+03  0.44089203607E+03  0.00000000000E+00 0. -1.
         25    2    1    2    0    0 -0.19644875244E+03  0.11840210996E+03  0.17119359421E+03  0.31232180128E+03  0.12500595536E+03 0.  0.
          2    1    1    2  501    0  0.15771411878E+03  0.10780988736E+03 -0.20302265563E+03  0.27877394744E+03  0.00000000000E+00 0. -1.
          1    1    1    2  502    0  0.38734633667E+02 -0.22621199732E+03 -0.27690486788E+02  0.23116877522E+03  0.00000000000E+00 0. -1.
         22    1    3    3    0    0 -0.13317190905E+03  0.12599713154E+03  0.77570692039E+02  0.19906593576E+03  0.00000000000E+00 0.  1.
         22    1    3    3    0    0 -0.63276843389E+02 -0.75950215835E+01  0.93622902176E+02  0.11325586552E+03  0.00000000000E+00 0.  1.
</event>
<event>
 7    1  0.3110367E-005  0.2089253E+03  0.7818608E-02  0.1236916E+00
          2   -1    0    0  502    0  0.00000000000E+00  0.00000000000E+00  0.59559673088E+02  0.59559673088E+02  0.00000000000E+00 0. -1.
          1   -1    0    0  501    0 -0.00000000000E+00 -0.00000000000E+00 -0.14675068802E+04  0.14675068802E+04  0.00000000000E+00 0. -1.
         25    2    1    2    0    0 -0.21930274277E+03 -0.14995330068E+02 -0.58677369763E+03  0.63894154917E+03  0.12499751244E+03 0.  0.
          2    1    1    2  501    0  0.19690969301E+02  0.70698185393E+02 -0.50356799732E+03  0.50888770433E+03  0.00000000000E+00 0. -1.
          1    1    1    2  502    0  0.19961177347E+03 -0.55702855326E+02 -0.31760551219E+03  0.37923729982E+03  0.00000000000E+00 0. -1.
         22    1    3    3    0    0 -0.15859186369E+03  0.28645345543E+02 -0.49495731534E+03  0.52053307201E+03  0.00000000000E+00 0. -1.
         22    1    3    3    0    0 -0.60710879080E+02 -0.43640675610E+02 -0.91816382296E+02  0.11840847716E+03  0.00000000000E+00 0. -1.
</event>
<event>
 7    1  0.3110367E-005  0.9880820E+02  0.7818608E-02  0.1395889E+00
          2   -1    0    0  502    0  0.00000000000E+00  0.00000000000E+00  0.19847142328E+04  0.19847142328E+04  0.00000000000E+00 0. -1.
          1   -1    0    0  501    0 -0.00000000000E+00 -0.00000000000E+00 -0.28952206458E+03  0.28952206458E+03  0.00000000000E+00 0. -1.
         25    2    1    2    0    0 -0.33462066527E+02 -0.12889812235E+03  0.57682716239E+03  0.60505331660E+03  0.12500201923E+03 0.  0.
          2    1    1    2  501    0  0.34854653571E+02  0.91922857274E+02 -0.26638096942E+03  0.28394273971E+03  0.00000000000E+00 0. -1.
          1    1    1    2  502    0 -0.13925870434E+01  0.36975265078E+02  0.13847459752E+04  0.13852402410E+04  0.00000000000E+00 0. -1.
         22    1    3    3    0    0 -0.25097939276E+02  0.19092199227E+02  0.65849724203E+02  0.73010990987E+02  0.00000000000E+00 0.  1.
         22    1    3    3    0    0 -0.83641272516E+01 -0.14799032158E+03  0.51097743819E+03  0.53204232561E+03  0.00000000000E+00 0.  1.
</event>
<event>
 7    1  0.3110367E-005  0.6588097E+03  0.7818608E-02  0.1184591E+00
          2   -1    0    0  502    0  0.00000000000E+00  0.00000000000E+00  0.14183712952E+04  0.14183712952E+04  0.00000000000E+00 0. -1.
          1   -1    0    0  501    0 -0.00000000000E+00 -0.00000000000E+00 -0.99198441395E+03  0.99198441395E+03  0.00000000000E+00 0. -1.
         25    2    1    2    0    0  0.48618211823E+03 -0.45693895313E+03 -0.53831170692E+03  0.86635535302E+03  0.12500337968E+03 0.  0.
          2    1    1    2  501    0 -0.48758439282E+03  0.41629140490E+03  0.66142822125E+02  0.64452458979E+03  0.00000000000E+00 0. -1.
          1    1    1    2  502    0  0.14022745958E+01  0.40647548227E+02  0.89855576609E+03  0.89947576639E+03  0.00000000000E+00 0. -1.
         22    1    3    3    0    0  0.17595860921E+03 -0.23193063068E+03 -0.18375924388E+03  0.34426836816E+03  0.00000000000E+00 0.  1.
         22    1    3    3    0    0  0.31022350901E+03 -0.22500832245E+03 -0.35455246304E+03  0.52208698486E+03  0.00000000000E+00 0.  1.
</event>
<event>
 7    1  0.3110367E-005  0.5501435E+02  0.7818608E-02  0.1441901E+00
          2   -1    0    0  502    0  0.00000000000E+00  0.00000000000E+00  0.49974167391E+03  0.49974167391E+03  0.00000000000E+00 0. -1.
          1   -1    0    0  501    0 -0.00000000000E+00 -0.00000000000E+00 -0.77128534395E+03  0.77128534395E+03  0.00000000000E+00 0. -1.
         25    2    1    2    0    0  0.87266084784E+02  0.56426087882E+01  0.32889468220E+03  0.36255207327E+03  0.12500034107E+03 0.  0.
          2    1    1    2  501    0 -0.46800953380E+02 -0.28794370503E+02 -0.74990032521E+03  0.75191086091E+03  0.00000000000E+00 0. -1.
          1    1    1    2  502    0 -0.40465131404E+02  0.23151761715E+02  0.14946197298E+03  0.15656408367E+03  0.00000000000E+00 0. -1.
         22    1    3    3    0    0  0.99983569418E+02 -0.31529699519E+02  0.28485775948E+03  0.30353711345E+03  0.00000000000E+00 0.  1.
         22    1    3    3    0    0 -0.12717484634E+02  0.37172308307E+02  0.44036922720E+02  0.59014959823E+02  0.00000000000E+00 0.  1.
</event>
<event>
 7    1  0.3110367E-005  0.7127143E+03  0.7818608E-02  0.1069450E+00
          2   -1    0    0  502    0  0.00000000000E+00  0.00000000000E+00  0.16188774357E+04  0.16188774357E+04  0.00000000000E+00 0. -1.
          1   -1    0    0  501    0 -0.00000000000E+00 -0.00000000000E+00 -0.18794874235E+04  0.18794874235E+04  0.00000000000E+00 0. -1.
         25    2    1    2    0    0 -0.42645192649E+03  0.58361093319E+03  0.85280770736E+03  0.11248864256E+04  0.12500207121E+03 0.  0.
          2    1    1    2  501    0  0.14231085309E+03  0.64809979393E+02 -0.15393550684E+04  0.15472772018E+04  0.00000000000E+00 0. -1.
          1    1    1    2  502    0  0.28414107339E+03 -0.64842091258E+03  0.42593737326E+03  0.82620123178E+03  0.00000000000E+00 0. -1.
         22    1    3    3    0    0 -0.35030970240E+03  0.48641797674E+03  0.77171047850E+03  0.97716753852E+03  0.00000000000E+00 0. -1.
         22    1    3    3    0    0 -0.76142224081E+02  0.97192956446E+02  0.81097228861E+02  0.14771888708E+03  0.00000000000E+00 0. -1.
</event>
<event>
 7    1  0.3110367E-005  0.1026165E+03  0.7818608E-02  0.1434665E+00
          2   -1    0    0  502    0  0.00000000000E+00  0.00000000000E+00  0.71990576776E+03  0.71990576776E+03  0.00000000000E+00 0. -1.
          1   -1    0    0  501    0 -0.00000000000E+00 -0.00000000000E+00 -0.62553349009E+03  0.62553349009E+03  0.00000000000E+00 0. -1.
         25    2    1    2    0    0  0.97058852128E+02  0.71012817663E+02  0.23412937985E+03  0.29138905297E+03  0.12501109004E+03 0.  0.
          2    1    1    2  501    0 -0.26366333641E+02 -0.10166715405E+01 -0.59119358274E+03  0.59178211315E+03  0.00000000000E+00 0. -1.
          1    1    1    2  502    0 -0.70692518488E+02 -0.69996146123E+02  0.45143648056E+03  0.46226809172E+03  0.00000000000E+00 0. -1.
         22    1    3    3    0    0 -0.10122224242E+02 -0.24350037214E+02  0.61585811581E+02  0.66993999165E+02  0.00000000000E+00 0. -1.
         22    1    3    3    0    0  0.10718107637E+03  0.95362854877E+02  0.17254356827E+03  0.22439505381E+03  0.00000000000E+00 0. -1.
</event>
<event>
 7    1  0.3110367E-005  0.4799505E+02  0.7818608E-02  0.1464694E+00
          2   -1    0    0  502    0  0.00000000000E+00  0.00000000000E+00  0.92505571773E+03  0.92505571773E+03  0.00000000000E+00 0. -1.
          1   -1    0    0  501    0 -0.00000000000E+00 -0.00000000000E+00 -0.59424909734E+02  0.59424909734E+02  0.00000000000E+00 0. -1.
         25    2    1    2    0    0  0.34455809731E+02  0.22614600567E+02  0.77773072179E+02  0.15287726240E+03  0.12499673444E+03 0.  0.
          2    1    1    2  501    0 -0.22744857314E+01 -0.54372182018E+02  0.13688358675E+02  0.56114869919E+02  0.00000000000E+00 0. -1.
          1    1    1    2  502    0 -0.32181323999E+02  0.31757581451E+02  0.77416937714E+03  0.77548849514E+03  0.00000000000E+00 0. -1.
         22    1    3    3    0    0 -0.26698203158E+02 -0.33625978008E+02  0.48531982253E+02  0.64798562871E+02  0.00000000000E+00 0. -1.
         22    1    3    3    0    0  0.61154012889E+02  0.56240578575E+02  0.29241089926E+02  0.88078699530E+02  0.00000000000E+00 0. -1.
</event>
<event>
 7    1  0.3110367E-005  0.1470882E+03  0.7818608E-02  0.1323977E+00
          2   -1    0    0  502    0  0.00000000000E+00  0.00000000000E+00  0.11816064597E+04  0.11816064597E+04  0.00000000000E+00 0. -1.
          1   -1    0    0  501    0 -0.00000000000E+00 -0.00000000000E+00 -0.67916023713E+02  0.67916023713E+02  0.00000000000E+00 0. -1.
         25    2    1    2    0    0 -0.27030259481E+02 -0.25745281053E+01  0.28723076593E+03  0.31442523732E+03  0.12499781536E+03 0.  0.
          2    1    1    2  501    0 -0.67056534862E+01 -0.14693531641E+03  0.74911495456E+03  0.76341873710E+03  0.00000000000E+00 0. -1.
          1    1    1    2  502    0  0.33735912967E+02  0.14950984451E+03  0.77344715454E+02  0.17167850896E+03  0.00000000000E+00 0. -1.
         22    1    3    3    0    0 -0.19335236007E+02 -0.61474672403E+02  0.10979237045E+03  0.12730809600E+03  0.00000000000E+00 0.  1.
         22    1    3    3    0    0 -0.76950234735E+01  0.58900144298E+02  0.17743839549E+03  0.18711714132E+03  0.00000000000E+00 0.  1.
</event>
<event>
 7    1  0.3110367E-005  0.1778933E+03  0.7818608E-02  0.1324564E+00
          2   -1    0    0  502    0  0.00000000000E+00  0.00000000000E+00  0.11953227997E+03  0.11953227997E+03  0.00000000000E+00 0. -1.
          1   -1    0    0  501    0 -0.00000000000E+00 -0.00000000000E+00 -0.95191910503E+03  0.95191910503E+03  0.00000000000E+00 0. -1.
         25    2    1    2    0    0  0.12802030317E+03  0.15380542616E+03 -0.13631956926E+03  0.27249557634E+03  0.12500202808E+03 0.  0.
          2    1    1    2  501    0 -0.90855955002E+02 -0.14933431109E+03 -0.72865314029E+03  0.74932699129E+03  0.00000000000E+00 0. -1.
          1    1    1    2  502    0 -0.37164348164E+02 -0.44711150755E+01  0.32585884489E+02  0.49628817358E+02  0.00000000000E+00 0. -1.
         22    1    3    3    0    0  0.11838227354E+02 -0.21397842219E+02 -0.60877391676E+01  0.25200631871E+02  0.00000000000E+00 0. -1.
         22    1    3    3    0    0  0.11618207581E+03  0.17520326838E+03 -0.13023183010E+03  0.24729494447E+03  0.00000000000E+00 0. -1.
</event>
<event>
 7    1  0.3110367E-005  0.5844637E+02  0.7818608E-02  0.1428815E+00
          2   -1    0    0  502    0  0.00000000000E+00  0.00000000000E+00  0.22402013706E+03  0.22402013706E+03  0.00000000000E+00 0. -1.
          1   -1    0    0  501    0 -0.00000000000E+00 -0.00000000000E+00 -0.25736424659E+03  0.25736424659E+03  0.00000000000E+00 0. -1.
         25    2    1    2    0    0  0.46595105348E+02 -0.34260735993E+02 -0.99412950786E+02  0.16986091071E+03  0.12499956932E+03 0.  0.
          2    1    1    2  501    0  0.11137582537E+02  0.47123714770E+02 -0.11300057564E+03  0.12293827856E+03  0.00000000000E+00 0. -1.
          1    1    1    2  502    0 -0.57732687885E+02 -0.12862978776E+02  0.17906941690E+03  0.18858519439E+03  0.00000000000E+00 0. -1.
         22    1    3    3    0    0 -0.10561395658E+02  0.41371561707E+02 -0.26371956151E+02  0.50185946913E+02  0.00000000000E+00 0.  1.
         22    1    3    3    0    0  0.57156501006E+02 -0.75632297701E+02 -0.73040994635E+02  0.11967496380E+03  0.00000000000E+00 0.  1.
</event>
<event>
 7    1  0.4933419E-005  0.4177722E+02  0.7818608E-02  0.1605642E+00
          2   -1    0    0  502    0  0.00000000000E+00  0.00000000000E+00  0.29146650740E+04  0.29146650740E+04  0.00000000000E+00 0. -1.
          1   -1    0    0  501    0 -0.00000000000E+00 -0.00000000000E+00 -0.98080879117E+03  0.98080879117E+03  0.00000000000E+00 0. -1.
         25    2    1    2    0    0  0.23633479731E+02 -0.39350298494E+01 -0.46600848327E+03  0.48307630892E+03  0.12499915174E+03 0.  0.
          2    1    1    2  501    0  0.13192110561E+02 -0.15806219425E+02 -0.50590682520E+03  0.50632557129E+03  0.00000000000E+00 0. -1.
          1    1    1    2  502    0 -0.36825590292E+02  0.19741249275E+02  0.29057715913E+04  0.29060719850E+04  0.00000000000E+00 0. -1.
         22    1    3    3    0    0  0.77922184492E+01 -0.54557696812E+02 -0.36353038120E+03  0.36768410220E+03  0.00000000000E+00 0. -1.
         22    1    3    3    0    0  0.15841261282E+02  0.50622666962E+02 -0.10247810206E+03  0.11539220672E+03  0.00000000000E+00 0. -1.
</event>
<event>
 7    1  0.3110367E-005  0.3644835E+03  0.7818608E-02  0.1200626E+00
          2   -1    0    0  502    0  0.00000000000E+00  0.00000000000E+00  0.29006199057E+04  0.29006199057E+04  0.00000000000E+00 0. -1.
          1   -1    0    0  501    0 -0.00000000000E+00 -0.00000000000E+00 -0.48442097648E+03  0.48442097648E+03  0.00000000000E+00 0. -1.
         25    2    1    2    0    0 -0.31755777299E+03  0.27467224771E+03  0.24947240500E+03  0.50413146218E+03  0.12499706980E+03 0.  0.
          2    1    1    2  501    0  0.51759483650E+02 -0.33452076861E+02 -0.34155777630E+03  0.34707319133E+03  0.00000000000E+00 0. -1.
          1    1    1    2  502    0  0.26579828934E+03 -0.24122017085E+03  0.25082843005E+04  0.25338362287E+04  0.00000000000E+00 0. -1.
         22    1    3    3    0    0 -0.23678223803E+03  0.15697175632E+03  0.21764108755E+03  0.35787372567E+03  0.00000000000E+00 0.  1.
         22    1    3    3    0    0 -0.80775534960E+02  0.11770049139E+03  0.31831317444E+02  0.14625773652E+03  0.00000000000E+00 0.  1.
</event>
<event>
 7    1  0.3110367E-005  0.1536003E+03  0.7818608E-02  0.1229823E+00
          2   -1    0    0  502    0  0.00000000000E+00  0.00000000000E+00  0.11230028610E+04  0.11230028610E+04  0.00000000000E+00 0. -1.
          1   -1    0    0  501    0 -0.00000000000E+00 -0.00000000000E+00 -0.12833719046E+03  0.12833719046E+03  0.00000000000E+00 0. -1.
         25    2    1    2    0    0 -0.14903332686E+03  0.14285503268E+02  0.19877497189E+03  0.27848107975E+03  0.12500085683E+03 0.  0.
          2    1    1    2  501    0  0.37451349106E+02  0.10061895508E+03 -0.45319880953E+02  0.11653612865E+03  0.00000000000E+00 0. -1.
          1    1    1    2  502    0  0.11158197776E+03 -0.11490445835E+03  0.84121057963E+03  0.85632284308E+03  0.00000000000E+00 0. -1.
         22    1    3    3    0    0 -0.10510894239E+03 -0.36961481136E+01  0.39602259515E+02  0.11238278445E+03  0.00000000000E+00 0. -1.
         22    1    3    3    0    0 -0.43924384474E+02  0.17981651382E+02  0.15917271238E+03  0.16609829530E+03  0.00000000000E+00 0. -1.
</event>
<event>
 7    1  0.3110367E-005  0.1479424E+03  0.7818608E-02  0.1249195E+00
          2   -1    0    0  502    0  0.00000000000E+00  0.00000000000E+00  0.15035896413E+03  0.15035896413E+03  0.00000000000E+00 0. -1.
          1   -1    0    0  501    0 -0.00000000000E+00 -0.00000000000E+00 -0.97449314304E+03  0.97449314304E+03  0.00000000000E+00 0. -1.
         25    2    1    2    0    0 -0.84730975354E+01  0.62531522973E+02 -0.73150412362E+03  0.74478658610E+03  0.12500716466E+03 0.  0.
          2    1    1    2  501    0 -0.37851218553E+02  0.83356144120E+02 -0.18134941379E+03  0.20314667457E+03  0.00000000000E+00 0. -1.
          1    1    1    2  502    0  0.46324316088E+02 -0.14588766709E+03  0.88719358506E+02  0.17691884649E+03  0.00000000000E+00 0. -1.
         22    1    3    3    0    0  0.40306850919E+02  0.52290182324E+02 -0.19299008508E+03  0.20397077815E+03  0.00000000000E+00 0. -1.
         22    1    3    3    0    0 -0.48779948454E+02  0.10241340649E+02 -0.53851403854E+03  0.54081580795E+03  0.00000000000E+00 0. -1.
</event>
<event>
 7    1  0.3110367E-005  0.9705833E+02  0.7818608E-02  0.1386972E+00
          2   -1    0    0  502    0  0.00000000000E+00  0.00000000000E+00  0.96365553826E+03  0.96365553826E+03  0.00000000000E+00 0. -1.
          1   -1    0    0  501    0 -0.00000000000E+00 -0.00000000000E+00 -0.63806939896E+02  0.63806939896E+02  0.00000000000E+00 0. -1.
         25    2    1    2    0    0 -0.28283011610E+01 -0.66028516211E+02  0.30864518445E+02  0.14472528857E+03  0.12500010565E+03 0.  0.
          2    1    1    2  501    0 -0.29770056739E+02 -0.27400720135E+02  0.10770537645E+03  0.11505435176E+03  0.00000000000E+00 0. -1.
          1    1    1    2  502    0  0.32598357900E+02  0.93429236346E+02  0.76127870347E+03  0.76768283783E+03  0.00000000000E+00 0. -1.
         22    1    3    3    0    0  0.40330242295E+02  0.20098047961E+02  0.97303985951E+01  0.46099247632E+02  0.00000000000E+00 0. -1.
         22    1    3    3    0    0 -0.43158543456E+02 -0.86126564172E+02  0.21134119850E+02  0.98626040938E+02  0.00000000000E+00 0. -1.
</event>
<event>
 7    1  0.3110367E-005  0.3130733E+03  0.7818608E-02  0.1189365E+00
          2   -1    0    0  502    0  0.00000000000E+00  0.00000000000E+00  0.54036871882E+03  0.54036871882E+03  0.00000000000E+00 0. -1.
          1   -1    0    0  501    0 -0.00000000000E+00 -0.00000000000E+00 -0.12679938315E+04  0.12679938315E+04  0.00000000000E+00 0. -1.
         25    2    1    2    0    0  0.34552868348E+03 -0.11545253660E+03 -0.54274816504E+03  0.66552219168E+03  0.12499943059E+03 0.  0.
          2    1    1    2  501    0 -0.74192970363E+02 -0.32917307980E+02 -0.61097675172E+03  0.61634465777E+03  0.00000000000E+00 0. -1.
          1    1    1    2  502    0 -0.27133571311E+03  0.14836984458E+03  0.42609980408E+03  0.52649570087E+03  0.00000000000E+00 0. -1.
         22    1    3    3    0    0  0.18320162038E+03 -0.12342984804E+03 -0.34345950818E+03  0.40836527137E+03  0.00000000000E+00 0.  1.
         22    1    3    3    0    0  0.16232706310E+03  0.79773114426E+01 -0.19928865686E+03  0.25715692031E+03  0.00000000000E+00 0.  1.
</event>
<event>
 7    1  0.3110367E-005  0.1307579E+03  0.7818608E-02  0.1438806E+00
          2   -1    0    0  502    0  0.00000000000E+00  0.00000000000E+00  0.10066513265E+04  0.10066513265E+04  0.00000000000E+00 0. -1.
          1   -1    0    0  501    0 -0.00000000000E+00 -0.00000000000E+00 -0.99970472193E+02  0.99970472193E+02  0.00000000000E+00 0. -1.
         25    2    1    2    0    0  0.44963559358E+02 -0.12698049077E+03  0.93445253690E+03  0.95235136180E+03  0.12500322358E+03 0.  0.
          2    1    1    2  501    0 -0.61303847658E+02  0.11532145524E+03 -0.17652581155E+02  0.13179079406E+03  0.00000000000E+00 0. -1.
          1    1    1    2  502    0  0.16340288299E+02  0.11659035528E+02 -0.10119101388E+02  0.22479642881E+02  0.00000000000E+00 0. -1.
         22    1    3    3    0    0 -0.38663246361E+02 -0.21448153279E+02  0.33858913519E+03  0.34146372043E+03  0.00000000000E+00 0. -1.
         22    1    3    3    0    0  0.83626805720E+02 -0.10553233749E+03  0.59586340171E+03  0.61088764138E+03  0.00000000000E+00 0. -1.
</event>
<event>
 7    1  0.3110367E-005  0.1537452E+03  0.7818608E-02  0.1272497E+00
          2   -1    0    0  502    0  0.00000000000E+00  0.00000000000E+00  0.30216904534E+04  0.30216904534E+04  0.00000000000E+00 0. -1.
          1   -1    0    0  501    0 -0.00000000000E+00 -0.00000000000E+00 -0.44346013643E+03  0.44346013643E+03  0.00000000000E+00 0. -1.
         25    2    1    2    0    0 -0.38084016751E+02 -0.14688969262E+03  0.76187910260E+03  0.78683702434E+03  0.12500304703E+03 0.  0.
          2    1    1    2  501    0 -0.31894230004E+02  0.15072205007E+03 -0.41664619106E+03  0.44421664400E+03  0.00000000000E+00 0. -1.
          1    1    1    2  502    0  0.69978246756E+02 -0.38323574509E+01  0.22329974054E+04  0.22340969215E+04  0.00000000000E+00 0. -1.
         22    1    3    3    0    0  0.42429664113E+02 -0.80220595406E+02  0.39980162638E+03  0.40997190243E+03  0.00000000000E+00 0.  1.
         22    1    3    3    0    0 -0.80513680864E+02 -0.66669097216E+02  0.36207747622E+03  0.37686512191E+03  0.00000000000E+00 0.  1.
</event>
<event>
 7    1  0.3110367E-005  0.3021457E+03  0.7818608E-02  0.1113359E+00
          2   -1    0    0  502    0  0.00000000000E+00  0.00000000000E+00  0.70418600813E+03  0.70418600813E+03  0.00000000000E+00 0. -1.
          1   -1    0    0  501    0 -0.00000000000E+00 -0.00000000000E+00 -0.19117974209E+04  0.19117974209E+04  0.00000000000E+00 0. -1.
         25    2    1    2    0    0  0.35852759030E+03  0.32242016858E+03 -0.51106662725E+03  0.71366038495E+03  0.12500099780E+03 0.  0.
          2    1    1    2  501    0 -0.19906594885E+03 -0.19088386832E+03 -0.12664264184E+04  0.12961094770E+04  0.00000000000E+00 0. -1.
          1    1    1    2  502    0 -0.15946164144E+03 -0.13153630026E+03  0.56988163289E+03  0.60621356705E+03  0.00000000000E+00 0. -1.
         22    1    3    3    0    0  0.23656907035E+03  0.23884473196E+03 -0.42744953768E+03  0.54380588291E+03  0.00000000000E+00 0.  1.
         22    1    3    3    0    0  0.12195851995E+03  0.83575436618E+02 -0.83617089572E+02  0.16985450204E+03  0.00000000000E+00 0.  1.
</event>
<event>
 7    1  0.3110367E-005  0.3828623E+02  0.7818608E-02  0.1525028E+00
          2   -1    0    0  502    0  0.00000000000E+00  0.00000000000E+00  0.59617220275E+03  0.59617220275E+03  0.00000000000E+00 0. -1.
          1   -1    0    0  501    0 -0.00000000000E+00 -0.00000000000E+00 -0.22269408945E+03  0.22269408945E+03  0.00000000000E+00 0. -1.
         25    2    1    2    0    0  0.31774737406E+02 -0.60487806653E+02  0.20044660513E+03  0.24591143538E+03  0.12500073541E+03 0.  0.
          2    1    1    2  501    0 -0.30216213506E+02  0.23193704680E+02 -0.19720062786E+03  0.20084584916E+03  0.00000000000E+00 0. -1.
          1    1    1    2  502    0 -0.15585238995E+01  0.37294101974E+02  0.37023213603E+03  0.37210900767E+03  0.00000000000E+00 0. -1.
         22    1    3    3    0    0  0.36050997747E+02 -0.30218168345E+02  0.20895078857E+03  0.21418040102E+03  0.00000000000E+00 0.  1.
         22    1    3    3    0    0 -0.42762603410E+01 -0.30269638308E+02 -0.85041834420E+01  0.31731034364E+02  0.00000000000E+00 0.  1.
</event>
<event>
 7    1  0.3110367E-005  0.2489415E+03  0.7818608E-02  0.1129788E+00
          2   -1    0    0  502    0  0.00000000000E+00  0.00000000000E+00  0.87831674989E+03  0.87831674989E+03  0.00000000000E+00 0. -1.
          1   -1    0    0  501    0 -0.00000000000E+00 -0.00000000000E+00 -0.23346309280E+04  0.23346309280E+04  0.00000000000E+00 0. -1.
         25    2    1    2    0    0 -0.19769012983E+03 -0.18301476059E+03  0.58978045465E+02  0.30278459781E+03  0.12499725116E+03 0.  0.
          2    1    1    2  501    0  0.49947812097E+01  0.25124076752E+03 -0.21904095764E+04  0.22047768557E+04  0.00000000000E+00 0. -1.
          1    1    1    2  502    0  0.19269534862E+03 -0.68226006935E+02  0.67511735284E+03  0.70538622436E+03  0.00000000000E+00 0. -1.
         22    1    3    3    0    0 -0.20564847017E+02 -0.94993084194E+02  0.36073526957E+02  0.10367207109E+03  0.00000000000E+00 0. -1.
         22    1    3    3    0    0 -0.17712528281E+03 -0.88021676392E+02  0.22904518508E+02  0.19911252672E+03  0.00000000000E+00 0. -1.
</event>
<event>
 7    1  0.3110367E-005  0.1167603E+04  0.7818608E-02  0.1129732E+00
          2   -1    0    0  502    0  0.00000000000E+00  0.00000000000E+00  0.39315659577E+04  0.39315659577E+04  0.00000000000E+00 0. -1.
          1   -1    0    0  501    0 -0.00000000000E+00 -0.00000000000E+00 -0.11892159830E+04  0.11892159830E+04  0.00000000000E+00 0. -1.
         25    2    1    2    0    0 -0.12967777024E+03  0.11554122601E+04 -0.13559011683E+03  0.11772011975E+04  0.12499665908E+03 0.  0.
          2    1    1    2  501    0  0.17288381496E+03 -0.11613573896E+04  0.11442030568E+03  0.11797168330E+04  0.00000000000E+00 0. -1.
          1    1    1    2  502    0 -0.43206044721E+02  0.59451294804E+01  0.27635197858E+04  0.27638639101E+04  0.00000000000E+00 0. -1.
         22    1    3    3    0    0 -0.81406581006E+02  0.42627173405E+03  0.88184209624E-01  0.43397538001E+03  0.00000000000E+00 0. -1.
         22    1    3    3    0    0 -0.48271189234E+02  0.72914052605E+03 -0.13567830104E+03  0.74322581751E+03  0.00000000000E+00 0. -1.
</event>
<event>
 7    1  0.3110367E-005  0.2831953E+03  0.7818608E-02  0.1268836E+00
          2   -1    0    0  502    0  0.00000000000E+00  0.00000000000E+00  0.30318106643E+03  0.30318106643E+03  0.00000000000E+00 0. -1.
          1   -1    0    0  501    0 -0.00000000000E+00 -0.00000000000E+00 -0.95902303968E+03  0.95902303968E+03  0.00000000000E+00 0. -1.
         25    2    1    2    0    0 -0.27104623695E+03 -0.96089050274E+01 -0.24229458006E+02  0.29961884812E+03  0.12500397551E+03 0.  0.
          2    1    1    2  501    0  0.28182526279E+03  0.47523873975E+02 -0.76861116679E+03  0.82002873307E+03  0.00000000000E+00 0. -1.
          1    1    1    2  502    0 -0.10779025838E+02 -0.37914968948E+02  0.13699865155E+03  0.14255652491E+03  0.00000000000E+00 0. -1.
         22    1    3    3    0    0 -0.19862944049E+03  0.38946968284E+02  0.17095649901E+02  0.20313242531E+03  0.00000000000E+00 0. -1.
         22    1    3    3    0    0 -0.72416796464E+02 -0.48555873311E+02 -0.41325107908E+02  0.96486422811E+02  0.00000000000E+00 0. -1.
</event>
<event>
 7    1  0.3110367E-005  0.2924974E+03  0.7818608E-02  0.1091648E+00
          2   -1    0    0  502    0  0.00000000000E+00  0.00000000000E+00  0.10986670947E+04  0.10986670947E+04  0.00000000000E+00 0. -1.
          1   -1    0    0  501    0 -0.00000000000E+00 -0.00000000000E+00 -0.33242755102E+04  0.33242755102E+04  0.00000000000E+00 0. -1.
         25    2    1    2    0    0 -0.33306061173E+03 -0.81672044946E+02 -0.77401036691E+03  0.85575571455E+03  0.12500440353E+03 0.  0.
          2    1    1    2  501    0  0.12851653364E+03  0.27672641328E+03 -0.24809987193E+04  0.24996897112E+04  0.00000000000E+00 0. -1.
          1    1    1    2  502    0  0.20454407809E+03 -0.19505436833E+03  0.10294006707E+04  0.10674971791E+04  0.00000000000E+00 0. -1.
         22    1    3    3    0    0 -0.26495352929E+03 -0.16980736188E+02 -0.50040729386E+03  0.56647698791E+03  0.00000000000E+00 0.  1.
         22    1    3    3    0    0 -0.68107082440E+02 -0.64691308758E+02 -0.27360307305E+03  0.28927872664E+03  0.00000000000E+00 0.  1.
</event>
<event>
 7    1  0.3110367E-005  0.5340646E+03  0.7818608E-02  0.1055517E+00
          2   -1    0    0  502    0  0.00000000000E+00  0.00000000000E+00  0.49260311212E+03  0.49260311212E+03  0.00000000000E+00 0. -1.
          1   -1    0    0  501    0 -0.00000000000E+00 -0.00000000000E+00 -0.10690687615E+04  0.10690687615E+04  0.00000000000E+00 0. -1.
         25    2    1    2    0    0  0.64469722292E+03  0.17305241305E+03 -0.24812106612E+03  0.72303231367E+03  0.12502006338E+03 0.  0.
          2    1    1    2  501    0 -0.40322878081E+03 -0.24979667471E+03 -0.34220541267E+03  0.58489005192E+03  0.00000000000E+00 0. -1.
          1    1    1    2  502    0 -0.24146844211E+03  0.76744261665E+02  0.13860829408E+02  0.25374950803E+03  0.00000000000E+00 0. -1.
         22    1    3    3    0    0  0.36941440586E+03  0.50914648945E+02 -0.18086076936E+03  0.41445135134E+03  0.00000000000E+00 0.  1.
         22    1    3    3    0    0  0.27528281707E+03  0.12213776410E+03 -0.67260296761E+02  0.30858096233E+03  0.00000000000E+00 0.  1.
</event>
<event>
 7    1  0.3110367E-005  0.2115501E+03  0.7818608E-02  0.1233505E+00
          2   -1    0    0  502    0  0.00000000000E+00  0.00000000000E+00  0.16777428445E+04  0.16777428445E+04  0.00000000000E+00 0. -1.
          1   -1    0    0  501    0 -0.00000000000E+00 -0.00000000000E+00 -0.45129320643E+02  0.45129320643E+02  0.00000000000E+00 0. -1.
         25    2    1    2    0    0  0.16752316589E+03  0.18400835161E+03  0.65949156423E+03  0.71587549218E+03  0.12500204973E+03 0.  0.
          2    1    1    2  501    0 -0.10173084526E+03 -0.14789232573E+03  0.59453920193E+03  0.62104602689E+03  0.00000000000E+00 0. -1.
          1    1    1    2  502    0 -0.65792320629E+02 -0.36116025889E+02  0.37858275773E+03  0.38595064611E+03  0.00000000000E+00 0. -1.
         22    1    3    3    0    0  0.15875221220E+02 -0.15430801966E+02  0.23369444304E+02  0.32191042623E+02  0.00000000000E+00 0. -1.
         22    1    3    3    0    0  0.15164794467E+03  0.19943915358E+03  0.63612211993E+03  0.68368444956E+03  0.00000000000E+00 0. -1.
</event>
<event>
 7    1  0.3110367E-005  0.1637060E+03  0.7818608E-02  0.1370465E+00
          2   -1    0    0  502    0  0.00000000000E+00  0.00000000000E+00  0.93401573924E+03  0.93401573924E+03  0.00000000000E+00 0. -1.
          1   -1    0    0  501    0 -0.00000000000E+00 -0.00000000000E+00 -0.82427089330E+03  0.82427089330E+03  0.00000000000E+00 0. -1.
         25    2    1    2    0    0  0.29927560759E+02 -0.18780490592E+03  0.50404521864E+03  0.55303994228E+03  0.12500101499E+03 0.  0.
          2    1    1    2  501    0 -0.30765557285E+02  0.16036533894E+03 -0.79095944218E+03  0.80763878103E+03  0.00000000000E+00 0. -1.
          1    1    1    2  502    0  0.83799652632E+00  0.27439566979E+02  0.39665906948E+03  0.39760790922E+03  0.00000000000E+00 0. -1.
         22    1    3    3    0    0 -0.29116758547E+02 -0.75201012592E+02  0.31541021573E+03  0.32555580490E+03  0.00000000000E+00 0. -1.
         22    1    3    3    0    0  0.59044319305E+02 -0.11260389333E+03  0.18863500291E+03  0.22748413738E+03  0.00000000000E+00 0. -1.
</event>
<event>
 7    1  0.3110367E-005  0.1129877E+03  0.7818608E-02  0.1322484E+00
          2   -1    0    0  502    0  0.00000000000E+00  0.00000000000E+00  0.71899886694E+03  0.71899886694E+03  0.00000000000E+00 0. -1.
          1   -1    0    0  501    0 -0.00000000000E+00 -0.00000000000E+00 -0.19235874537E+03  0.19235874537E+03  0.00000000000E+00 0. -1.
         25    2    1    2    0    0 -0.10830196314E+03  0.11732092048E+03  0.12995980362E+03  0.24084965167E+03  0.12500196218E+03 0.  0.
          2    1    1    2  501    0  0.89600790844E+02 -0.60272924184E+02 -0.11358396897E+03  0.15672410509E+03  0.00000000000E+00 0. -1.
          1    1    1    2  502    0  0.18701172296E+02 -0.57047996297E+02  0.51026428692E+03  0.51378385556E+03  0.00000000000E+00 0. -1.
         22    1    3    3    0    0 -0.71335770648E+02  0.14253686223E+02  0.10632951348E+03  0.12883293516E+03  0.00000000000E+00 0. -1.
         22    1    3    3    0    0 -0.36966192492E+02  0.10306723426E+03  0.23630290144E+02  0.11201671651E+03  0.00000000000E+00 0. -1.
</event>
<event>
 7    1  0.3110367E-005  0.3779351E+03  0.7818608E-02  0.1055266E+00
          2   -1    0    0  502    0  0.00000000000E+00  0.00000000000E+00  0.26204307529E+04  0.26204307529E+04  0.00000000000E+00 0. -1.
          1   -1    0    0  501    0 -0.00000000000E+00 -0.00000000000E+00 -0.36414775606E+03  0.36414775606E+03  0.00000000000E+00 0. -1.
         25    2    1    2    0    0 -0.31452570984E+03  0.25950477206E+03  0.18927887355E+03  0.46660646892E+03  0.12500382392E+03 0.  0.
          2    1    1    2  501    0 -0.67515936580E+02 -0.35291264047E+03 -0.51753457276E+02  0.36302087245E+03  0.00000000000E+00 0. -1.
          1    1    1    2  502    0  0.38204164642E+03  0.93407868401E+02  0.21187575805E+04  0.21549511676E+04  0.00000000000E+00 0. -1.
         22    1    3    3    0    0 -0.30921295903E+03  0.23618539192E+03  0.14305407092E+03  0.41456080446E+03  0.00000000000E+00 0.  1.
         22    1    3    3    0    0 -0.53127508090E+01  0.23319380145E+02  0.46224802626E+02  0.52045664462E+02  0.00000000000E+00 0.  1.
</event>
<event>
 7    1  0.3110367E-005  0.5626367E+03  0.7818608E-02  0.1112100E+00
          2   -1    0    0  502    0  0.00000000000E+00  0.00000000000E+00  0.26514021427E+04  0.26514021427E+04  0.00000000000E+00 0. -1.
          1   -1    0    0  501    0 -0.00000000000E+00 -0.00000000000E+00 -0.50178618601E+03  0.50178618601E+03  0.00000000000E+00 0. -1.
         25    2    1    2    0    0 -0.45547562515E+03 -0.40971748456E+03  0.99763271335E+03  0.11773794798E+04  0.12499978587E+03 0.  0.
          2    1    1    2  501    0  0.58863467496E+01  0.11263942251E+03 -0.35652425558E+03  0.37394094907E+03  0.00000000000E+00 0. -1.
          1    1    1    2  502    0  0.44958927840E+03  0.29707806205E+03  0.15085074990E+04  0.16018678999E+04  0.00000000000E+00 0. -1.
         22    1    3    3    0    0 -0.36978360670E+03 -0.31519981469E+03  0.68603638777E+03  0.84067637311E+03  0.00000000000E+00 0. -1.
         22    1    3    3    0    0 -0.85692018448E+02 -0.94517669868E+02  0.31159632558E+03  0.33670310670E+03  0.00000000000E+00 0. -1.
</event>
<event>
 7    1  0.3110367E-005  0.1695247E+03  0.7818608E-02  0.1251721E+00
          2   -1    0    0  502    0  0.00000000000E+00  0.00000000000E+00  0.43959904358E+03  0.43959904358E+03  0.00000000000E+00 0. -1.
          1   -1    0    0  501    0 -0.00000000000E+00 -0.00000000000E+00 -0.53147226247E+03  0.53147226247E+03  0.00000000000E+00 0. -1.
         25    2    1    2    0    0  0.11075829740E+02 -0.22048391077E+03 -0.28589562040E+03  0.38223011578E+03  0.12501090645E+03 0.  0.
          2    1    1    2  501    0 -0.51696115114E+02  0.58279006270E+02 -0.17068794731E+03  0.18762544136E+03  0.00000000000E+00 0. -1.
          1    1    1    2  502    0  0.40620285374E+02  0.16220490450E+03  0.36471034882E+03  0.40121574890E+03  0.00000000000E+00 0. -1.
         22    1    3    3    0    0  0.19925295277E+02 -0.84235246576E+01 -0.92811047559E+02  0.95298812734E+02  0.00000000000E+00 0.  1.
         22    1    3    3    0    0 -0.88494655364E+01 -0.21206038611E+03 -0.19308457285E+03  0.28693130305E+03  0.00000000000E+00 0.  1.
</event>
<event>
 7    1  0.3110367E-005  0.2528775E+03  0.7818608E-02  0.1259516E+00
          2   -1    0    0  502    0  0.00000000000E+00  0.00000000000E+00  0.14825590685E+04  0.14825590685E+04  0.00000000000E+00 0. -1.
          1   -1    0    0  501    0 -0.00000000000E+00 -0.00000000000E+00 -0.25554832204E+03  0.25554832204E+03  0.00000000000E+00 0. -1.
         25    2    1    2    0    0  0.25294710538E+03 -0.29240186325E+02 -0.15333883041E+03  0.32245232517E+03  0.12500191388E+03 0.  0.
          2    1    1    2  501    0 -0.23818984975E+03 -0.16799710547E+02  0.84390005454E+03  0.87703132034E+03  0.00000000000E+00 0. -1.
          1    1    1    2  502    0 -0.14757255629E+02  0.46039896872E+02  0.53644952237E+03  0.53862374507E+03  0.00000000000E+00 0. -1.
         22    1    3    3    0    0  0.90499714606E+02  0.47907224568E+02 -0.40311293144E+02  0.11004681215E+03  0.00000000000E+00 0.  1.
         22    1    3    3    0    0  0.16244739078E+03 -0.77147410893E+02 -0.11302753727E+03  0.21240551301E+03  0.00000000000E+00 0.  1.
</event>
<event>
 7    1  0.3110367E-005  0.2220230E+03  0.7818608E-02  0.1152782E+00
          2   -1    0    0  502    0  0.00000000000E+00  0.00000000000E+00  0.15865668514E+04  0.15865668514E+04  0.00000000000E+00 0. -1.
          1   -1    0    0  501    0 -0.00000000000E+00 -0.00000000000E+00 -0.10334018277E+04  0.10334018277E+04  0.00000000000E+00 0. -1.
         25    2    1    2    0    0 -0.25506709503E+03 -0.19674022910E+03 -0.17543922810E+02  0.34597562521E+03  0.12500161319E+03 0.  0.
          2    1    1    2  501    0  0.81324475012E+02  0.20106622199E+03 -0.83238416077E+03  0.86017712534E+03  0.00000000000E+00 0. -1.
          1    1    1    2  502    0  0.17374262001E+03 -0.43259928862E+01  0.14030931072E+04  0.14138159285E+04  0.00000000000E+00 0. -1.
         22    1    3    3    0    0 -0.12447657605E+03 -0.16976096003E+03 -0.27305327468E+02  0.21227054069E+03  0.00000000000E+00 0.  1.
         22    1    3    3    0    0 -0.13059051897E+03 -0.26979269065E+02  0.97614046582E+01  0.13370508452E+03  0.00000000000E+00 0.  1.
</event>
<event>
 7    1  0.3110367E-005  0.4345160E+02  0.7818608E-02  0.1542455E+00
          2   -1    0    0  502    0  0.00000000000E+00  0.00000000000E+00  0.64215177074E+03  0.64215177074E+03  0.00000000000E+00 0. -1.
          1   -1    0    0  501    0 -0.00000000000E+00 -0.00000000000E+00 -0.25111562921E+03  0.25111562921E+03  0.00000000000E+00 0. -1.
         25    2    1    2    0    0  0.31019163586E+02 -0.55410785614E+02  0.24490496826E+03  0.28219987125E+03  0.12500312069E+03 0.  0.
          2    1    1    2  501    0 -0.26181039488E+02  0.13230682796E+02 -0.23034479100E+03  0.23220512599E+03  0.00000000000E+00 0. -1.
          1    1    1    2  502    0 -0.48381240971E+01  0.42180102818E+02  0.37647596427E+03  0.37886240271E+03  0.00000000000E+00 0. -1.
         22    1    3    3    0    0  0.27998208990E+02 -0.23379584974E+02  0.24726417485E+03  0.24994014657E+03  0.00000000000E+00 0. -1.
         22    1    3    3    0    0  0.30209545958E+01 -0.32031200639E+02 -0.23592065894E+01  0.32259724686E+02  0.00000000000E+00 0. -1.
</event>
<event>
 7    1  0.3110367E-005  0.2349065E+03  0.7818608E-02  0.1138298E+00
          2   -1    0    0  502    0  0.00000000000E+00  0.00000000000E+00  0.12893569680E+04  0.12893569680E+04  0.00000000000E+00 0. -1.
          1   -1    0    0  501    0 -0.00000000000E+00 -0.00000000000E+00 -0.23623406431E+03  0.23623406431E+03  0.00000000000E+00 0. -1.
         25    2    1    2    0    0  0.21923966533E+02 -0.28752203996E+03  0.12933061343E+03  0.33985426498E+03  0.12499972032E+03 0.  0.
          2    1    1    2  501    0 -0.16941309138E+03  0.15953062861E+03 -0.88477893810E+01  0.23287142455E+03  0.00000000000E+00 0. -1.
          1    1    1    2  502    0  0.14748912485E+03  0.12799141135E+03  0.93264007961E+03  0.95286534276E+03  0.00000000000E+00 0. -1.
         22    1    3    3    0    0 -0.42574886325E+02 -0.40483414623E+02  0.29147317335E+02  0.65582725721E+02  0.00000000000E+00 0.  1.
         22    1    3    3    0    0  0.64498852857E+02 -0.24703862534E+03  0.10018329610E+03  0.27427153926E+03  0.00000000000E+00 0.  1.
</event>
<event>
 7    1  0.3110367E-005  0.8354340E+02  0.7818608E-02  0.1463675E+00
          2   -1    0    0  502    0  0.00000000000E+00  0.00000000000E+00  0.14980532832E+04  0.14980532832E+04  0.00000000000E+00 0. -1.
          1   -1    0    0  501    0 -0.00000000000E+00 -0.00000000000E+00 -0.21393843201E+02  0.21393843201E+02  0.00000000000E+00 0. -1.
         25    2    1    2    0    0  0.35589613502E+02  0.66244068585E+02  0.13039326988E+04  0.13120669349E+04  0.12499704572E+03 0.  0.
          2    1    1    2  501    0 -0.15623627092E+02 -0.83156318797E+02  0.10548202067E+03  0.13522399108E+03  0.00000000000E+00 0. -1.
          1    1    1    2  502    0 -0.19965986410E+02  0.16912250212E+02  0.67244720531E+02  0.72156200425E+02  0.00000000000E+00 0. -1.
         22    1    3    3    0    0  0.58924319631E+02 -0.27046557887E+00  0.30433681763E+03  0.30998878554E+03  0.00000000000E+00 0. -1.
         22    1    3    3    0    0 -0.23334706130E+02  0.66514534164E+02  0.99959588121E+03  0.10020781494E+04  0.00000000000E+00 0. -1.
</event>
<event>
 7    1  0.3110367E-005  0.9654254E+03  0.7818608E-02  0.1187418E+00
          2   -1    0    0  502    0  0.00000000000E+00  0.00000000000E+00  0.18239650486E+04  0.18239650486E+04  0.00000000000E+00 0. -1.
          1   -1    0    0  501    0 -0.00000000000E+00 -0.00000000000E+00 -0.21990122830E+04  0.21990122830E+04  0.00000000000E+00 0. -1.
         25    2    1    2    0    0  0.92602574733E+03 -0.23444615741E+03 -0.11505568443E+04  0.15006312140E+04  0.12499721237E+03 0.  0.
          2    1    1    2  501    0 -0.95291398266E+03  0.23506705941E+03 -0.59751751728E+03  0.11490555967E+04  0.00000000000E+00 0. -1.
          1    1    1    2  502    0  0.26888235323E+02 -0.62090200163E+00  0.13730271272E+04  0.13732905209E+04  0.00000000000E+00 0. -1.
         22    1    3    3    0    0  0.85037223509E+03 -0.22629064597E+03 -0.11025611617E+04  0.14106670443E+04  0.00000000000E+00 0.  1.
         22    1    3    3    0    0  0.75653512246E+02 -0.81555114371E+01 -0.47995682605E+02  0.89964169705E+02  0.00000000000E+00 0.  1.
</event>
<event>
 7    1  0.3110367E-005  0.2816016E+03  0.7818608E-02  0.1118140E+00
          2   -1    0    0  502    0  0.00000000000E+00  0.00000000000E+00  0.15097760353E+04  0.15097760353E+04  0.00000000000E+00 0. -1.
          1   -1    0    0  501    0 -0.00000000000E+00 -0.00000000000E+00 -0.82317816317E+03  0.82317816317E+03  0.00000000000E+00 0. -1.
         25    2    1    2    0    0 -0.29530632535E+03 -0.13951069119E+03 -0.28549674607E+03  0.45144623335E+03  0.12500500325E+03 0.  0.
          2    1    1    2  501    0  0.21068302966E+02  0.20775896831E+03 -0.41571517945E+03  0.46521690933E+03  0.00000000000E+00 0. -1.
          1    1    1    2  502    0  0.27423802239E+03 -0.68248277123E+02  0.13878097977E+04  0.14162910558E+04  0.00000000000E+00 0. -1.
         22    1    3    3    0    0 -0.33003883505E+02 -0.15945470161E+02  0.94439759060E+01  0.37851063736E+02  0.00000000000E+00 0. -1.
         22    1    3    3    0    0 -0.26230244185E+03 -0.12356522103E+03 -0.29494072197E+03  0.41359516961E+03  0.00000000000E+00 0. -1.
</event>
<event>
 7    1  0.3110367E-005  0.7483332E+02  0.7818608E-02  0.1348636E+00
          2   -1    0    0  502    0  0.00000000000E+00  0.00000000000E+00  0.13713211247E+03  0.13713211247E+03  0.00000000000E+00 0. -1.
          1   -1    0    0  501    0 -0.00000000000E+00 -0.00000000000E+00 -0.61559657780E+03  0.61559657780E+03  0.00000000000E+00 0. -1.
         25    2    1    2    0    0  0.15021576083E+02  0.98723132752E+02  0.18483075571E+02  0.16105434967E+03  0.12499989911E+03 0.  0.
          2    1    1    2  501    0  0.45565521990E+02 -0.59535728342E+02 -0.51242243485E+03  0.51787785383E+03  0.00000000000E+00 0. -1.
          1    1    1    2  502    0 -0.60587098073E+02 -0.39187404410E+02  0.15474893954E+02  0.73796486773E+02  0.00000000000E+00 0. -1.
         22    1    3    3    0    0 -0.26422260410E+02  0.29789475158E+01  0.46022778867E+02  0.53151727612E+02  0.00000000000E+00 0. -1.
         22    1    3    3    0    0  0.41443836493E+02  0.95744185236E+02 -0.27539703296E+02  0.10790262206E+03  0.00000000000E+00 0. -1.
</event>
<event>
 7    1  0.3110367E-005  0.5146099E+02  0.7818608E-02  0.1489403E+00
          2   -1    0    0  502    0  0.00000000000E+00  0.00000000000E+00  0.93431727881E+02  0.93431727881E+02  0.00000000000E+00 0. -1.
          1   -1    0    0  501    0 -0.00000000000E+00 -0.00000000000E+00 -0.18368725316E+04  0.18368725316E+04  0.00000000000E+00 0. -1.
         25    2    1    2    0    0  0.11370379851E+01  0.25516166552E+02 -0.10017690264E+03  0.16220501469E+03  0.12499074909E+03 0.  0.
          2    1    1    2  501    0 -0.28217258473E+02  0.21357200745E+02 -0.16937246186E+04  0.16940942793E+04  0.00000000000E+00 0. -1.
          1    1    1    2  502    0  0.27080220488E+02 -0.46873367297E+02  0.50460717487E+02  0.74004965460E+02  0.00000000000E+00 0. -1.
         22    1    3    3    0    0 -0.55091645876E+02  0.15068411506E+02 -0.14048166238E+02  0.58817492681E+02  0.00000000000E+00 0.  1.
         22    1    3    3    0    0  0.56228683861E+02  0.10447755046E+02 -0.86128736397E+02  0.10338752201E+03  0.00000000000E+00 0.  1.
</event>
<event>
 7    1  0.3110367E-005  0.4701965E+03  0.7818608E-02  0.1199369E+00
          2   -1    0    0  502    0  0.00000000000E+00  0.00000000000E+00  0.25279548994E+03  0.25279548994E+03  0.00000000000E+00 0. -1.
          1   -1    0    0  501    0 -0.00000000000E+00 -0.00000000000E+00 -0.12966466313E+04  0.12966466313E+04  0.00000000000E+00 0. -1.
         25    2    1    2    0    0 -0.18588013823E+03 -0.45985264302E+03 -0.54779545416E+03  0.74947929790E+03  0.12499391705E+03 0.  0.
          2    1    1    2  501    0 -0.10081488340E+02  0.47368863036E+02 -0.29848893157E+03  0.30239227480E+03  0.00000000000E+00 0. -1.
          1    1    1    2  502    0  0.19596162657E+03  0.41248377999E+03 -0.19756675563E+03  0.49757054853E+03  0.00000000000E+00 0. -1.
         22    1    3    3    0    0 -0.89272752754E+01 -0.49362852055E+02 -0.11768077949E+02  0.51525479769E+02  0.00000000000E+00 0.  1.
         22    1    3    3    0    0 -0.17695286295E+03 -0.41048979097E+03 -0.53602737621E+03  0.69795381813E+03  0.00000000000E+00 0.  1.
</event>
<event>
 7    1  0.3110367E-005  0.7008306E+03  0.7818608E-02  0.1147747E+00
          2   -1    0    0  502    0  0.00000000000E+00  0.00000000000E+00  0.67406141307E+03  0.67406141307E+03  0.00000000000E+00 0. -1.
          1   -1    0    0  501    0 -0.00000000000E+00 -0.00000000000E+00 -0.22056021978E+04  0.22056021978E+04  0.00000000000E+00 0. -1.
         25    2    1    2    0    0  0.94177836069E+02 -0.70246280620E+03 -0.50221911584E+03  0.87759448682E+03  0.12499833633E+03 0.  0.
          2    1    1    2  501    0 -0.58242962051E+02  0.48092263238E+01 -0.12638294270E+04  0.12651799050E+04  0.00000000000E+00 0. -1.
          1    1    1    2  502    0 -0.35934874018E+02  0.69765357988E+03  0.23450775808E+03  0.73688921914E+03  0.00000000000E+00 0. -1.
         22    1    3    3    0    0 -0.23045516165E+02 -0.84016930319E+02 -0.89477168388E+02  0.12488436274E+03  0.00000000000E+00 0.  1.
         22    1    3    3    0    0  0.11722335223E+03 -0.61844587588E+03 -0.41274194745E+03  0.75271012408E+03  0.00000000000E+00 0.  1.
</event>
<event>
 7    1  0.3110367E-005  0.1878952E+03  0.7818608E-02  0.1181204E+00
          2   -1    0    0  502    0  0.00000000000E+00  0.00000000000E+00  0.33773318053E+03  0.33773318053E+03  0.00000000000E+00 0. -1.
          1   -1    0    0  501    0 -0.00000000000E+00 -0.00000000000E+00 -0.24485144463E+04  0.24485144463E+04  0.00000000000E+00 0. -1.
         25    2    1    2    0    0  0.22988788330E+03 -0.31694309838E+02 -0.31528495900E+03  0.41095277023E+03  0.12499842327E+03 0.  0.
          2    1    1    2  501    0 -0.16015811056E+03 -0.98974485156E+02 -0.20619052248E+04  0.20704829691E+04  0.00000000000E+00 0. -1.
          1    1    1    2  502    0 -0.69729772745E+02  0.13066879499E+03  0.26640891802E+03  0.30481188755E+03  0.00000000000E+00 0. -1.
         22    1    3    3    0    0  0.18177152618E+03 -0.14768700022E+02 -0.31001068362E+03  0.35967433351E+03  0.00000000000E+00 0.  1.
         22    1    3    3    0    0  0.48116357126E+02 -0.16925609816E+02 -0.52742753754E+01  0.51278436710E+02  0.00000000000E+00 0.  1.
</event>
<event>
 7    1  0.3110367E-005  0.9525175E+02  0.7818608E-02  0.1343352E+00
          2   -1    0    0  502    0  0.00000000000E+00  0.00000000000E+00  0.52818562814E+02  0.52818562814E+02  0.00000000000E+00 0. -1.
          1   -1    0    0  501    0 -0.00000000000E+00 -0.00000000000E+00 -0.56597336912E+03  0.56597336912E+03  0.00000000000E+00 0. -1.
         25    2    1    2    0    0  0.81444157595E+02  0.43552744240E+02 -0.36521350057E+03  0.39690712950E+03  0.12499750444E+03 0.  0.
          2    1    1    2  501    0  0.16973821363E+02 -0.56838533583E+02 -0.87225064442E+02  0.10548431816E+03  0.00000000000E+00 0. -1.
          1    1    1    2  502    0 -0.98417978958E+02  0.13285789343E+02 -0.60716241297E+02  0.11640048427E+03  0.00000000000E+00 0. -1.
         22    1    3    3    0    0  0.12436315318E+02 -0.32466487566E+02 -0.28707629907E+02  0.45087279452E+02  0.00000000000E+00 0. -1.
         22    1    3    3    0    0  0.69007842277E+02  0.76019231806E+02 -0.33650587066E+03  0.35181985005E+03  0.00000000000E+00 0. -1.
</event>
<event>
 7    1  0.3110367E-005  0.1634372E+03  0.7818608E-02  0.1401088E+00
          2   -1    0    0  502    0  0.00000000000E+00  0.00000000000E+00  0.11202345308E+04  0.11202345308E+04  0.00000000000E+00 0. -1.
          1   -1    0    0  501    0 -0.00000000000E+00 -0.00000000000E+00 -0.37133118989E+03  0.37133118989E+03  0.00000000000E+00 0. -1.
         25    2    1    2    0    0  0.14969529444E+03 -0.28424327987E+02  0.18103805819E+03  0.26761191627E+03  0.12499894246E+03 0.  0.
          2    1    1    2  501    0 -0.16406245909E+03  0.12475714066E+02 -0.30727290691E+03  0.34855239670E+03  0.00000000000E+00 0. -1.
          1    1    1    2  502    0  0.14367164651E+02  0.15948613921E+02  0.87513818967E+03  0.87540140777E+03  0.00000000000E+00 0. -1.
         22    1    3    3    0    0  0.48582861586E+02 -0.51262143936E+00 -0.10061924126E+02  0.49616524845E+02  0.00000000000E+00 0. -1.
         22    1    3    3    0    0  0.10111243285E+03 -0.27911706548E+02  0.19109998232E+03  0.21799539143E+03  0.00000000000E+00 0. -1.
</event>
<event>
 7    1  0.3110367E-005  0.2791908E+03  0.7818608E-02  0.1259794E+00
          2   -1    0    0  502    0  0.00000000000E+00  0.00000000000E+00  0.15965638849E+04  0.15965638849E+04  0.00000000000E+00 0. -1.
          1   -1    0    0  501    0 -0.00000000000E+00 -0.00000000000E+00 -0.38445300929E+03  0.38445300929E+03  0.00000000000E+00 0. -1.
         25    2    1    2    0    0  0.24422009239E+03  0.93684735942E+02  0.65100872259E+03  0.71264106545E+03  0.12499859200E+03 0.  0.
          2    1    1    2  501    0  0.39415733015E+02 -0.18803008969E+02 -0.32863574888E+03  0.33152467269E+03  0.00000000000E+00 0. -1.
          1    1    1    2  502    0 -0.28363582541E+03 -0.74881726972E+02  0.88973790188E+03  0.93685115601E+03  0.00000000000E+00 0. -1.
         22    1    3    3    0    0  0.10496943676E+02  0.32809985152E+02  0.27792055084E+02  0.44261487526E+02  0.00000000000E+00 0.  1.
         22    1    3    3    0    0  0.23372314872E+03  0.60874750789E+02  0.62321666751E+03  0.66837957793E+03  0.00000000000E+00 0.  1.
</event>
<event>
 7    1  0.3110367E-005  0.5080894E+02  0.7818608E-02  0.1544245E+00
          2   -1    0    0  502    0  0.00000000000E+00  0.00000000000E+00  0.21163619053E+04  0.21163619053E+04  0.00000000000E+00 0. -1.
          1   -1    0    0  501    0 -0.00000000000E+00 -0.00000000000E+00 -0.23343426192E+03  0.23343426192E+03  0.00000000000E+00 0. -1.
         25    2    1    2    0    0 -0.36279469802E+02  0.18106890625E+02 -0.54805658213E+02  0.14238217347E+03  0.12499985493E+03 0.  0.
          2    1    1    2  501    0 -0.14539166871E+02 -0.20087783004E+02 -0.13338547853E+03  0.13567089696E+03  0.00000000000E+00 0. -1.
          1    1    1    2  502    0  0.50818636673E+02  0.19808923789E+01  0.20711187801E+04  0.20717430968E+04  0.00000000000E+00 0. -1.
         22    1    3    3    0    0 -0.80057516259E+02 -0.76400785914E+01 -0.29724850949E+02  0.85738809616E+02  0.00000000000E+00 0.  1.
         22    1    3    3    0    0  0.43778046457E+02  0.25746969217E+02 -0.25080807264E+02  0.56643363852E+02  0.00000000000E+00 0.  1.
</event>
<event>
 7    1  0.3110367E-005  0.4546643E+03  0.7818608E-02  0.1165707E+00
          2   -1    0    0  502    0  0.00000000000E+00  0.00000000000E+00  0.85999830191E+03  0.85999830191E+03  0.00000000000E+00 0. -1.
          1   -1    0    0  501    0 -0.00000000000E+00 -0.00000000000E+00 -0.38614814938E+03  0.38614814938E+03  0.00000000000E+00 0. -1.
         25    2    1    2    0    0 -0.11981693094E+03 -0.46221640310E+03  0.28569328739E+02  0.49441546417E+03  0.12502137590E+03 0.  0.
          2    1    1    2  501    0  0.56646594827E+02  0.42562960849E+03  0.16156323080E+03  0.45877235954E+03  0.00000000000E+00 0. -1.
          1    1    1    2  502    0  0.63170336111E+02  0.36586794604E+02  0.28371759299E+03  0.29295862758E+03  0.00000000000E+00 0. -1.
         22    1    3    3    0    0 -0.49544720323E+02 -0.33748879938E+03 -0.23898872666E+02  0.34194228334E+03  0.00000000000E+00 0.  1.
         22    1    3    3    0    0 -0.70272210615E+02 -0.12472760371E+03  0.52468201406E+02  0.15247318083E+03  0.00000000000E+00 0.  1.
</event>
<event>
 7    1  0.3110367E-005  0.8394263E+03  0.7818608E-02  0.1142331E+00
          2   -1    0    0  502    0  0.00000000000E+00  0.00000000000E+00  0.22447709312E+04  0.22447709312E+04  0.00000000000E+00 0. -1.
          1   -1    0    0  501    0 -0.00000000000E+00 -0.00000000000E+00 -0.17334156877E+04  0.17334156877E+04  0.00000000000E+00 0. -1.
         25    2    1    2    0    0  0.71677281217E+03 -0.45396062329E+03  0.25490474327E+03  0.89467540751E+03  0.12499657954E+03 0.  0.
          2    1    1    2  501    0 -0.38025021841E+02 -0.35550762189E+02 -0.13081406685E+04  0.13091759880E+04  0.00000000000E+00 0. -1.
          1    1    1    2  502    0 -0.67874779033E+03  0.48951138548E+03  0.15645911688E+04  0.17743352234E+04  0.00000000000E+00 0. -1.
         22    1    3    3    0    0  0.50959925768E+03 -0.27994587157E+03  0.12576228612E+03  0.59487582490E+03  0.00000000000E+00 0. -1.
         22    1    3    3    0    0  0.20717355449E+03 -0.17401475172E+03  0.12914245714E+03  0.29979958260E+03  0.00000000000E+00 0. -1.
</event>
<event>
 7    1  0.3110367E-005  0.1708870E+03  0.7818608E-02  0.1342149E+00
          2   -1    0    0  502    0  0.00000000000E+00  0.00000000000E+00  0.15444246597E+03  0.15444246597E+03  0.00000000000E+00 0. -1.
          1   -1    0    0  501    0 -0.00000000000E+00 -0.00000000000E+00 -0.16082939671E+04  0.16082939671E+04  0.00000000000E+00 0. -1.
         25    2    1    2    0    0  0.56358370969E+02  0.19430268719E+03 -0.91128459621E+02  0.25467543697E+03  0.12500152726E+03 0.  0.
          2    1    1    2  501    0 -0.45183860310E+02 -0.16281807824E+03 -0.14262821790E+04  0.14362563009E+04  0.00000000000E+00 0. -1.
          1    1    1    2  502    0 -0.11174510658E+02 -0.31484608950E+02  0.63559137488E+02  0.71804695163E+02  0.00000000000E+00 0. -1.
         22    1    3    3    0    0  0.72387615839E+01 -0.17341995981E+02 -0.16313843799E+02  0.24885457467E+02  0.00000000000E+00 0.  1.
         22    1    3    3    0    0  0.49119609385E+02  0.21164468317E+03 -0.74814615822E+02  0.22978997950E+03  0.00000000000E+00 0.  1.
</event>
<event>
 7    1  0.3110367E-005  0.2651601E+03  0.7818608E-02  0.1131652E+00
          2   -1    0    0  502    0  0.00000000000E+00  0.00000000000E+00  0.30108398446E+04  0.30108398446E+04  0.00000000000E+00 0. -1.
          1   -1    0    0  501    0 -0.00000000000E+00 -0.00000000000E+00 -0.17228453952E+03  0.17228453952E+03  0.00000000000E+00 0. -1.
         25    2    1    2    0    0  0.74579872761E+02  0.28278736903E+03  0.18663045172E+04  0.18932110805E+04  0.12499916472E+03 0.  0.
          2    1    1    2  501    0  0.13996791823E+03 -0.12487432237E+03 -0.80397404548E+02  0.20407929140E+03  0.00000000000E+00 0. -1.
          1    1    1    2  502    0 -0.21454779099E+03 -0.15791304666E+03  0.10526481925E+04  0.10858340122E+04  0.00000000000E+00 0. -1.
         22    1    3    3    0    0  0.48439214614E+02  0.29768759545E+02  0.21317854476E+03  0.22063007162E+03  0.00000000000E+00 0. -1.
         22    1    3    3    0    0  0.26140658147E+02  0.25301860948E+03  0.16531259724E+04  0.16725810089E+04  0.00000000000E+00 0. -1.
</event>
<event>
 7    1  0.3110367E-005  0.1528113E+03  0.7818608E-02  0.1253070E+00
          2   -1    0    0  502    0  0.00000000000E+00  0.00000000000E+00  0.14264470772E+04  0.14264470772E+04  0.00000000000E+00 0. -1.
          1   -1    0    0  501    0 -0.00000000000E+00 -0.00000000000E+00 -0.47030571969E+02  0.47030571969E+02  0.00000000000E+00 0. -1.
         25    2    1    2    0    0  0.18561962416E+03  0.58561193453E+02  0.86737316272E+03  0.89768870879E+03  0.12499902490E+03 0.  0.
          2    1    1    2  501    0 -0.14530196199E+03  0.16577051868E+02  0.17468557244E+03  0.22782121943E+03  0.00000000000E+00 0. -1.
          1    1    1    2  502    0 -0.40317662173E+02 -0.75138245321E+02  0.33735777002E+03  0.34796772090E+03  0.00000000000E+00 0. -1.
         22    1    3    3    0    0  0.13456257195E+03  0.29247393776E+02  0.33686558070E+03  0.36392432630E+03  0.00000000000E+00 0. -1.
         22    1    3    3    0    0  0.51057052212E+02  0.29313799677E+02  0.53050758202E+03  0.53376438249E+03  0.00000000000E+00 0. -1.
</event>
<event>
 7    1  0.3110367E-005  0.1215432E+03  0.7818608E-02  0.1293906E+00
          2   -1    0    0  502    0  0.00000000000E+00  0.00000000000E+00  0.14113905732E+03  0.14113905732E+03  0.00000000000E+00 0. -1.
          1   -1    0    0  501    0 -0.00000000000E+00 -0.00000000000E+00 -0.17159631984E+04  0.17159631984E+04  0.00000000000E+00 0. -1.
         25    2    1    2    0    0 -0.97761461611E+02  0.99622554919E+02 -0.16869649339E+03  0.25212004348E+03  0.12499621042E+03 0.  0.
          2    1    1    2  501    0  0.11782405329E+03 -0.30071845011E+02 -0.14895656441E+04  0.14945208703E+04  0.00000000000E+00 0. -1.
          1    1    1    2  502    0 -0.20062591683E+02 -0.69550709908E+02  0.83437996420E+02  0.11046134202E+03  0.00000000000E+00 0. -1.
         22    1    3    3    0    0 -0.12237799188E+03  0.90073895806E+02 -0.10948278478E+03  0.18728630427E+03  0.00000000000E+00 0.  1.
         22    1    3    3    0    0  0.24616530270E+02  0.95486591125E+01 -0.59213708610E+02  0.64833739216E+02  0.00000000000E+00 0.  1.
</event>
<event>
 7    1  0.3110367E-005  0.5982692E+02  0.7818608E-02  0.1445114E+00
          2   -1    0    0  502    0  0.00000000000E+00  0.00000000000E+00  0.35038945886E+04  0.35038945886E+04  0.00000000000E+00 0. -1.
          1   -1    0    0  501    0 -0.00000000000E+00 -0.00000000000E+00 -0.53408228997E+03  0.53408228997E+03  0.00000000000E+00 0. -1.
         25    2    1    2    0    0 -0.22216633415E+02  0.44135752152E+02  0.42882273231E+03  0.44939544910E+03  0.12500316198E+03 0.  0.
          2    1    1    2  501    0  0.39497503268E+02  0.13856764607E+02 -0.52266044299E+03  0.52433386440E+03  0.00000000000E+00 0. -1.
          1    1    1    2  502    0 -0.17280869853E+02 -0.57992516759E+02  0.30636500093E+04  0.30642475650E+04  0.00000000000E+00 0. -1.
         22    1    3    3    0    0 -0.66125633285E+02  0.29730390662E+02  0.14809644322E+03  0.16489103069E+03  0.00000000000E+00 0. -1.
         22    1    3    3    0    0  0.43908999869E+02  0.14405361490E+02  0.28072628909E+03  0.28450441841E+03  0.00000000000E+00 0. -1.
</event>
<event>
 7    1  0.3110367E-005  0.2630894E+03  0.7818608E-02  0.1173998E+00
          2   -1    0    0  502    0  0.00000000000E+00  0.00000000000E+00  0.28774821336E+03  0.28774821336E+03  0.00000000000E+00 0. -1.
          1   -1    0    0  501    0 -0.00000000000E+00 -0.00000000000E+00 -0.82663493757E+03  0.82663493757E+03  0.00000000000E+00 0. -1.
         25    2    1    2    0    0 -0.30996185882E+03 -0.33420292102E+02 -0.24126874778E+03  0.41355655523E+03  0.12500058346E+03 0.  0.
          2    1    1    2  501    0  0.22418698762E+03  0.10963135472E+03 -0.44731136360E+03  0.51221703931E+03  0.00000000000E+00 0. -1.
          1    1    1    2  502    0  0.85774871203E+02 -0.76211062617E+02  0.14969338718E+03  0.18860955638E+03  0.00000000000E+00 0. -1.
         22    1    3    3    0    0 -0.16493616569E+03  0.42923930517E+02 -0.10305929698E+03  0.19916731975E+03  0.00000000000E+00 0.  1.
         22    1    3    3    0    0 -0.14502569314E+03 -0.76344222619E+02 -0.13820945080E+03  0.21438923548E+03  0.00000000000E+00 0.  1.
</event>
<event>
 7    1  0.3110367E-005  0.4910583E+02  0.7818608E-02  0.1479796E+00
          2   -1    0    0  502    0  0.00000000000E+00  0.00000000000E+00  0.17074005355E+04  0.17074005355E+04  0.00000000000E+00 0. -1.
          1   -1    0    0  501    0 -0.00000000000E+00 -0.00000000000E+00 -0.24539525538E+03  0.24539525538E+03  0.00000000000E+00 0. -1.
         25    2    1    2    0    0 -0.23982824701E+02  0.12803635401E+02  0.24081963590E+03  0.27268720944E+03  0.12500043279E+03 0.  0.
          2    1    1    2  501    0  0.44771983079E+02  0.20985778833E+02 -0.22652279395E+03  0.23185665736E+03  0.00000000000E+00 0. -1.
          1    1    1    2  502    0 -0.20789158378E+02 -0.33789414234E+02  0.14477084382E+04  0.14482519241E+04  0.00000000000E+00 0. -1.
         22    1    3    3    0    0 -0.49033335159E+02  0.20084010285E+02  0.24084023837E+03  0.24660019433E+03  0.00000000000E+00 0. -1.
         22    1    3    3    0    0  0.25050510458E+02 -0.72803748847E+01 -0.20602475596E-01  0.26087015106E+02  0.00000000000E+00 0. -1.
</event>
<event>
 7    1  0.3110367E-005  0.2098244E+03  0.7818608E-02  0.1230094E+00
          2   -1    0    0  502    0  0.00000000000E+00  0.00000000000E+00  0.74802256069E+03  0.74802256069E+03  0.00000000000E+00 0. -1.
          1   -1    0    0  501    0 -0.00000000000E+00 -0.00000000000E+00 -0.38212176868E+03  0.38212176868E+03  0.00000000000E+00 0. -1.
         25    2    1    2    0    0  0.69195752260E+02  0.20538128196E+03  0.61783117046E+02  0.25770359149E+03  0.12499785760E+03 0.  0.
          2    1    1    2  501    0  0.65442628862E+02 -0.43125731940E+02 -0.25928887128E+03  0.27087503613E+03  0.00000000000E+00 0. -1.
          1    1    1    2  502    0 -0.13463838112E+03 -0.16225555002E+03  0.56340654624E+03  0.60156570175E+03  0.00000000000E+00 0. -1.
         22    1    3    3    0    0  0.14352357341E+02  0.39143422509E+02 -0.37828257821E+02  0.56295424119E+02  0.00000000000E+00 0. -1.
         22    1    3    3    0    0  0.54843394920E+02  0.16623785945E+03  0.99611374867E+02  0.20140816737E+03  0.00000000000E+00 0. -1.
</event>
<event>
 7    1  0.3110367E-005  0.7672431E+02  0.7818608E-02  0.1408635E+00
          2   -1    0    0  502    0  0.00000000000E+00  0.00000000000E+00  0.12497699735E+04  0.12497699735E+04  0.00000000000E+00 0. -1.
          1   -1    0    0  501    0 -0.00000000000E+00 -0.00000000000E+00 -0.28045232199E+03  0.28045232199E+03  0.00000000000E+00 0. -1.
         25    2    1    2    0    0  0.39603858810E+02  0.58686451918E+02 -0.24456513515E+02  0.14572662754E+03  0.12500225458E+03 0.  0.
          2    1    1    2  501    0  0.31564004892E+02 -0.29336340656E+02 -0.19172077800E+03  0.19650385239E+03  0.00000000000E+00 0. -1.
          1    1    1    2  502    0 -0.71167863702E+02 -0.29350111262E+02  0.11854949430E+04  0.11879918155E+04  0.00000000000E+00 0. -1.
         22    1    3    3    0    0  0.77039809313E+01 -0.43629710008E+01 -0.64097875032E+02  0.64706448069E+02  0.00000000000E+00 0. -1.
         22    1    3    3    0    0  0.31899877878E+02  0.63049422919E+02  0.39641361517E+02  0.81020179474E+02  0.00000000000E+00 0. -1.
</event>
<event>
 7    1  0.3110367E-005  0.1864388E+03  0.7818608E-02  0.1225158E+00
          2   -1    0    0  502    0  0.00000000000E+00  0.00000000000E+00  0.99057675436E+03  0.99057675436E+03  0.00000000000E+00 0. -1.
          1   -1    0    0  501    0 -0.00000000000E+00 -0.00000000000E+00 -0.93684591087E+02  0.93684591087E+02  0.00000000000E+00 0. -1.
         25    2    1    2    0    0  0.12803079142E+03 -0.14302233987E+03  0.15903928471E+03  0.27886455393E+03  0.12499868842E+03 0.  0.
          2    1    1    2  501    0 -0.18014465064E+03  0.66193392430E+02  0.28816715612E+03  0.34622820541E+03  0.00000000000E+00 0. -1.
          1    1    1    2  502    0  0.52113859226E+02  0.76828947443E+02  0.44968572245E+03  0.45916858610E+03  0.00000000000E+00 0. -1.
         22    1    3    3    0    0  0.62122398337E+02 -0.14514601964E+02 -0.32254104049E+00  0.63796317120E+02  0.00000000000E+00 0.  1.
         22    1    3    3    0    0  0.65908393081E+02 -0.12850773791E+03  0.15936182575E+03  0.21506823681E+03  0.00000000000E+00 0.  1.
</event>
<event>
 7    1  0.3110367E-005  0.5747799E+02  0.7818608E-02  0.1419039E+00
          2   -1    0    0  502    0  0.00000000000E+00  0.00000000000E+00  0.22754268081E+04  0.22754268081E+04  0.00000000000E+00 0. -1.
          1   -1    0    0  501    0 -0.00000000000E+00 -0.00000000000E+00 -0.70581956893E+02  0.70581956893E+02  0.00000000000E+00 0. -1.
         25    2    1    2    0    0 -0.16023104393E+02  0.78887424116E+02  0.79229833179E+03  0.80613244197E+03  0.12503160357E+03 0.  0.
          2    1    1    2  501    0  0.45630545775E+02 -0.34856041856E+02 -0.50138243154E+02  0.76229481096E+02  0.00000000000E+00 0. -1.
          1    1    1    2  502    0 -0.29607441382E+02 -0.44031382260E+02  0.14626847625E+04  0.14636468419E+04  0.00000000000E+00 0. -1.
         22    1    3    3    0    0 -0.11608089759E+02 -0.17351971447E+00  0.57058689454E+03  0.57070498690E+03  0.00000000000E+00 0.  1.
         22    1    3    3    0    0 -0.44150146347E+01  0.79060943831E+02  0.22171143725E+03  0.23542745507E+03  0.00000000000E+00 0.  1.
</event>
<event>
 7    1  0.3110367E-005  0.3013648E+03  0.7818608E-02  0.1108139E+00
          2   -1    0    0  502    0  0.00000000000E+00  0.00000000000E+00  0.10109199282E+04  0.10109199282E+04  0.00000000000E+00 0. -1.
          1   -1    0    0  501    0 -0.00000000000E+00 -0.00000000000E+00 -0.15284672336E+04  0.15284672336E+04  0.00000000000E+00 0. -1.
         25    2    1    2    0    0  0.84304198800E+02 -0.25180327285E+03 -0.39790256866E+03  0.49443255224E+03  0.12500003368E+03 0.  0.
          2    1    1    2  501    0  0.19024978930E+03  0.11338362358E+03 -0.10458519360E+04  0.10690449479E+04  0.00000000000E+00 0. -1.
          1    1    1    2  502    0 -0.27455398810E+03  0.13841964927E+03  0.92620719928E+03  0.97590966164E+03  0.00000000000E+00 0. -1.
         22    1    3    3    0    0  0.78450218330E+02 -0.53295109529E+02 -0.13314195944E+03  0.16346738763E+03  0.00000000000E+00 0.  1.
         22    1    3    3    0    0  0.58539804695E+01 -0.19850816332E+03 -0.26476060922E+03  0.33096516461E+03  0.00000000000E+00 0.  1.
</event>
<event>
 7    1  0.3110367E-005  0.1949748E+03  0.7818608E-02  0.1238465E+00
          2   -1    0    0  502    0  0.00000000000E+00  0.00000000000E+00  0.11726819466E+04  0.11726819466E+04  0.00000000000E+00 0. -1.
          1   -1    0    0  501    0 -0.00000000000E+00 -0.00000000000E+00 -0.18420480466E+03  0.18420480466E+03  0.00000000000E+00 0. -1.
         25    2    1    2    0    0  0.56744611668E+01  0.26712918878E+03  0.86567542858E+03  0.91455277555E+03  0.12499051408E+03 0.  0.
          2    1    1    2  501    0  0.26754501235E+01 -0.19017284073E+03 -0.93981693228E+02  0.21214482329E+03  0.00000000000E+00 0. -1.
          1    1    1    2  502    0 -0.83499112903E+01 -0.76956348044E+02  0.21678340661E+03  0.23018915245E+03  0.00000000000E+00 0. -1.
         22    1    3    3    0    0  0.12419574659E+02 -0.97855682070E+01  0.78145098464E+02  0.79728662310E+02  0.00000000000E+00 0.  1.
         22    1    3    3    0    0 -0.67451134925E+01  0.27691475698E+03  0.78753033011E+03  0.83482411324E+03  0.00000000000E+00 0.  1.
</event>
<event>
 7    1  0.3110367E-005  0.4237523E+03  0.7818608E-02  0.1252910E+00
          2   -1    0    0  502    0  0.00000000000E+00  0.00000000000E+00  0.78949066663E+03  0.78949066663E+03  0.00000000000E+00 0. -1.
          1   -1    0    0  501    0 -0.00000000000E+00 -0.00000000000E+00 -0.14935687796E+04  0.14935687796E+04  0.00000000000E+00 0. -1.
         25    2    1    2    0    0  0.44753076197E+03 -0.28080959043E+02 -0.20124416101E+03  0.50714476604E+03  0.12499711278E+03 0.  0.
          2    1    1    2  501    0 -0.30024067680E+02 -0.68668180866E+01 -0.10701884421E+04  0.10706315424E+04  0.00000000000E+00 0. -1.
          1    1    1    2  502    0 -0.41750669429E+03  0.34947777130E+02  0.56735449021E+03  0.70528313780E+03  0.00000000000E+00 0. -1.
         22    1    3    3    0    0  0.29853456786E+03 -0.73156775625E+02 -0.15792180181E+03  0.34556344933E+03  0.00000000000E+00 0. -1.
         22    1    3    3    0    0  0.14899619412E+03  0.45075816583E+02 -0.43322359199E+02  0.16158131671E+03  0.00000000000E+00 0. -1.
</event>
<event>
 7    1  0.3110367E-005  0.3131002E+03  0.7818608E-02  0.1173224E+00
          2   -1    0    0  502    0  0.00000000000E+00  0.00000000000E+00  0.20900976667E+03  0.20900976667E+03  0.00000000000E+00 0. -1.
          1   -1    0    0  501    0 -0.00000000000E+00 -0.00000000000E+00 -0.91688499791E+03  0.91688499791E+03  0.00000000000E+00 0. -1.
         25    2    1    2    0    0 -0.35437399055E+03  0.13802823935E+03 -0.23751511353E+03  0.46547937892E+03  0.12499961201E+03 0.  0.
          2    1    1    2  501    0  0.25720081790E+03 -0.13378090272E+03 -0.48198407749E+03  0.56245732426E+03  0.00000000000E+00 0. -1.
          1    1    1    2  502    0  0.97173172656E+02 -0.42473366276E+01  0.11623959783E+02  0.97958061401E+02  0.00000000000E+00 0. -1.
         22    1    3    3    0    0 -0.93205576974E+01 -0.15485310080E+02  0.21328299385E+01  0.18199356791E+02  0.00000000000E+00 0. -1.
         22    1    3    3    0    0 -0.34505343285E+03  0.15351354943E+03 -0.23964794347E+03  0.44728002213E+03  0.00000000000E+00 0. -1.
</event>
<event>
 7    1  0.3110367E-005  0.1323472E+03  0.7818608E-02  0.1262304E+00
          2   -1    0    0  502    0  0.00000000000E+00  0.00000000000E+00  0.11746245654E+04  0.11746245654E+04  0.00000000000E+00 0. -1.
          1   -1    0    0  501    0 -0.00000000000E+00 -0.00000000000E+00 -0.25507780010E+03  0.25507780010E+03  0.00000000000E+00 0. -1.
         25    2    1    2    0    0 -0.42525688433E+02 -0.17540376349E+03  0.69490013466E+03  0.72875539288E+03  0.12499324413E+03 0.  0.
          2    1    1    2  501    0 -0.29624865993E+02  0.84862812309E+02 -0.22201761064E+03  0.23952275264E+03  0.00000000000E+00 0. -1.
          1    1    1    2  502    0  0.72150554425E+02  0.90540951179E+02  0.44666424132E+03  0.46142422002E+03  0.00000000000E+00 0. -1.
         22    1    3    3    0    0  0.23591011969E+02 -0.13996008995E+03  0.39896764824E+03  0.42346256856E+03  0.00000000000E+00 0.  1.
         22    1    3    3    0    0 -0.66116700402E+02 -0.35443673539E+02  0.29593248641E+03  0.30529282432E+03  0.00000000000E+00 0.  1.
</event>
<event>
 7    1  0.3110367E-005  0.5553424E+02  0.7818608E-02  0.1512918E+00
          2   -1    0    0  502    0  0.00000000000E+00  0.00000000000E+00  0.52630014810E+02  0.52630014810E+02  0.00000000000E+00 0. -1.
          1   -1    0    0  501    0 -0.00000000000E+00 -0.00000000000E+00 -0.25181059313E+03  0.25181059313E+03  0.00000000000E+00 0. -1.
         25    2    1    2    0    0  0.87326066440E+01 -0.32193415819E+02 -0.70207602064E+02  0.14718821848E+03  0.12499035895E+03 0.  0.
          2    1    1    2  501    0 -0.67119105320E+01  0.60027314749E+02 -0.10136578084E+03  0.11799724482E+03  0.00000000000E+00 0. -1.
          1    1    1    2  502    0 -0.20206961120E+01 -0.27833898930E+02 -0.27607195415E+02  0.39255144645E+02  0.00000000000E+00 0. -1.
         22    1    3    3    0    0 -0.46620228050E+02 -0.85880410520E+01 -0.72893777577E+02  0.86952302569E+02  0.00000000000E+00 0.  1.
         22    1    3    3    0    0  0.55352834694E+02 -0.23605374767E+02  0.26861755128E+01  0.60235915909E+02  0.00000000000E+00 0.  1.
</event>
<event>
 7    1  0.3110367E-005  0.1290691E+04  0.7818608E-02  0.1127905E+00
          2   -1    0    0  502    0  0.00000000000E+00  0.00000000000E+00  0.21004127895E+04  0.21004127895E+04  0.00000000000E+00 0. -1.
          1   -1    0    0  501    0 -0.00000000000E+00 -0.00000000000E+00 -0.33845804652E+04  0.33845804652E+04  0.00000000000E+00 0. -1.
         25    2    1    2    0    0 -0.37783546130E+02  0.12996147490E+04  0.77254126793E+03  0.15175222029E+04  0.12501013418E+03 0.  0.
          2    1    1    2  501    0  0.35283665220E+02 -0.19577164155E+02 -0.25831054286E+04  0.25834205731E+04  0.00000000000E+00 0. -1.
          1    1    1    2  502    0  0.24998809095E+01 -0.12800375848E+04  0.52639648494E+03  0.13840504786E+04  0.00000000000E+00 0. -1.
         22    1    3    3    0    0  0.33767232654E+02  0.83748633473E+03  0.47877442605E+03  0.96527122504E+03  0.00000000000E+00 0. -1.
         22    1    3    3    0    0 -0.71550778784E+02  0.46212841425E+03  0.29376684188E+03  0.55225097789E+03  0.00000000000E+00 0. -1.
</event>
<event>
 7    1  0.3110367E-005  0.7268033E+02  0.7818608E-02  0.1433225E+00
          2   -1    0    0  502    0  0.00000000000E+00  0.00000000000E+00  0.69256717693E+03  0.69256717693E+03  0.00000000000E+00 0. -1.
          1   -1    0    0  501    0 -0.00000000000E+00 -0.00000000000E+00 -0.73574047174E+03  0.73574047174E+03  0.00000000000E+00 0. -1.
         25    2    1    2    0    0  0.55903110391E+02 -0.22818044568E+02  0.27923657857E+03  0.31183984099E+03  0.12500079482E+03 0.  0.
          2    1    1    2  501    0 -0.71935115102E+02 -0.11259705906E+02 -0.71669707516E+03  0.72038610432E+03  0.00000000000E+00 0. -1.
          1    1    1    2  502    0  0.16032004710E+02  0.34077750474E+02  0.39428720178E+03  0.39608170337E+03  0.00000000000E+00 0. -1.
         22    1    3    3    0    0  0.47188850979E+02 -0.24092605254E+02  0.29175883341E+03  0.29653070357E+03  0.00000000000E+00 0.  1.
         22    1    3    3    0    0  0.87142594119E+01  0.12745606855E+01 -0.12522254844E+02  0.15309137416E+02  0.00000000000E+00 0.  1.
</event>
<event>
 7    1  0.3110367E-005  0.7244222E+02  0.7818608E-02  0.1379975E+00
          2   -1    0    0  502    0  0.00000000000E+00  0.00000000000E+00  0.11208451643E+04  0.11208451643E+04  0.00000000000E+00 0. -1.
          1   -1    0    0  501    0 -0.00000000000E+00 -0.00000000000E+00 -0.57840345088E+02  0.57840345088E+02  0.00000000000E+00 0. -1.
         25    2    1    2    0    0 -0.94431764224E+02  0.13499396252E+02  0.16911515880E+03  0.23092068746E+03  0.12499934067E+03 0.  0.
          2    1    1    2  501    0  0.43372165914E+02  0.37560711304E+02  0.68409935301E+01  0.57781926259E+02  0.00000000000E+00 0. -1.
          1    1    1    2  502    0  0.51059598310E+02 -0.51060107556E+02  0.88704866687E+03  0.88998289565E+03  0.00000000000E+00 0. -1.
         22    1    3    3    0    0  0.27937423067E+02 -0.25068531512E+01  0.59819633525E+02  0.66069451908E+02  0.00000000000E+00 0. -1.
         22    1    3    3    0    0 -0.12236918729E+03  0.16006249404E+02  0.10929552527E+03  0.16485123555E+03  0.00000000000E+00 0. -1.
</event>
<event>
 7    1  0.3110367E-005  0.5990598E+03  0.7818608E-02  0.1021294E+00
          2   -1    0    0  502    0  0.00000000000E+00  0.00000000000E+00  0.25716219870E+04  0.25716219870E+04  0.00000000000E+00 0. -1.
          1   -1    0    0  501    0 -0.00000000000E+00 -0.00000000000E+00 -0.12388810598E+04  0.12388810598E+04  0.00000000000E+00 0. -1.
         25    2    1    2    0    0  0.10515730740E+03  0.92989149879E+03  0.83025198698E+03  0.12572600822E+04  0.12501317411E+03 0.  0.
          2    1    1    2  501    0  0.76393161262E+00 -0.57303309181E+03 -0.91944258614E+03  0.10833938236E+04  0.00000000000E+00 0. -1.
          1    1    1    2  502    0 -0.10592123901E+03 -0.35685840698E+03  0.14219315264E+04  0.14698491410E+04  0.00000000000E+00 0. -1.
         22    1    3    3    0    0  0.10339077723E+03  0.38953265111E+03  0.33000694797E+03  0.52089339102E+03  0.00000000000E+00 0.  1.
         22    1    3    3    0    0  0.17665301695E+01  0.54035884768E+03  0.50024503901E+03  0.73636669123E+03  0.00000000000E+00 0.  1.
</event>
<event>
 7    1  0.3110367E-005  0.1431407E+03  0.7818608E-02  0.1406147E+00
          2   -1    0    0  502    0  0.00000000000E+00  0.00000000000E+00  0.20983623079E+04  0.20983623079E+04  0.00000000000E+00 0. -1.
          1   -1    0    0  501    0 -0.00000000000E+00 -0.00000000000E+00 -0.90855481883E+02  0.90855481883E+02  0.00000000000E+00 0. -1.
         25    2    1    2    0    0 -0.99015698231E+02 -0.12933789639E+03  0.37169387922E+03  0.42463550037E+03  0.12500627339E+03 0.  0.
          2    1    1    2  501    0  0.83498195792E+02  0.11162049858E+03  0.11250030570E+02  0.13984865960E+03  0.00000000000E+00 0. -1.
          1    1    1    2  502    0  0.15517502439E+02  0.17717397805E+02  0.16245629162E+04  0.16247336298E+04  0.00000000000E+00 0. -1.
         22    1    3    3    0    0 -0.28465799562E+02 -0.41340354294E+02  0.26386781019E+03  0.26859923286E+03  0.00000000000E+00 0. -1.
         22    1    3    3    0    0 -0.70549898669E+02 -0.87997542092E+02  0.10782606903E+03  0.15603626751E+03  0.00000000000E+00 0. -1.
</event>
<event>
 7    1  0.3110367E-005  0.1168173E+03  0.7818608E-02  0.1270467E+00
          2   -1    0    0  502    0  0.00000000000E+00  0.00000000000E+00  0.18854552145E+04  0.18854552145E+04  0.00000000000E+00 0. -1.
          1   -1    0    0  501    0 -0.00000000000E+00 -0.00000000000E+00 -0.13154027659E+03  0.13154027659E+03  0.00000000000E+00 0. -1.
         25    2    1    2    0    0  0.11375825888E+03  0.10575930191E+03  0.59311778302E+03  0.62573123319E+03  0.12499960101E+03 0.  0.
          2    1    1    2  501    0  0.47610454278E+00 -0.94060736069E+02 -0.92967402489E+02  0.13225198173E+03  0.00000000000E+00 0. -1.
          1    1    1    2  502    0 -0.11423436343E+03 -0.11698565843E+02  0.12537645574E+04  0.12590122762E+04  0.00000000000E+00 0. -1.
         22    1    3    3    0    0  0.70719055760E+01 -0.27596166351E+02  0.92262181458E+02  0.96560190416E+02  0.00000000000E+00 0. -1.
         22    1    3    3    0    0  0.10668635331E+03  0.13335546826E+03  0.50085560156E+03  0.52917104277E+03  0.00000000000E+00 0. -1.
</event>
<event>
 7    1  0.3110367E-005  0.1603832E+03  0.7818608E-02  0.1371404E+00
          2   -1    0    0  502    0  0.00000000000E+00  0.00000000000E+00  0.38409702218E+04  0.38409702218E+04  0.00000000000E+00 0. -1.
          1   -1    0    0  501    0 -0.00000000000E+00 -0.00000000000E+00 -0.35372224801E+02  0.35372224801E+02  0.00000000000E+00 0. -1.
         25    2    1    2    0    0  0.72661780512E+02 -0.14666715497E+03  0.35507926553E+04  0.35567605250E+04  0.12500385159E+03 0.  0.
          2    1    1    2  501    0 -0.23783181132E+02  0.14403029567E+02 -0.62962467813E+00  0.27811569404E+02  0.00000000000E+00 0. -1.
          1    1    1    2  502    0 -0.48878599380E+02  0.13226412540E+03  0.25543496637E+03  0.29177035214E+03  0.00000000000E+00 0. -1.
         22    1    3    3    0    0  0.10073723635E+03 -0.69036620428E+02  0.19201782999E+04  0.19240578861E+04  0.00000000000E+00 0.  1.
         22    1    3    3    0    0 -0.28075455837E+02 -0.77630534540E+02  0.16306143554E+04  0.16327026389E+04  0.00000000000E+00 0.  1.
</event>
<event>
 7    1  0.3110367E-005  0.4094952E+03  0.7818608E-02  0.1150251E+00
          2   -1    0    0  502    0  0.00000000000E+00  0.00000000000E+00  0.14182818547E+04  0.14182818547E+04  0.00000000000E+00 0. -1.
          1   -1    0    0  501    0 -0.00000000000E+00 -0.00000000000E+00 -0.52281845413E+03  0.52281845413E+03  0.00000000000E+00 0. -1.
         25    2    1    2    0    0  0.15750987875E+03  0.29438564660E+03  0.77234613325E+03  0.85065564580E+03  0.12499682939E+03 0.  0.
          2    1    1    2  501    0 -0.24295115460E+03 -0.34049801330E+03 -0.38779208545E+03  0.57039184963E+03  0.00000000000E+00 0. -1.
          1    1    1    2  502    0  0.85441275847E+02  0.46112366701E+02  0.51090935274E+03  0.52005281337E+03  0.00000000000E+00 0. -1.
         22    1    3    3    0    0  0.16701861486E+03  0.22440747249E+03  0.67247306481E+03  0.72833642935E+03  0.00000000000E+00 0.  1.
         22    1    3    3    0    0 -0.95087361149E+01  0.69978174104E+02  0.99873068438E+02  0.12231921645E+03  0.00000000000E+00 0.  1.
</event>
<event>
 7    1  0.3110367E-005  0.1599046E+03  0.7818608E-02  0.1239675E+00
          2   -1    0    0  502    0  0.00000000000E+00  0.00000000000E+00  0.53611249626E+03  0.53611249626E+03  0.00000000000E+00 0. -1.
          1   -1    0    0  501    0 -0.00000000000E+00 -0.00000000000E+00 -0.27181789481E+04  0.27181789481E+04  0.00000000000E+00 0. -1.
         25    2    1    2    0    0  0.63039348197E+02  0.69092660598E+02 -0.69766272530E+03  0.71491668945E+03  0.12499935761E+03 0.  0.
          2    1    1    2  501    0  0.90866607247E+02 -0.20862785959E+02 -0.19984481833E+04  0.20006216878E+04  0.00000000000E+00 0. -1.
          1    1    1    2  502    0 -0.15390595544E+03 -0.48229874639E+02  0.51404445672E+03  0.53875306720E+03  0.00000000000E+00 0. -1.
         22    1    3    3    0    0  0.68497730978E+01 -0.32734694783E+02 -0.85578281787E+02  0.91881020606E+02  0.00000000000E+00 0. -1.
         22    1    3    3    0    0  0.56189575100E+02  0.10182735538E+03 -0.61208444352E+03  0.62303566884E+03  0.00000000000E+00 0. -1.
</event>
<event>
 7    1  0.3110367E-005  0.1947700E+03  0.7818608E-02  0.1235802E+00
          2   -1    0    0  502    0  0.00000000000E+00  0.00000000000E+00  0.17067059081E+03  0.17067059081E+03  0.00000000000E+00 0. -1.
          1   -1    0    0  501    0 -0.00000000000E+00 -0.00000000000E+00 -0.72116515168E+03  0.72116515168E+03  0.00000000000E+00 0. -1.
         25    2    1    2    0    0  0.13903105618E+03  0.12516196398E+03  0.10420495849E+02  0.22523050321E+03  0.12500016412E+03 0.  0.
          2    1    1    2  501    0  0.67264185576E+02 -0.42608620171E+02 -0.35447004951E+03  0.36330287801E+03  0.00000000000E+00 0. -1.
          1    1    1    2  502    0 -0.20629524176E+03 -0.82553343809E+02 -0.20644500721E+03  0.30330236127E+03  0.00000000000E+00 0. -1.
         22    1    3    3    0    0  0.10562759512E+03  0.12330887657E+03  0.53258930353E+02  0.17087650966E+03  0.00000000000E+00 0. -1.
         22    1    3    3    0    0  0.33403461062E+02  0.18530874141E+01 -0.42838434504E+02  0.54353993549E+02  0.00000000000E+00 0. -1.
</event>
<event>
 7    1  0.3110367E-005  0.2862514E+03  0.7818608E-02  0.1103267E+00
          2   -1    0    0  502    0  0.00000000000E+00  0.00000000000E+00  0.60673484530E+03  0.60673484530E+03  0.00000000000E+00 0. -1.
          1   -1    0    0  501    0 -0.00000000000E+00 -0.00000000000E+00 -0.44702666309E+03  0.44702666309E+03  0.00000000000E+00 0. -1.
         25    2    1    2    0    0 -0.72954300943E+02 -0.16484562218E+03 -0.23799800967E+02  0.22065760223E+03  0.12500775063E+03 0.  0.
          2    1    1    2  501    0 -0.24677292613E+03  0.14506191540E+03 -0.18806960830E+03  0.34250549475E+03  0.00000000000E+00 0. -1.
          1    1    1    2  502    0  0.31972722708E+03  0.19783706785E+02  0.37157759147E+03  0.49059841140E+03  0.00000000000E+00 0. -1.
         22    1    3    3    0    0 -0.36217905806E+02  0.46934639073E+01 -0.29716378830E+02  0.47083207996E+02  0.00000000000E+00 0. -1.
         22    1    3    3    0    0 -0.36736395138E+02 -0.16953908609E+03  0.59165778630E+01  0.17357439423E+03  0.00000000000E+00 0. -1.
</event>
<event>
 7    1  0.3110367E-005  0.1048133E+03  0.7818608E-02  0.1346043E+00
          2   -1    0    0  502    0  0.00000000000E+00  0.00000000000E+00  0.42304072672E+03  0.42304072672E+03  0.00000000000E+00 0. -1.
          1   -1    0    0  501    0 -0.00000000000E+00 -0.00000000000E+00 -0.16956711971E+04  0.16956711971E+04  0.00000000000E+00 0. -1.
         25    2    1    2    0    0  0.48991592889E+02  0.66282444646E+02 -0.25224899026E+03  0.29334049724E+03  0.12500222234E+03 0.  0.
          2    1    1    2  501    0  0.47384718709E+02 -0.23004816049E+02 -0.14154455291E+04  0.14164252818E+04  0.00000000000E+00 0. -1.
          1    1    1    2  502    0 -0.96376311598E+02 -0.43277628597E+02  0.39506404895E+03  0.40894614480E+03  0.00000000000E+00 0. -1.
         22    1    3    3    0    0 -0.19732298915E+02  0.67127284123E+02 -0.71832825420E+02  0.10027657105E+03  0.00000000000E+00 0. -1.
         22    1    3    3    0    0  0.68723891803E+02 -0.84483947710E+00 -0.18041616484E+03  0.19306392618E+03  0.00000000000E+00 0. -1.
</event>
<event>
 7    1  0.3110367E-005  0.3020935E+03  0.7818608E-02  0.1191297E+00
          2   -1    0    0  502    0  0.00000000000E+00  0.00000000000E+00  0.77640500227E+03  0.77640500227E+03  0.00000000000E+00 0. -1.
          1   -1    0    0  501    0 -0.00000000000E+00 -0.00000000000E+00 -0.12693818794E+04  0.12693818794E+04  0.00000000000E+00 0. -1.
         25    2    1    2    0    0 -0.16593550980E+03  0.26626687188E+03 -0.91292418603E+03  0.97339003178E+03  0.12499977624E+03 0.  0.
          2    1    1    2  501    0  0.20725128644E+03 -0.19504049044E+03 -0.26120082567E+03  0.38628973579E+03  0.00000000000E+00 0. -1.
          1    1    1    2  502    0 -0.41315776643E+02 -0.71226381444E+02  0.68114813456E+03  0.68610711411E+03  0.00000000000E+00 0. -1.
         22    1    3    3    0    0 -0.85788633671E+02  0.22543025657E+03 -0.74233664220E+03  0.78053967266E+03  0.00000000000E+00 0. -1.
         22    1    3    3    0    0 -0.80146876127E+02  0.40836615308E+02 -0.17058754384E+03  0.19285035913E+03  0.00000000000E+00 0. -1.
</event>
<event>
 7    1  0.3110367E-005  0.3143497E+03  0.7818608E-02  0.1258962E+00
          2   -1    0    0  502    0  0.00000000000E+00  0.00000000000E+00  0.24370910866E+04  0.24370910866E+04  0.00000000000E+00 0. -1.
          1   -1    0    0  501    0 -0.00000000000E+00 -0.00000000000E+00 -0.17263299640E+04  0.17263299640E+04  0.00000000000E+00 0. -1.
         25    2    1    2    0    0  0.32745380321E+03  0.98164280884E+02 -0.40754681783E+03  0.54642828262E+03  0.12500895987E+03 0.  0.
          2    1    1    2  501    0 -0.20449126838E+02 -0.33332790035E+02 -0.12386366269E+04  0.12392537816E+04  0.00000000000E+00 0. -1.
          1    1    1    2  502    0 -0.30700467638E+03 -0.64831490849E+02  0.23569445674E+04  0.23777389864E+04  0.00000000000E+00 0. -1.
         22    1    3    3    0    0  0.31969598715E+03  0.67000011320E+02 -0.33915916246E+03  0.47087520979E+03  0.00000000000E+00 0. -1.
         22    1    3    3    0    0  0.77578160677E+01  0.31164269565E+02 -0.68387655370E+02  0.75553072833E+02  0.00000000000E+00 0. -1.
</event>
<event>
 7    1  0.3110367E-005  0.2205746E+03  0.7818608E-02  0.1213755E+00
          2   -1    0    0  502    0  0.00000000000E+00  0.00000000000E+00  0.19380862233E+04  0.19380862233E+04  0.00000000000E+00 0. -1.
          1   -1    0    0  501    0 -0.00000000000E+00 -0.00000000000E+00 -0.63424935976E+02  0.63424935976E+02  0.00000000000E+00 0. -1.
         25    2    1    2    0    0 -0.14328004795E+03 -0.23972253309E+03  0.11020655645E+04  0.11437523527E+04  0.12499948255E+03 0.  0.
          2    1    1    2  501    0  0.66090336632E+02  0.19651804430E+03  0.23692950042E+03  0.31483783525E+03  0.00000000000E+00 0. -1.
          1    1    1    2  502    0  0.77189711320E+02  0.43204488783E+02  0.53566622240E+03  0.54292097142E+03  0.00000000000E+00 0. -1.
         22    1    3    3    0    0 -0.69595958268E+02 -0.98197703516E+02  0.25741593983E+03  0.28416430540E+03  0.00000000000E+00 0. -1.
         22    1    3    3    0    0 -0.73684089684E+02 -0.14152482957E+03  0.84464962471E+03  0.85958804726E+03  0.00000000000E+00 0. -1.
</event>
<event>
 7    1  0.3110367E-005  0.1498632E+03  0.7818608E-02  0.1216610E+00
          2   -1    0    0  502    0  0.00000000000E+00  0.00000000000E+00  0.47637974538E+03  0.47637974538E+03  0.00000000000E+00 0. -1.
          1   -1    0    0  501    0 -0.00000000000E+00 -0.00000000000E+00 -0.32461853395E+04  0.32461853395E+04  0.00000000000E+00 0. -1.
         25    2    1    2    0    0  0.95428923179E+02  0.22264280498E+03 -0.34646310437E+02  0.27477685284E+03  0.12500181615E+03 0.  0.
          2    1    1    2  501    0  0.98995529380E+01 -0.12593261152E+03 -0.30757787849E+04  0.30783716731E+04  0.00000000000E+00 0. -1.
          1    1    1    2  502    0 -0.10532847612E+03 -0.96710193462E+02  0.34061950125E+03  0.36941655895E+03  0.00000000000E+00 0. -1.
         22    1    3    3    0    0  0.40056258803E+01  0.16379718920E+03 -0.19504792912E+02  0.16500303384E+03  0.00000000000E+00 0. -1.
         22    1    3    3    0    0  0.91423297299E+02  0.58845615778E+02 -0.15141517525E+02  0.10977381900E+03  0.00000000000E+00 0. -1.
</event>
<event>
 7    1  0.3110367E-005  0.4123789E+03  0.7818608E-02  0.1056287E+00
          2   -1    0    0  502    0  0.00000000000E+00  0.00000000000E+00  0.80047214206E+03  0.80047214206E+03  0.00000000000E+00 0. -1.
          1   -1    0    0  501    0 -0.00000000000E+00 -0.00000000000E+00 -0.67417043931E+03  0.67417043931E+03  0.00000000000E+00 0. -1.
         25    2    1    2    0    0 -0.11210923848E+03 -0.56301808126E+03 -0.18238039672E+03  0.61517983342E+03  0.12500310857E+03 0.  0.
          2    1    1    2  501    0 -0.16162417820E+03  0.28148990656E+03 -0.49049398732E+02  0.32827547272E+03  0.00000000000E+00 0. -1.
          1    1    1    2  502    0  0.27373341668E+03  0.28152817470E+03  0.35773149821E+03  0.53118727523E+03  0.00000000000E+00 0. -1.
         22    1    3    3    0    0 -0.12026656046E+03 -0.39339398391E+03 -0.16934479023E+03  0.44486012422E+03  0.00000000000E+00 0. -1.
         22    1    3    3    0    0  0.81573219861E+01 -0.16962409735E+03 -0.13035606495E+02  0.17031970920E+03  0.00000000000E+00 0. -1.
</event>
<event>
 7    1  0.3110367E-005  0.8177944E+03  0.7818608E-02  0.1094122E+00
          2   -1    0    0  502    0  0.00000000000E+00  0.00000000000E+00  0.15359254264E+04  0.15359254264E+04  0.00000000000E+00 0. -1.
          1   -1    0    0  501    0 -0.00000000000E+00 -0.00000000000E+00 -0.24566967880E+04  0.24566967880E+04  0.00000000000E+00 0. -1.
         25    2    1    2    0    0  0.37181969501E+03  0.73779320618E+03 -0.84237492309E+03  0.11865118751E+04  0.12500487207E+03 0.  0.
          2    1    1    2  501    0 -0.27799213460E+03 -0.76557926670E+03 -0.13251910770E+04  0.15554814788E+04  0.00000000000E+00 0. -1.
          1    1    1    2  502    0 -0.93827560416E+02  0.27786060517E+02  0.12467946384E+04  0.12506288604E+04  0.00000000000E+00 0. -1.
         22    1    3    3    0    0  0.14304272006E+03  0.16255552480E+03 -0.21872199753E+03  0.30777399274E+03  0.00000000000E+00 0. -1.
         22    1    3    3    0    0  0.22877697496E+03  0.57523768139E+03 -0.62365292556E+03  0.87873788237E+03  0.00000000000E+00 0. -1.
</event>
<event>
 7    1  0.3110367E-005  0.3382100E+03  0.7818608E-02  0.1192046E+00
          2   -1    0    0  502    0  0.00000000000E+00  0.00000000000E+00  0.19637595374E+04  0.19637595374E+04  0.00000000000E+00 0. -1.
          1   -1    0    0  501    0 -0.00000000000E+00 -0.00000000000E+00 -0.35461726352E+03  0.35461726352E+03  0.00000000000E+00 0. -1.
         25    2    1    2    0    0 -0.17388672163E+03 -0.31824508861E+03  0.40827350406E+03  0.56020397922E+03  0.12499886332E+03 0.  0.
          2    1    1    2  501    0 -0.39036433186E+02  0.61620680216E+02 -0.25467792761E+03  0.26491847455E+03  0.00000000000E+00 0. -1.
          1    1    1    2  502    0  0.21292315482E+03  0.25662440840E+03  0.14555466974E+04  0.14932543471E+04  0.00000000000E+00 0. -1.
         22    1    3    3    0    0 -0.10343810412E+03 -0.92942701040E+02  0.21028992282E+03  0.25211037008E+03  0.00000000000E+00 0.  1.
         22    1    3    3    0    0 -0.70448617513E+02 -0.22530238757E+03  0.19798358123E+03  0.30809360914E+03  0.00000000000E+00 0.  1.
</event>
<event>
 7    1  0.3110367E-005  0.5880473E+03  0.7818608E-02  0.1204113E+00
          2   -1    0    0  502    0  0.00000000000E+00  0.00000000000E+00  0.25580516875E+04  0.25580516875E+04  0.00000000000E+00 0. -1.
          1   -1    0    0  501    0 -0.00000000000E+00 -0.00000000000E+00 -0.94325984063E+03  0.94325984063E+03  0.00000000000E+00 0. -1.
         25    2    1    2    0    0  0.54998228406E+03 -0.92112032963E+02  0.18940233740E+04  0.19783610698E+04  0.12499136613E+03 0.  0.
          2    1    1    2  501    0 -0.58428330987E+03  0.78823568480E+02 -0.80393941504E+03  0.99695472525E+03  0.00000000000E+00 0. -1.
          1    1    1    2  502    0  0.34301025814E+02  0.13288464483E+02  0.52470788782E+03  0.52599573306E+03  0.00000000000E+00 0. -1.
         22    1    3    3    0    0  0.30847274887E+03  0.11183729923E+02  0.10443204654E+04  0.10889838139E+04  0.00000000000E+00 0. -1.
         22    1    3    3    0    0  0.24150953518E+03 -0.10329576289E+03  0.84970290867E+03  0.88937725585E+03  0.00000000000E+00 0. -1.
</event>
<event>
 7    1  0.3110367E-005  0.4571493E+03  0.7818608E-02  0.1034041E+00
          2   -1    0    0  502    0  0.00000000000E+00  0.00000000000E+00  0.54995546113E+03  0.54995546113E+03  0.00000000000E+00 0. -1.
          1   -1    0    0  501    0 -0.00000000000E+00 -0.00000000000E+00 -0.17460793083E+04  0.17460793083E+04  0.00000000000E+00 0. -1.
         25    2    1    2    0    0 -0.40610261302E+03 -0.25454016636E+03 -0.86172046244E+03  0.99392971141E+03  0.12499634894E+03 0.  0.
          2    1    1    2  501    0  0.98399816368E+02  0.51537980120E+03 -0.61673864670E+03  0.80973169734E+03  0.00000000000E+00 0. -1.
          1    1    1    2  502    0  0.30770279665E+03 -0.26083963485E+03  0.28233526196E+03  0.49237336069E+03  0.00000000000E+00 0. -1.
         22    1    3    3    0    0 -0.36796751554E+03 -0.20712186085E+03 -0.81246990402E+03  0.91564562068E+03  0.00000000000E+00 0.  1.
         22    1    3    3    0    0 -0.38135097479E+02 -0.47418305503E+02 -0.49250558417E+02  0.78284090727E+02  0.00000000000E+00 0.  1.
</event>
<event>
 7    1  0.3110367E-005  0.8479447E+02  0.7818608E-02  0.1341138E+00
          2   -1    0    0  502    0  0.00000000000E+00  0.00000000000E+00  0.16532277950E+04  0.16532277950E+04  0.00000000000E+00 0. -1.
          1   -1    0    0  501    0 -0.00000000000E+00 -0.00000000000E+00 -0.13067448179E+04  0.13067448179E+04  0.00000000000E+00 0. -1.
         25    2    1    2    0    0  0.67957316684E+02 -0.60790539705E+02  0.16925046977E+03  0.22931360756E+03  0.12500128994E+03 0.  0.
          2    1    1    2  501    0  0.17514687929E+02  0.65622598471E+02 -0.12745480990E+04  0.12763565123E+04  0.00000000000E+00 0. -1.
          1    1    1    2  502    0 -0.85472004613E+02 -0.48320587665E+01  0.14517806063E+04  0.14543024930E+04  0.00000000000E+00 0. -1.
         22    1    3    3    0    0 -0.35851975620E+02 -0.22148114611E+02  0.63213306653E+02  0.75972529737E+02  0.00000000000E+00 0. -1.
         22    1    3    3    0    0  0.10380929230E+03 -0.38642425094E+02  0.10603716312E+03  0.15334107783E+03  0.00000000000E+00 0. -1.
</event>
<event>
 7    1  0.3110367E-005  0.1392511E+03  0.7818608E-02  0.1247247E+00
          2   -1    0    0  502    0  0.00000000000E+00  0.00000000000E+00  0.71002800187E+03  0.71002800187E+03  0.00000000000E+00 0. -1.
          1   -1    0    0  501    0 -0.00000000000E+00 -0.00000000000E+00 -0.60485090243E+03  0.60485090243E+03  0.00000000000E+00 0. -1.
         25    2    1    2    0    0  0.19292408424E+03 -0.21182884119E+02  0.31090382367E+02  0.23293801834E+03  0.12500036661E+03 0.  0.
          2    1    1    2  501    0 -0.12647053689E+03 -0.52439892387E+02 -0.49022268939E+03  0.50898234174E+03  0.00000000000E+00 0. -1.
          1    1    1    2  502    0 -0.66453547351E+02  0.73622776507E+02  0.56430940646E+03  0.57295854422E+03  0.00000000000E+00 0. -1.
         22    1    3    3    0    0  0.11152591074E+03 -0.53020825545E+02 -0.29030045695E+02  0.12685416927E+03  0.00000000000E+00 0.  1.
         22    1    3    3    0    0  0.81398173493E+02  0.31837941426E+02  0.60120428062E+02  0.10608384907E+03  0.00000000000E+00 0.  1.
</event>
<event>
 7    1  0.3110367E-005  0.5579486E+03  0.7818608E-02  0.1228741E+00
          2   -1    0    0  502    0  0.00000000000E+00  0.00000000000E+00  0.95126363595E+03  0.95126363595E+03  0.00000000000E+00 0. -1.
          1   -1    0    0  501    0 -0.00000000000E+00 -0.00000000000E+00 -0.24838896102E+04  0.24838896102E+04  0.00000000000E+00 0. -1.
         25    2    1    2    0    0 -0.15883601901E+02  0.58286812984E+03 -0.14272626664E+04  0.15468302381E+04  0.12497008062E+03 0.  0.
          2    1    1    2  501    0  0.14048566519E+02 -0.26381693669E+02 -0.90972929843E+03  0.91022016700E+03  0.00000000000E+00 0. -1.
          1    1    1    2  502    0  0.18350353819E+01 -0.55648643618E+03  0.80436599054E+03  0.97810284109E+03  0.00000000000E+00 0. -1.
         22    1    3    3    0    0  0.27887176165E+01  0.57092315928E+03 -0.13982482331E+04  0.15103175667E+04  0.00000000000E+00 0.  1.
         22    1    3    3    0    0 -0.18672319518E+02  0.11944970566E+02 -0.29014433274E+02  0.36512671447E+02  0.00000000000E+00 0.  1.
</event>
<event>
 7    1  0.3110367E-005  0.5302022E+03  0.7818608E-02  0.1140932E+00
          2   -1    0    0  502    0  0.00000000000E+00  0.00000000000E+00  0.45004589060E+03  0.45004589060E+03  0.00000000000E+00 0. -1.
          1   -1    0    0  501    0 -0.00000000000E+00 -0.00000000000E+00 -0.85282017668E+03  0.85282017668E+03  0.00000000000E+00 0. -1.
         25    2    1    2    0    0  0.19288708159E+03  0.51106678889E+03 -0.22044178028E+03  0.60217435249E+03  0.12499873342E+03 0.  0.
          2    1    1    2  501    0  0.62477034689E+02 -0.55867505837E+02 -0.15720457199E+03  0.17815115921E+03  0.00000000000E+00 0. -1.
          1    1    1    2  502    0 -0.25536411628E+03 -0.45519928305E+03 -0.25127933809E+02  0.52254055559E+03  0.00000000000E+00 0. -1.
         22    1    3    3    0    0  0.17096337681E+03  0.43961609224E+03 -0.13923622910E+03  0.49181044343E+03  0.00000000000E+00 0.  1.
         22    1    3    3    0    0  0.21923704779E+02  0.71450696647E+02 -0.81205551175E+02  0.11036390907E+03  0.00000000000E+00 0.  1.
</event>
<event>
 7    1  0.3110367E-005  0.2685357E+03  0.7818608E-02  0.1137953E+00
          2   -1    0    0  502    0  0.00000000000E+00  0.00000000000E+00  0.10154771657E+04  0.10154771657E+04  0.00000000000E+00 0. -1.
          1   -1    0    0  501    0 -0.00000000000E+00 -0.00000000000E+00 -0.17525944340E+04  0.17525944340E+04  0.00000000000E+00 0. -1.
         25    2    1    2    0    0 -0.25099519924E+03  0.30182884198E+03 -0.38891166971E+02  0.41380755404E+03  0.12499971606E+03 0.  0.
          2    1    1    2  501    0  0.88454867547E+02 -0.24699313361E+03 -0.15058958219E+04  0.15285784567E+04  0.00000000000E+00 0. -1.
          1    1    1    2  502    0  0.16254033169E+03 -0.54835708374E+02  0.80766972061E+03  0.82568558903E+03  0.00000000000E+00 0. -1.
         22    1    3    3    0    0 -0.22795005010E+02  0.45901759683E+02  0.36257130659E+02  0.62778685228E+02  0.00000000000E+00 0.  1.
         22    1    3    3    0    0 -0.22820019423E+03  0.25592708230E+03 -0.75148297630E+02  0.35102886881E+03  0.00000000000E+00 0.  1.
</event>
<event>
 7    1  0.3110367E-005  0.5759989E+03  0.7818608E-02  0.1139274E+00
          2   -1    0    0  502    0  0.00000000000E+00  0.00000000000E+00  0.56806791824E+03  0.56806791824E+03  0.00000000000E+00 0. -1.
          1   -1    0    0  501    0 -0.00000000000E+00 -0.00000000000E+00 -0.24706044256E+04  0.24706044256E+04  0.00000000000E+00 0. -1.
         25    2    1    2    0    0 -0.50782762967E+03  0.22214444182E+03 -0.71376908473E+03  0.91231939938E+03  0.12499330254E+03 0.  0.
          2    1    1    2  501    0  0.56460195019E+03 -0.16763270619E+03 -0.16014055787E+04  0.17062754508E+04  0.00000000000E+00 0. -1.
          1    1    1    2  502    0 -0.56774320515E+02 -0.54511735635E+02  0.41263815612E+03  0.42007749365E+03  0.00000000000E+00 0. -1.
         22    1    3    3    0    0 -0.44384358915E+03  0.17990892674E+03 -0.53639530737E+03  0.71908572460E+03  0.00000000000E+00 0.  1.
         22    1    3    3    0    0 -0.63984040520E+02  0.42235515080E+02 -0.17737377736E+03  0.19323367478E+03  0.00000000000E+00 0.  1.
</event>
<event>
 7    1  0.3110367E-005  0.1971603E+03  0.7818608E-02  0.1215442E+00
          2   -1    0    0  502    0  0.00000000000E+00  0.00000000000E+00  0.67756310760E+03  0.67756310760E+03  0.00000000000E+00 0. -1.
          1   -1    0    0  501    0 -0.00000000000E+00 -0.00000000000E+00 -0.21216704557E+03  0.21216704557E+03  0.00000000000E+00 0. -1.
         25    2    1    2    0    0  0.19306088717E+03 -0.19644207985E+03  0.17371653863E+03  0.34880433857E+03  0.12500013568E+03 0.  0.
          2    1    1    2  501    0 -0.74988070865E+02  0.61859645681E+02 -0.81608263547E+02  0.12692413173E+03  0.00000000000E+00 0. -1.
          1    1    1    2  502    0 -0.11807281631E+03  0.13458243417E+03  0.37328778695E+03  0.41400168288E+03  0.00000000000E+00 0. -1.
         22    1    3    3    0    0  0.14860404930E+03 -0.12989137341E+03  0.53691450364E+02  0.20454267085E+03  0.00000000000E+00 0. -1.
         22    1    3    3    0    0  0.44456837874E+02 -0.66550706442E+02  0.12002508827E+03  0.14426166773E+03  0.00000000000E+00 0. -1.
</event>
<event>
 7    1  0.3110367E-005  0.2409878E+03  0.7818608E-02  0.1211738E+00
          2   -1    0    0  502    0  0.00000000000E+00  0.00000000000E+00  0.38941626931E+04  0.38941626931E+04  0.00000000000E+00 0. -1.
          1   -1    0    0  501    0 -0.00000000000E+00 -0.00000000000E+00 -0.17817142851E+03  0.17817142851E+03  0.00000000000E+00 0. -1.
         25    2    1    2    0    0 -0.31771309801E+02 -0.28809233833E+03  0.59672211497E+03  0.67505571066E+03  0.12496526906E+03 0.  0.
          2    1    1    2  501    0 -0.29528961051E+02  0.23255225392E+03 -0.39244473378E+02  0.23768180206E+03  0.00000000000E+00 0. -1.
          1    1    1    2  502    0  0.61300270852E+02  0.55540084418E+02  0.31585136230E+04  0.31595966089E+04  0.00000000000E+00 0. -1.
         22    1    3    3    0    0 -0.36491336362E+02 -0.15081647186E+03  0.44052753691E+03  0.46705645974E+03  0.00000000000E+00 0.  1.
         22    1    3    3    0    0  0.47200265618E+01 -0.13727586647E+03  0.15619457806E+03  0.20799925092E+03  0.00000000000E+00 0.  1.
</event>
<event>
 7    1  0.3110367E-005  0.2311154E+03  0.7818608E-02  0.1264985E+00
          2   -1    0    0  502    0  0.00000000000E+00  0.00000000000E+00  0.92031343422E+03  0.92031343422E+03  0.00000000000E+00 0. -1.
          1   -1    0    0  501    0 -0.00000000000E+00 -0.00000000000E+00 -0.67931935581E+03  0.67931935581E+03  0.00000000000E+00 0. -1.
         25    2    1    2    0    0  0.12255990427E+03  0.20773547561E+03  0.15509678940E+02  0.27210565656E+03  0.12500392086E+03 0.  0.
          2    1    1    2  501    0 -0.73504644843E+02 -0.21811688869E+03 -0.52611328623E+03  0.57425873950E+03  0.00000000000E+00 0. -1.
          1    1    1    2  502    0 -0.49055259427E+02  0.10381413079E+02  0.75159768569E+03  0.75326839397E+03  0.00000000000E+00 0. -1.
         22    1    3    3    0    0  0.10579198134E+03  0.18364856927E+03 -0.33902394169E+02  0.21463483557E+03  0.00000000000E+00 0. -1.
         22    1    3    3    0    0  0.16767922929E+02  0.24086906339E+02  0.49412073109E+02  0.57470820990E+02  0.00000000000E+00 0. -1.
</event>
<event>
 7    1  0.3110367E-005  0.4045799E+03  0.7818608E-02  0.1149636E+00
          2   -1    0    0  502    0  0.00000000000E+00  0.00000000000E+00  0.77395214589E+03  0.77395214589E+03  0.00000000000E+00 0. -1.
          1   -1    0    0  501    0 -0.00000000000E+00 -0.00000000000E+00 -0.10021671619E+04  0.10021671619E+04  0.00000000000E+00 0. -1.
         25    2    1    2    0    0  0.25114806594E+03  0.30795688340E+03  0.55204330665E+03  0.69158447242E+03  0.12499790808E+03 0.  0.
          2    1    1    2  501    0 -0.17214981085E+03 -0.36760726305E+03 -0.86417568714E+03  0.95476189465E+03  0.00000000000E+00 0. -1.
          1    1    1    2  502    0 -0.78998255091E+02  0.59650379649E+02  0.83917364441E+02  0.12977294076E+03  0.00000000000E+00 0. -1.
         22    1    3    3    0    0 -0.93758416199E+01  0.46659318317E+02  0.63776154706E+02  0.79576355163E+02  0.00000000000E+00 0. -1.
         22    1    3    3    0    0  0.26052390756E+03  0.26129756508E+03  0.48826715194E+03  0.61200811726E+03  0.00000000000E+00 0. -1.
</event>
<event>
 7    1  0.3110367E-005  0.3187542E+03  0.7818608E-02  0.1117518E+00
          2   -1    0    0  502    0  0.00000000000E+00  0.00000000000E+00  0.74856246375E+03  0.74856246375E+03  0.00000000000E+00 0. -1.
          1   -1    0    0  501    0 -0.00000000000E+00 -0.00000000000E+00 -0.79528902368E+03  0.79528902368E+03  0.00000000000E+00 0. -1.
         25    2    1    2    0    0  0.97953130932E+02 -0.20906803408E+03  0.34639023147E+02  0.26481961671E+03  0.12500123493E+03 0.  0.
          2    1    1    2  501    0  0.19666104090E+02  0.35306793285E+03 -0.61749424806E+03  0.71157773099E+03  0.00000000000E+00 0. -1.
          1    1    1    2  502    0 -0.11761923502E+03 -0.14399989877E+03  0.53612866498E+03  0.56745413974E+03  0.00000000000E+00 0. -1.
         22    1    3    3    0    0  0.42890628884E+02 -0.17377634856E+02 -0.30016245166E+02  0.55159434488E+02  0.00000000000E+00 0. -1.
         22    1    3    3    0    0  0.55062502049E+02 -0.19169039923E+03  0.64655268313E+02  0.20966018222E+03  0.00000000000E+00 0. -1.
</event>
<event>
 7    1  0.3110367E-005  0.6124199E+03  0.7818608E-02  0.1080152E+00
          2   -1    0    0  502    0  0.00000000000E+00  0.00000000000E+00  0.12960519061E+04  0.12960519061E+04  0.00000000000E+00 0. -1.
          1   -1    0    0  501    0 -0.00000000000E+00 -0.00000000000E+00 -0.61194063974E+03  0.61194063974E+03  0.00000000000E+00 0. -1.
         25    2    1    2    0    0 -0.59466970410E+03  0.40491747231E+03 -0.93065099112E+02  0.73612138532E+03  0.12499345943E+03 0.  0.
          2    1    1    2  501    0  0.15696876871E+03 -0.10636448025E+02 -0.42026705876E+02  0.16284524060E+03  0.00000000000E+00 0. -1.
          1    1    1    2  502    0  0.43770093539E+03 -0.39428102428E+03  0.81920307131E+03  0.10090259199E+04  0.00000000000E+00 0. -1.
         22    1    3    3    0    0 -0.28079756981E+03  0.18777058999E+03  0.19045482312E+02  0.33833090322E+03  0.00000000000E+00 0.  1.
         22    1    3    3    0    0 -0.31387213430E+03  0.21714688231E+03 -0.11211058142E+03  0.39779048210E+03  0.00000000000E+00 0.  1.
</event>
<event>
 7    1  0.3110367E-005  0.3461275E+03  0.7818608E-02  0.1091364E+00
          2   -1    0    0  502    0  0.00000000000E+00  0.00000000000E+00  0.20278532251E+04  0.20278532251E+04  0.00000000000E+00 0. -1.
          1   -1    0    0  501    0 -0.00000000000E+00 -0.00000000000E+00 -0.60161056558E+03  0.60161056558E+03  0.00000000000E+00 0. -1.
         25    2    1    2    0    0 -0.77437475641E+02 -0.21222697067E+03  0.15621505553E+04  0.15833434319E+04  0.12500086470E+03 0.  0.
          2    1    1    2  501    0 -0.31019555360E+03 -0.15356756557E+03 -0.33065005342E+03  0.47867915820E+03  0.00000000000E+00 0. -1.
          1    1    1    2  502    0  0.38763302924E+03  0.36579453625E+03  0.19474215756E+03  0.56744120051E+03  0.00000000000E+00 0. -1.
         22    1    3    3    0    0 -0.11810170007E+02 -0.78943281504E+02  0.24120320904E+03  0.25406792372E+03  0.00000000000E+00 0.  1.
         22    1    3    3    0    0 -0.65627305634E+02 -0.13328368917E+03  0.13209473463E+04  0.13292755082E+04  0.00000000000E+00 0.  1.
</event>
<event>
 7    1  0.3110367E-005  0.1180227E+03  0.7818608E-02  0.1379237E+00
          2   -1    0    0  502    0  0.00000000000E+00  0.00000000000E+00  0.92546280661E+03  0.92546280661E+03  0.00000000000E+00 0. -1.
          1   -1    0    0  501    0 -0.00000000000E+00 -0.00000000000E+00 -0.20582638179E+03  0.20582638179E+03  0.00000000000E+00 0. -1.
         25    2    1    2    0    0  0.10310593690E+03  0.92111120241E+02  0.90543062778E+02  0.20721647114E+03  0.12500130798E+03 0.  0.
          2    1    1    2  501    0 -0.10681369678E+01 -0.35413721105E+02 -0.14089748897E+03  0.14528377390E+03  0.00000000000E+00 0. -1.
          1    1    1    2  502    0 -0.10203779993E+03 -0.56697399136E+02  0.76999085101E+03  0.77878894337E+03  0.00000000000E+00 0. -1.
         22    1    3    3    0    0  0.89799161763E+02  0.73456082341E+02  0.12196250269E+03  0.16832865932E+03  0.00000000000E+00 0.  1.
         22    1    3    3    0    0  0.13306775133E+02  0.18655037900E+02 -0.31419439911E+02  0.38887811816E+02  0.00000000000E+00 0.  1.
</event>
<event>
 7    1  0.3110367E-005  0.1259463E+03  0.7818608E-02  0.1275604E+00
          2   -1    0    0  502    0  0.00000000000E+00  0.00000000000E+00  0.22381936825E+03  0.22381936825E+03  0.00000000000E+00 0. -1.
          1   -1    0    0  501    0 -0.00000000000E+00 -0.00000000000E+00 -0.21622433900E+04  0.21622433900E+04  0.00000000000E+00 0. -1.
         25    2    1    2    0    0 -0.16250692009E+03 -0.62248052555E+02 -0.25643228897E+03  0.33416613358E+03  0.12500466744E+03 0.  0.
          2    1    1    2  501    0  0.39292104999E+02  0.73151859924E+02 -0.18452234828E+04  0.18470908926E+04  0.00000000000E+00 0. -1.
          1    1    1    2  502    0  0.12321481509E+03 -0.10903807370E+02  0.16323175001E+03  0.20480573206E+03  0.00000000000E+00 0. -1.
         22    1    3    3    0    0 -0.11230022897E+03  0.13923782539E+02 -0.19061079911E+03  0.22167022778E+03  0.00000000000E+00 0. -1.
         22    1    3    3    0    0 -0.50206691121E+02 -0.76171835094E+02 -0.65821489859E+02  0.11249590580E+03  0.00000000000E+00 0. -1.
</event>
<event>
 7    1  0.3110367E-005  0.5483943E+03  0.7818608E-02  0.1123205E+00
          2   -1    0    0  502    0  0.00000000000E+00  0.00000000000E+00  0.20968428374E+04  0.20968428374E+04  0.00000000000E+00 0. -1.
          1   -1    0    0  501    0 -0.00000000000E+00 -0.00000000000E+00 -0.36434278071E+03  0.36434278071E+03  0.00000000000E+00 0. -1.
         25    2    1    2    0    0 -0.41242598994E+03  0.45749619574E+03  0.95087986132E+03  0.11398222679E+04  0.12499730181E+03 0.  0.
          2    1    1    2  501    0  0.39252660656E+03 -0.35882490461E+03 -0.14784839532E+01  0.53182199554E+03  0.00000000000E+00 0. -1.
          1    1    1    2  502    0  0.19899383376E+02 -0.98671291128E+02  0.78309867929E+03  0.78954135463E+03  0.00000000000E+00 0. -1.
         22    1    3    3    0    0 -0.22962939892E+03  0.31163301729E+03  0.50455377562E+03  0.63593970690E+03  0.00000000000E+00 0. -1.
         22    1    3    3    0    0 -0.18279659102E+03  0.14586317845E+03  0.44632608569E+03  0.50388256100E+03  0.00000000000E+00 0. -1.
</event>
<event>
 7    1  0.3110367E-005  0.1508909E+03  0.7818608E-02  0.1246123E+00
          2   -1    0    0  502    0  0.00000000000E+00  0.00000000000E+00  0.38481334959E+03  0.38481334959E+03  0.00000000000E+00 0. -1.
          1   -1    0    0  501    0 -0.00000000000E+00 -0.00000000000E+00 -0.17195221757E+04  0.17195221757E+04  0.00000000000E+00 0. -1.
         25    2    1    2    0    0 -0.20757521559E+03  0.38328435481E+02 -0.17435918428E+03  0.30096952875E+03  0.12499997199E+03 0.  0.
          2    1    1    2  501    0  0.14512969811E+03  0.30002458967E+02 -0.14713947885E+04  0.14788392071E+04  0.00000000000E+00 0. -1.
          1    1    1    2  502    0  0.62445517481E+02 -0.68330894448E+02  0.31104514668E+03  0.32452678944E+03  0.00000000000E+00 0. -1.
         22    1    3    3    0    0 -0.21854815916E+03  0.15330883287E+02 -0.16300458907E+03  0.27307293881E+03  0.00000000000E+00 0. -1.
         22    1    3    3    0    0  0.10972943569E+02  0.22997552194E+02 -0.11354595212E+02  0.27896589933E+02  0.00000000000E+00 0. -1.
</event>
<event>
 7    1  0.3110367E-005  0.2499334E+03  0.7818608E-02  0.1114063E+00
          2   -1    0    0  502    0  0.00000000000E+00  0.00000000000E+00  0.11644406733E+04  0.11644406733E+04  0.00000000000E+00 0. -1.
          1   -1    0    0  501    0 -0.00000000000E+00 -0.00000000000E+00 -0.26443358124E+03  0.26443358124E+03  0.00000000000E+00 0. -1.
         25    2    1    2    0    0 -0.28560571295E+03 -0.12787330449E+03  0.32490974630E+03  0.46808815787E+03  0.12497189694E+03 0.  0.
          2    1    1    2  501    0  0.58619133744E+02  0.24296193218E+03 -0.76396605214E+02  0.26134870311E+03  0.00000000000E+00 0. -1.
          1    1    1    2  502    0  0.22698657920E+03 -0.11508862769E+03  0.65149395093E+03  0.69943739353E+03  0.00000000000E+00 0. -1.
         22    1    3    3    0    0 -0.56859113446E+02 -0.43008194395E+02  0.13627160254E+02  0.72583490296E+02  0.00000000000E+00 0. -1.
         22    1    3    3    0    0 -0.22874659950E+03 -0.84865110099E+02  0.31128258605E+03  0.39550466757E+03  0.00000000000E+00 0. -1.
</event>
<event>
 7    1  0.3110367E-005  0.2697456E+03  0.7818608E-02  0.1177933E+00
          2   -1    0    0  502    0  0.00000000000E+00  0.00000000000E+00  0.35530308111E+04  0.35530308111E+04  0.00000000000E+00 0. -1.
          1   -1    0    0  501    0 -0.00000000000E+00 -0.00000000000E+00 -0.36242056369E+03  0.36242056369E+03  0.00000000000E+00 0. -1.
         25    2    1    2    0    0  0.13368909676E+03  0.21571496513E+03  0.25475324544E+03  0.38069809937E+03  0.12500442404E+03 0.  0.
          2    1    1    2  501    0 -0.43233976573E+02 -0.27293769440E+03 -0.23459806645E+03  0.36249195100E+03  0.00000000000E+00 0. -1.
          1    1    1    2  502    0 -0.90455120184E+02  0.57222729271E+02  0.31704550684E+04  0.31722613244E+04  0.00000000000E+00 0. -1.
         22    1    3    3    0    0  0.88974819856E+02  0.40380584472E+02  0.12185270476E+03  0.15618960218E+03  0.00000000000E+00 0.  1.
         22    1    3    3    0    0  0.44714276900E+02  0.17533438066E+03  0.13290054068E+03  0.22450849719E+03  0.00000000000E+00 0.  1.
</event>
<event>
 7    1  0.3110367E-005  0.1245751E+03  0.7818608E-02  0.1373410E+00
          2   -1    0    0  502    0  0.00000000000E+00  0.00000000000E+00  0.31988431706E+03  0.31988431706E+03  0.00000000000E+00 0. -1.
          1   -1    0    0  501    0 -0.00000000000E+00 -0.00000000000E+00 -0.45570590717E+03  0.45570590717E+03  0.00000000000E+00 0. -1.
         25    2    1    2    0    0  0.44255986238E+02  0.12007489016E+03  0.17028611891E+03  0.24697944254E+03  0.12499964472E+03 0.  0.
          2    1    1    2  501    0 -0.92997056627E+01 -0.12428692736E+03 -0.40494409441E+03  0.42369026946E+03  0.00000000000E+00 0. -1.
          1    1    1    2  502    0 -0.34956280575E+02  0.42120371994E+01  0.98836385383E+02  0.10492051222E+03  0.00000000000E+00 0. -1.
         22    1    3    3    0    0  0.62823872689E+02  0.99635824262E+02  0.57898724429E+02  0.13124937618E+03  0.00000000000E+00 0. -1.
         22    1    3    3    0    0 -0.18567886451E+02  0.20439065896E+02  0.11238739449E+03  0.11573006637E+03  0.00000000000E+00 0. -1.
</event>
<event>
 7    1  0.3110367E-005  0.2454596E+03  0.7818608E-02  0.1198450E+00
          2   -1    0    0  502    0  0.00000000000E+00  0.00000000000E+00  0.33884302013E+03  0.33884302013E+03  0.00000000000E+00 0. -1.
          1   -1    0    0  501    0 -0.00000000000E+00 -0.00000000000E+00 -0.75630769943E+03  0.75630769943E+03  0.00000000000E+00 0. -1.
         25    2    1    2    0    0 -0.24816782939E+02  0.25224402913E+03 -0.25149383325E+03  0.37830687045E+03  0.12499606841E+03 0.  0.
          2    1    1    2  501    0  0.92495312254E+02 -0.14991505772E+02 -0.37929015270E+03  0.39069316345E+03  0.00000000000E+00 0. -1.
          1    1    1    2  502    0 -0.67678529315E+02 -0.23725252336E+03  0.21331930665E+03  0.32615068566E+03  0.00000000000E+00 0. -1.
         22    1    3    3    0    0 -0.65592209816E+01  0.18776933787E+03 -0.10041529687E+03  0.21303422136E+03  0.00000000000E+00 0. -1.
         22    1    3    3    0    0 -0.18257561957E+02  0.64474691258E+02 -0.15107853639E+03  0.16527264909E+03  0.00000000000E+00 0. -1.
</event>
<event>
 7    1  0.3110367E-005  0.2601803E+02  0.7818608E-02  0.1671688E+00
          2   -1    0    0  502    0  0.00000000000E+00  0.00000000000E+00  0.21462788998E+03  0.21462788998E+03  0.00000000000E+00 0. -1.
          1   -1    0    0  501    0 -0.00000000000E+00 -0.00000000000E+00 -0.87329476285E+03  0.87329476285E+03  0.00000000000E+00 0. -1.
         25    2    1    2    0    0  0.80829524602E+00 -0.68724003122E+01 -0.35820365419E+03  0.37945021228E+03  0.12499888998E+03 0.  0.
          2    1    1    2  501    0  0.17480910982E+02  0.20221422180E+02 -0.50348392929E+03  0.50419297418E+03  0.00000000000E+00 0. -1.
          1    1    1    2  502    0 -0.18289206228E+02 -0.13349021867E+02  0.20302071061E+03  0.20427946638E+03  0.00000000000E+00 0. -1.
         22    1    3    3    0    0  0.10042386337E+02 -0.60393397009E+02 -0.11527242713E+03  0.13052181573E+03  0.00000000000E+00 0.  1.
         22    1    3    3    0    0 -0.92340910915E+01  0.53520996697E+02 -0.24293122706E+03  0.24892839654E+03  0.00000000000E+00 0.  1.
</event>
<event>
 7    1  0.3110367E-005  0.7954711E+02  0.7818608E-02  0.1355797E+00
          2   -1    0    0  502    0  0.00000000000E+00  0.00000000000E+00  0.57224574427E+03  0.57224574427E+03  0.00000000000E+00 0. -1.
          1   -1    0    0  501    0 -0.00000000000E+00 -0.00000000000E+00 -0.87715573838E+03  0.87715573838E+03  0.00000000000E+00 0. -1.
         25    2    1    2    0    0  0.48877153266E+02  0.59953182587E+02  0.25484410910E+03  0.29419982710E+03  0.12499863244E+03 0.  0.
          2    1    1    2  501    0  0.36913974105E+02 -0.52122567454E+02 -0.85002278283E+03  0.85241899020E+03  0.00000000000E+00 0. -1.
          1    1    1    2  502    0 -0.85791127371E+02 -0.78306151334E+01  0.29026867962E+03  0.30278266535E+03  0.00000000000E+00 0. -1.
         22    1    3    3    0    0  0.37166653107E+02 -0.30330777689E+02  0.46394718395E+02  0.66736692107E+02  0.00000000000E+00 0. -1.
         22    1    3    3    0    0  0.11710500159E+02  0.90283960276E+02  0.20844939070E+03  0.22746313500E+03  0.00000000000E+00 0. -1.
</event>
<event>
 7    1  0.3110367E-005  0.3596448E+03  0.7818608E-02  0.1137248E+00
          2   -1    0    0  502    0  0.00000000000E+00  0.00000000000E+00  0.12174187933E+04  0.12174187933E+04  0.00000000000E+00 0. -1.
          1   -1    0    0  501    0 -0.00000000000E+00 -0.00000000000E+00 -0.42022036418E+03  0.42022036418E+03  0.00000000000E+00 0. -1.
         25    2    1    2    0    0  0.36697488253E+02  0.41551491484E+03  0.45723705569E+03  0.63141885733E+03  0.12499879276E+03 0.  0.
          2    1    1    2  501    0  0.71442291974E+02 -0.34484571293E+03 -0.23077539155E+03  0.42104613542E+03  0.00000000000E+00 0. -1.
          1    1    1    2  502    0 -0.10813978023E+03 -0.70669201914E+02  0.57073676500E+03  0.58517416475E+03  0.00000000000E+00 0. -1.
         22    1    3    3    0    0  0.82179129829E+02  0.22483578139E+03  0.25596508772E+03  0.35046064558E+03  0.00000000000E+00 0.  1.
         22    1    3    3    0    0 -0.45481641576E+02  0.19067913346E+03  0.20127196797E+03  0.28095821175E+03  0.00000000000E+00 0.  1.
</event>
<event>
 7    1  0.3110367E-005  0.8041389E+03  0.7818608E-02  0.9854881E-01
          2   -1    0    0  502    0  0.00000000000E+00  0.00000000000E+00  0.10144468843E+04  0.10144468843E+04  0.00000000000E+00 0. -1.
          1   -1    0    0  501    0 -0.00000000000E+00 -0.00000000000E+00 -0.12482628614E+04  0.12482628614E+04  0.00000000000E+00 0. -1.
         25    2    1    2    0    0 -0.83526173119E+03 -0.40211698024E+03 -0.23595571256E+03  0.96470748260E+03  0.12500081327E+03 0.  0.
          2    1    1    2  501    0  0.56216712099E+02  0.48248373308E+03 -0.13212730193E+03  0.50339695601E+03  0.00000000000E+00 0. -1.
          1    1    1    2  502    0  0.77904501909E+03 -0.80366752840E+02  0.13426703740E+03  0.79460530709E+03  0.00000000000E+00 0. -1.
         22    1    3    3    0    0 -0.42878698839E+03 -0.26822728196E+03 -0.15654951390E+03  0.52944490412E+03  0.00000000000E+00 0. -1.
         22    1    3    3    0    0 -0.40647474280E+03 -0.13388969827E+03 -0.79406198655E+02  0.43526257848E+03  0.00000000000E+00 0. -1.
</event>
<event>
 7    1  0.3110367E-005  0.1898161E+03  0.7818608E-02  0.1200513E+00
          2   -1    0    0  502    0  0.00000000000E+00  0.00000000000E+00  0.16141071086E+03  0.16141071086E+03  0.00000000000E+00 0. -1.
          1   -1    0    0  501    0 -0.00000000000E+00 -0.00000000000E+00 -0.19096260378E+04  0.19096260378E+04  0.00000000000E+00 0. -1.
         25    2    1    2    0    0 -0.21466275771E+02 -0.21685236150E+03 -0.22085603363E+03  0.33449627344E+03  0.12499848667E+03 0.  0.
          2    1    1    2  501    0 -0.96398238738E+02  0.68890164226E+02 -0.15422424246E+04  0.15467870478E+04  0.00000000000E+00 0. -1.
          1    1    1    2  502    0  0.11786451451E+03  0.14796219727E+03  0.14883131296E+02  0.18975342737E+03  0.00000000000E+00 0. -1.
         22    1    3    3    0    0 -0.55641962695E+01  0.11845371172E+02  0.36894204228E+01  0.13597239477E+02  0.00000000000E+00 0.  1.
         22    1    3    3    0    0 -0.15902079501E+02 -0.22869773267E+03 -0.22454545406E+03  0.32089903396E+03  0.00000000000E+00 0.  1.
</event>
<event>
 7    1  0.3110367E-005  0.1516232E+03  0.7818608E-02  0.1313365E+00
          2   -1    0    0  502    0  0.00000000000E+00  0.00000000000E+00  0.53203005780E+02  0.53203005780E+02  0.00000000000E+00 0. -1.
          1   -1    0    0  501    0 -0.00000000000E+00 -0.00000000000E+00 -0.22033087836E+04  0.22033087836E+04  0.00000000000E+00 0. -1.
         25    2    1    2    0    0  0.10472635152E+03 -0.11886192161E+03 -0.25546081735E+03  0.32554672458E+03  0.12499870230E+03 0.  0.
          2    1    1    2  501    0 -0.45477550739E+02 -0.16989469828E+02 -0.16038004927E+04  0.16045350947E+04  0.00000000000E+00 0. -1.
          1    1    1    2  502    0 -0.59248800779E+02  0.13585139143E+03 -0.29084446772E+03  0.32642997006E+03  0.00000000000E+00 0. -1.
         22    1    3    3    0    0  0.97637887435E+01 -0.10543448317E+03 -0.13432268179E+03  0.17103901500E+03  0.00000000000E+00 0. -1.
         22    1    3    3    0    0  0.94962562774E+02 -0.13427438440E+02 -0.12113813556E+03  0.15450770958E+03  0.00000000000E+00 0. -1.
</event>
<event>
 7    1  0.3110367E-005  0.1409375E+03  0.7818608E-02  0.1219339E+00
          2   -1    0    0  502    0  0.00000000000E+00  0.00000000000E+00  0.93599344804E+03  0.93599344804E+03  0.00000000000E+00 0. -1.
          1   -1    0    0  501    0 -0.00000000000E+00 -0.00000000000E+00 -0.66239089872E+03  0.66239089872E+03  0.00000000000E+00 0. -1.
         25    2    1    2    0    0 -0.14487000361E+01  0.16348198611E+03 -0.25124678118E+02  0.20732783852E+03  0.12500049864E+03 0.  0.
          2    1    1    2  501    0  0.11075929688E+03 -0.92172227717E+02 -0.53147278371E+03  0.55066020487E+03  0.00000000000E+00 0. -1.
          1    1    1    2  502    0 -0.10931059684E+03 -0.71309758390E+02  0.83020001114E+03  0.84039630337E+03  0.00000000000E+00 0. -1.
         22    1    3    3    0    0 -0.51885323195E+02  0.50910382171E+02 -0.40183178717E+02  0.83058061786E+02  0.00000000000E+00 0. -1.
         22    1    3    3    0    0  0.50436623159E+02  0.11257160394E+03  0.15058500599E+02  0.12426977673E+03  0.00000000000E+00 0. -1.
</event>
<event>
 7    1  0.3110367E-005  0.6962153E+03  0.7818608E-02  0.1160060E+00
          2   -1    0    0  502    0  0.00000000000E+00  0.00000000000E+00  0.49466506325E+03  0.49466506325E+03  0.00000000000E+00 0. -1.
          1   -1    0    0  501    0 -0.00000000000E+00 -0.00000000000E+00 -0.17333095410E+04  0.17333095410E+04  0.00000000000E+00 0. -1.
         25    2    1    2    0    0 -0.49027881307E+03  0.51131888724E+03 -0.87009346008E+02  0.72458129281E+03  0.12500841807E+03 0.  0.
          2    1    1    2  501    0  0.50741970161E+02  0.39383937148E+01 -0.67097241619E+03  0.67289987500E+03  0.00000000000E+00 0. -1.
          1    1    1    2  502    0  0.43953684291E+03 -0.51525728096E+03 -0.48066271557E+03  0.83049343646E+03  0.00000000000E+00 0. -1.
         22    1    3    3    0    0 -0.26979163733E+03  0.34638534456E+03 -0.12097453762E+02  0.43922281690E+03  0.00000000000E+00 0. -1.
         22    1    3    3    0    0 -0.22048717575E+03  0.16493354268E+03 -0.74911892246E+02  0.28535847591E+03  0.00000000000E+00 0. -1.
</event>
<event>
 7    1  0.3110367E-005  0.1210424E+03  0.7818608E-02  0.1414205E+00
          2   -1    0    0  502    0  0.00000000000E+00  0.00000000000E+00  0.15686412924E+04  0.15686412924E+04  0.00000000000E+00 0. -1.
          1   -1    0    0  501    0 -0.00000000000E+00 -0.00000000000E+00 -0.12518114342E+04  0.12518114342E+04  0.00000000000E+00 0. -1.
         25    2    1    2    0    0  0.99850288498E+02 -0.43369927448E+02  0.33590826806E+02  0.16912676551E+03  0.12499795378E+03 0.  0.
          2    1    1    2  501    0 -0.11993975212E+00 -0.26154796851E+02 -0.11813802378E+04  0.11816697314E+04  0.00000000000E+00 0. -1.
          1    1    1    2  502    0 -0.99730348746E+02  0.69524724298E+02  0.14646192692E+04  0.14696562297E+04  0.00000000000E+00 0. -1.
         22    1    3    3    0    0  0.55804541262E+02 -0.75942972049E+02  0.56352265752E+02  0.10980464327E+03  0.00000000000E+00 0.  1.
         22    1    3    3    0    0  0.44045747236E+02  0.32573044601E+02 -0.22761438947E+02  0.59322122240E+02  0.00000000000E+00 0.  1.
</event>
<event>
 7    1  0.3110367E-005  0.9288090E+02  0.7818608E-02  0.1398535E+00
          2   -1    0    0  502    0  0.00000000000E+00  0.00000000000E+00  0.11161640231E+04  0.11161640231E+04  0.00000000000E+00 0. -1.
          1   -1    0    0  501    0 -0.00000000000E+00 -0.00000000000E+00 -0.11106946303E+03  0.11106946303E+03  0.00000000000E+00 0. -1.
         25    2    1    2    0    0  0.10870309164E+03  0.70336864048E+02  0.11918172643E+03  0.21585275285E+03  0.12499796167E+03 0.  0.
          2    1    1    2  501    0 -0.30062354017E+02 -0.24121593046E+02 -0.54390933293E+02  0.66663108273E+02  0.00000000000E+00 0. -1.
          1    1    1    2  502    0 -0.78640737626E+02 -0.46215271002E+02  0.94030376692E+03  0.94471762499E+03  0.00000000000E+00 0. -1.
         22    1    3    3    0    0  0.63313361151E+02  0.90664910464E+02  0.31389588503E+02  0.11495222467E+03  0.00000000000E+00 0. -1.
         22    1    3    3    0    0  0.45389730492E+02 -0.20328046416E+02  0.87792137929E+02  0.10090052818E+03  0.00000000000E+00 0. -1.
</event>
<event>
 7    1  0.3110367E-005  0.4403383E+03  0.7818608E-02  0.1160450E+00
          2   -1    0    0  502    0  0.00000000000E+00  0.00000000000E+00  0.27985173077E+04  0.27985173077E+04  0.00000000000E+00 0. -1.
          1   -1    0    0  501    0 -0.00000000000E+00 -0.00000000000E+00 -0.57712344184E+03  0.57712344184E+03  0.00000000000E+00 0. -1.
         25    2    1    2    0    0 -0.45028418714E+03  0.23846180560E+03  0.34906590541E+03  0.63015129682E+03  0.12499507451E+03 0.  0.
          2    1    1    2  501    0  0.75555451507E+02 -0.26610918477E+02 -0.41263161112E+03  0.42033512075E+03  0.00000000000E+00 0. -1.
          1    1    1    2  502    0  0.37472873563E+03 -0.21185088712E+03  0.22849595716E+04  0.23251543319E+04  0.00000000000E+00 0. -1.
         22    1    3    3    0    0 -0.39234261245E+03  0.19343244936E+03  0.34418457731E+03  0.55660745708E+03  0.00000000000E+00 0. -1.
         22    1    3    3    0    0 -0.57941574691E+02  0.45029356237E+02  0.48813280902E+01  0.73543839747E+02  0.00000000000E+00 0. -1.
</event>
<event>
 7    1  0.3110367E-005  0.1239313E+03  0.7818608E-02  0.1271073E+00
          2   -1    0    0  502    0  0.00000000000E+00  0.00000000000E+00  0.18791976794E+03  0.18791976794E+03  0.00000000000E+00 0. -1.
          1   -1    0    0  501    0 -0.00000000000E+00 -0.00000000000E+00 -0.66833979312E+03  0.66833979312E+03  0.00000000000E+00 0. -1.
         25    2    1    2    0    0  0.25850255838E-01  0.73467155622E+02 -0.11143441759E+03  0.18286680302E+03  0.12500085839E+03 0.  0.
          2    1    1    2  501    0  0.75941936652E+02 -0.11817126261E+03 -0.49783798179E+03  0.51727582697E+03  0.00000000000E+00 0. -1.
          1    1    1    2  502    0 -0.75967786908E+02  0.44704106985E+02  0.12885237420E+03  0.15611693107E+03  0.00000000000E+00 0. -1.
         22    1    3    3    0    0 -0.46981341315E+01  0.15297282933E+02  0.27698758014E+02  0.31989068836E+02  0.00000000000E+00 0.  1.
         22    1    3    3    0    0  0.47239843873E+01  0.58169872689E+02 -0.13913317561E+03  0.15087773418E+03  0.00000000000E+00 0.  1.
</event>
<event>
 7    1  0.3110367E-005  0.2334112E+03  0.7818608E-02  0.1236460E+00
          2   -1    0    0  502    0  0.00000000000E+00  0.00000000000E+00  0.32075865266E+04  0.32075865266E+04  0.00000000000E+00 0. -1.
          1   -1    0    0  501    0 -0.00000000000E+00 -0.00000000000E+00 -0.90973389708E+02  0.90973389708E+02  0.00000000000E+00 0. -1.
         25    2    1    2    0    0  0.28464509151E+02  0.26714764071E+03  0.31732144832E+03  0.43415944007E+03  0.12499371030E+03 0.  0.
          2    1    1    2  501    0 -0.13528333715E+02 -0.20286333839E+03  0.28960875350E+03  0.35384993991E+03  0.00000000000E+00 0. -1.
          1    1    1    2  502    0 -0.14936175436E+02 -0.64284302325E+02  0.25096829350E+04  0.25105505363E+04  0.00000000000E+00 0. -1.
         22    1    3    3    0    0  0.45404698634E+02  0.14428895790E+03  0.92235427369E+02  0.17716733359E+03  0.00000000000E+00 0.  1.
         22    1    3    3    0    0 -0.16940189482E+02  0.12285868281E+03  0.22508602095E+03  0.25699210647E+03  0.00000000000E+00 0.  1.
</event>
<event>
 7    1  0.3110367E-005  0.3349206E+03  0.7818608E-02  0.1213784E+00
          2   -1    0    0  502    0  0.00000000000E+00  0.00000000000E+00  0.28947481790E+04  0.28947481790E+04  0.00000000000E+00 0. -1.
          1   -1    0    0  501    0 -0.00000000000E+00 -0.00000000000E+00 -0.27328886912E+03  0.27328886912E+03  0.00000000000E+00 0. -1.
         25    2    1    2    0    0  0.33267513713E+03 -0.12380939408E+03  0.79083794860E+03  0.87581469218E+03  0.12500080466E+03 0.  0.
          2    1    1    2  501    0 -0.32596987412E+03  0.65957501519E+02 -0.11032881557E+03  0.35039862783E+03  0.00000000000E+00 0. -1.
          1    1    1    2  502    0 -0.67052630045E+01  0.57851892565E+02  0.19409501769E+04  0.19418237281E+04  0.00000000000E+00 0. -1.
         22    1    3    3    0    0  0.85445784040E+02 -0.59188429449E+02  0.12466675150E+03  0.16231466699E+03  0.00000000000E+00 0.  1.
         22    1    3    3    0    0  0.24722935309E+03 -0.64620964635E+02  0.66617119710E+03  0.71350002519E+03  0.00000000000E+00 0.  1.
</event>
<event>
 7    1  0.3110367E-005  0.1134305E+03  0.7818608E-02  0.1416316E+00
          2   -1    0    0  502    0  0.00000000000E+00  0.00000000000E+00  0.12315227307E+04  0.12315227307E+04  0.00000000000E+00 0. -1.
          1   -1    0    0  501    0 -0.00000000000E+00 -0.00000000000E+00 -0.19700353710E+03  0.19700353710E+03  0.00000000000E+00 0. -1.
         25    2    1    2    0    0 -0.95857488944E+02 -0.70870425327E+02 -0.13595444173E+03  0.21981804872E+03  0.12500035579E+03 0.  0.
          2    1    1    2  501    0 -0.83447918075E+01  0.26158844425E+02 -0.48883969347E+01  0.27889372824E+02  0.00000000000E+00 0. -1.
          1    1    1    2  502    0  0.10420228075E+03  0.44711580903E+02  0.11753620322E+04  0.11808188462E+04  0.00000000000E+00 0. -1.
         22    1    3    3    0    0 -0.94753136137E+02 -0.73057090671E+02 -0.43467306338E+02  0.12729847613E+03  0.00000000000E+00 0. -1.
         22    1    3    3    0    0 -0.11043528071E+01  0.21866653433E+01 -0.92487135388E+02  0.92519572592E+02  0.00000000000E+00 0. -1.
</event>
<event>
 7    1  0.3110367E-005  0.5870791E+02  0.7818608E-02  0.1505197E+00
          2   -1    0    0  502    0  0.00000000000E+00  0.00000000000E+00  0.12310882235E+03  0.12310882235E+03  0.00000000000E+00 0. -1.
          1   -1    0    0  501    0 -0.00000000000E+00 -0.00000000000E+00 -0.17066137955E+04  0.17066137955E+04  0.00000000000E+00 0. -1.
         25    2    1    2    0    0 -0.16268052429E+02  0.60355896771E+02 -0.77268478689E+03  0.78522206094E+03  0.12499768514E+03 0.  0.
          2    1    1    2  501    0  0.38966110428E+02 -0.44272439904E+02 -0.92505200086E+03  0.92693020827E+03  0.00000000000E+00 0. -1.
          1    1    1    2  502    0 -0.22698057999E+02 -0.16083456867E+02  0.11423181458E+03  0.11757034866E+03  0.00000000000E+00 0. -1.
         22    1    3    3    0    0 -0.19201923662E+02  0.83216444980E+00 -0.63379277155E+03  0.63408412978E+03  0.00000000000E+00 0. -1.
         22    1    3    3    0    0  0.29338712327E+01  0.59523732321E+02 -0.13889201534E+03  0.15113793116E+03  0.00000000000E+00 0. -1.
</event>
<event>
 7    1  0.3110367E-005  0.2489878E+03  0.7818608E-02  0.1235273E+00
          2   -1    0    0  502    0  0.00000000000E+00  0.00000000000E+00  0.24998522445E+03  0.24998522445E+03  0.00000000000E+00 0. -1.
          1   -1    0    0  501    0 -0.00000000000E+00 -0.00000000000E+00 -0.61519353035E+03  0.61519353035E+03  0.00000000000E+00 0. -1.
         25    2    1    2    0    0  0.25669400907E+03  0.70712775184E+02 -0.14765877181E+03  0.32912068864E+03  0.12500081573E+03 0.  0.
          2    1    1    2  501    0 -0.12846856938E+02 -0.61291465499E+02 -0.27774248810E+03  0.28471490156E+03  0.00000000000E+00 0. -1.
          1    1    1    2  502    0 -0.24384715213E+03 -0.94213096850E+01  0.60192954008E+02  0.25134316460E+03  0.00000000000E+00 0. -1.
         22    1    3    3    0    0  0.89409636065E+02  0.87677874972E+02 -0.74857951726E+02  0.14589450201E+03  0.00000000000E+00 0. -1.
         22    1    3    3    0    0  0.16728437300E+03 -0.16965099788E+02 -0.72800820085E+02  0.18322618663E+03  0.00000000000E+00 0. -1.
</event>
<event>
 7    1  0.3110367E-005  0.2339146E+03  0.7818608E-02  0.1204100E+00
          2   -1    0    0  502    0  0.00000000000E+00  0.00000000000E+00  0.26224615481E+04  0.26224615481E+04  0.00000000000E+00 0. -1.
          1   -1    0    0  501    0 -0.00000000000E+00 -0.00000000000E+00 -0.38881914486E+03  0.38881914486E+03  0.00000000000E+00 0. -1.
         25    2    1    2    0    0 -0.11195951037E+03  0.30173929013E+03  0.24559906236E+04  0.24801404244E+04  0.12500020215E+03 0.  0.
          2    1    1    2  501    0  0.61284244404E+02 -0.22437021634E+03 -0.32067941517E+03  0.39614775010E+03  0.00000000000E+00 0. -1.
          1    1    1    2  502    0  0.50675265966E+02 -0.77369073795E+02  0.98331194846E+02  0.13499251846E+03  0.00000000000E+00 0. -1.
         22    1    3    3    0    0 -0.10070602812E+03  0.11841122119E+03  0.89722894767E+03  0.91059469905E+03  0.00000000000E+00 0. -1.
         22    1    3    3    0    0 -0.11253482251E+02  0.18332806894E+03  0.15587616759E+04  0.15695457253E+04  0.00000000000E+00 0. -1.
</event>
<event>
 7    1  0.3110367E-005  0.6643847E+03  0.7818608E-02  0.1235829E+00
          2   -1    0    0  502    0  0.00000000000E+00  0.00000000000E+00  0.27166684144E+03  0.27166684144E+03  0.00000000000E+00 0. -1.
          1   -1    0    0  501    0 -0.00000000000E+00 -0.00000000000E+00 -0.19993284712E+04  0.19993284712E+04  0.00000000000E+00 0. -1.
         25    2    1    2    0    0  0.51796285468E+03 -0.42318860894E+03 -0.51543051221E+03  0.85362031486E+03  0.12499964582E+03 0.  0.
          2    1    1    2  501    0 -0.21763565440E+02 -0.84211531381E+01 -0.25461725858E+03  0.25568440892E+03  0.00000000000E+00 0. -1.
          1    1    1    2  502    0 -0.49619928924E+03  0.43160976207E+03 -0.95761385896E+03  0.11616905889E+04  0.00000000000E+00 0. -1.
         22    1    3    3    0    0 -0.20791744477E+01  0.43437498520E+01  0.12581968114E+01  0.49773676152E+01  0.00000000000E+00 0. -1.
         22    1    3    3    0    0  0.52004202913E+03 -0.42753235879E+03 -0.51668870902E+03  0.84864294724E+03  0.00000000000E+00 0. -1.
</event>
<event>
 7    1  0.3110367E-005  0.8856215E+02  0.7818608E-02  0.1317078E+00
          2   -1    0    0  502    0  0.00000000000E+00  0.00000000000E+00  0.20867944234E+04  0.20867944234E+04  0.00000000000E+00 0. -1.
          1   -1    0    0  501    0 -0.00000000000E+00 -0.00000000000E+00 -0.33540390510E+02  0.33540390510E+02  0.00000000000E+00 0. -1.
         25    2    1    2    0    0  0.19418719548E+01  0.10694114794E+03  0.11019755463E+04  0.11141884840E+04  0.12500277252E+03 0.  0.
          2    1    1    2  501    0  0.65721027724E+02 -0.46284318826E+02  0.38984861877E+02  0.89338183941E+02  0.00000000000E+00 0. -1.
          1    1    1    2  502    0 -0.67662899678E+02 -0.60656829115E+02  0.91229362465E+03  0.91680814595E+03  0.00000000000E+00 0. -1.
         22    1    3    3    0    0  0.18842991371E+02  0.18735530175E+02  0.37661610339E+02  0.46092030852E+02  0.00000000000E+00 0. -1.
         22    1    3    3    0    0 -0.16901119416E+02  0.88205617765E+02  0.10643139360E+04  0.10680964531E+04  0.00000000000E+00 0. -1.
</event>
<event>
 7    1  0.3110367E-005  0.6204793E+02  0.7818608E-02  0.1430830E+00
          2   -1    0    0  502    0  0.00000000000E+00  0.00000000000E+00  0.12074554464E+04  0.12074554464E+04  0.00000000000E+00 0. -1.
          1   -1    0    0  501    0 -0.00000000000E+00 -0.00000000000E+00 -0.78305783865E+03  0.78305783865E+03  0.00000000000E+00 0. -1.
         25    2    1    2    0    0 -0.42413305105E+02 -0.43534724292E+02 -0.36360407320E+02  0.14366334421E+03  0.12499166604E+03 0.  0.
          2    1    1    2  501    0 -0.19715334920E+02  0.40362063387E+02 -0.69147814227E+03  0.69293564768E+03  0.00000000000E+00 0. -1.
          1    1    1    2  502    0  0.62128640025E+02  0.31726609052E+01  0.11522361573E+04  0.11539142931E+04  0.00000000000E+00 0. -1.
         22    1    3    3    0    0 -0.83808193178E+02 -0.13081153041E+02 -0.86088640302E+01  0.85258679022E+02  0.00000000000E+00 0.  1.
         22    1    3    3    0    0  0.41394888074E+02 -0.30453571251E+02 -0.27751543290E+02  0.58404665187E+02  0.00000000000E+00 0.  1.
</event>
<event>
 7    1  0.3110367E-005  0.5596345E+02  0.7818608E-02  0.1461394E+00
          2   -1    0    0  502    0  0.00000000000E+00  0.00000000000E+00  0.95634368762E+03  0.95634368762E+03  0.00000000000E+00 0. -1.
          1   -1    0    0  501    0 -0.00000000000E+00 -0.00000000000E+00 -0.20827807597E+04  0.20827807597E+04  0.00000000000E+00 0. -1.
         25    2    1    2    0    0  0.93934584789E+02  0.17171216363E+02  0.18874301000E+03  0.24569907081E+03  0.12500221070E+03 0.  0.
          2    1    1    2  501    0 -0.55351407369E+02 -0.77720412788E+01 -0.20533887512E+04  0.20541493487E+04  0.00000000000E+00 0. -1.
          1    1    1    2  502    0 -0.38583177421E+02 -0.93991750837E+01  0.73820866917E+03  0.73927602782E+03  0.00000000000E+00 0. -1.
         22    1    3    3    0    0  0.11501389573E+03 -0.17885709373E+02  0.13971695943E+03  0.18184862816E+03  0.00000000000E+00 0. -1.
         22    1    3    3    0    0 -0.21079310942E+02  0.35056925736E+02  0.49026050569E+02  0.63850442647E+02  0.00000000000E+00 0. -1.
</event>
<event>
 7    1  0.4614420E-005  0.5552147E+02  0.7818608E-02  0.1463165E+00
          2   -1    0    0  502    0  0.00000000000E+00  0.00000000000E+00  0.81694826929E+03  0.81694826929E+03  0.00000000000E+00 0. -1.
          1   -1    0    0  501    0 -0.00000000000E+00 -0.00000000000E+00 -0.17791791412E+04  0.17791791412E+04  0.00000000000E+00 0. -1.
         25    2    1    2    0    0 -0.50694678541E+02  0.44095656151E+02 -0.20809089638E+03  0.25187646555E+03  0.12500222165E+03 0.  0.
          2    1    1    2  501    0  0.38228258252E+02  0.10012956057E+02 -0.15479735061E+04  0.15484778444E+04  0.00000000000E+00 0. -1.
          1    1    1    2  502    0  0.12466420289E+02 -0.54108612209E+02  0.79383353049E+03  0.79577310062E+03  0.00000000000E+00 0. -1.
         22    1    3    3    0    0 -0.65210378102E+01  0.78313766348E+02 -0.80060353938E+02  0.11218391242E+03  0.00000000000E+00 0.  1.
         22    1    3    3    0    0 -0.44173640731E+02 -0.34218110197E+02 -0.12803054244E+03  0.13969255312E+03  0.00000000000E+00 0.  1.
</event>
<event>
 7    1  0.3110367E-005  0.5323648E+02  0.7818608E-02  0.1478317E+00
          2   -1    0    0  502    0  0.00000000000E+00  0.00000000000E+00  0.35436039394E+03  0.35436039394E+03  0.00000000000E+00 0. -1.
          1   -1    0    0  501    0 -0.00000000000E+00 -0.00000000000E+00 -0.58337583640E+03  0.58337583640E+03  0.00000000000E+00 0. -1.
         25    2    1    2    0    0 -0.34275531723E+02 -0.20353607722E+02  0.10546452264E+03  0.16833580586E+03  0.12500038631E+03 0.  0.
          2    1    1    2  501    0 -0.20580627737E+02  0.30722951689E+02 -0.54772335139E+03  0.54897024660E+03  0.00000000000E+00 0. -1.
          1    1    1    2  502    0  0.54856159460E+02 -0.10369343967E+02  0.21324338628E+03  0.22043017787E+03  0.00000000000E+00 0. -1.
         22    1    3    3    0    0 -0.21480448355E+02 -0.70830951114E+02  0.38268456385E+02  0.83324114465E+02  0.00000000000E+00 0.  1.
         22    1    3    3    0    0 -0.12795083368E+02  0.50477343392E+02  0.67196066254E+02  0.85011691398E+02  0.00000000000E+00 0.  1.
</event>
<event>
 7    1  0.3110367E-005  0.7554467E+02  0.7818608E-02  0.1375504E+00
          2   -1    0    0  502    0  0.00000000000E+00  0.00000000000E+00  0.14464793454E+04  0.14464793454E+04  0.00000000000E+00 0. -1.
          1   -1    0    0  501    0 -0.00000000000E+00 -0.00000000000E+00 -0.11807501206E+03  0.11807501206E+03  0.00000000000E+00 0. -1.
         25    2    1    2    0    0  0.87467260973E+02 -0.37964055216E+02 -0.43040104140E+02  0.16299980266E+03  0.12499877549E+03 0.  0.
          2    1    1    2  501    0 -0.59974080504E+02 -0.12046784242E+02  0.50351026203E+02  0.79229042545E+02  0.00000000000E+00 0. -1.
          1    1    1    2  502    0 -0.27493180469E+02  0.50010839457E+02  0.13210934113E+04  0.13223255123E+04  0.00000000000E+00 0. -1.
         22    1    3    3    0    0 -0.97315042281E+01 -0.40338419710E+02  0.21069503587E+02  0.46538309603E+02  0.00000000000E+00 0. -1.
         22    1    3    3    0    0  0.97198765201E+02  0.23743644942E+01 -0.64109607727E+02  0.11646149306E+03  0.00000000000E+00 0. -1.
</event>
<event>
 7    1  0.3110367E-005  0.9818195E+03  0.7818608E-02  0.1099835E+00
          2   -1    0    0  502    0  0.00000000000E+00  0.00000000000E+00  0.15459537255E+04  0.15459537255E+04  0.00000000000E+00 0. -1.
          1   -1    0    0  501    0 -0.00000000000E+00 -0.00000000000E+00 -0.11476422061E+04  0.11476422061E+04  0.00000000000E+00 0. -1.
         25    2    1    2    0    0  0.82227384038E+03 -0.51540223413E+03  0.71696873722E+03  0.12130328917E+04  0.12502357603E+03 0.  0.
          2    1    1    2  501    0 -0.10987199474E+02 -0.74851468965E+02 -0.46105506140E+03  0.46722075147E+03  0.00000000000E+00 0. -1.
          1    1    1    2  502    0 -0.81128664091E+03  0.59025370310E+03  0.14239784362E+03  0.10133422885E+04  0.00000000000E+00 0. -1.
         22    1    3    3    0    0  0.48124539079E+03 -0.30280388216E+03  0.49541798619E+03  0.75413944218E+03  0.00000000000E+00 0. -1.
         22    1    3    3    0    0  0.34102844959E+03 -0.21259835197E+03  0.22155075103E+03  0.45889344948E+03  0.00000000000E+00 0. -1.
</event>
<event>
 7    1  0.3110367E-005  0.2192628E+03  0.7818608E-02  0.1174339E+00
          2   -1    0    0  502    0  0.00000000000E+00  0.00000000000E+00  0.23017081308E+04  0.23017081308E+04  0.00000000000E+00 0. -1.
          1   -1    0    0  501    0 -0.00000000000E+00 -0.00000000000E+00 -0.15070740408E+04  0.15070740408E+04  0.00000000000E+00 0. -1.
         25    2    1    2    0    0 -0.94552199240E+02 -0.18010644926E+02  0.17098008170E+03  0.23264566025E+03  0.12500125273E+03 0.  0.
          2    1    1    2  501    0  0.19537942867E+03  0.11097506645E+03 -0.14654296277E+04  0.14825560968E+04  0.00000000000E+00 0. -1.
          1    1    1    2  502    0 -0.10082722943E+03 -0.92964421529E+02  0.20890836360E+04  0.20935804145E+04  0.00000000000E+00 0. -1.
         22    1    3    3    0    0  0.15671630380E+02  0.18642040134E+02  0.84198521379E+02  0.87649966694E+02  0.00000000000E+00 0. -1.
         22    1    3    3    0    0 -0.11022382962E+03 -0.36652685059E+02  0.86781560326E+02  0.14499569356E+03  0.00000000000E+00 0. -1.
</event>
<event>
 7    1  0.3110367E-005  0.2598864E+03  0.7818608E-02  0.1112167E+00
          2   -1    0    0  502    0  0.00000000000E+00  0.00000000000E+00  0.15718519241E+04  0.15718519241E+04  0.00000000000E+00 0. -1.
          1   -1    0    0  501    0 -0.00000000000E+00 -0.00000000000E+00 -0.32950151887E+03  0.32950151887E+03  0.00000000000E+00 0. -1.
         25    2    1    2    0    0  0.23249806719E+03 -0.21807694567E+03  0.15180384173E+03  0.37454566530E+03  0.12500857390E+03 0.  0.
          2    1    1    2  501    0  0.30843110401E+02  0.24202440952E+03 -0.13102921634E+03  0.27694000757E+03  0.00000000000E+00 0. -1.
          1    1    1    2  502    0 -0.26334117760E+03 -0.23947463848E+02  0.12215757798E+04  0.12498677701E+04  0.00000000000E+00 0. -1.
         22    1    3    3    0    0  0.14585008018E+02  0.11765528106E+02 -0.72938316490E+01  0.20108458186E+02  0.00000000000E+00 0.  1.
         22    1    3    3    0    0  0.21791305918E+03 -0.22984247377E+03  0.15909767338E+03  0.35443720711E+03  0.00000000000E+00 0.  1.
</event>
<event>
 7    1  0.3110367E-005  0.1994693E+03  0.7818608E-02  0.1185706E+00
          2   -1    0    0  502    0  0.00000000000E+00  0.00000000000E+00  0.32344437341E+03  0.32344437341E+03  0.00000000000E+00 0. -1.
          1   -1    0    0  501    0 -0.00000000000E+00 -0.00000000000E+00 -0.57330314787E+03  0.57330314787E+03  0.00000000000E+00 0. -1.
         25    2    1    2    0    0  0.83057782127E+02  0.22433846554E+03 -0.55531576379E+02  0.27555715613E+03  0.12498659138E+03 0.  0.
          2    1    1    2  501    0  0.45685893197E+02 -0.19229104909E+03 -0.35894662225E+03  0.40976301202E+03  0.00000000000E+00 0. -1.
          1    1    1    2  502    0 -0.12874367532E+03 -0.32047416453E+02  0.16461942417E+03  0.21142735313E+03  0.00000000000E+00 0. -1.
         22    1    3    3    0    0  0.65276399800E+02  0.22250721918E+03 -0.16313899676E+02  0.23245776882E+03  0.00000000000E+00 0. -1.
         22    1    3    3    0    0  0.17781382327E+02  0.18312463570E+01 -0.39217676703E+02  0.43099387312E+02  0.00000000000E+00 0. -1.
</event>
<event>
 7    1  0.3110367E-005  0.8853918E+03  0.7818608E-02  0.1120352E+00
          2   -1    0    0  502    0  0.00000000000E+00  0.00000000000E+00  0.15529913447E+04  0.15529913447E+04  0.00000000000E+00 0. -1.
          1   -1    0    0  501    0 -0.00000000000E+00 -0.00000000000E+00 -0.17216801450E+04  0.17216801450E+04  0.00000000000E+00 0. -1.
         25    2    1    2    0    0 -0.79534220167E+03  0.48799735398E+03  0.91522160649E+03  0.13129988132E+04  0.12499863668E+03 0.  0.
          2    1    1    2  501    0  0.76813682888E+03 -0.42940249604E+03 -0.13920229968E+04  0.16468602597E+04  0.00000000000E+00 0. -1.
          1    1    1    2  502    0  0.27205372782E+02 -0.58594857940E+02  0.30811259002E+03  0.31481241687E+03  0.00000000000E+00 0. -1.
         22    1    3    3    0    0 -0.26018959438E+03  0.96910625898E+02  0.29787264241E+03  0.40720806172E+03  0.00000000000E+00 0.  1.
         22    1    3    3    0    0 -0.53515260729E+03  0.39108672808E+03  0.61734896409E+03  0.90579075146E+03  0.00000000000E+00 0.  1.
</event>
<event>
 7    1  0.3110367E-005  0.4367045E+02  0.7818608E-02  0.1520496E+00
          2   -1    0    0  502    0  0.00000000000E+00  0.00000000000E+00  0.80575113138E+03  0.80575113138E+03  0.00000000000E+00 0. -1.
          1   -1    0    0  501    0 -0.00000000000E+00 -0.00000000000E+00 -0.41234712210E+02  0.41234712210E+02  0.00000000000E+00 0. -1.
         25    2    1    2    0    0 -0.59340221162E+02  0.42132486606E+02  0.50564377825E+03  0.52592550753E+03  0.12500240281E+03 0.  0.
          2    1    1    2  501    0  0.24404158454E+02 -0.23280617830E+02 -0.20109743614E+02  0.39267695432E+02  0.00000000000E+00 0. -1.
          1    1    1    2  502    0  0.34936062709E+02 -0.18851868776E+02  0.27898238453E+03  0.28179264063E+03  0.00000000000E+00 0. -1.
         22    1    3    3    0    0  0.80996870555E+01  0.60852737152E+01 -0.37659457540E+01  0.10808229920E+02  0.00000000000E+00 0.  1.
         22    1    3    3    0    0 -0.67439908218E+02  0.36047212891E+02  0.50940972401E+03  0.51511727761E+03  0.00000000000E+00 0.  1.
</event>
<event>
 7    1  0.3110367E-005  0.7270653E+03  0.7818608E-02  0.9830489E-01
          2   -1    0    0  502    0  0.00000000000E+00  0.00000000000E+00  0.21473748276E+04  0.21473748276E+04  0.00000000000E+00 0. -1.
          1   -1    0    0  501    0 -0.00000000000E+00 -0.00000000000E+00 -0.59378249141E+03  0.59378249141E+03  0.00000000000E+00 0. -1.
         25    2    1    2    0    0 -0.41963774874E+03  0.72840914672E+02  0.95625027797E+03  0.10542484662E+04  0.12499438093E+03 0.  0.
          2    1    1    2  501    0  0.67728838512E+03 -0.56892026628E+03  0.22108925351E+02  0.88480428942E+03  0.00000000000E+00 0. -1.
          1    1    1    2  502    0 -0.25765063638E+03  0.49607935160E+03  0.57523313285E+03  0.80210456341E+03  0.00000000000E+00 0. -1.
         22    1    3    3    0    0 -0.39080374466E+03  0.29693869652E+02  0.84945525389E+03  0.93551243770E+03  0.00000000000E+00 0.  1.
         22    1    3    3    0    0 -0.28834004077E+02  0.43147045020E+02  0.10679502408E+03  0.11873602846E+03  0.00000000000E+00 0.  1.
</event>
<event>
 7    1  0.3110367E-005  0.1545746E+03  0.7818608E-02  0.1233278E+00
          2   -1    0    0  502    0  0.00000000000E+00  0.00000000000E+00  0.24556970741E+04  0.24556970741E+04  0.00000000000E+00 0. -1.
          1   -1    0    0  501    0 -0.00000000000E+00 -0.00000000000E+00 -0.53667625598E+02  0.53667625598E+02  0.00000000000E+00 0. -1.
         25    2    1    2    0    0  0.40405941073E+02  0.12197535559E+03  0.21308803281E+03  0.27846336570E+03  0.12499883546E+03 0.  0.
          2    1    1    2  501    0 -0.36614937819E+02 -0.22486351657E+03  0.65466394665E+03  0.69317323794E+03  0.00000000000E+00 0. -1.
          1    1    1    2  502    0 -0.37910032535E+01  0.10288816098E+03  0.15342774691E+04  0.15377280961E+04  0.00000000000E+00 0. -1.
         22    1    3    3    0    0  0.85487075661E+02  0.79050891839E+02  0.14931642796E+03  0.18934750926E+03  0.00000000000E+00 0. -1.
         22    1    3    3    0    0 -0.45081134588E+02  0.42924463751E+02  0.63771604846E+02  0.89115856438E+02  0.00000000000E+00 0. -1.
</event>
<event>
 7    1  0.3110367E-005  0.1807794E+03  0.7818608E-02  0.1333017E+00
          2   -1    0    0  502    0  0.00000000000E+00  0.00000000000E+00  0.12594755102E+04  0.12594755102E+04  0.00000000000E+00 0. -1.
          1   -1    0    0  501    0 -0.00000000000E+00 -0.00000000000E+00 -0.31328322833E+03  0.31328322833E+03  0.00000000000E+00 0. -1.
         25    2    1    2    0    0  0.86670709611E+02 -0.15000910391E+03  0.59767989191E+03  0.63471318636E+03  0.12500013034E+03 0.  0.
          2    1    1    2  501    0 -0.11838966178E+03  0.13724608555E+03 -0.26638347225E+03  0.32219986701E+03  0.00000000000E+00 0. -1.
          1    1    1    2  502    0  0.31718952165E+02  0.12763018360E+02  0.61489586225E+03  0.61584568520E+03  0.00000000000E+00 0. -1.
         22    1    3    3    0    0  0.30631209523E+02 -0.15391763257E+03  0.41988143951E+03  0.44825141590E+03  0.00000000000E+00 0. -1.
         22    1    3    3    0    0  0.56039500088E+02  0.39085286614E+01  0.17779845241E+03  0.18646177046E+03  0.00000000000E+00 0. -1.
</event>
<event>
 7    1  0.3110367E-005  0.2741608E+03  0.7818608E-02  0.1283806E+00
          2   -1    0    0  502    0  0.00000000000E+00  0.00000000000E+00  0.98978816319E+02  0.98978816319E+02  0.00000000000E+00 0. -1.
          1   -1    0    0  501    0 -0.00000000000E+00 -0.00000000000E+00 -0.13368294281E+04  0.13368294281E+04  0.00000000000E+00 0. -1.
         25    2    1    2    0    0 -0.14445413085E+02 -0.25842911666E+03 -0.23030111792E+03  0.36831699699E+03  0.12499810823E+03 0.  0.
          2    1    1    2  501    0 -0.12888122721E+02  0.28073639913E+03 -0.64930879252E+03  0.70751744681E+03  0.00000000000E+00 0. -1.
          1    1    1    2  502    0  0.27333535806E+02 -0.22307282472E+02 -0.35824070133E+03  0.35997380060E+03  0.00000000000E+00 0. -1.
         22    1    3    3    0    0 -0.63746917761E+02 -0.18249082941E+03 -0.12870150982E+03  0.23222973748E+03  0.00000000000E+00 0.  1.
         22    1    3    3    0    0  0.49301504676E+02 -0.75938287248E+02 -0.10159960810E+03  0.13608725951E+03  0.00000000000E+00 0.  1.
</event>
<event>
 7    1  0.3110367E-005  0.2604530E+03  0.7818608E-02  0.1277811E+00
          2   -1    0    0  502    0  0.00000000000E+00  0.00000000000E+00  0.58962062061E+03  0.58962062061E+03  0.00000000000E+00 0. -1.
          1   -1    0    0  501    0 -0.00000000000E+00 -0.00000000000E+00 -0.28520882985E+03  0.28520882985E+03  0.00000000000E+00 0. -1.
         25    2    1    2    0    0  0.22559513418E+03 -0.17027783445E+03  0.43955157665E+03  0.53732559398E+03  0.12500199978E+03 0.  0.
          2    1    1    2  501    0 -0.18684036575E+03  0.17688967132E+03 -0.14714554051E+03  0.29639684240E+03  0.00000000000E+00 0. -1.
          1    1    1    2  502    0 -0.38754768429E+02 -0.66118368672E+01  0.12005754628E+02  0.41107014084E+02  0.00000000000E+00 0. -1.
         22    1    3    3    0    0  0.18842174184E+02  0.14718789994E+01  0.11212538082E+03  0.11370705774E+03  0.00000000000E+00 0. -1.
         22    1    3    3    0    0  0.20675295999E+03 -0.17174971345E+03  0.32742619582E+03  0.42361853624E+03  0.00000000000E+00 0. -1.
</event>
<event>
 7    1  0.3110367E-005  0.5116014E+03  0.7818608E-02  0.1232447E+00
          2   -1    0    0  502    0  0.00000000000E+00  0.00000000000E+00  0.23196248835E+04  0.23196248835E+04  0.00000000000E+00 0. -1.
          1   -1    0    0  501    0 -0.00000000000E+00 -0.00000000000E+00 -0.13539983738E+03  0.13539983738E+03  0.00000000000E+00 0. -1.
         25    2    1    2    0    0  0.32017868086E+03 -0.38564000405E+03  0.13159496327E+04  0.14137120084E+04  0.12500242598E+03 0.  0.
          2    1    1    2  501    0 -0.35114612673E+03  0.38060432736E+03  0.70330209249E+03  0.87338255628E+03  0.00000000000E+00 0. -1.
          1    1    1    2  502    0  0.30967445867E+02  0.50356766989E+01  0.16497332087E+03  0.16793015614E+03  0.00000000000E+00 0. -1.
         22    1    3    3    0    0  0.57676915413E+02 -0.16097263651E+03  0.44679836900E+03  0.47840108572E+03  0.00000000000E+00 0. -1.
         22    1    3    3    0    0  0.26250176545E+03 -0.22466736754E+03  0.86915126372E+03  0.93531092270E+03  0.00000000000E+00 0. -1.
</event>
<event>
 7    1  0.3110367E-005  0.6786128E+03  0.7818608E-02  0.1203286E+00
          2   -1    0    0  502    0  0.00000000000E+00  0.00000000000E+00  0.14019138888E+04  0.14019138888E+04  0.00000000000E+00 0. -1.
          1   -1    0    0  501    0 -0.00000000000E+00 -0.00000000000E+00 -0.12639683637E+04  0.12639683637E+04  0.00000000000E+00 0. -1.
         25    2    1    2    0    0 -0.39789991436E+03 -0.54061094469E+03  0.69689767895E+03  0.97564116649E+03  0.12499910186E+03 0.  0.
          2    1    1    2  501    0 -0.32146579139E+02  0.98134354237E+00 -0.91376699009E+03  0.91433280470E+03  0.00000000000E+00 0. -1.
          1    1    1    2  502    0  0.43004649350E+03  0.53962960115E+03  0.35481483619E+03  0.77590828130E+03  0.00000000000E+00 0. -1.
         22    1    3    3    0    0 -0.21291520517E+03 -0.20646128307E+03  0.25105621819E+03  0.38857222069E+03  0.00000000000E+00 0.  1.
         22    1    3    3    0    0 -0.18498470919E+03 -0.33414966163E+03  0.44584146075E+03  0.58706894580E+03  0.00000000000E+00 0.  1.
</event>
<event>
 7    1  0.3110367E-005  0.1545960E+03  0.7818608E-02  0.1348165E+00
          2   -1    0    0  502    0  0.00000000000E+00  0.00000000000E+00  0.42585848554E+03  0.42585848554E+03  0.00000000000E+00 0. -1.
          1   -1    0    0  501    0 -0.00000000000E+00 -0.00000000000E+00 -0.98089638411E+02  0.98089638411E+02  0.00000000000E+00 0. -1.
         25    2    1    2    0    0 -0.72668856789E+01 -0.14914690066E+03  0.24710326861E+03  0.31461556777E+03  0.12500129809E+03 0.  0.
          2    1    1    2  501    0  0.42198863714E+02  0.15223797777E+03  0.68819154278E+02  0.17231721322E+03  0.00000000000E+00 0. -1.
          1    1    1    2  502    0 -0.34931978035E+02 -0.30910771165E+01  0.11846424242E+02  0.37015342961E+02  0.00000000000E+00 0. -1.
         22    1    3    3    0    0  0.48895680887E+02 -0.41078078806E+02  0.13385265053E+03  0.14830619752E+03  0.00000000000E+00 0.  1.
         22    1    3    3    0    0 -0.56162566566E+02 -0.10806882185E+03  0.11325061808E+03  0.16630937025E+03  0.00000000000E+00 0.  1.
</event>
<event>
 7    1  0.3110367E-005  0.2376284E+03  0.7818608E-02  0.1122548E+00
          2   -1    0    0  502    0  0.00000000000E+00  0.00000000000E+00  0.13293226273E+04  0.13293226273E+04  0.00000000000E+00 0. -1.
          1   -1    0    0  501    0 -0.00000000000E+00 -0.00000000000E+00 -0.63420851434E+03  0.63420851434E+03  0.00000000000E+00 0. -1.
         25    2    1    2    0    0 -0.65690004200E+02  0.33657436544E+03  0.70554443055E+02  0.37175374922E+03  0.12500176199E+03 0.  0.
          2    1    1    2  501    0  0.19031413296E+03 -0.13649895910E+03 -0.44160529179E+03  0.49986665099E+03  0.00000000000E+00 0. -1.
          1    1    1    2  502    0 -0.12462412876E+03 -0.20007540634E+03  0.10661649617E+04  0.10919107415E+04  0.00000000000E+00 0. -1.
         22    1    3    3    0    0 -0.87168284150E+02  0.33148713707E+03  0.68951131392E+02  0.34962306892E+03  0.00000000000E+00 0. -1.
         22    1    3    3    0    0  0.21478279950E+02  0.50872283721E+01  0.16033116629E+01  0.22130680297E+02  0.00000000000E+00 0. -1.
</event>
<event>
 7    1  0.3110367E-005  0.4139316E+03  0.7818608E-02  0.1138764E+00
          2   -1    0    0  502    0  0.00000000000E+00  0.00000000000E+00  0.22227031246E+03  0.22227031246E+03  0.00000000000E+00 0. -1.
          1   -1    0    0  501    0 -0.00000000000E+00 -0.00000000000E+00 -0.18337019874E+04  0.18337019874E+04  0.00000000000E+00 0. -1.
         25    2    1    2    0    0  0.19048883350E+03 -0.35874440182E+03 -0.58566861595E+03  0.72361365074E+03  0.12500178519E+03 0.  0.
          2    1    1    2  501    0 -0.96814803552E+02 -0.52640587386E+02 -0.87864634842E+03  0.88553009165E+03  0.00000000000E+00 0. -1.
          1    1    1    2  502    0 -0.93674029953E+02  0.41138498921E+03 -0.14711671055E+03  0.44682855745E+03  0.00000000000E+00 0. -1.
         22    1    3    3    0    0  0.52257085974E+02 -0.21910507526E+02 -0.47980145311E+02  0.74249361739E+02  0.00000000000E+00 0. -1.
         22    1    3    3    0    0  0.13823174753E+03 -0.33683389430E+03 -0.53768847064E+03  0.64936428900E+03  0.00000000000E+00 0. -1.
</event>
<event>
 7    1  0.3110367E-005  0.2875382E+03  0.7818608E-02  0.1124021E+00
          2   -1    0    0  502    0  0.00000000000E+00  0.00000000000E+00  0.54575181867E+03  0.54575181867E+03  0.00000000000E+00 0. -1.
          1   -1    0    0  501    0 -0.00000000000E+00 -0.00000000000E+00 -0.60158395863E+03  0.60158395863E+03  0.00000000000E+00 0. -1.
         25    2    1    2    0    0 -0.23068832206E+03  0.21370401415E+03 -0.21235373600E+03  0.39950637433E+03  0.12499890536E+03 0.  0.
          2    1    1    2  501    0 -0.59222177292E+02 -0.18057757105E+03 -0.20744542167E+03  0.28133454893E+03  0.00000000000E+00 0. -1.
          1    1    1    2  502    0  0.28991049935E+03 -0.33126443101E+02  0.36396701771E+03  0.46649485404E+03  0.00000000000E+00 0. -1.
         22    1    3    3    0    0 -0.15334002385E+03  0.19785448032E+03 -0.11877451597E+03  0.27706848240E+03  0.00000000000E+00 0. -1.
         22    1    3    3    0    0 -0.77348298207E+02  0.15849533829E+02 -0.93579220033E+02  0.12243789193E+03  0.00000000000E+00 0. -1.
</event>
<event>
 7    1  0.3110367E-005  0.1722337E+03  0.7818608E-02  0.1235151E+00
          2   -1    0    0  502    0  0.00000000000E+00  0.00000000000E+00  0.18844233478E+03  0.18844233478E+03  0.00000000000E+00 0. -1.
          1   -1    0    0  501    0 -0.00000000000E+00 -0.00000000000E+00 -0.32822286778E+03  0.32822286778E+03  0.00000000000E+00 0. -1.
         25    2    1    2    0    0 -0.20667036023E+03 -0.60479414096E+02 -0.35798598328E+02  0.25154907651E+03  0.12500000369E+03 0.  0.
          2    1    1    2  501    0  0.76910877243E+02  0.47968482877E+02  0.10978541025E+02  0.91306006105E+02  0.00000000000E+00 0. -1.
          1    1    1    2  502    0  0.12975948299E+03  0.12510931220E+02 -0.11496047569E+03  0.17381011995E+03  0.00000000000E+00 0. -1.
         22    1    3    3    0    0 -0.21233166610E+03 -0.46987016317E+02 -0.50846269228E+01  0.21752785928E+03  0.00000000000E+00 0. -1.
         22    1    3    3    0    0  0.56613058751E+01 -0.13492397780E+02 -0.30713971405E+02  0.34021217226E+02  0.00000000000E+00 0. -1.
</event>
<event>
 7    1  0.3110367E-005  0.9533167E+02  0.7818608E-02  0.1382123E+00
          2   -1    0    0  502    0  0.00000000000E+00  0.00000000000E+00  0.21854690911E+04  0.21854690911E+04  0.00000000000E+00 0. -1.
          1   -1    0    0  501    0 -0.00000000000E+00 -0.00000000000E+00 -0.13541395745E+02  0.13541395745E+02  0.00000000000E+00 0. -1.
         25    2    1    2    0    0  0.34413780232E+02 -0.53973390831E+02  0.97466995037E+03  0.98473616344E+03  0.12500545685E+03 0.  0.
          2    1    1    2  501    0 -0.54595379997E+02  0.91766041835E+02  0.34980455286E+03  0.36573882369E+03  0.00000000000E+00 0. -1.
          1    1    1    2  502    0  0.20181599765E+02 -0.37792651003E+02  0.84745319213E+03  0.84853549972E+03  0.00000000000E+00 0. -1.
         22    1    3    3    0    0  0.73454303189E+02 -0.58338999560E+02  0.81152403278E+03  0.81692730969E+03  0.00000000000E+00 0. -1.
         22    1    3    3    0    0 -0.39040522957E+02  0.43656087285E+01  0.16314591758E+03  0.16780885375E+03  0.00000000000E+00 0. -1.
</event>
<event>
 7    1  0.3110367E-005  0.5397599E+02  0.7818608E-02  0.1508780E+00
          2   -1    0    0  502    0  0.00000000000E+00  0.00000000000E+00  0.34284678487E+03  0.34284678487E+03  0.00000000000E+00 0. -1.
          1   -1    0    0  501    0 -0.00000000000E+00 -0.00000000000E+00 -0.36573263677E+02  0.36573263677E+02  0.00000000000E+00 0. -1.
         25    2    1    2    0    0 -0.56491096619E+02 -0.78349044626E+01  0.21183754073E+03  0.25249218065E+03  0.12499811158E+03 0.  0.
          2    1    1    2  501    0  0.56132407038E+01  0.28990069478E+02  0.36945186451E+02  0.47295659435E+02  0.00000000000E+00 0. -1.
          1    1    1    2  502    0  0.50877855915E+02 -0.21155165015E+02  0.57490794012E+02  0.79632208468E+02  0.00000000000E+00 0. -1.
         22    1    3    3    0    0 -0.95790287169E+02 -0.42627999414E+01  0.16856839971E+03  0.19393105981E+03  0.00000000000E+00 0.  1.
         22    1    3    3    0    0  0.39299190551E+02 -0.35721045211E+01  0.43269141027E+02  0.58561120838E+02  0.00000000000E+00 0.  1.
</event>
<event>
 7    1  0.3110367E-005  0.7613337E+02  0.7818608E-02  0.1388025E+00
          2   -1    0    0  502    0  0.00000000000E+00  0.00000000000E+00  0.91172912388E+03  0.91172912388E+03  0.00000000000E+00 0. -1.
          1   -1    0    0  501    0 -0.00000000000E+00 -0.00000000000E+00 -0.12753011763E+03  0.12753011763E+03  0.00000000000E+00 0. -1.
         25    2    1    2    0    0 -0.92115116830E+02  0.26344580871E+02  0.44763455813E+02  0.16373243899E+03  0.12500125165E+03 0.  0.
          2    1    1    2  501    0  0.71669905570E+02  0.20536118825E+02 -0.46540707568E+02  0.87888252923E+02  0.00000000000E+00 0. -1.
          1    1    1    2  502    0  0.20445211259E+02 -0.46880699696E+02  0.78597625800E+03  0.78763854959E+03  0.00000000000E+00 0. -1.
         22    1    3    3    0    0 -0.44985019846E+02  0.75084721012E+02  0.11725046777E+02  0.88311064210E+02  0.00000000000E+00 0. -1.
         22    1    3    3    0    0 -0.47130096984E+02 -0.48740140141E+02  0.33038409036E+02  0.75421374784E+02  0.00000000000E+00 0. -1.
</event>
<event>
 7    1  0.3110367E-005  0.8803609E+02  0.7818608E-02  0.1320226E+00
          2   -1    0    0  502    0  0.00000000000E+00  0.00000000000E+00  0.43576068626E+03  0.43576068626E+03  0.00000000000E+00 0. -1.
          1   -1    0    0  501    0 -0.00000000000E+00 -0.00000000000E+00 -0.31846763753E+03  0.31846763753E+03  0.00000000000E+00 0. -1.
         25    2    1    2    0    0  0.14290087019E+03  0.72128967541E+02  0.18672933883E+03  0.27589807744E+03  0.12501462513E+03 0.  0.
          2    1    1    2  501    0 -0.83465744131E+02 -0.20669636785E+02 -0.25911224130E+03  0.27300717558E+03  0.00000000000E+00 0. -1.
          1    1    1    2  502    0 -0.59435126056E+02 -0.51459330755E+02  0.18967595120E+03  0.20532307078E+03  0.00000000000E+00 0. -1.
         22    1    3    3    0    0  0.12662869035E+03  0.73990586494E+02  0.20454981939E+03  0.25169437960E+03  0.00000000000E+00 0. -1.
         22    1    3    3    0    0  0.16272179835E+02 -0.18616189536E+01 -0.17820480560E+02  0.24203697840E+02  0.00000000000E+00 0. -1.
</event>
<event>
 7    1  0.3110367E-005  0.5614163E+03  0.7818608E-02  0.1117799E+00
          2   -1    0    0  502    0  0.00000000000E+00  0.00000000000E+00  0.12009094126E+04  0.12009094126E+04  0.00000000000E+00 0. -1.
          1   -1    0    0  501    0 -0.00000000000E+00 -0.00000000000E+00 -0.24563752810E+04  0.24563752810E+04  0.00000000000E+00 0. -1.
         25    2    1    2    0    0 -0.44977652636E+03 -0.43358083116E+03 -0.11633580516E+03  0.64764972168E+03  0.12499952650E+03 0.  0.
          2    1    1    2  501    0  0.34458552019E+03  0.43284594267E+03 -0.20343582091E+04  0.21082476406E+04  0.00000000000E+00 0. -1.
          1    1    1    2  502    0  0.10519100616E+03  0.73488848655E+00  0.89522814592E+03  0.90138733133E+03  0.00000000000E+00 0. -1.
         22    1    3    3    0    0 -0.28410700073E+03 -0.26064710616E+03 -0.10174978206E+02  0.38569059101E+03  0.00000000000E+00 0. -1.
         22    1    3    3    0    0 -0.16566952563E+03 -0.17293372500E+03 -0.10616082695E+03  0.26195913067E+03  0.00000000000E+00 0. -1.
</event>
<event>
 7    1  0.3110367E-005  0.2648889E+03  0.7818608E-02  0.1201691E+00
          2   -1    0    0  502    0  0.00000000000E+00  0.00000000000E+00  0.97610776734E+03  0.97610776734E+03  0.00000000000E+00 0. -1.
          1   -1    0    0  501    0 -0.00000000000E+00 -0.00000000000E+00 -0.13808639399E+03  0.13808639399E+03  0.00000000000E+00 0. -1.
         25    2    1    2    0    0 -0.89722101642E+02  0.28430900641E+03  0.25956453782E+03  0.41458481581E+03  0.12500061423E+03 0.  0.
          2    1    1    2  501    0  0.12426093389E+03 -0.20792831693E+03  0.20643899998E+03  0.31826408120E+03  0.00000000000E+00 0. -1.
          1    1    1    2  502    0 -0.34538832250E+02 -0.76380689481E+02  0.37201783555E+03  0.38134526432E+03  0.00000000000E+00 0. -1.
         22    1    3    3    0    0 -0.25495092290E+02  0.24829263118E+03  0.20317856724E+03  0.32183965047E+03  0.00000000000E+00 0.  1.
         22    1    3    3    0    0 -0.64227009353E+02  0.36016375224E+02  0.56385970585E+02  0.92745165338E+02  0.00000000000E+00 0.  1.
</event>
<event>
 7    1  0.3110367E-005  0.8892961E+02  0.7818608E-02  0.1396504E+00
          2   -1    0    0  502    0  0.00000000000E+00  0.00000000000E+00  0.12352958138E+04  0.12352958138E+04  0.00000000000E+00 0. -1.
          1   -1    0    0  501    0 -0.00000000000E+00 -0.00000000000E+00 -0.56773638429E+03  0.56773638429E+03  0.00000000000E+00 0. -1.
         25    2    1    2    0    0 -0.57604944506E+02 -0.66369599515E+01  0.23285240891E+03  0.27056911134E+03  0.12500008324E+03 0.  0.
          2    1    1    2  501    0 -0.27540990696E+02 -0.30252207805E+02 -0.54592235981E+03  0.54745312602E+03  0.00000000000E+00 0. -1.
          1    1    1    2  502    0  0.85145935202E+02  0.36889167756E+02  0.98062938044E+03  0.98500996074E+03  0.00000000000E+00 0. -1.
         22    1    3    3    0    0 -0.83543077099E+01  0.85035749576E+01 -0.14005152397E+02  0.18391561599E+02  0.00000000000E+00 0.  1.
         22    1    3    3    0    0 -0.49250636796E+02 -0.15140534909E+02  0.24685756130E+03  0.25217754974E+03  0.00000000000E+00 0.  1.
</event>
<event>
 7    1  0.3110367E-005  0.4273367E+02  0.7818608E-02  0.1531701E+00
          2   -1    0    0  502    0  0.00000000000E+00  0.00000000000E+00  0.98711356084E+01  0.98711356084E+01  0.00000000000E+00 0. -1.
          1   -1    0    0  501    0 -0.00000000000E+00 -0.00000000000E+00 -0.17028216757E+04  0.17028216757E+04  0.00000000000E+00 0. -1.
         25    2    1    2    0    0 -0.27022276535E+02 -0.30689651803E+02 -0.77607874170E+03  0.78714434864E+03  0.12500381643E+03 0.  0.
          2    1    1    2  501    0 -0.17427971266E+02  0.26836102014E+02 -0.79700735357E+03  0.79764944192E+03  0.00000000000E+00 0. -1.
          1    1    1    2  502    0  0.44450247801E+02  0.38535497892E+01 -0.11986444484E+03  0.12789902076E+03  0.00000000000E+00 0. -1.
         22    1    3    3    0    0 -0.58508724715E+02  0.18640289698E+01 -0.17853831540E+03  0.18789006237E+03  0.00000000000E+00 0. -1.
         22    1    3    3    0    0  0.31486448179E+02 -0.32553680773E+02 -0.59754042630E+03  0.59925428627E+03  0.00000000000E+00 0. -1.
</event>
<event>
 7    1  0.3110367E-005  0.1502855E+03  0.7818608E-02  0.1222907E+00
          2   -1    0    0  502    0  0.00000000000E+00  0.00000000000E+00  0.27997090127E+04  0.27997090127E+04  0.00000000000E+00 0. -1.
          1   -1    0    0  501    0 -0.00000000000E+00 -0.00000000000E+00 -0.17062392366E+03  0.17062392366E+03  0.00000000000E+00 0. -1.
         25    2    1    2    0    0 -0.17987402577E+03  0.61800302933E+02  0.28786873843E+03  0.36697091100E+03  0.12500118546E+03 0.  0.
          2    1    1    2  501    0  0.14125496125E+03  0.49599399500E+02 -0.86421076923E+02  0.17286314542E+03  0.00000000000E+00 0. -1.
          1    1    1    2  502    0  0.38619064515E+02 -0.11139970243E+03  0.24276374276E+04  0.24304988800E+04  0.00000000000E+00 0. -1.
         22    1    3    3    0    0 -0.30787762043E+02 -0.24263444189E+02  0.10596083261E+02  0.40606378759E+02  0.00000000000E+00 0. -1.
         22    1    3    3    0    0 -0.14908626372E+03  0.86063747122E+02  0.27727265517E+03  0.32636453224E+03  0.00000000000E+00 0. -1.
</event>
<event>
 7    1  0.3110367E-005  0.2812857E+03  0.7818608E-02  0.1120656E+00
          2   -1    0    0  502    0  0.00000000000E+00  0.00000000000E+00  0.15985708192E+04  0.15985708192E+04  0.00000000000E+00 0. -1.
          1   -1    0    0  501    0 -0.00000000000E+00 -0.00000000000E+00 -0.15924468887E+04  0.15924468887E+04  0.00000000000E+00 0. -1.
         25    2    1    2    0    0  0.33575608407E+03 -0.11152580439E+03  0.54312170426E+03  0.66013637512E+03  0.12501477946E+03 0.  0.
          2    1    1    2  501    0 -0.26946537125E+03 -0.79896281528E+02 -0.15105506598E+04  0.15364759348E+04  0.00000000000E+00 0. -1.
          1    1    1    2  502    0 -0.66290712822E+02  0.19142208592E+03  0.97355288604E+03  0.99440539797E+03  0.00000000000E+00 0. -1.
         22    1    3    3    0    0  0.29117164412E+03 -0.48585765052E+02  0.39480910982E+03  0.49296626264E+03  0.00000000000E+00 0.  1.
         22    1    3    3    0    0  0.44584439953E+02 -0.62940039335E+02  0.14831259444E+03  0.16717011248E+03  0.00000000000E+00 0.  1.
</event>
<event>
 7    1  0.3110367E-005  0.2440461E+03  0.7818608E-02  0.1148686E+00
          2   -1    0    0  502    0  0.00000000000E+00  0.00000000000E+00  0.14416632176E+04  0.14416632176E+04  0.00000000000E+00 0. -1.
          1   -1    0    0  501    0 -0.00000000000E+00 -0.00000000000E+00 -0.12011135625E+04  0.12011135625E+04  0.00000000000E+00 0. -1.
         25    2    1    2    0    0  0.17150909106E+03 -0.83851390340E+02  0.63538351469E+03  0.67511685847E+03  0.12499655149E+03 0.  0.
          2    1    1    2  501    0  0.11911988969E+03 -0.11556127798E+03 -0.11354161175E+04  0.11474814670E+04  0.00000000000E+00 0. -1.
          1    1    1    2  502    0 -0.29062898075E+03  0.19941266833E+03  0.74058225790E+03  0.82017845464E+03  0.00000000000E+00 0. -1.
         22    1    3    3    0    0  0.22588393986E+02 -0.57422755481E+02  0.31290393795E+03  0.31893021615E+03  0.00000000000E+00 0. -1.
         22    1    3    3    0    0  0.14892069707E+03 -0.26428634859E+02  0.32247957674E+03  0.35618664232E+03  0.00000000000E+00 0. -1.
</event>
<event>
 7    1  0.3110367E-005  0.3103979E+03  0.7818608E-02  0.1218253E+00
          2   -1    0    0  502    0  0.00000000000E+00  0.00000000000E+00  0.14967840218E+03  0.14967840218E+03  0.00000000000E+00 0. -1.
          1   -1    0    0  501    0 -0.00000000000E+00 -0.00000000000E+00 -0.19143989004E+04  0.19143989004E+04  0.00000000000E+00 0. -1.
         25    2    1    2    0    0 -0.42525239586E+02 -0.26089914301E+03 -0.82464205884E+03  0.87494958421E+03  0.12500196349E+03 0.  0.
          2    1    1    2  501    0 -0.27548032411E+02 -0.53236383086E+02 -0.85380878503E+03  0.85591030369E+03  0.00000000000E+00 0. -1.
          1    1    1    2  502    0  0.70073271997E+02  0.31413552609E+03 -0.86269654378E+02  0.33321741471E+03  0.00000000000E+00 0. -1.
         22    1    3    3    0    0 -0.33109130117E+02 -0.18244465608E+03 -0.37411457162E+03  0.41754518286E+03  0.00000000000E+00 0.  1.
         22    1    3    3    0    0 -0.94161094692E+01 -0.78454486930E+02 -0.45052748722E+03  0.45740440135E+03  0.00000000000E+00 0.  1.
</event>
<event>
 7    1  0.3110367E-005  0.3327127E+03  0.7818608E-02  0.1282309E+00
          2   -1    0    0  502    0  0.00000000000E+00  0.00000000000E+00  0.76245794397E+03  0.76245794397E+03  0.00000000000E+00 0. -1.
          1   -1    0    0  501    0 -0.00000000000E+00 -0.00000000000E+00 -0.25618124127E+03  0.25618124127E+03  0.00000000000E+00 0. -1.
         25    2    1    2    0    0 -0.30869628224E+03  0.10743725801E+03  0.27113441164E+03  0.44269205874E+03  0.12500492239E+03 0.  0.
          2    1    1    2  501    0 -0.38636015477E+00  0.29484285313E+02 -0.97389940688E+02  0.10175594775E+03  0.00000000000E+00 0. -1.
          1    1    1    2  502    0  0.30908264240E+03 -0.13692154332E+03  0.33253223175E+03  0.47419117875E+03  0.00000000000E+00 0. -1.
         22    1    3    3    0    0 -0.28885836385E+03  0.12880165825E+03  0.26562819223E+03  0.41302222464E+03  0.00000000000E+00 0.  1.
         22    1    3    3    0    0 -0.19837918387E+02 -0.21364400240E+02  0.55062194032E+01  0.29669834102E+02  0.00000000000E+00 0.  1.
</event>
<event>
 7    1  0.3110367E-005  0.1204894E+03  0.7818608E-02  0.1267897E+00
          2   -1    0    0  502    0  0.00000000000E+00  0.00000000000E+00  0.14620638936E+04  0.14620638936E+04  0.00000000000E+00 0. -1.
          1   -1    0    0  501    0 -0.00000000000E+00 -0.00000000000E+00 -0.90869579591E+03  0.90869579591E+03  0.00000000000E+00 0. -1.
         25    2    1    2    0    0 -0.18297756907E+03 -0.35217169544E+02  0.75153712699E+03  0.78431765115E+03  0.12500033935E+03 0.  0.
          2    1    1    2  501    0  0.91619953724E+02 -0.18620357959E+02 -0.88578106354E+03  0.89070142370E+03  0.00000000000E+00 0. -1.
          1    1    1    2  502    0  0.91357615348E+02  0.53837527504E+02  0.68761203424E+03  0.69574061466E+03  0.00000000000E+00 0. -1.
         22    1    3    3    0    0 -0.11948314029E+03 -0.48586954719E+02  0.27931665074E+03  0.30766004675E+03  0.00000000000E+00 0. -1.
         22    1    3    3    0    0 -0.63494428782E+02  0.13369785175E+02  0.47222047625E+03  0.47665760440E+03  0.00000000000E+00 0. -1.
</event>
<event>
 7    1  0.3110367E-005  0.7595366E+02  0.7818608E-02  0.1470182E+00
          2   -1    0    0  502    0  0.00000000000E+00  0.00000000000E+00  0.18096116315E+04  0.18096116315E+04  0.00000000000E+00 0. -1.
          1   -1    0    0  501    0 -0.00000000000E+00 -0.00000000000E+00 -0.25460093925E+02  0.25460093925E+02  0.00000000000E+00 0. -1.
         25    2    1    2    0    0  0.69992672320E+02 -0.44022997763E+01  0.97663241240E+03  0.98709372168E+03  0.12499916806E+03 0.  0.
          2    1    1    2  501    0 -0.73227683779E+02 -0.22871197048E+02  0.53663901307E+02  0.93622644854E+02  0.00000000000E+00 0. -1.
          1    1    1    2  502    0  0.32350114584E+01  0.27273496824E+02  0.75385522386E+03  0.75435535888E+03  0.00000000000E+00 0. -1.
         22    1    3    3    0    0  0.70452143828E+02  0.41194263650E+02  0.37711908567E+03  0.38584877439E+03  0.00000000000E+00 0.  1.
         22    1    3    3    0    0 -0.45947150795E+00 -0.45596563427E+02  0.59951332673E+03  0.60124494729E+03  0.00000000000E+00 0.  1.
</event>
<event>
 7    1  0.3110367E-005  0.8149351E+02  0.7818608E-02  0.1438143E+00
          2   -1    0    0  502    0  0.00000000000E+00  0.00000000000E+00  0.11409648652E+04  0.11409648652E+04  0.00000000000E+00 0. -1.
          1   -1    0    0  501    0 -0.00000000000E+00 -0.00000000000E+00 -0.32077985794E+03  0.32077985794E+03  0.00000000000E+00 0. -1.
         25    2    1    2    0    0 -0.25704494507E+02 -0.47673278825E+02 -0.17465807338E+03  0.22150471893E+03  0.12500174143E+03 0.  0.
          2    1    1    2  501    0 -0.30028105465E+02 -0.12084060896E+02 -0.11904078528E+03  0.12336296124E+03  0.00000000000E+00 0. -1.
          1    1    1    2  502    0  0.55732599972E+02  0.59757339722E+02  0.11138838659E+04  0.11168770430E+04  0.00000000000E+00 0. -1.
         22    1    3    3    0    0  0.23535244913E+02 -0.75394458492E+02 -0.11304209230E+03  0.13790122101E+03  0.00000000000E+00 0. -1.
         22    1    3    3    0    0 -0.49239739420E+02  0.27721179667E+02 -0.61615981073E+02  0.83603497917E+02  0.00000000000E+00 0. -1.
</event>
<event>
 7    1  0.3110367E-005  0.5318464E+03  0.7818608E-02  0.1120060E+00
          2   -1    0    0  502    0  0.00000000000E+00  0.00000000000E+00  0.59643389590E+03  0.59643389590E+03  0.00000000000E+00 0. -1.
          1   -1    0    0  501    0 -0.00000000000E+00 -0.00000000000E+00 -0.60256794121E+03  0.60256794121E+03  0.00000000000E+00 0. -1.
         25    2    1    2    0    0 -0.44746840991E+03 -0.23630245844E+03 -0.93606141439E+02  0.52957898846E+03  0.12499986230E+03 0.  0.
          2    1    1    2  501    0 -0.82593797396E+02  0.69495192369E+02  0.11116739487E+02  0.10851220681E+03  0.00000000000E+00 0. -1.
          1    1    1    2  502    0  0.53006220731E+03  0.16680726607E+03  0.76355356640E+02  0.56091064183E+03  0.00000000000E+00 0. -1.
         22    1    3    3    0    0 -0.20512710930E+03 -0.17487760791E+03 -0.69793260904E+02  0.27844282714E+03  0.00000000000E+00 0.  1.
         22    1    3    3    0    0 -0.24234130062E+03 -0.61424850529E+02 -0.23812880535E+02  0.25113616133E+03  0.00000000000E+00 0.  1.
</event>
<event>
 7    1  0.3110367E-005  0.4235446E+02  0.7818608E-02  0.1560307E+00
          2   -1    0    0  502    0  0.00000000000E+00  0.00000000000E+00  0.59535860371E+02  0.59535860371E+02  0.00000000000E+00 0. -1.
          1   -1    0    0  501    0 -0.00000000000E+00 -0.00000000000E+00 -0.52167020990E+03  0.52167020990E+03  0.00000000000E+00 0. -1.
         25    2    1    2    0    0  0.40681959195E+02  0.49986534466E+01 -0.29945535525E+03  0.32707594359E+03  0.12500061899E+03 0.  0.
          2    1    1    2  501    0 -0.38670198237E+01 -0.26559426618E+02 -0.19734266000E+03  0.19915943975E+03  0.00000000000E+00 0. -1.
          1    1    1    2  502    0 -0.36814939371E+02  0.21560773171E+02  0.34663665721E+02  0.54970686933E+02  0.00000000000E+00 0. -1.
         22    1    3    3    0    0  0.82017135056E+02  0.21446301624E+02 -0.16588201033E+03  0.18628901108E+03  0.00000000000E+00 0.  1.
         22    1    3    3    0    0 -0.41335175861E+02 -0.16447648177E+02 -0.13357334491E+03  0.14078693251E+03  0.00000000000E+00 0.  1.
</event>
<event>
 7    1  0.3110367E-005  0.2048650E+03  0.7818608E-02  0.1226343E+00
          2   -1    0    0  502    0  0.00000000000E+00  0.00000000000E+00  0.25509207038E+04  0.25509207038E+04  0.00000000000E+00 0. -1.
          1   -1    0    0  501    0 -0.00000000000E+00 -0.00000000000E+00 -0.92032431716E+03  0.92032431716E+03  0.00000000000E+00 0. -1.
         25    2    1    2    0    0  0.27791826561E+03 -0.48146358050E+02  0.33840429126E+03  0.45792931363E+03  0.12500063113E+03 0.  0.
          2    1    1    2  501    0 -0.19480473069E+03  0.55648471721E+02 -0.84781318862E+03  0.87168390963E+03  0.00000000000E+00 0. -1.
          1    1    1    2  502    0 -0.83113534917E+02 -0.75021136716E+01  0.21400052840E+04  0.21416317977E+04  0.00000000000E+00 0. -1.
         22    1    3    3    0    0  0.24434300587E+03 -0.74977871151E+02  0.32383839002E+03  0.41254877109E+03  0.00000000000E+00 0.  1.
         22    1    3    3    0    0  0.33575259736E+02  0.26831513101E+02  0.14565901240E+02  0.45380542533E+02  0.00000000000E+00 0.  1.
</event>
<event>
 7    1  0.3110367E-005  0.1910029E+03  0.7818608E-02  0.1239006E+00
          2   -1    0    0  502    0  0.00000000000E+00  0.00000000000E+00  0.39617866212E+03  0.39617866212E+03  0.00000000000E+00 0. -1.
          1   -1    0    0  501    0 -0.00000000000E+00 -0.00000000000E+00 -0.95429731679E+03  0.95429731679E+03  0.00000000000E+00 0. -1.
         25    2    1    2    0    0 -0.10271816739E+03  0.13637381568E+03 -0.30745388792E+03  0.37323184163E+03  0.12500109958E+03 0.  0.
          2    1    1    2  501    0  0.17585659171E+03 -0.10762922932E+03 -0.59205397772E+03  0.62692703275E+03  0.00000000000E+00 0. -1.
          1    1    1    2  502    0 -0.73138424320E+02 -0.28744586358E+02  0.34138921098E+03  0.35031710453E+03  0.00000000000E+00 0. -1.
         22    1    3    3    0    0 -0.13875205144E+02  0.57071122470E+02 -0.21382461999E+03  0.22174445303E+03  0.00000000000E+00 0. -1.
         22    1    3    3    0    0 -0.88842962249E+02  0.79302693210E+02 -0.93629267932E+02  0.15148738860E+03  0.00000000000E+00 0. -1.
</event>
<event>
 7    1  0.3110367E-005  0.3652226E+03  0.7818608E-02  0.1076736E+00
          2   -1    0    0  502    0  0.00000000000E+00  0.00000000000E+00  0.43396124250E+03  0.43396124250E+03  0.00000000000E+00 0. -1.
          1   -1    0    0  501    0 -0.00000000000E+00 -0.00000000000E+00 -0.84125174091E+03  0.84125174091E+03  0.00000000000E+00 0. -1.
         25    2    1    2    0    0  0.17592926551E+02  0.22473184696E+03 -0.16303550939E+03  0.30499154648E+03  0.12500140800E+03 0.  0.
          2    1    1    2  501    0  0.34551812336E+03 -0.26394779371E+03 -0.38310011441E+03  0.57949711737E+03  0.00000000000E+00 0. -1.
          1    1    1    2  502    0 -0.36311104991E+03  0.39215946750E+02  0.13884512540E+03  0.39072431956E+03  0.00000000000E+00 0. -1.
         22    1    3    3    0    0 -0.43348330596E+02  0.34591566625E+02 -0.18359960003E+02  0.58418681758E+02  0.00000000000E+00 0.  1.
         22    1    3    3    0    0  0.60941257147E+02  0.19014028033E+03 -0.14467554938E+03  0.24657286472E+03  0.00000000000E+00 0.  1.
</event>
<event>
 7    1  0.3110367E-005  0.1510253E+03  0.7818608E-02  0.1282570E+00
          2   -1    0    0  502    0  0.00000000000E+00  0.00000000000E+00  0.54918030623E+03  0.54918030623E+03  0.00000000000E+00 0. -1.
          1   -1    0    0  501    0 -0.00000000000E+00 -0.00000000000E+00 -0.14395989870E+03  0.14395989870E+03  0.00000000000E+00 0. -1.
         25    2    1    2    0    0  0.83819553302E+02  0.14257863539E+03  0.34304706396E+03  0.40082473887E+03  0.12499919364E+03 0.  0.
          2    1    1    2  501    0  0.29850807203E+02 -0.57515065878E+02 -0.72073671580E+02  0.96920934935E+02  0.00000000000E+00 0. -1.
          1    1    1    2  502    0 -0.11367036051E+03 -0.85063569515E+02  0.13424701515E+03  0.19539453113E+03  0.00000000000E+00 0. -1.
         22    1    3    3    0    0  0.92112639184E+02  0.14288668348E+03  0.35057482545E+03  0.38962039327E+03  0.00000000000E+00 0. -1.
         22    1    3    3    0    0 -0.82930858827E+01 -0.30804808853E+00 -0.75277614932E+01  0.11204345594E+02  0.00000000000E+00 0. -1.
</event>
<event>
 7    1  0.3110367E-005  0.3974073E+03  0.7818608E-02  0.1162197E+00
          2   -1    0    0  502    0  0.00000000000E+00  0.00000000000E+00  0.51714667086E+03  0.51714667086E+03  0.00000000000E+00 0. -1.
          1   -1    0    0  501    0 -0.00000000000E+00 -0.00000000000E+00 -0.14675767673E+04  0.14675767673E+04  0.00000000000E+00 0. -1.
         25    2    1    2    0    0  0.43482998380E+03 -0.13723450424E+03 -0.87591329223E+02  0.48084093127E+03  0.12500134505E+03 0.  0.
          2    1    1    2  501    0 -0.38242340265E+03  0.67820572604E+02 -0.11447589090E+04  0.12088507967E+04  0.00000000000E+00 0. -1.
          1    1    1    2  502    0 -0.52406581145E+02  0.69413931637E+02  0.28192014180E+03  0.29503171017E+03  0.00000000000E+00 0. -1.
         22    1    3    3    0    0  0.27781741152E+03 -0.13174042009E+03 -0.99792164435E+02  0.32325922804E+03  0.00000000000E+00 0. -1.
         22    1    3    3    0    0  0.15701257227E+03 -0.54940841537E+01  0.12200835211E+02  0.15758170323E+03  0.00000000000E+00 0. -1.
</event>
<event>
 7    1  0.3110367E-005  0.4206494E+03  0.7818608E-02  0.1061559E+00
          2   -1    0    0  502    0  0.00000000000E+00  0.00000000000E+00  0.23057945348E+04  0.23057945348E+04  0.00000000000E+00 0. -1.
          1   -1    0    0  501    0 -0.00000000000E+00 -0.00000000000E+00 -0.29729905459E+03  0.29729905459E+03  0.00000000000E+00 0. -1.
         25    2    1    2    0    0 -0.44686078301E+03  0.38573988715E+03  0.11955782176E+04  0.13392170878E+04  0.12496124906E+03 0.  0.
          2    1    1    2  501    0  0.28678063918E+03 -0.71386619623E+02 -0.78007430484E+02  0.30565396068E+03  0.00000000000E+00 0. -1.
          1    1    1    2  502    0  0.16008014383E+03 -0.31435326753E+03  0.89092469309E+03  0.95822254097E+03  0.00000000000E+00 0. -1.
         22    1    3    3    0    0 -0.17307823940E+03  0.20379826719E+03  0.64107219455E+03  0.69459583161E+03  0.00000000000E+00 0. -1.
         22    1    3    3    0    0 -0.27378254361E+03  0.18194161996E+03  0.55450602307E+03  0.64462125615E+03  0.00000000000E+00 0. -1.
</event>
<event>
 7    1  0.3110367E-005  0.1069150E+03  0.7818608E-02  0.1290483E+00
          2   -1    0    0  502    0  0.00000000000E+00  0.00000000000E+00  0.14103665846E+04  0.14103665846E+04  0.00000000000E+00 0. -1.
          1   -1    0    0  501    0 -0.00000000000E+00 -0.00000000000E+00 -0.33269130906E+03  0.33269130906E+03  0.00000000000E+00 0. -1.
         25    2    1    2    0    0  0.28889138381E+02 -0.92629117358E+01  0.28667173231E+03  0.31420462199E+03  0.12499391394E+03 0.  0.
          2    1    1    2  501    0 -0.71891920933E+02  0.82538087149E+02 -0.30784478831E+03  0.32672526351E+03  0.00000000000E+00 0. -1.
          1    1    1    2  502    0  0.43002782552E+02 -0.73275175413E+02  0.10988483316E+04  0.11021280082E+04  0.00000000000E+00 0. -1.
         22    1    3    3    0    0 -0.33169993715E+01 -0.63629168792E+02  0.11832455880E+03  0.13438889396E+03  0.00000000000E+00 0.  1.
         22    1    3    3    0    0  0.32206137752E+02  0.54366257056E+02  0.16834717351E+03  0.17981572802E+03  0.00000000000E+00 0.  1.
</event>
<event>
 7    1  0.3110367E-005  0.8054085E+02  0.7818608E-02  0.1485138E+00
          2   -1    0    0  502    0  0.00000000000E+00  0.00000000000E+00  0.25935695593E+02  0.25935695593E+02  0.00000000000E+00 0. -1.
          1   -1    0    0  501    0 -0.00000000000E+00 -0.00000000000E+00 -0.14140669135E+04  0.14140669135E+04  0.00000000000E+00 0. -1.
         25    2    1    2    0    0 -0.77552068162E+02  0.17001419785E+02 -0.21483644718E+03  0.26092750548E+03  0.12500037011E+03 0.  0.
          2    1    1    2  501    0 -0.62953518011E+00  0.23287336387E+02 -0.12927836089E+03  0.13136053800E+03  0.00000000000E+00 0. -1.
          1    1    1    2  502    0  0.78181603342E+02 -0.40288756172E+02 -0.10440164099E+04  0.10477145657E+04  0.00000000000E+00 0. -1.
         22    1    3    3    0    0 -0.99905323594E+02  0.14993977305E+01 -0.21099229359E+03  0.23345464191E+03  0.00000000000E+00 0.  1.
         22    1    3    3    0    0  0.22353255432E+02  0.15502022054E+02 -0.38441535970E+01  0.27472863575E+02  0.00000000000E+00 0.  1.
</event>
<event>
 7    1  0.3110367E-005  0.2153386E+03  0.7818608E-02  0.1162304E+00
          2   -1    0    0  502    0  0.00000000000E+00  0.00000000000E+00  0.22736415944E+04  0.22736415944E+04  0.00000000000E+00 0. -1.
          1   -1    0    0  501    0 -0.00000000000E+00 -0.00000000000E+00 -0.36008463469E+03  0.36008463469E+03  0.00000000000E+00 0. -1.
         25    2    1    2    0    0 -0.69412085585E+01 -0.71189197558E+02 -0.24546427653E+03  0.28458433354E+03  0.12497779651E+03 0.  0.
          2    1    1    2  501    0 -0.11915507381E+03 -0.10725245787E+03 -0.17873889211E+02  0.16130870172E+03  0.00000000000E+00 0. -1.
          1    1    1    2  502    0  0.12609628236E+03  0.17844165543E+03  0.21768951254E+04  0.21878331938E+04  0.00000000000E+00 0. -1.
         22    1    3    3    0    0 -0.48315424512E+02  0.10774301303E+02 -0.11346884891E+03  0.12379679111E+03  0.00000000000E+00 0.  1.
         22    1    3    3    0    0  0.41374215954E+02 -0.81963498861E+02 -0.13199542762E+03  0.16078754244E+03  0.00000000000E+00 0.  1.
</event>
<event>
 7    1  0.3110367E-005  0.4308840E+02  0.7818608E-02  0.1492330E+00
          2   -1    0    0  502    0  0.00000000000E+00  0.00000000000E+00  0.90438475537E+03  0.90438475537E+03  0.00000000000E+00 0. -1.
          1   -1    0    0  501    0 -0.00000000000E+00 -0.00000000000E+00 -0.18903333020E+04  0.18903333020E+04  0.00000000000E+00 0. -1.
         25    2    1    2    0    0 -0.86574675268E+01 -0.96472955186E-01  0.22715196551E+03  0.25942657714E+03  0.12501668866E+03 0.  0.
          2    1    1    2  501    0  0.43533871777E+01 -0.42867914671E+02 -0.18732429185E+04  0.18737384133E+04  0.00000000000E+00 0. -1.
          1    1    1    2  502    0  0.43040803490E+01  0.42964387627E+02  0.66014240631E+03  0.66155306689E+03  0.00000000000E+00 0. -1.
         22    1    3    3    0    0 -0.10975728236E+01 -0.30755286245E+02  0.22572922496E+03  0.22781741659E+03  0.00000000000E+00 0. -1.
         22    1    3    3    0    0 -0.75598947032E+01  0.30658813290E+02  0.14227405415E+01  0.31609160553E+02  0.00000000000E+00 0. -1.
</event>
<event>
 7    1  0.3110367E-005  0.2095838E+03  0.7818608E-02  0.1253484E+00
          2   -1    0    0  502    0  0.00000000000E+00  0.00000000000E+00  0.25551229037E+04  0.25551229037E+04  0.00000000000E+00 0. -1.
          1   -1    0    0  501    0 -0.00000000000E+00 -0.00000000000E+00 -0.34969973803E+03  0.34969973803E+03  0.00000000000E+00 0. -1.
         25    2    1    2    0    0 -0.18976459974E+03 -0.12510634877E+03 -0.19670007580E+03  0.32554275979E+03  0.12499986727E+03 0.  0.
          2    1    1    2  501    0 -0.96572663342E+01  0.61160228412E+02 -0.72766817251E+02  0.95544994768E+02  0.00000000000E+00 0. -1.
          1    1    1    2  502    0  0.19942186608E+03  0.63946120361E+02  0.24748900587E+04  0.24837348872E+04  0.00000000000E+00 0. -1.
         22    1    3    3    0    0 -0.79621254694E+02 -0.20716891251E+02 -0.69375465465E+01  0.82564298181E+02  0.00000000000E+00 0.  1.
         22    1    3    3    0    0 -0.11014334505E+03 -0.10438945752E+03 -0.18976252925E+03  0.24297846161E+03  0.00000000000E+00 0.  1.
</event>
<event>
 7    1  0.3110367E-005  0.3181480E+03  0.7818608E-02  0.1266882E+00
          2   -1    0    0  502    0  0.00000000000E+00  0.00000000000E+00  0.66653802153E+03  0.66653802153E+03  0.00000000000E+00 0. -1.
          1   -1    0    0  501    0 -0.00000000000E+00 -0.00000000000E+00 -0.24137444429E+04  0.24137444429E+04  0.00000000000E+00 0. -1.
         25    2    1    2    0    0  0.67775423535E+02 -0.32739684533E+03  0.10708732240E+03  0.37265996939E+03  0.12500222317E+03 0.  0.
          2    1    1    2  501    0 -0.30886187837E+02  0.18019851361E+02 -0.22239150666E+04  0.22242025302E+04  0.00000000000E+00 0. -1.
          1    1    1    2  502    0 -0.36889235698E+02  0.30937699397E+03  0.36962132287E+03  0.48341996487E+03  0.00000000000E+00 0. -1.
         22    1    3    3    0    0 -0.19409342355E+02 -0.92006875255E+02 -0.12057766693E+02  0.94801779532E+02  0.00000000000E+00 0. -1.
         22    1    3    3    0    0  0.87184765890E+02 -0.23538997008E+03  0.11914508909E+03  0.27785818986E+03  0.00000000000E+00 0. -1.
</event>
<event>
 7    1  0.3110367E-005  0.4464489E+03  0.7818608E-02  0.1133038E+00
          2   -1    0    0  502    0  0.00000000000E+00  0.00000000000E+00  0.29182961559E+04  0.29182961559E+04  0.00000000000E+00 0. -1.
          1   -1    0    0  501    0 -0.00000000000E+00 -0.00000000000E+00 -0.15826074578E+04  0.15826074578E+04  0.00000000000E+00 0. -1.
         25    2    1    2    0    0 -0.20791894661E+03 -0.44352786594E+03  0.20800931561E+04  0.21406446113E+04  0.12499823009E+03 0.  0.
          2    1    1    2  501    0  0.31378130957E+02  0.10494376364E+03 -0.15051128522E+04  0.15090932637E+04  0.00000000000E+00 0. -1.
          1    1    1    2  502    0  0.17654081565E+03  0.33858410230E+03  0.76070839421E+03  0.85116573882E+03  0.00000000000E+00 0. -1.
         22    1    3    3    0    0  0.12058230793E+02 -0.69986784551E+02  0.34324624094E+03  0.35051609501E+03  0.00000000000E+00 0. -1.
         22    1    3    3    0    0 -0.21997717740E+03 -0.37354108139E+03  0.17368469152E+04  0.17901285163E+04  0.00000000000E+00 0. -1.
</event>
<event>
 7    1  0.3110367E-005  0.1494165E+03  0.7818608E-02  0.1387151E+00
          2   -1    0    0  502    0  0.00000000000E+00  0.00000000000E+00  0.13685955176E+04  0.13685955176E+04  0.00000000000E+00 0. -1.
          1   -1    0    0  501    0 -0.00000000000E+00 -0.00000000000E+00 -0.28005503492E+03  0.28005503492E+03  0.00000000000E+00 0. -1.
         25    2    1    2    0    0 -0.13989369243E+03 -0.82627139763E+02  0.74622285023E+03  0.77387119248E+03  0.12502236177E+03 0.  0.
          2    1    1    2  501    0  0.11605699484E+03  0.93608347626E+02 -0.24503845797E+03  0.28683722680E+03  0.00000000000E+00 0. -1.
          1    1    1    2  502    0  0.23836697580E+02 -0.10981207863E+02  0.58735609037E+03  0.58794213319E+03  0.00000000000E+00 0. -1.
         22    1    3    3    0    0 -0.11182645012E+03 -0.56023020589E+02  0.28759032029E+03  0.31361110648E+03  0.00000000000E+00 0.  1.
         22    1    3    3    0    0 -0.28067242304E+02 -0.26604119174E+02  0.45863252994E+03  0.46026008600E+03  0.00000000000E+00 0.  1.
</event>
<event>
 7    1  0.3934245E-005  0.5019090E+02  0.7818608E-02  0.1516356E+00
          2   -1    0    0  502    0  0.00000000000E+00  0.00000000000E+00  0.15694444229E+04  0.15694444229E+04  0.00000000000E+00 0. -1.
          1   -1    0    0  501    0 -0.00000000000E+00 -0.00000000000E+00 -0.20421266296E+04  0.20421266296E+04  0.00000000000E+00 0. -1.
         25    2    1    2    0    0  0.21105523618E+02 -0.21302861819E+02 -0.64961430319E+03  0.66221081315E+03  0.12500065238E+03 0.  0.
          2    1    1    2  501    0 -0.11364213856E+02 -0.27949426241E+02 -0.13856466661E+04  0.13859751076E+04  0.00000000000E+00 0. -1.
          1    1    1    2  502    0 -0.97413097625E+01  0.49252288061E+02  0.15625787626E+04  0.15633851318E+04  0.00000000000E+00 0. -1.
         22    1    3    3    0    0 -0.37168482078E+02  0.29774759178E+02 -0.32528562645E+03  0.32875335910E+03  0.00000000000E+00 0. -1.
         22    1    3    3    0    0  0.58274005696E+02 -0.51077620997E+02 -0.32432867674E+03  0.33345745405E+03  0.00000000000E+00 0. -1.
</event>
<event>
 7    1  0.3110367E-005  0.4074452E+02  0.7818608E-02  0.1584981E+00
          2   -1    0    0  502    0  0.00000000000E+00  0.00000000000E+00  0.49330454132E+03  0.49330454132E+03  0.00000000000E+00 0. -1.
          1   -1    0    0  501    0 -0.00000000000E+00 -0.00000000000E+00 -0.98954100530E+03  0.98954100530E+03  0.00000000000E+00 0. -1.
         25    2    1    2    0    0  0.53683958949E+01  0.52256336667E+02  0.75266228181E+02  0.15508115104E+03  0.12500245560E+03 0.  0.
          2    1    1    2  501    0  0.16003446211E+02 -0.17780681009E+02 -0.94839448103E+03  0.94869613394E+03  0.00000000000E+00 0. -1.
          1    1    1    2  502    0 -0.21371842106E+02 -0.34475655658E+02  0.37689178887E+03  0.37906826164E+03  0.00000000000E+00 0. -1.
         22    1    3    3    0    0 -0.32207257665E+02  0.81505655002E+02  0.43502650644E+02  0.97841503753E+02  0.00000000000E+00 0.  1.
         22    1    3    3    0    0  0.37575653560E+02 -0.29249318335E+02  0.31763577536E+02  0.57239647286E+02  0.00000000000E+00 0.  1.
</event>
<event>
 7    1  0.3110367E-005  0.2214404E+03  0.7818608E-02  0.1162389E+00
          2   -1    0    0  502    0  0.00000000000E+00  0.00000000000E+00  0.25920622281E+04  0.25920622281E+04  0.00000000000E+00 0. -1.
          1   -1    0    0  501    0 -0.00000000000E+00 -0.00000000000E+00 -0.67554641025E+02  0.67554641025E+02  0.00000000000E+00 0. -1.
         25    2    1    2    0    0 -0.97200357677E+02  0.17350851796E+03  0.19128021791E+04  0.19271713940E+04  0.12499715966E+03 0.  0.
          2    1    1    2  501    0  0.21917838796E+03 -0.76671633114E+02  0.26483298290E+03  0.35221330739E+03  0.00000000000E+00 0. -1.
          1    1    1    2  502    0 -0.12197803028E+03 -0.96836884845E+02  0.34687242501E+03  0.38023216772E+03  0.00000000000E+00 0. -1.
         22    1    3    3    0    0 -0.39327386477E+02  0.17097643690E+03  0.15267944991E+04  0.15368412500E+04  0.00000000000E+00 0. -1.
         22    1    3    3    0    0 -0.57872971200E+02  0.25320810580E+01  0.38600768006E+03  0.39033014397E+03  0.00000000000E+00 0. -1.
</event>
<event>
 7    1  0.3110367E-005  0.6696282E+02  0.7818608E-02  0.1430388E+00
          2   -1    0    0  502    0  0.00000000000E+00  0.00000000000E+00  0.32264159758E+04  0.32264159758E+04  0.00000000000E+00 0. -1.
          1   -1    0    0  501    0 -0.00000000000E+00 -0.00000000000E+00 -0.14722672083E+02  0.14722672083E+02  0.00000000000E+00 0. -1.
         25    2    1    2    0    0 -0.59422090883E+02 -0.46989414272E+02  0.98718682516E+03  0.99794869177E+03  0.12499909483E+03 0.  0.
          2    1    1    2  501    0 -0.75211214258E+01  0.41079544011E+02  0.40583716797E+02  0.58233446341E+02  0.00000000000E+00 0. -1.
          1    1    1    2  502    0  0.66943212309E+02  0.59098702607E+01  0.21839227617E+04  0.21849565097E+04  0.00000000000E+00 0. -1.
         22    1    3    3    0    0 -0.67664629727E+02 -0.17720048357E+02  0.23601606768E+03  0.24616272349E+03  0.00000000000E+00 0. -1.
         22    1    3    3    0    0  0.82425388442E+01 -0.29269365916E+02  0.75117075747E+03  0.75178596829E+03  0.00000000000E+00 0. -1.
</event>
<event>
 7    1  0.3110367E-005  0.1874575E+03  0.7818608E-02  0.1248946E+00
          2   -1    0    0  502    0  0.00000000000E+00  0.00000000000E+00  0.80596102398E+03  0.80596102398E+03  0.00000000000E+00 0. -1.
          1   -1    0    0  501    0 -0.00000000000E+00 -0.00000000000E+00 -0.30389536662E+03  0.30389536662E+03  0.00000000000E+00 0. -1.
         25    2    1    2    0    0  0.24745605164E+03 -0.15643683881E+02  0.28683805617E+03  0.39922455912E+03  0.12499982319E+03 0.  0.
          2    1    1    2  501    0 -0.17804322535E+03  0.36330913337E+02 -0.21090438038E+03  0.27838818765E+03  0.00000000000E+00 0. -1.
          1    1    1    2  502    0 -0.69412826288E+02 -0.20687229456E+02  0.42613198156E+03  0.43224364383E+03  0.00000000000E+00 0. -1.
         22    1    3    3    0    0  0.95569946187E+02 -0.61232400217E+02  0.15993776812E+03  0.19612014461E+03  0.00000000000E+00 0.  1.
         22    1    3    3    0    0  0.15188610545E+03  0.45588716336E+02  0.12690028806E+03  0.20310441451E+03  0.00000000000E+00 0.  1.
</event>
<event>
 7    1  0.3110367E-005  0.1301876E+03  0.7818608E-02  0.1283550E+00
          2   -1    0    0  502    0  0.00000000000E+00  0.00000000000E+00  0.13217182428E+04  0.13217182428E+04  0.00000000000E+00 0. -1.
          1   -1    0    0  501    0 -0.00000000000E+00 -0.00000000000E+00 -0.27818990391E+04  0.27818990391E+04  0.00000000000E+00 0. -1.
         25    2    1    2    0    0 -0.30219418286E+01  0.19937126338E+03 -0.38181203408E+03  0.44851360728E+03  0.12500397494E+03 0.  0.
          2    1    1    2  501    0  0.14862440787E+02 -0.12584099641E+03 -0.23639615878E+04  0.23673553255E+04  0.00000000000E+00 0. -1.
          1    1    1    2  502    0 -0.11840498959E+02 -0.73530266973E+02  0.12855928255E+04  0.12877483491E+04  0.00000000000E+00 0. -1.
         22    1    3    3    0    0  0.63981389354E+01  0.20232330368E+03 -0.38745233998E+03  0.43714410799E+03  0.00000000000E+00 0.  1.
         22    1    3    3    0    0 -0.94200807640E+01 -0.29520403000E+01  0.56403058969E+01  0.11369499292E+02  0.00000000000E+00 0.  1.
</event>
<event>
 7    1  0.3110367E-005  0.1084580E+03  0.7818608E-02  0.1383572E+00
          2   -1    0    0  502    0  0.00000000000E+00  0.00000000000E+00  0.18236575398E+03  0.18236575398E+03  0.00000000000E+00 0. -1.
          1   -1    0    0  501    0 -0.00000000000E+00 -0.00000000000E+00 -0.86979043472E+03  0.86979043472E+03  0.00000000000E+00 0. -1.
         25    2    1    2    0    0  0.35806966589E+02 -0.67741005364E+02 -0.95685416821E+02  0.17508316343E+03  0.12500972946E+03 0.  0.
          2    1    1    2  501    0  0.15905519840E+02 -0.33648101616E+02 -0.71114221660E+03  0.71211546292E+03  0.00000000000E+00 0. -1.
          1    1    1    2  502    0 -0.51712486430E+02  0.10138910698E+03  0.11940295269E+03  0.16495756235E+03  0.00000000000E+00 0. -1.
         22    1    3    3    0    0  0.47410352592E+02 -0.82149450364E+00 -0.96102413943E+02  0.10716384816E+03  0.00000000000E+00 0. -1.
         22    1    3    3    0    0 -0.11603386003E+02 -0.66919510861E+02  0.41699712155E+00  0.67919315273E+02  0.00000000000E+00 0. -1.
</event>
<event>
 7    1  0.3110367E-005  0.3957689E+03  0.7818608E-02  0.1070383E+00
          2   -1    0    0  502    0  0.00000000000E+00  0.00000000000E+00  0.42924128546E+03  0.42924128546E+03  0.00000000000E+00 0. -1.
          1   -1    0    0  501    0 -0.00000000000E+00 -0.00000000000E+00 -0.15617401996E+04  0.15617401996E+04  0.00000000000E+00 0. -1.
         25    2    1    2    0    0 -0.53910638350E+03  0.15379953370E+03  0.11019451152E+03  0.58485693684E+03  0.12499926760E+03 0.  0.
          2    1    1    2  501    0  0.37329865810E+03  0.69366316421E+02 -0.69848972725E+03  0.79501664955E+03  0.00000000000E+00 0. -1.
          1    1    1    2  502    0  0.16580772541E+03 -0.22316585012E+03 -0.54420369842E+03  0.61110789869E+03  0.00000000000E+00 0. -1.
         22    1    3    3    0    0 -0.33415189092E+03  0.31323244741E+02  0.65513330806E+02  0.34195120760E+03  0.00000000000E+00 0.  1.
         22    1    3    3    0    0 -0.20495449258E+03  0.12247628896E+03  0.44681180709E+02  0.24290572924E+03  0.00000000000E+00 0.  1.
</event>
<event>
 7    1  0.3110367E-005  0.1332190E+03  0.7818608E-02  0.1358719E+00
          2   -1    0    0  502    0  0.00000000000E+00  0.00000000000E+00  0.32119845419E+03  0.32119845419E+03  0.00000000000E+00 0. -1.
          1   -1    0    0  501    0 -0.00000000000E+00 -0.00000000000E+00 -0.21234365331E+04  0.21234365331E+04  0.00000000000E+00 0. -1.
         25    2    1    2    0    0 -0.41957192818E+02  0.98385867240E+02  0.49232909090E+02  0.17172323370E+03  0.12499921900E+03 0.  0.
          2    1    1    2  501    0 -0.86316009003E+01  0.36194031159E+02 -0.20374775427E+04  0.20378172758E+04  0.00000000000E+00 0. -1.
          1    1    1    2  502    0  0.50588793719E+02 -0.13457989840E+03  0.18600655471E+03  0.23509447782E+03  0.00000000000E+00 0. -1.
         22    1    3    3    0    0 -0.84595934666E+02  0.49312848188E+02  0.41144730429E+02  0.10621260754E+03  0.00000000000E+00 0.  1.
         22    1    3    3    0    0  0.42638741847E+02  0.49073019052E+02  0.80881786610E+01  0.65510626155E+02  0.00000000000E+00 0.  1.
</event>
<event>
 7    1  0.3110367E-005  0.7365135E+02  0.7818608E-02  0.1395018E+00
          2   -1    0    0  502    0  0.00000000000E+00  0.00000000000E+00  0.16801524030E+04  0.16801524030E+04  0.00000000000E+00 0. -1.
          1   -1    0    0  501    0 -0.00000000000E+00 -0.00000000000E+00 -0.17615864581E+02  0.17615864581E+02  0.00000000000E+00 0. -1.
         25    2    1    2    0    0 -0.44504119146E+01  0.95056513901E+00  0.38797734492E+03  0.40764149802E+03  0.12499784398E+03 0.  0.
          2    1    1    2  501    0  0.61783111056E+02  0.45282363173E+02  0.21916445848E+03  0.23216525384E+03  0.00000000000E+00 0. -1.
          1    1    1    2  502    0 -0.57332699142E+02 -0.46232928312E+02  0.10553947350E+04  0.10579615157E+04  0.00000000000E+00 0. -1.
         22    1    3    3    0    0  0.13692277941E+02  0.30646663408E+02  0.36361646045E+03  0.36516246626E+03  0.00000000000E+00 0.  1.
         22    1    3    3    0    0 -0.18142689856E+02 -0.29696098269E+02  0.24360884473E+02  0.42479031768E+02  0.00000000000E+00 0.  1.
</event>
<event>
 7    1  0.3354190E-005  0.2803187E+03  0.7818608E-02  0.1245160E+00
          2   -1    0    0  502    0  0.00000000000E+00  0.00000000000E+00  0.76887749475E+03  0.76887749475E+03  0.00000000000E+00 0. -1.
          1   -1    0    0  501    0 -0.00000000000E+00 -0.00000000000E+00 -0.20247526215E+04  0.20247526215E+04  0.00000000000E+00 0. -1.
         25    2    1    2    0    0 -0.21406857146E+03  0.21792321023E+03 -0.15020231416E+04  0.15378603107E+04  0.12499975470E+03 0.  0.
          2    1    1    2  501    0  0.49573226171E+02  0.85921617841E+01 -0.47735354809E+03  0.47999764569E+03  0.00000000000E+00 0. -1.
          1    1    1    2  502    0  0.16449534529E+03 -0.22651537201E+03  0.72350156292E+03  0.77577215981E+03  0.00000000000E+00 0. -1.
         22    1    3    3    0    0 -0.14024212198E+03  0.95819810780E+02 -0.56315884429E+03  0.58821524362E+03  0.00000000000E+00 0. -1.
         22    1    3    3    0    0 -0.73826449474E+02  0.12210339945E+03 -0.93886429729E+03  0.94964506713E+03  0.00000000000E+00 0. -1.
</event>
<event>
 7    1  0.3110367E-005  0.7557908E+02  0.7818608E-02  0.1496074E+00
          2   -1    0    0  502    0  0.00000000000E+00  0.00000000000E+00  0.50990698252E+03  0.50990698252E+03  0.00000000000E+00 0. -1.
          1   -1    0    0  501    0 -0.00000000000E+00 -0.00000000000E+00 -0.39293235050E+03  0.39293235050E+03  0.00000000000E+00 0. -1.
         25    2    1    2    0    0  0.62075611013E+02  0.73336797950E+02 -0.78988710360E+02  0.17634139069E+03  0.12500160915E+03 0.  0.
          2    1    1    2  501    0 -0.50136324320E+02 -0.53671813764E+02 -0.25988781292E+03  0.27006663976E+03  0.00000000000E+00 0. -1.
          1    1    1    2  502    0 -0.11939286693E+02 -0.19664984186E+02  0.45585115530E+03  0.45643130256E+03  0.00000000000E+00 0. -1.
         22    1    3    3    0    0  0.22892387615E+02  0.44429796411E+02  0.29069209510E+02  0.57819435845E+02  0.00000000000E+00 0. -1.
         22    1    3    3    0    0  0.39183223398E+02  0.28907001539E+02 -0.10805791987E+03  0.11852195485E+03  0.00000000000E+00 0. -1.
</event>
<event>
 7    1  0.3110367E-005  0.2041796E+03  0.7818608E-02  0.1196047E+00
          2   -1    0    0  502    0  0.00000000000E+00  0.00000000000E+00  0.35881822917E+03  0.35881822917E+03  0.00000000000E+00 0. -1.
          1   -1    0    0  501    0 -0.00000000000E+00 -0.00000000000E+00 -0.14426124705E+04  0.14426124705E+04  0.00000000000E+00 0. -1.
         25    2    1    2    0    0 -0.99748393650E+02  0.10881287889E+03 -0.75922572198E+03  0.78347834178E+03  0.12499852189E+03 0.  0.
          2    1    1    2  501    0  0.64950421191E+02  0.95676182246E+02 -0.63453343813E+03  0.64498463018E+03  0.00000000000E+00 0. -1.
          1    1    1    2  502    0  0.34797972459E+02 -0.20448906114E+03  0.30996491880E+03  0.37296772770E+03  0.00000000000E+00 0. -1.
         22    1    3    3    0    0 -0.66398210909E+00  0.32452139249E+02 -0.43102826919E+03  0.43224871435E+03  0.00000000000E+00 0.  1.
         22    1    3    3    0    0 -0.99084411541E+02  0.76360739644E+02 -0.32819745279E+03  0.35122962743E+03  0.00000000000E+00 0.  1.
</event>
<event>
 7    1  0.3110367E-005  0.8346330E+02  0.7818608E-02  0.1371552E+00
          2   -1    0    0  502    0  0.00000000000E+00  0.00000000000E+00  0.10848408244E+04  0.10848408244E+04  0.00000000000E+00 0. -1.
          1   -1    0    0  501    0 -0.00000000000E+00 -0.00000000000E+00 -0.94462287108E+03  0.94462287108E+03  0.00000000000E+00 0. -1.
         25    2    1    2    0    0 -0.12749412599E+03 -0.26527663258E+02  0.96291633664E+02  0.20458397900E+03  0.12499622661E+03 0.  0.
          2    1    1    2  501    0  0.74899315845E+02  0.35553045327E+02 -0.88778172366E+03  0.89164472488E+03  0.00000000000E+00 0. -1.
          1    1    1    2  502    0  0.52594810149E+02 -0.90253820696E+01  0.93170804327E+03  0.93323499156E+03  0.00000000000E+00 0. -1.
         22    1    3    3    0    0 -0.14528704851E+03 -0.65977939136E+01  0.55177950797E+02  0.15555212504E+03  0.00000000000E+00 0. -1.
         22    1    3    3    0    0  0.17792922517E+02 -0.19929869344E+02  0.41113682867E+02  0.49031853959E+02  0.00000000000E+00 0. -1.
</event>
<event>
 7    1  0.3110367E-005  0.9535802E+02  0.7818608E-02  0.1401523E+00
          2   -1    0    0  502    0  0.00000000000E+00  0.00000000000E+00  0.11345832504E+04  0.11345832504E+04  0.00000000000E+00 0. -1.
          1   -1    0    0  501    0 -0.00000000000E+00 -0.00000000000E+00 -0.28153205429E+02  0.28153205429E+02  0.00000000000E+00 0. -1.
         25    2    1    2    0    0 -0.75330920911E+02  0.33560894627E+02  0.54349218410E+03  0.56374284180E+03  0.12498462391E+03 0.  0.
          2    1    1    2  501    0  0.99657426612E+02 -0.61288268425E+01  0.12715531255E+03  0.16167139112E+03  0.00000000000E+00 0. -1.
          1    1    1    2  502    0 -0.24326505701E+02 -0.27432067785E+02  0.43578254835E+03  0.43732222293E+03  0.00000000000E+00 0. -1.
         22    1    3    3    0    0 -0.90460857827E+02 -0.67521789667E+01  0.22892922465E+03  0.24624652001E+03  0.00000000000E+00 0.  1.
         22    1    3    3    0    0  0.15129936915E+02  0.40313073594E+02  0.31456295945E+03  0.31749632179E+03  0.00000000000E+00 0.  1.
</event>
<event>
 7    1  0.3110367E-005  0.7637102E+02  0.7818608E-02  0.1395355E+00
          2   -1    0    0  502    0  0.00000000000E+00  0.00000000000E+00  0.13176175564E+03  0.13176175564E+03  0.00000000000E+00 0. -1.
          1   -1    0    0  501    0 -0.00000000000E+00 -0.00000000000E+00 -0.21246910286E+04  0.21246910286E+04  0.00000000000E+00 0. -1.
         25    2    1    2    0    0 -0.10774209181E+03 -0.28828865247E+02 -0.29591241630E+03  0.34003736858E+03  0.12498716772E+03 0.  0.
          2    1    1    2  501    0  0.32812380952E+02  0.35138551005E+02 -0.17934702008E+04  0.17941144700E+04  0.00000000000E+00 0. -1.
          1    1    1    2  502    0  0.74929710854E+02 -0.63096857578E+01  0.96453344191E+02  0.12230094566E+03  0.00000000000E+00 0. -1.
         22    1    3    3    0    0 -0.58992435701E+02  0.34972653838E+02 -0.21651487286E+03  0.22711645505E+03  0.00000000000E+00 0. -1.
         22    1    3    3    0    0 -0.48749656105E+02 -0.63801519085E+02 -0.79397543439E+02  0.11292091353E+03  0.00000000000E+00 0. -1.
</event>
<event>
 7    1  0.3110367E-005  0.9312176E+02  0.7818608E-02  0.1349497E+00
          2   -1    0    0  502    0  0.00000000000E+00  0.00000000000E+00  0.41063751578E+04  0.41063751578E+04  0.00000000000E+00 0. -1.
          1   -1    0    0  501    0 -0.00000000000E+00 -0.00000000000E+00 -0.85675745226E+01  0.85675745226E+01  0.00000000000E+00 0. -1.
         25    2    1    2    0    0  0.45456218581E+02  0.76395713696E+02  0.29595265189E+04  0.29634987677E+04  0.12500062857E+03 0.  0.
          2    1    1    2  501    0  0.88460582165E+01 -0.95485161639E+02  0.41763462234E+03  0.42850244645E+03  0.00000000000E+00 0. -1.
          1    1    1    2  502    0 -0.54302276798E+02  0.19089447942E+02  0.72064644208E+03  0.72294151822E+03  0.00000000000E+00 0. -1.
         22    1    3    3    0    0 -0.75124312441E+01  0.94979654502E+02  0.16232203884E+04  0.16260141453E+04  0.00000000000E+00 0.  1.
         22    1    3    3    0    0  0.52968649825E+02 -0.18583940806E+02  0.13363061305E+04  0.13374846224E+04  0.00000000000E+00 0.  1.
</event>
<event>
 7    1  0.3110367E-005  0.7961108E+02  0.7818608E-02  0.1348459E+00
          2   -1    0    0  502    0  0.00000000000E+00  0.00000000000E+00  0.22278564423E+03  0.22278564423E+03  0.00000000000E+00 0. -1.
          1   -1    0    0  501    0 -0.00000000000E+00 -0.00000000000E+00 -0.22484344209E+04  0.22484344209E+04  0.00000000000E+00 0. -1.
         25    2    1    2    0    0  0.31972614311E+02  0.30276843316E+02 -0.19922713555E+03  0.23928172189E+03  0.12500142231E+03 0.  0.
          2    1    1    2  501    0  0.13483611439E+02 -0.80754279780E+02 -0.20226391594E+04  0.20242954899E+04  0.00000000000E+00 0. -1.
          1    1    1    2  502    0 -0.45456225750E+02  0.50477436464E+02  0.19621751827E+03  0.20764285331E+03  0.00000000000E+00 0. -1.
         22    1    3    3    0    0 -0.11555774389E+02 -0.67491139700E+01 -0.17771939505E+03  0.17822252899E+03  0.00000000000E+00 0. -1.
         22    1    3    3    0    0  0.43528388700E+02  0.37025957286E+02 -0.21507740500E+02  0.61059192896E+02  0.00000000000E+00 0. -1.
</event>
<event>
 7    1  0.3110367E-005  0.8215894E+02  0.7818608E-02  0.1453173E+00
          2   -1    0    0  502    0  0.00000000000E+00  0.00000000000E+00  0.37641157780E+02  0.37641157780E+02  0.00000000000E+00 0. -1.
          1   -1    0    0  501    0 -0.00000000000E+00 -0.00000000000E+00 -0.92192987034E+03  0.92192987034E+03  0.00000000000E+00 0. -1.
         25    2    1    2    0    0 -0.55614335296E+02 -0.75388644417E+00 -0.11782436736E+03  0.18055655097E+03  0.12499825566E+03 0.  0.
          2    1    1    2  501    0  0.84234681363E+02 -0.16500261469E+01 -0.71607724052E+03  0.72101651750E+03  0.00000000000E+00 0. -1.
          1    1    1    2  502    0 -0.28620346067E+02  0.24039125911E+01 -0.50387104687E+02  0.57997959650E+02  0.00000000000E+00 0. -1.
         22    1    3    3    0    0  0.20187680698E+02  0.15271676141E+02  0.13041607315E+02  0.28475429154E+02  0.00000000000E+00 0. -1.
         22    1    3    3    0    0 -0.75802015994E+02 -0.16025562585E+02 -0.13086597467E+03  0.15208112181E+03  0.00000000000E+00 0. -1.
</event>
<event>
 7    1  0.3110367E-005  0.5221256E+03  0.7818608E-02  0.1210193E+00
          2   -1    0    0  502    0  0.00000000000E+00  0.00000000000E+00  0.57789033360E+03  0.57789033360E+03  0.00000000000E+00 0. -1.
          1   -1    0    0  501    0 -0.00000000000E+00 -0.00000000000E+00 -0.75698199729E+03  0.75698199729E+03  0.00000000000E+00 0. -1.
         25    2    1    2    0    0 -0.58833580334E+02  0.51781845006E+03 -0.45309019440E+03  0.70179402079E+03  0.12500714360E+03 0.  0.
          2    1    1    2  501    0  0.97645474971E+02 -0.51750384930E+03  0.27528334026E+03  0.59424388112E+03  0.00000000000E+00 0. -1.
          1    1    1    2  502    0 -0.38811894637E+02 -0.31460075877E+00 -0.12848095502E+01  0.38834428984E+02  0.00000000000E+00 0. -1.
         22    1    3    3    0    0 -0.84852674863E+02  0.40457737833E+03 -0.39553609955E+03  0.57212903923E+03  0.00000000000E+00 0.  1.
         22    1    3    3    0    0  0.26019094529E+02  0.11324107174E+03 -0.57554094854E+02  0.12966498156E+03  0.00000000000E+00 0.  1.
</event>
<event>
 7    1  0.3110367E-005  0.2009301E+03  0.7818608E-02  0.1210143E+00
          2   -1    0    0  502    0  0.00000000000E+00  0.00000000000E+00  0.33940068488E+03  0.33940068488E+03  0.00000000000E+00 0. -1.
          1   -1    0    0  501    0 -0.00000000000E+00 -0.00000000000E+00 -0.12850959267E+04  0.12850959267E+04  0.00000000000E+00 0. -1.
         25    2    1    2    0    0 -0.56341070105E+02  0.20308127603E+03 -0.66839649323E+03  0.71189548425E+03  0.12499994993E+03 0.  0.
          2    1    1    2  501    0  0.10070647041E+03 -0.64298315388E+01 -0.55797699191E+03  0.56702862310E+03  0.00000000000E+00 0. -1.
          1    1    1    2  502    0 -0.44365400304E+02 -0.19665144449E+03  0.28067824335E+03  0.34557250420E+03  0.00000000000E+00 0. -1.
         22    1    3    3    0    0 -0.54618550931E+02  0.17034252974E+03 -0.36237581009E+03  0.40412373264E+03  0.00000000000E+00 0.  1.
         22    1    3    3    0    0 -0.17225191738E+01  0.32738746288E+02 -0.30602068314E+03  0.30777175162E+03  0.00000000000E+00 0.  1.
</event>
<event>
 7    1  0.3110367E-005  0.8625314E+02  0.7818608E-02  0.1395002E+00
          2   -1    0    0  502    0  0.00000000000E+00  0.00000000000E+00  0.16829593934E+04  0.16829593934E+04  0.00000000000E+00 0. -1.
          1   -1    0    0  501    0 -0.00000000000E+00 -0.00000000000E+00 -0.19838751142E+02  0.19838751142E+02  0.00000000000E+00 0. -1.
         25    2    1    2    0    0  0.87128010598E+02 -0.25237513169E+02  0.37306905665E+03  0.40377597957E+03  0.12500519328E+03 0.  0.
          2    1    1    2  501    0 -0.24564518246E+02 -0.34912546189E+02  0.15852436741E+03  0.16417148504E+03  0.00000000000E+00 0. -1.
          1    1    1    2  502    0 -0.62563492351E+02  0.60150059358E+02  0.11315272182E+04  0.11348506799E+04  0.00000000000E+00 0. -1.
         22    1    3    3    0    0  0.52593692679E+02 -0.10386900495E+02  0.35904456524E+02  0.64522199357E+02  0.00000000000E+00 0. -1.
         22    1    3    3    0    0  0.34534317918E+02 -0.14850612674E+02  0.33716460013E+03  0.33925378021E+03  0.00000000000E+00 0. -1.
</event>
<event>
 7    1  0.3110367E-005  0.5712444E+02  0.7818608E-02  0.1525047E+00
          2   -1    0    0  502    0  0.00000000000E+00  0.00000000000E+00  0.90795701410E+03  0.90795701410E+03  0.00000000000E+00 0. -1.
          1   -1    0    0  501    0 -0.00000000000E+00 -0.00000000000E+00 -0.70860503267E+03  0.70860503267E+03  0.00000000000E+00 0. -1.
         25    2    1    2    0    0  0.17463875994E+02  0.60406636633E+02  0.62649839609E+02  0.15330767035E+03  0.12499716265E+03 0.  0.
          2    1    1    2  501    0  0.18907250106E+02 -0.16377437608E+02 -0.66202039025E+03  0.66249279368E+03  0.00000000000E+00 0. -1.
          1    1    1    2  502    0 -0.36371126100E+02 -0.44029199024E+02  0.79872253206E+03  0.80076158275E+03  0.00000000000E+00 0. -1.
         22    1    3    3    0    0 -0.24436923393E+01  0.64529041275E+02  0.95137650402E+02  0.11498322192E+03  0.00000000000E+00 0. -1.
         22    1    3    3    0    0  0.19907568333E+02 -0.41224046429E+01 -0.32487810793E+02  0.38324448425E+02  0.00000000000E+00 0. -1.
</event>
<event>
 7    1  0.3110367E-005  0.1366333E+03  0.7818608E-02  0.1367324E+00
          2   -1    0    0  502    0  0.00000000000E+00  0.00000000000E+00  0.26721104389E+04  0.26721104389E+04  0.00000000000E+00 0. -1.
          1   -1    0    0  501    0 -0.00000000000E+00 -0.00000000000E+00 -0.60254795627E+03  0.60254795627E+03  0.00000000000E+00 0. -1.
         25    2    1    2    0    0 -0.29421673717E+02 -0.10151274267E+03  0.76788013907E+03  0.78513462948E+03  0.12500402645E+03 0.  0.
          2    1    1    2  501    0  0.24001624210E+02  0.13483442691E+03 -0.58587260348E+03  0.60166694122E+03  0.00000000000E+00 0. -1.
          1    1    1    2  502    0  0.54200495064E+01 -0.33321684239E+02  0.18875549470E+04  0.18878568245E+04  0.00000000000E+00 0. -1.
         22    1    3    3    0    0 -0.69577080071E+02 -0.84456484185E+02  0.65573009154E+03  0.66479757878E+03  0.00000000000E+00 0. -1.
         22    1    3    3    0    0  0.40155406354E+02 -0.17056258485E+02  0.11215004753E+03  0.12033705071E+03  0.00000000000E+00 0. -1.
</event>
<event>
 7    1  0.3110367E-005  0.9086291E+02  0.7818608E-02  0.1390366E+00
          2   -1    0    0  502    0  0.00000000000E+00  0.00000000000E+00  0.19247063721E+03  0.19247063721E+03  0.00000000000E+00 0. -1.
          1   -1    0    0  501    0 -0.00000000000E+00 -0.00000000000E+00 -0.83591484080E+03  0.83591484080E+03  0.00000000000E+00 0. -1.
         25    2    1    2    0    0  0.84514594969E+02  0.32345857643E+02 -0.10596185595E+03  0.18719423414E+03  0.12499918043E+03 0.  0.
          2    1    1    2  501    0 -0.61691309955E+02 -0.67668164673E+02 -0.68331136198E+03  0.68941947728E+03  0.00000000000E+00 0. -1.
          1    1    1    2  502    0 -0.22823285013E+02  0.35322307030E+02  0.14582901434E+03  0.15177176659E+03  0.00000000000E+00 0. -1.
         22    1    3    3    0    0  0.10505163570E+03  0.18618228523E+02 -0.35360351097E+02  0.11239590307E+03  0.00000000000E+00 0. -1.
         22    1    3    3    0    0 -0.20537040733E+02  0.13727629121E+02 -0.70601504854E+02  0.74798331071E+02  0.00000000000E+00 0. -1.
</event>
<event>
 7    1  0.3110367E-005  0.4379361E+03  0.7818608E-02  0.1247545E+00
          2   -1    0    0  502    0  0.00000000000E+00  0.00000000000E+00  0.81197824298E+03  0.81197824298E+03  0.00000000000E+00 0. -1.
          1   -1    0    0  501    0 -0.00000000000E+00 -0.00000000000E+00 -0.89347162512E+03  0.89347162512E+03  0.00000000000E+00 0. -1.
         25    2    1    2    0    0 -0.40469978766E+03 -0.19630916130E+03 -0.49695698428E+03  0.68184416749E+03  0.12500407825E+03 0.  0.
          2    1    1    2  501    0  0.38066016675E+03  0.17604373615E+03 -0.15882068966E+03  0.44846133730E+03  0.00000000000E+00 0. -1.
          1    1    1    2  502    0  0.24039620906E+02  0.20265425150E+02  0.57428429180E+03  0.57514436331E+03  0.00000000000E+00 0. -1.
         22    1    3    3    0    0 -0.28930158116E+03 -0.79592325975E+02 -0.35519298651E+03  0.46496494586E+03  0.00000000000E+00 0.  1.
         22    1    3    3    0    0 -0.11539820650E+03 -0.11671683532E+03 -0.14176399777E+03  0.21687922163E+03  0.00000000000E+00 0.  1.
</event>
<event>
 7    1  0.3110367E-005  0.1281577E+03  0.7818608E-02  0.1285485E+00
          2   -1    0    0  502    0  0.00000000000E+00  0.00000000000E+00  0.20917115635E+03  0.20917115635E+03  0.00000000000E+00 0. -1.
          1   -1    0    0  501    0 -0.00000000000E+00 -0.00000000000E+00 -0.98708796472E+03  0.98708796472E+03  0.00000000000E+00 0. -1.
         25    2    1    2    0    0  0.14665214845E+02 -0.19555096128E+03 -0.21979131263E+03  0.31997778698E+03  0.12498926380E+03 0.  0.
          2    1    1    2  501    0 -0.11439679934E+02  0.73400235690E+02 -0.69145147129E+03  0.69543051272E+03  0.00000000000E+00 0. -1.
          1    1    1    2  502    0 -0.32255349109E+01  0.12215072559E+03  0.13332597555E+03  0.18085082138E+03  0.00000000000E+00 0. -1.
         22    1    3    3    0    0 -0.51776347664E+02 -0.11958390593E+03 -0.14053508494E+03  0.19165388291E+03  0.00000000000E+00 0. -1.
         22    1    3    3    0    0  0.66441562509E+02 -0.75967055343E+02 -0.79256227689E+02  0.12832390406E+03  0.00000000000E+00 0. -1.
</event>
<event>
 7    1  0.3110367E-005  0.2414503E+03  0.7818608E-02  0.1213028E+00
          2   -1    0    0  502    0  0.00000000000E+00  0.00000000000E+00  0.78925468735E+03  0.78925468735E+03  0.00000000000E+00 0. -1.
          1   -1    0    0  501    0 -0.00000000000E+00 -0.00000000000E+00 -0.40236401330E+03  0.40236401330E+03  0.00000000000E+00 0. -1.
         25    2    1    2    0    0  0.22590657496E+03  0.21497463963E+03  0.27487974888E+03  0.43408722629E+03  0.12499986958E+03 0.  0.
          2    1    1    2  501    0 -0.15603554247E+03 -0.17314251419E+03 -0.27589489125E+03  0.36116950556E+03  0.00000000000E+00 0. -1.
          1    1    1    2  502    0 -0.69871032492E+02 -0.41832125439E+02  0.38790581642E+03  0.39636196880E+03  0.00000000000E+00 0. -1.
         22    1    3    3    0    0  0.42750845799E+02 -0.74021100114E+01  0.62890997106E+02  0.76404866115E+02  0.00000000000E+00 0.  1.
         22    1    3    3    0    0  0.18315572916E+03  0.22237674964E+03  0.21198875178E+03  0.35768236018E+03  0.00000000000E+00 0.  1.
</event>
<event>
 7    1  0.3110367E-005  0.4831110E+03  0.7818608E-02  0.1198453E+00
          2   -1    0    0  502    0  0.00000000000E+00  0.00000000000E+00  0.14621508511E+04  0.14621508511E+04  0.00000000000E+00 0. -1.
          1   -1    0    0  501    0 -0.00000000000E+00 -0.00000000000E+00 -0.67679721016E+03  0.67679721016E+03  0.00000000000E+00 0. -1.
         25    2    1    2    0    0 -0.43448413841E+03 -0.18196660759E+03  0.17282982004E+03  0.51709029605E+03  0.12499565896E+03 0.  0.
          2    1    1    2  501    0 -0.30613581217E+02  0.36458802248E+02 -0.45020804972E+03  0.45271815035E+03  0.00000000000E+00 0. -1.
          1    1    1    2  502    0  0.46509771963E+03  0.14550780535E+03  0.10627318706E+04  0.11691396149E+04  0.00000000000E+00 0. -1.
         22    1    3    3    0    0 -0.38751169055E+03 -0.13972393427E+03  0.18693183126E+03  0.45236224164E+03  0.00000000000E+00 0. -1.
         22    1    3    3    0    0 -0.46972447859E+02 -0.42242673321E+02 -0.14102011214E+02  0.64728054408E+02  0.00000000000E+00 0. -1.
</event>
<event>
 7    1  0.3110367E-005  0.1152074E+03  0.7818608E-02  0.1262816E+00
          2   -1    0    0  502    0  0.00000000000E+00  0.00000000000E+00  0.74034707534E+03  0.74034707534E+03  0.00000000000E+00 0. -1.
          1   -1    0    0  501    0 -0.00000000000E+00 -0.00000000000E+00 -0.15228173565E+03  0.15228173565E+03  0.00000000000E+00 0. -1.
         25    2    1    2    0    0  0.45163121160E+02  0.44571646212E+02  0.16888603554E+02  0.14118907164E+03  0.12499115913E+03 0.  0.
          2    1    1    2  501    0  0.74971127016E+02 -0.70250227838E+02 -0.52779384261E+02  0.11550509859E+03  0.00000000000E+00 0. -1.
          1    1    1    2  502    0 -0.12013424818E+03  0.25678581626E+02  0.62395612040E+03  0.63593464076E+03  0.00000000000E+00 0. -1.
         22    1    3    3    0    0  0.65377762005E+02  0.64966150057E+02 -0.20128662833E+02  0.94339893393E+02  0.00000000000E+00 0. -1.
         22    1    3    3    0    0 -0.20214640844E+02 -0.20394503845E+02  0.37017266387E+02  0.46849178246E+02  0.00000000000E+00 0. -1.
</event>
<event>
 7    1  0.3110367E-005  0.2759138E+03  0.7818608E-02  0.1258041E+00
          2   -1    0    0  502    0  0.00000000000E+00  0.00000000000E+00  0.11479821439E+04  0.11479821439E+04  0.00000000000E+00 0. -1.
          1   -1    0    0  501    0 -0.00000000000E+00 -0.00000000000E+00 -0.71835898510E+03  0.71835898510E+03  0.00000000000E+00 0. -1.
         25    2    1    2    0    0 -0.29290212843E+03 -0.11473650061E+03  0.13665600907E+03  0.36504985736E+03  0.12502164665E+03 0.  0.
          2    1    1    2  501    0  0.25641097270E+03  0.88473904258E+02 -0.57310483036E+03  0.63405312493E+03  0.00000000000E+00 0. -1.
          1    1    1    2  502    0  0.36491155737E+02  0.26262596352E+02  0.86607198005E+03  0.86723814667E+03  0.00000000000E+00 0. -1.
         22    1    3    3    0    0 -0.16157451395E+03 -0.34875910549E+02  0.13156423752E+03  0.21126239913E+03  0.00000000000E+00 0. -1.
         22    1    3    3    0    0 -0.13132761448E+03 -0.79860590061E+02  0.50917715548E+01  0.15378745823E+03  0.00000000000E+00 0. -1.
</event>
<event>
 7    1  0.3110367E-005  0.1022540E+04  0.7818608E-02  0.1132758E+00
          2   -1    0    0  502    0  0.00000000000E+00  0.00000000000E+00  0.13061112560E+04  0.13061112560E+04  0.00000000000E+00 0. -1.
          1   -1    0    0  501    0 -0.00000000000E+00 -0.00000000000E+00 -0.18591290983E+04  0.18591290983E+04  0.00000000000E+00 0. -1.
         25    2    1    2    0    0  0.77262226906E+03  0.65135530650E+03 -0.44870194650E+03  0.11127291963E+04  0.12499568582E+03 0.  0.
          2    1    1    2  501    0 -0.76020457145E+03 -0.69770864471E+03 -0.83061754123E+03  0.13246259257E+04  0.00000000000E+00 0. -1.
          1    1    1    2  502    0 -0.12417697617E+02  0.46353338216E+02  0.72630164548E+03  0.72788523230E+03  0.00000000000E+00 0. -1.
         22    1    3    3    0    0  0.20570502801E+03  0.14461534402E+03 -0.16693558064E+03  0.30182054992E+03  0.00000000000E+00 0. -1.
         22    1    3    3    0    0  0.56691724106E+03  0.50673996248E+03 -0.28176636585E+03  0.81090864634E+03  0.00000000000E+00 0. -1.
</event>
<event>
 7    1  0.3110367E-005  0.3176933E+03  0.7818608E-02  0.1248504E+00
          2   -1    0    0  502    0  0.00000000000E+00  0.00000000000E+00  0.10533710123E+04  0.10533710123E+04  0.00000000000E+00 0. -1.
          1   -1    0    0  501    0 -0.00000000000E+00 -0.00000000000E+00 -0.28668622960E+04  0.28668622960E+04  0.00000000000E+00 0. -1.
         25    2    1    2    0    0 -0.21834581549E+03 -0.27762193994E+03 -0.11777466066E+03  0.39273999309E+03  0.12499997921E+03 0.  0.
          2    1    1    2  501    0  0.17961520185E+03  0.25910965598E+03 -0.26015796685E+04  0.26206137079E+04  0.00000000000E+00 0. -1.
          1    1    1    2  502    0  0.38730613637E+02  0.18512283960E+02  0.90586304540E+03  0.90687960728E+03  0.00000000000E+00 0. -1.
         22    1    3    3    0    0 -0.11140090594E+03 -0.23225762313E+03 -0.68436220172E+02  0.26652820034E+03  0.00000000000E+00 0.  1.
         22    1    3    3    0    0 -0.10694490956E+03 -0.45364316808E+02 -0.49338440485E+02  0.12621179275E+03  0.00000000000E+00 0.  1.
</event>
<event>
 7    1  0.3110367E-005  0.2600839E+03  0.7818608E-02  0.1167041E+00
          2   -1    0    0  502    0  0.00000000000E+00  0.00000000000E+00  0.12417167446E+04  0.12417167446E+04  0.00000000000E+00 0. -1.
          1   -1    0    0  501    0 -0.00000000000E+00 -0.00000000000E+00 -0.24120334847E+03  0.24120334847E+03  0.00000000000E+00 0. -1.
         25    2    1    2    0    0 -0.26338423813E+03  0.75997976816E+02 -0.75409845122E+02  0.31057884285E+03  0.12500249401E+03 0.  0.
          2    1    1    2  501    0  0.23613960797E+03  0.46683313167E+02  0.29207331090E+03  0.37848126126E+03  0.00000000000E+00 0. -1.
          1    1    1    2  502    0  0.27244630157E+02 -0.12268128998E+03  0.78384993031E+03  0.79385998894E+03  0.00000000000E+00 0. -1.
         22    1    3    3    0    0 -0.20446402876E+03  0.86016473382E+02 -0.10100432935E+02  0.22205042557E+03  0.00000000000E+00 0.  1.
         22    1    3    3    0    0 -0.58920209365E+02 -0.10018496566E+02 -0.65309412187E+02  0.88528417275E+02  0.00000000000E+00 0.  1.
</event>
<event>
 7    1  0.3110367E-005  0.1532254E+03  0.7818608E-02  0.1260662E+00
          2   -1    0    0  502    0  0.00000000000E+00  0.00000000000E+00  0.51349752194E+03  0.51349752194E+03  0.00000000000E+00 0. -1.
          1   -1    0    0  501    0 -0.00000000000E+00 -0.00000000000E+00 -0.21747833414E+03  0.21747833414E+03  0.00000000000E+00 0. -1.
         25    2    1    2    0    0  0.10478742442E+03 -0.60434949138E+02  0.29541442449E+03  0.34282112842E+03  0.12499542591E+03 0.  0.
          2    1    1    2  501    0 -0.15815644026E+03  0.23273462682E+01 -0.15009354308E+03  0.21805262624E+03  0.00000000000E+00 0. -1.
          1    1    1    2  502    0  0.53369015839E+02  0.58107602870E+02  0.15069830638E+03  0.17010210143E+03  0.00000000000E+00 0. -1.
         22    1    3    3    0    0  0.85998119050E+02 -0.74223810214E+02  0.11767849375E+03  0.16356368293E+03  0.00000000000E+00 0. -1.
         22    1    3    3    0    0  0.18789305368E+02  0.13788861076E+02  0.17773593075E+03  0.17925744549E+03  0.00000000000E+00 0. -1.
</event>
<event>
 7    1  0.3110367E-005  0.6185861E+03  0.7818608E-02  0.1141520E+00
          2   -1    0    0  502    0  0.00000000000E+00  0.00000000000E+00  0.76754206864E+03  0.76754206864E+03  0.00000000000E+00 0. -1.
          1   -1    0    0  501    0 -0.00000000000E+00 -0.00000000000E+00 -0.15185042820E+04  0.15185042820E+04  0.00000000000E+00 0. -1.
         25    2    1    2    0    0  0.38078046321E+03 -0.48587171977E+03  0.13887868837E+03  0.64496280562E+03  0.12499856527E+03 0.  0.
          2    1    1    2  501    0 -0.55800775606E+02 -0.44433940162E+02 -0.10058665511E+04  0.10083925923E+04  0.00000000000E+00 0. -1.
          1    1    1    2  502    0 -0.32497968761E+03  0.53030565993E+03  0.11602564939E+03  0.63269095270E+03  0.00000000000E+00 0. -1.
         22    1    3    3    0    0  0.36644116056E+03 -0.39883336489E+03  0.11843911405E+03  0.55441410592E+03  0.00000000000E+00 0.  1.
         22    1    3    3    0    0  0.14339302653E+02 -0.87038354873E+02  0.20439574319E+02  0.90548699703E+02  0.00000000000E+00 0.  1.
</event>
<event>
 7    1  0.3110367E-005  0.1236390E+03  0.7818608E-02  0.1302594E+00
          2   -1    0    0  502    0  0.00000000000E+00  0.00000000000E+00  0.62592447766E+03  0.62592447766E+03  0.00000000000E+00 0. -1.
          1   -1    0    0  501    0 -0.00000000000E+00 -0.00000000000E+00 -0.16021218711E+04  0.16021218711E+04  0.00000000000E+00 0. -1.
         25    2    1    2    0    0  0.74519061356E+02 -0.13874423148E+03 -0.11215489153E+03  0.23023288709E+03  0.12500164131E+03 0.  0.
          2    1    1    2  501    0 -0.63577047501E+02  0.16440550626E+02 -0.14235126987E+04  0.14250265738E+04  0.00000000000E+00 0. -1.
          1    1    1    2  502    0 -0.10942013855E+02  0.12230368086E+03  0.55947019670E+03  0.57278688796E+03  0.00000000000E+00 0. -1.
         22    1    3    3    0    0  0.72371780702E+02 -0.44191039110E+02 -0.10559469596E+03  0.13542807092E+03  0.00000000000E+00 0.  1.
         22    1    3    3    0    0  0.21472806533E+01 -0.94553192373E+02 -0.65601955672E+01  0.94804816164E+02  0.00000000000E+00 0.  1.
</event>
<event>
 7    1  0.3110367E-005  0.9506615E+02  0.7818608E-02  0.1354533E+00
          2   -1    0    0  502    0  0.00000000000E+00  0.00000000000E+00  0.81246726809E+03  0.81246726809E+03  0.00000000000E+00 0. -1.
          1   -1    0    0  501    0 -0.00000000000E+00 -0.00000000000E+00 -0.11060708914E+04  0.11060708914E+04  0.00000000000E+00 0. -1.
         25    2    1    2    0    0 -0.82078461210E+02 -0.12311532499E+03  0.19844793006E+03  0.27730815903E+03  0.12499590826E+03 0.  0.
          2    1    1    2  501    0  0.46772463080E+02  0.82231012592E+02 -0.10632663761E+04  0.10674666221E+04  0.00000000000E+00 0. -1.
          1    1    1    2  502    0  0.35305998129E+02  0.40884312393E+02  0.57121482279E+03  0.57376337830E+03  0.00000000000E+00 0. -1.
         22    1    3    3    0    0 -0.15759960587E+02 -0.11797171938E+03  0.16331342112E+03  0.20208160839E+03  0.00000000000E+00 0.  1.
         22    1    3    3    0    0 -0.66318500623E+02 -0.51436056081E+01  0.35134508937E+02  0.75226550644E+02  0.00000000000E+00 0.  1.
</event>
<event>
 7    1  0.3110367E-005  0.3114116E+03  0.7818608E-02  0.1137164E+00
          2   -1    0    0  502    0  0.00000000000E+00  0.00000000000E+00  0.22590645947E+04  0.22590645947E+04  0.00000000000E+00 0. -1.
          1   -1    0    0  501    0 -0.00000000000E+00 -0.00000000000E+00 -0.18669073552E+04  0.18669073552E+04  0.00000000000E+00 0. -1.
         25    2    1    2    0    0 -0.24028511015E+03 -0.37310984822E+03 -0.65924829772E+03  0.80447555734E+03  0.12499884522E+03 0.  0.
          2    1    1    2  501    0  0.29561653358E+02  0.14638824029E+03 -0.11191054545E+04  0.11290263179E+04  0.00000000000E+00 0. -1.
          1    1    1    2  502    0  0.21072345680E+03  0.22672160793E+03  0.21705109918E+04  0.21924700746E+04  0.00000000000E+00 0. -1.
         22    1    3    3    0    0 -0.63359925147E+02 -0.21319506487E+03 -0.30755611044E+03  0.37954891236E+03  0.00000000000E+00 0. -1.
         22    1    3    3    0    0 -0.17692518501E+03 -0.15991478334E+03 -0.35169218728E+03  0.42492664498E+03  0.00000000000E+00 0. -1.
</event>
<event>
 7    1  0.3110367E-005  0.7100749E+03  0.7818608E-02  0.1137580E+00
          2   -1    0    0  502    0  0.00000000000E+00  0.00000000000E+00  0.20031131581E+04  0.20031131581E+04  0.00000000000E+00 0. -1.
          1   -1    0    0  501    0 -0.00000000000E+00 -0.00000000000E+00 -0.16485083244E+04  0.16485083244E+04  0.00000000000E+00 0. -1.
         25    2    1    2    0    0  0.62593525507E+03 -0.41489355518E+03 -0.30542310058E+03  0.82026869640E+03  0.12500343300E+03 0.  0.
          2    1    1    2  501    0 -0.59239980640E+03  0.35901770188E+03 -0.97445427404E+03  0.11955719857E+04  0.00000000000E+00 0. -1.
          1    1    1    2  502    0 -0.33535448669E+02  0.55875853298E+02  0.16344822084E+04  0.16357808003E+04  0.00000000000E+00 0. -1.
         22    1    3    3    0    0  0.60929188714E+03 -0.42272761715E+03 -0.30505811753E+03  0.80187012484E+03  0.00000000000E+00 0.  1.
         22    1    3    3    0    0  0.16643367930E+02  0.78340619704E+01 -0.36498305010E+00  0.18398571565E+02  0.00000000000E+00 0.  1.
</event>
<event>
 7    1  0.3110367E-005  0.3482005E+02  0.7818608E-02  0.1574691E+00
          2   -1    0    0  502    0  0.00000000000E+00  0.00000000000E+00  0.11384024725E+04  0.11384024725E+04  0.00000000000E+00 0. -1.
          1   -1    0    0  501    0 -0.00000000000E+00 -0.00000000000E+00 -0.40474187786E+02  0.40474187786E+02  0.00000000000E+00 0. -1.
         25    2    1    2    0    0  0.10045916913E+02  0.89407768963E+00  0.30605617249E+03  0.33075433976E+03  0.12500533080E+03 0.  0.
          2    1    1    2  501    0  0.16340235508E+02 -0.24955162388E+02 -0.19711545568E+02  0.35753439764E+02  0.00000000000E+00 0. -1.
          1    1    1    2  502    0 -0.26386152421E+02  0.24061084699E+02  0.81158365782E+03  0.81236888079E+03  0.00000000000E+00 0. -1.
         22    1    3    3    0    0 -0.17573875319E+02  0.41982876488E+02  0.41458496825E+02  0.61564681197E+02  0.00000000000E+00 0.  1.
         22    1    3    3    0    0  0.27619792232E+02 -0.41088798798E+02  0.26459767566E+03  0.26918965856E+03  0.00000000000E+00 0.  1.
</event>
<event>
 7    1  0.3110367E-005  0.1750958E+03  0.7818608E-02  0.1346877E+00
          2   -1    0    0  502    0  0.00000000000E+00  0.00000000000E+00  0.27669156707E+03  0.27669156707E+03  0.00000000000E+00 0. -1.
          1   -1    0    0  501    0 -0.00000000000E+00 -0.00000000000E+00 -0.59815609849E+03  0.59815609849E+03  0.00000000000E+00 0. -1.
         25    2    1    2    0    0  0.14893492030E+03 -0.10371720839E+03 -0.31250117029E+03  0.38238887101E+03  0.12500158976E+03 0.  0.
          2    1    1    2  501    0 -0.24734107766E+02 -0.19191354151E+02 -0.21787078560E+03  0.22010852637E+03  0.00000000000E+00 0. -1.
          1    1    1    2  502    0 -0.12420081253E+03  0.12290856254E+03  0.20890742447E+03  0.27235026818E+03  0.00000000000E+00 0. -1.
         22    1    3    3    0    0  0.65967207515E+02 -0.48262199008E+02 -0.25373920839E+03  0.26657925312E+03  0.00000000000E+00 0. -1.
         22    1    3    3    0    0  0.82967712781E+02 -0.55455009381E+02 -0.58761961899E+02  0.11580961789E+03  0.00000000000E+00 0. -1.
</event>
<event>
 7    1  0.3110367E-005  0.4554821E+02  0.7818608E-02  0.1474414E+00
          2   -1    0    0  502    0  0.00000000000E+00  0.00000000000E+00  0.62822524772E+02  0.62822524772E+02  0.00000000000E+00 0. -1.
          1   -1    0    0  501    0 -0.00000000000E+00 -0.00000000000E+00 -0.38019064419E+03  0.38019064419E+03  0.00000000000E+00 0. -1.
         25    2    1    2    0    0  0.24339251968E+02  0.29511981955E+02 -0.44554856215E+02  0.13811000409E+03  0.12500352696E+03 0.  0.
          2    1    1    2  501    0  0.30925210051E+02 -0.33440551399E+02 -0.23111606009E+03  0.23556161047E+03  0.00000000000E+00 0. -1.
          1    1    1    2  502    0 -0.55264462019E+02  0.39285694441E+01 -0.41697203117E+02  0.69341554409E+02  0.00000000000E+00 0. -1.
         22    1    3    3    0    0 -0.18620018361E+02  0.40650804099E+02 -0.72850321019E+02  0.85477261481E+02  0.00000000000E+00 0.  1.
         22    1    3    3    0    0  0.42959270329E+02 -0.11138822144E+02  0.28295464804E+02  0.52632742608E+02  0.00000000000E+00 0.  1.
</event>
<event>
 7    1  0.3110367E-005  0.1335006E+03  0.7818608E-02  0.1302806E+00
          2   -1    0    0  502    0  0.00000000000E+00  0.00000000000E+00  0.17630168854E+03  0.17630168854E+03  0.00000000000E+00 0. -1.
          1   -1    0    0  501    0 -0.00000000000E+00 -0.00000000000E+00 -0.10918551313E+04  0.10918551313E+04  0.00000000000E+00 0. -1.
         25    2    1    2    0    0  0.91849420208E+02  0.15703700680E+03 -0.76860655779E+02  0.23372946273E+03  0.12499985537E+03 0.  0.
          2    1    1    2  501    0 -0.25590257025E+02 -0.55041386547E+02 -0.89734527714E+03  0.89939588719E+03  0.00000000000E+00 0. -1.
          1    1    1    2  502    0 -0.66259163183E+02 -0.10199562026E+03  0.58652490188E+02  0.13503146990E+03  0.00000000000E+00 0. -1.
         22    1    3    3    0    0  0.50979698795E+02 -0.97130224050E-01 -0.45573156570E+02  0.68380199790E+02  0.00000000000E+00 0. -1.
         22    1    3    3    0    0  0.40869721413E+02  0.15713413703E+03 -0.31287499209E+02  0.16534926294E+03  0.00000000000E+00 0. -1.
</event>
<event>
 7    1  0.3110367E-005  0.8705141E+02  0.7818608E-02  0.1433694E+00
          2   -1    0    0  502    0  0.00000000000E+00  0.00000000000E+00  0.89784851994E+02  0.89784851994E+02  0.00000000000E+00 0. -1.
          1   -1    0    0  501    0 -0.00000000000E+00 -0.00000000000E+00 -0.28208280623E+03  0.28208280623E+03  0.00000000000E+00 0. -1.
         25    2    1    2    0    0 -0.65276537858E+02 -0.89099747071E+02 -0.10936393231E+03  0.19946062120E+03  0.12499711355E+03 0.  0.
          2    1    1    2  501    0  0.41682489270E+02  0.68483549646E+02 -0.10642761135E+03  0.13324512352E+03  0.00000000000E+00 0. -1.
          1    1    1    2  502    0  0.23594048588E+02  0.20616197425E+02  0.23493589428E+02  0.39161913503E+02  0.00000000000E+00 0. -1.
         22    1    3    3    0    0 -0.69479967227E+02  0.39750180086E+00 -0.18607388585E+02  0.71929540270E+02  0.00000000000E+00 0.  1.
         22    1    3    3    0    0  0.42034293686E+01 -0.89497248872E+02 -0.90756543729E+02  0.12753108093E+03  0.00000000000E+00 0.  1.
</event>
<event>
 7    1  0.3110367E-005  0.2477569E+03  0.7818608E-02  0.1136560E+00
          2   -1    0    0  502    0  0.00000000000E+00  0.00000000000E+00  0.91652946975E+03  0.91652946975E+03  0.00000000000E+00 0. -1.
          1   -1    0    0  501    0 -0.00000000000E+00 -0.00000000000E+00 -0.92088358387E+03  0.92088358387E+03  0.00000000000E+00 0. -1.
         25    2    1    2    0    0 -0.15978677279E+03  0.12524567262E+03  0.24919511812E+03  0.34489595918E+03  0.12504688917E+03 0.  0.
          2    1    1    2  501    0  0.25136899059E+03  0.40191487687E+02 -0.83927120597E+03  0.87702786859E+03  0.00000000000E+00 0. -1.
          1    1    1    2  502    0 -0.91582217803E+02 -0.16543716031E+03  0.58572197373E+03  0.61548922585E+03  0.00000000000E+00 0. -1.
         22    1    3    3    0    0 -0.25031430531E+02  0.72193933050E+02  0.29806786084E+02  0.82018174695E+02  0.00000000000E+00 0. -1.
         22    1    3    3    0    0 -0.13475534226E+03  0.53051739575E+02  0.21938833204E+03  0.26287778448E+03  0.00000000000E+00 0. -1.
</event>
<event>
 7    1  0.3110367E-005  0.7455854E+03  0.7818608E-02  0.1228818E+00
          2   -1    0    0  502    0  0.00000000000E+00  0.00000000000E+00  0.88072696165E+03  0.88072696165E+03  0.00000000000E+00 0. -1.
          1   -1    0    0  501    0 -0.00000000000E+00 -0.00000000000E+00 -0.13363430499E+04  0.13363430499E+04  0.00000000000E+00 0. -1.
         25    2    1    2    0    0  0.52196890339E+03  0.54584827717E+03 -0.50820133468E+03  0.91885553808E+03  0.12500010198E+03 0.  0.
          2    1    1    2  501    0 -0.50087796992E+03 -0.53845514202E+03 -0.40536293984E+03  0.83972125953E+03  0.00000000000E+00 0. -1.
          1    1    1    2  502    0 -0.21090933467E+02 -0.73931351495E+01  0.45794818627E+03  0.45849321394E+03  0.00000000000E+00 0. -1.
         22    1    3    3    0    0  0.24704740893E+03  0.34700343714E+03 -0.27080929001E+03  0.50475883271E+03  0.00000000000E+00 0.  1.
         22    1    3    3    0    0  0.27492149446E+03  0.19884484002E+03 -0.23739204466E+03  0.41409670536E+03  0.00000000000E+00 0.  1.
</event>
<event>
 7    1  0.3110367E-005  0.9230332E+02  0.7818608E-02  0.1480026E+00
          2   -1    0    0  502    0  0.00000000000E+00  0.00000000000E+00  0.54664026177E+03  0.54664026177E+03  0.00000000000E+00 0. -1.
          1   -1    0    0  501    0 -0.00000000000E+00 -0.00000000000E+00 -0.20889515585E+03  0.20889515585E+03  0.00000000000E+00 0. -1.
         25    2    1    2    0    0  0.31032246001E+02 -0.10194654511E+03  0.32772721714E+03  0.36658659439E+03  0.12499801591E+03 0.  0.
          2    1    1    2  501    0 -0.74913363879E+01  0.19695238554E+02 -0.17964825759E+03  0.18087984685E+03  0.00000000000E+00 0. -1.
          1    1    1    2  502    0 -0.23540909614E+02  0.82251306558E+02  0.18966614637E+03  0.20806897638E+03  0.00000000000E+00 0. -1.
         22    1    3    3    0    0  0.77310991001E+02 -0.44043507751E+02  0.20019811241E+03  0.21908013173E+03  0.00000000000E+00 0.  1.
         22    1    3    3    0    0 -0.46278745000E+02 -0.57903037361E+02  0.12752910472E+03  0.14750646266E+03  0.00000000000E+00 0.  1.
</event>
<event>
 7    1  0.3110367E-005  0.1729818E+03  0.7818608E-02  0.1254251E+00
          2   -1    0    0  502    0  0.00000000000E+00  0.00000000000E+00  0.31062205467E+03  0.31062205467E+03  0.00000000000E+00 0. -1.
          1   -1    0    0  501    0 -0.00000000000E+00 -0.00000000000E+00 -0.37865547204E+03  0.37865547204E+03  0.00000000000E+00 0. -1.
         25    2    1    2    0    0 -0.72697630009E+02 -0.90259375179E+02 -0.19709249988E+03  0.26057990043E+03  0.12499892313E+03 0.  0.
          2    1    1    2  501    0 -0.72135899606E+02 -0.18421245747E+02 -0.10751673566E+03  0.13077759271E+03  0.00000000000E+00 0. -1.
          1    1    1    2  502    0  0.14483352961E+03  0.10868062093E+03  0.23657581817E+03  0.29792003358E+03  0.00000000000E+00 0. -1.
         22    1    3    3    0    0 -0.29806276353E+01 -0.32301991548E+02  0.10465169840E+02  0.34085518609E+02  0.00000000000E+00 0. -1.
         22    1    3    3    0    0 -0.69717002373E+02 -0.57957383631E+02 -0.20755766972E+03  0.22649438182E+03  0.00000000000E+00 0. -1.
</event>
<event>
 7    1  0.3110367E-005  0.2555315E+03  0.7818608E-02  0.1200440E+00
          2   -1    0    0  502    0  0.00000000000E+00  0.00000000000E+00  0.91833094205E+03  0.91833094205E+03  0.00000000000E+00 0. -1.
          1   -1    0    0  501    0 -0.00000000000E+00 -0.00000000000E+00 -0.17495331784E+03  0.17495331784E+03  0.00000000000E+00 0. -1.
         25    2    1    2    0    0  0.30295423893E+03  0.71973503245E+02  0.74253895969E+02  0.34365748996E+03  0.12500149312E+03 0.  0.
          2    1    1    2  501    0 -0.59921635842E+02 -0.64560870763E+02  0.25022378558E+03  0.26527467151E+03  0.00000000000E+00 0. -1.
          1    1    1    2  502    0 -0.24303260309E+03 -0.74126324817E+01  0.41889994266E+03  0.48435209842E+03  0.00000000000E+00 0. -1.
         22    1    3    3    0    0  0.20330443799E+03 -0.76521858327E+01  0.17982564937E+02  0.20424158023E+03  0.00000000000E+00 0. -1.
         22    1    3    3    0    0  0.99649800944E+02  0.79625689078E+02  0.56271331032E+02  0.13941590973E+03  0.00000000000E+00 0. -1.
</event>
<event>
 7    1  0.3110367E-005  0.2072678E+03  0.7818608E-02  0.1295361E+00
          2   -1    0    0  502    0  0.00000000000E+00  0.00000000000E+00  0.10732048461E+04  0.10732048461E+04  0.00000000000E+00 0. -1.
          1   -1    0    0  501    0 -0.00000000000E+00 -0.00000000000E+00 -0.47191843053E+03  0.47191843053E+03  0.00000000000E+00 0. -1.
         25    2    1    2    0    0 -0.19628510569E+03 -0.42219360998E+02  0.34042798207E+03  0.41452209173E+03  0.12500814532E+03 0.  0.
          2    1    1    2  501    0 -0.14972311270E+02  0.39109715715E+02 -0.41775985396E+03  0.41985358823E+03  0.00000000000E+00 0. -1.
          1    1    1    2  502    0  0.21125741696E+03  0.31096452825E+01  0.67861828745E+03  0.71074759668E+03  0.00000000000E+00 0. -1.
         22    1    3    3    0    0 -0.12876873603E+03  0.61477812186E+01  0.10960269394E+03  0.16920973114E+03  0.00000000000E+00 0.  1.
         22    1    3    3    0    0 -0.67516369660E+02 -0.48367142216E+02  0.23082528813E+03  0.24531236059E+03  0.00000000000E+00 0.  1.
</event>
<event>
 7    1  0.3110367E-005  0.1044019E+03  0.7818608E-02  0.1287948E+00
          2   -1    0    0  502    0  0.00000000000E+00  0.00000000000E+00  0.14740191475E+04  0.14740191475E+04  0.00000000000E+00 0. -1.
          1   -1    0    0  501    0 -0.00000000000E+00 -0.00000000000E+00 -0.38282915271E+03  0.38282915271E+03  0.00000000000E+00 0. -1.
         25    2    1    2    0    0 -0.12804801896E+03  0.91364068212E+02  0.33292553161E+03  0.38885461055E+03  0.12499924171E+03 0.  0.
          2    1    1    2  501    0  0.89061247459E+02  0.26306917594E+01 -0.34689720365E+03  0.35815708318E+03  0.00000000000E+00 0. -1.
          1    1    1    2  502    0  0.38986771500E+02 -0.93994759971E+02  0.11051616669E+04  0.11098366065E+04  0.00000000000E+00 0. -1.
         22    1    3    3    0    0 -0.52576411823E+02  0.75301336183E+02  0.71824185566E+02  0.11659023949E+03  0.00000000000E+00 0. -1.
         22    1    3    3    0    0 -0.75471607136E+02  0.16062732029E+02  0.26110134605E+03  0.27226437106E+03  0.00000000000E+00 0. -1.
</event>
<event>
 7    1  0.3110367E-005  0.5087635E+03  0.7818608E-02  0.1181125E+00
          2   -1    0    0  502    0  0.00000000000E+00  0.00000000000E+00  0.21894220691E+04  0.21894220691E+04  0.00000000000E+00 0. -1.
          1   -1    0    0  501    0 -0.00000000000E+00 -0.00000000000E+00 -0.11501918990E+04  0.11501918990E+04  0.00000000000E+00 0. -1.
         25    2    1    2    0    0 -0.23570171003E+03 -0.50379714096E+03 -0.59599851197E+02  0.57318800185E+03  0.12500195143E+03 0.  0.
          2    1    1    2  501    0  0.36103089527E+02  0.41157291023E+02 -0.80000581801E+03  0.80187696346E+03  0.00000000000E+00 0. -1.
          1    1    1    2  502    0  0.19959862050E+03  0.46263984993E+03  0.18988358392E+04  0.19645490028E+04  0.00000000000E+00 0. -1.
         22    1    3    3    0    0 -0.13636892960E+03 -0.41193623832E+03 -0.58805237615E+02  0.43788811969E+03  0.00000000000E+00 0. -1.
         22    1    3    3    0    0 -0.99332780431E+02 -0.91860902640E+02 -0.79461358193E+00  0.13529988216E+03  0.00000000000E+00 0. -1.
</event>
<event>
 7    1  0.3110367E-005  0.1100427E+03  0.7818608E-02  0.1316372E+00
          2   -1    0    0  502    0  0.00000000000E+00  0.00000000000E+00  0.23412863498E+04  0.23412863498E+04  0.00000000000E+00 0. -1.
          1   -1    0    0  501    0 -0.00000000000E+00 -0.00000000000E+00 -0.77191467753E+02  0.77191467753E+02  0.00000000000E+00 0. -1.
         25    2    1    2    0    0 -0.66050978448E+02 -0.47765987302E+02  0.82813968676E+03  0.84147733199E+03  0.12499775267E+03 0.  0.
          2    1    1    2  501    0 -0.57010903170E+02  0.31436872639E+02 -0.52341546955E+02  0.83535367235E+02  0.00000000000E+00 0. -1.
          1    1    1    2  502    0  0.12306188162E+03  0.16329114664E+02  0.14882967423E+04  0.14934651183E+04  0.00000000000E+00 0. -1.
         22    1    3    3    0    0 -0.26451970215E+02  0.17219650095E+02  0.46850122096E+02  0.56490326765E+02  0.00000000000E+00 0.  1.
         22    1    3    3    0    0 -0.39599008233E+02 -0.64985637398E+02  0.78128956467E+03  0.78498700523E+03  0.00000000000E+00 0.  1.
</event>
<event>
 7    1  0.3110367E-005  0.1195665E+03  0.7818608E-02  0.1294903E+00
          2   -1    0    0  502    0  0.00000000000E+00  0.00000000000E+00  0.10315288316E+04  0.10315288316E+04  0.00000000000E+00 0. -1.
          1   -1    0    0  501    0 -0.00000000000E+00 -0.00000000000E+00 -0.77683334447E+03  0.77683334447E+03  0.00000000000E+00 0. -1.
         25    2    1    2    0    0  0.50613953985E+02  0.10429812094E+03 -0.61101385555E+03  0.63435303700E+03  0.12500389398E+03 0.  0.
          2    1    1    2  501    0  0.10780651379E+02 -0.14361390833E+03 -0.11886748136E+03  0.18673686094E+03  0.00000000000E+00 0. -1.
          1    1    1    2  502    0 -0.61394605364E+02  0.39315787390E+02  0.98457682400E+03  0.98727227807E+03  0.00000000000E+00 0. -1.
         22    1    3    3    0    0  0.71202240570E+02  0.11459308520E+03 -0.40111299829E+03  0.42319377552E+03  0.00000000000E+00 0. -1.
         22    1    3    3    0    0 -0.20588286585E+02 -0.10294964257E+02 -0.20990085726E+03  0.21115926148E+03  0.00000000000E+00 0. -1.
</event>
<event>
 7    1  0.3110367E-005  0.2150274E+03  0.7818608E-02  0.1213568E+00
          2   -1    0    0  502    0  0.00000000000E+00  0.00000000000E+00  0.19405233932E+04  0.19405233932E+04  0.00000000000E+00 0. -1.
          1   -1    0    0  501    0 -0.00000000000E+00 -0.00000000000E+00 -0.81157854549E+02  0.81157854549E+02  0.00000000000E+00 0. -1.
         25    2    1    2    0    0 -0.22338748693E+03  0.59827050568E+02  0.15859297151E+04  0.16075694091E+04  0.12500039431E+03 0.  0.
          2    1    1    2  501    0  0.16914479264E+03 -0.13279416839E+03  0.15637395781E+03  0.26588920008E+03  0.00000000000E+00 0. -1.
          1    1    1    2  502    0  0.54242694294E+02  0.72967117825E+02  0.11706186569E+03  0.14822263851E+03  0.00000000000E+00 0. -1.
         22    1    3    3    0    0 -0.15718218143E+02  0.46070345535E+02  0.18649446127E+03  0.19274263463E+03  0.00000000000E+00 0. -1.
         22    1    3    3    0    0 -0.20766926879E+03  0.13756705034E+02  0.13994352539E+04  0.14148267745E+04  0.00000000000E+00 0. -1.
</event>
<event>
 7    1  0.3110367E-005  0.7445553E+03  0.7818608E-02  0.1007207E+00
          2   -1    0    0  502    0  0.00000000000E+00  0.00000000000E+00  0.12645803710E+04  0.12645803710E+04  0.00000000000E+00 0. -1.
          1   -1    0    0  501    0 -0.00000000000E+00 -0.00000000000E+00 -0.10722632179E+04  0.10722632179E+04  0.00000000000E+00 0. -1.
         25    2    1    2    0    0  0.19026190244E+03  0.20652008347E+03  0.33466501290E+03  0.45439569601E+03  0.12499856518E+03 0.  0.
          2    1    1    2  501    0  0.17110721248E+03  0.72462739499E+03 -0.40786166631E+03  0.84894857239E+03  0.00000000000E+00 0. -1.
          1    1    1    2  502    0 -0.36136911492E+03 -0.93114747846E+03  0.26551380651E+03  0.10334993204E+04  0.00000000000E+00 0. -1.
         22    1    3    3    0    0  0.10196194883E+03  0.61472030384E+02  0.64804436424E+02  0.13555317964E+03  0.00000000000E+00 0.  1.
         22    1    3    3    0    0  0.88299953603E+02  0.14504805309E+03  0.26986057647E+03  0.31884251637E+03  0.00000000000E+00 0.  1.
</event>
<event>
 7    1  0.3110367E-005  0.4449439E+03  0.7818608E-02  0.1047023E+00
          2   -1    0    0  502    0  0.00000000000E+00  0.00000000000E+00  0.36879201891E+04  0.36879201891E+04  0.00000000000E+00 0. -1.
          1   -1    0    0  501    0 -0.00000000000E+00 -0.00000000000E+00 -0.11050955244E+04  0.11050955244E+04  0.00000000000E+00 0. -1.
         25    2    1    2    0    0  0.72650160068E+02  0.61425830099E+03  0.24175308560E+03  0.67576695002E+03  0.12500044102E+03 0.  0.
          2    1    1    2  501    0  0.18837391390E+03 -0.39144047385E+03 -0.82513272439E+03  0.93249900207E+03  0.00000000000E+00 0. -1.
          1    1    1    2  502    0 -0.26102407397E+03 -0.22281782714E+03  0.31662043035E+04  0.31847497614E+04  0.00000000000E+00 0. -1.
         22    1    3    3    0    0  0.28971794702E+01  0.47651901066E+03  0.18827807823E+03  0.51237427328E+03  0.00000000000E+00 0. -1.
         22    1    3    3    0    0  0.69752980598E+02  0.13773929032E+03  0.53475007361E+02  0.16339267674E+03  0.00000000000E+00 0. -1.
</event>
<event>
 7    1  0.3110367E-005  0.1337010E+03  0.7818608E-02  0.1232813E+00
          2   -1    0    0  502    0  0.00000000000E+00  0.00000000000E+00  0.47805323583E+03  0.47805323583E+03  0.00000000000E+00 0. -1.
          1   -1    0    0  501    0 -0.00000000000E+00 -0.00000000000E+00 -0.89386775681E+03  0.89386775681E+03  0.00000000000E+00 0. -1.
         25    2    1    2    0    0  0.71015995000E+02  0.17079476758E+03 -0.39258800670E+03  0.45162452835E+03  0.12500098967E+03 0.  0.
          2    1    1    2  501    0  0.38102831807E+02 -0.12182863679E+03 -0.45484309491E+03  0.47241537181E+03  0.00000000000E+00 0. -1.
          1    1    1    2  502    0 -0.10911882681E+03 -0.48966130790E+02  0.43161658064E+03  0.44788109249E+03  0.00000000000E+00 0. -1.
         22    1    3    3    0    0  0.26579860306E+02  0.16811498285E+03 -0.35367163562E+03  0.39249555701E+03  0.00000000000E+00 0.  1.
         22    1    3    3    0    0  0.44436134695E+02  0.26797847285E+01 -0.38916371088E+02  0.59128971338E+02  0.00000000000E+00 0.  1.
</event>
<event>
 7    1  0.3110367E-005  0.9068349E+02  0.7818608E-02  0.1391862E+00
          2   -1    0    0  502    0  0.00000000000E+00  0.00000000000E+00  0.76763796324E+03  0.76763796324E+03  0.00000000000E+00 0. -1.
          1   -1    0    0  501    0 -0.00000000000E+00 -0.00000000000E+00 -0.14182018612E+03  0.14182018612E+03  0.00000000000E+00 0. -1.
         25    2    1    2    0    0  0.85499437573E+02 -0.14726823224E+02  0.61972477285E+03  0.63813034071E+03  0.12499801803E+03 0.  0.
          2    1    1    2  501    0 -0.86958109287E+02 -0.26882557753E+02 -0.11303999678E+03  0.14512899625E+03  0.00000000000E+00 0. -1.
          1    1    1    2  502    0  0.14586717142E+01  0.41609380977E+02  0.11913300105E+03  0.12619881238E+03  0.00000000000E+00 0. -1.
         22    1    3    3    0    0  0.67761852586E+02 -0.54743796370E+01  0.11933448935E+03  0.13734029942E+03  0.00000000000E+00 0.  1.
         22    1    3    3    0    0  0.17737584987E+02 -0.92524435865E+01  0.50039028350E+03  0.50079004129E+03  0.00000000000E+00 0.  1.
</event>
<event>
 7    1  0.3110367E-005  0.1501972E+03  0.7818608E-02  0.1290723E+00
          2   -1    0    0  502    0  0.00000000000E+00  0.00000000000E+00  0.13305662728E+04  0.13305662728E+04  0.00000000000E+00 0. -1.
          1   -1    0    0  501    0 -0.00000000000E+00 -0.00000000000E+00 -0.63559717732E+02  0.63559717732E+02  0.00000000000E+00 0. -1.
         25    2    1    2    0    0 -0.71462332472E+02 -0.13773241857E+03  0.10456675098E+04  0.10644824406E+04  0.12500096461E+03 0.  0.
          2    1    1    2  501    0  0.12548540339E+02  0.15078567503E+03  0.22275611492E+03  0.26928437087E+03  0.00000000000E+00 0. -1.
          1    1    1    2  502    0  0.58913792133E+02 -0.13053256465E+02 -0.14170697036E+01  0.60359179040E+02  0.00000000000E+00 0. -1.
         22    1    3    3    0    0 -0.92217021574E+02 -0.43412455187E+02  0.58303706930E+03  0.59187907930E+03  0.00000000000E+00 0.  1.
         22    1    3    3    0    0  0.20754689102E+02 -0.94319963380E+02  0.46263044055E+03  0.47260336133E+03  0.00000000000E+00 0.  1.
</event>
<event>
 7    1  0.3110367E-005  0.2068292E+03  0.7818608E-02  0.1188720E+00
          2   -1    0    0  502    0  0.00000000000E+00  0.00000000000E+00  0.40245181894E+03  0.40245181894E+03  0.00000000000E+00 0. -1.
          1   -1    0    0  501    0 -0.00000000000E+00 -0.00000000000E+00 -0.44766837416E+03  0.44766837416E+03  0.00000000000E+00 0. -1.
         25    2    1    2    0    0  0.20390155453E+03  0.12989719962E+03  0.15288290490E+03  0.31216564756E+03  0.12500032997E+03 0.  0.
          2    1    1    2  501    0 -0.10116916033E+02 -0.12332809872E+03 -0.29594203819E+03  0.32077073104E+03  0.00000000000E+00 0. -1.
          1    1    1    2  502    0 -0.19378463850E+03 -0.65691009038E+01  0.97842578066E+02  0.21718381451E+03  0.00000000000E+00 0. -1.
         22    1    3    3    0    0  0.66120639585E+02  0.11503614422E+03  0.87477538069E+02  0.15892631350E+03  0.00000000000E+00 0.  1.
         22    1    3    3    0    0  0.13778091495E+03  0.14861055404E+02  0.65405366833E+02  0.15323933406E+03  0.00000000000E+00 0.  1.
</event>
<event>
 7    1  0.3110367E-005  0.1012893E+03  0.7818608E-02  0.1386173E+00
          2   -1    0    0  502    0  0.00000000000E+00  0.00000000000E+00  0.45217470372E+03  0.45217470372E+03  0.00000000000E+00 0. -1.
          1   -1    0    0  501    0 -0.00000000000E+00 -0.00000000000E+00 -0.68753572876E+03  0.68753572876E+03  0.00000000000E+00 0. -1.
         25    2    1    2    0    0 -0.10247947212E+03  0.42212739339E+02  0.11317663993E+03  0.20178907130E+03  0.12500367956E+03 0.  0.
          2    1    1    2  501    0  0.28842242902E+02  0.26283210784E+02 -0.63403191869E+03  0.63523157672E+03  0.00000000000E+00 0. -1.
          1    1    1    2  502    0  0.73637229216E+02 -0.68495950123E+02  0.28549425372E+03  0.30268978446E+03  0.00000000000E+00 0. -1.
         22    1    3    3    0    0 -0.15597049097E+02 -0.38218262573E+02  0.53002917711E+01  0.41617263576E+02  0.00000000000E+00 0. -1.
         22    1    3    3    0    0 -0.86882423022E+02  0.80431001913E+02  0.10787634816E+03  0.16017180773E+03  0.00000000000E+00 0. -1.
</event>
<event>
 7    1  0.3110367E-005  0.1829528E+03  0.7818608E-02  0.1254198E+00
          2   -1    0    0  502    0  0.00000000000E+00  0.00000000000E+00  0.75573558369E+03  0.75573558369E+03  0.00000000000E+00 0. -1.
          1   -1    0    0  501    0 -0.00000000000E+00 -0.00000000000E+00 -0.17578638640E+03  0.17578638640E+03  0.00000000000E+00 0. -1.
         25    2    1    2    0    0  0.10799827845E+03  0.17041429983E+03 -0.45954900450E+02  0.24174824323E+03  0.12500279395E+03 0.  0.
          2    1    1    2  501    0  0.36938070892E+02 -0.59966184535E+02  0.51754268860E+02  0.87400621932E+02  0.00000000000E+00 0. -1.
          1    1    1    2  502    0 -0.14493634934E+03 -0.11044811529E+03  0.57414982889E+03  0.60237310493E+03  0.00000000000E+00 0. -1.
         22    1    3    3    0    0  0.93110858482E+01  0.12430178837E+03 -0.30887678572E+01  0.12468829696E+03  0.00000000000E+00 0.  1.
         22    1    3    3    0    0  0.98687192604E+02  0.46112511452E+02 -0.42866132593E+02  0.11705994627E+03  0.00000000000E+00 0.  1.
</event>
<event>
 7    1  0.3110367E-005  0.1121879E+03  0.7818608E-02  0.1302868E+00
          2   -1    0    0  502    0  0.00000000000E+00  0.00000000000E+00  0.34948260600E+04  0.34948260600E+04  0.00000000000E+00 0. -1.
          1   -1    0    0  501    0 -0.00000000000E+00 -0.00000000000E+00 -0.27809543660E+02  0.27809543660E+02  0.00000000000E+00 0. -1.
         25    2    1    2    0    0 -0.23205882388E+02  0.10691399529E+03  0.48557735798E+03  0.51320484712E+03  0.12499891662E+03 0.  0.
          2    1    1    2  501    0  0.72091314418E+02 -0.37675129131E+01  0.88357392204E+02  0.11409811797E+03  0.00000000000E+00 0. -1.
          1    1    1    2  502    0 -0.48885432030E+02 -0.10314648238E+03  0.28930817662E+04  0.28953326386E+04  0.00000000000E+00 0. -1.
         22    1    3    3    0    0 -0.45542916571E+02  0.11901080534E+03  0.45933119577E+03  0.47667900777E+03  0.00000000000E+00 0.  1.
         22    1    3    3    0    0  0.22337034183E+02 -0.12096810053E+02  0.26246162211E+02  0.36525839352E+02  0.00000000000E+00 0.  1.
</event>
<event>
 7    1  0.3110367E-005  0.8319243E+03  0.7818608E-02  0.1100928E+00
          2   -1    0    0  502    0  0.00000000000E+00  0.00000000000E+00  0.15039476500E+04  0.15039476500E+04  0.00000000000E+00 0. -1.
          1   -1    0    0  501    0 -0.00000000000E+00 -0.00000000000E+00 -0.18286891539E+04  0.18286891539E+04  0.00000000000E+00 0. -1.
         25    2    1    2    0    0  0.75617837538E+03  0.36129221482E+03 -0.10279853553E+04  0.13321847542E+04  0.12499811517E+03 0.  0.
          2    1    1    2  501    0 -0.70250427682E+03 -0.43106373758E+03 -0.38426331203E+03  0.90938797979E+03  0.00000000000E+00 0. -1.
          1    1    1    2  502    0 -0.53674098554E+02  0.69771522754E+02  0.10875071634E+04  0.10910640699E+04  0.00000000000E+00 0. -1.
         22    1    3    3    0    0  0.10541827993E+03  0.64851378876E+01 -0.14395033118E+03  0.17854066372E+03  0.00000000000E+00 0.  1.
         22    1    3    3    0    0  0.65076009544E+03  0.35480707694E+03 -0.88403502411E+03  0.11536440905E+04  0.00000000000E+00 0.  1.
</event>
<event>
 7    1  0.3110367E-005  0.6065944E+03  0.7818608E-02  0.1210194E+00
          2   -1    0    0  502    0  0.00000000000E+00  0.00000000000E+00  0.34201154137E+04  0.34201154137E+04  0.00000000000E+00 0. -1.
          1   -1    0    0  501    0 -0.00000000000E+00 -0.00000000000E+00 -0.38972730957E+03  0.38972730957E+03  0.00000000000E+00 0. -1.
         25    2    1    2    0    0 -0.41284718520E+03 -0.43781261507E+03  0.25092471181E+04  0.25834218546E+04  0.12499877880E+03 0.  0.
          2    1    1    2  501    0  0.68667765136E+01 -0.32694766957E+02 -0.24084490791E+03  0.24315092036E+03  0.00000000000E+00 0. -1.
          1    1    1    2  502    0  0.40598040868E+03  0.47050738202E+03  0.76198589396E+03  0.98326994837E+03  0.00000000000E+00 0. -1.
         22    1    3    3    0    0 -0.31711825668E+03 -0.31272244739E+03  0.20528390691E+04  0.21005969536E+04  0.00000000000E+00 0. -1.
         22    1    3    3    0    0 -0.95728928514E+02 -0.12509016768E+03  0.45640804901E+03  0.48282490098E+03  0.00000000000E+00 0. -1.
</event>
<event>
 7    1  0.3110367E-005  0.9245074E+02  0.7818608E-02  0.1389398E+00
          2   -1    0    0  502    0  0.00000000000E+00  0.00000000000E+00  0.88244547863E+03  0.88244547863E+03  0.00000000000E+00 0. -1.
          1   -1    0    0  501    0 -0.00000000000E+00 -0.00000000000E+00 -0.10466493271E+04  0.10466493271E+04  0.00000000000E+00 0. -1.
         25    2    1    2    0    0  0.18297566390E+02 -0.97217682064E+02 -0.10994914526E+03  0.19365196584E+03  0.12500476266E+03 0.  0.
          2    1    1    2  501    0  0.22683256102E+02  0.89753188082E+02 -0.89193555806E+03  0.89672693983E+03  0.00000000000E+00 0. -1.
          1    1    1    2  502    0 -0.40980822492E+02  0.74644939820E+01  0.83768085484E+03  0.83871590008E+03  0.00000000000E+00 0. -1.
         22    1    3    3    0    0 -0.24885629664E+02 -0.34747130599E+02  0.16775716050E+02  0.45913857359E+02  0.00000000000E+00 0.  1.
         22    1    3    3    0    0  0.43183196054E+02 -0.62470551466E+02 -0.12672486131E+03  0.14773810848E+03  0.00000000000E+00 0.  1.
</event>
<event>
 7    1  0.3110367E-005  0.7531753E+02  0.7818608E-02  0.1491467E+00
          2   -1    0    0  502    0  0.00000000000E+00  0.00000000000E+00  0.15469006626E+04  0.15469006626E+04  0.00000000000E+00 0. -1.
          1   -1    0    0  501    0 -0.00000000000E+00 -0.00000000000E+00 -0.86291117101E+02  0.86291117101E+02  0.00000000000E+00 0. -1.
         25    2    1    2    0    0  0.66030113034E+02  0.45615903934E+02  0.36688111837E+02  0.15300850488E+03  0.12499919399E+03 0.  0.
          2    1    1    2  501    0  0.58224447016E+01 -0.23112279343E+02 -0.21920655976E+02  0.32381993101E+02  0.00000000000E+00 0. -1.
          1    1    1    2  502    0 -0.71852557736E+02 -0.22503624591E+02  0.14458420896E+04  0.14478012817E+04  0.00000000000E+00 0. -1.
         22    1    3    3    0    0 -0.23896668668E+02  0.52474066734E+02  0.71188470970E+01  0.58096957209E+02  0.00000000000E+00 0.  1.
         22    1    3    3    0    0  0.89926781702E+02 -0.68581627992E+01  0.29569264740E+02  0.94911547673E+02  0.00000000000E+00 0.  1.
</event>
<event>
 7    1  0.3110367E-005  0.2106610E+03  0.7818608E-02  0.1185972E+00
          2   -1    0    0  502    0  0.00000000000E+00  0.00000000000E+00  0.79505791416E+02  0.79505791416E+02  0.00000000000E+00 0. -1.
          1   -1    0    0  501    0 -0.00000000000E+00 -0.00000000000E+00 -0.12543315657E+04  0.12543315657E+04  0.00000000000E+00 0. -1.
         25    2    1    2    0    0 -0.25126921849E+03  0.28491719237E+02 -0.56908538300E+03  0.63515608090E+03  0.12496829890E+03 0.  0.
          2    1    1    2  501    0  0.88422860307E+02  0.88711163457E+02 -0.36157955327E+03  0.38265917745E+03  0.00000000000E+00 0. -1.
          1    1    1    2  502    0  0.16284635818E+03 -0.11720288269E+03 -0.24416083798E+03  0.31602209874E+03  0.00000000000E+00 0. -1.
         22    1    3    3    0    0 -0.51624083172E+02 -0.24097258392E+02 -0.47425081465E+02  0.74127337584E+02  0.00000000000E+00 0. -1.
         22    1    3    3    0    0 -0.19964513532E+03  0.52588977629E+02 -0.52166030154E+03  0.56102874331E+03  0.00000000000E+00 0. -1.
</event>
<event>
 7    1  0.3110367E-005  0.1441486E+03  0.7818608E-02  0.1217375E+00
          2   -1    0    0  502    0  0.00000000000E+00  0.00000000000E+00  0.11590873132E+04  0.11590873132E+04  0.00000000000E+00 0. -1.
          1   -1    0    0  501    0 -0.00000000000E+00 -0.00000000000E+00 -0.24348627872E+03  0.24348627872E+03  0.00000000000E+00 0. -1.
         25    2    1    2    0    0 -0.12577589568E+03  0.47720666183E+02  0.82770181660E+02  0.20143051773E+03  0.12500605020E+03 0.  0.
          2    1    1    2  501    0  0.13402362247E+03  0.82291404754E+02 -0.14545422909E+03  0.21422217308E+03  0.00000000000E+00 0. -1.
          1    1    1    2  502    0 -0.82477267943E+01 -0.13001207094E+03  0.97828508193E+03  0.98692090115E+03  0.00000000000E+00 0. -1.
         22    1    3    3    0    0 -0.50497452090E+02 -0.40637373905E+02  0.13350905771E+02  0.66178814664E+02  0.00000000000E+00 0.  1.
         22    1    3    3    0    0 -0.75278443589E+02  0.88358040088E+02  0.69419275889E+02  0.13525170307E+03  0.00000000000E+00 0.  1.
</event>
<event>
 7    1  0.3110367E-005  0.3352039E+03  0.7818608E-02  0.1185494E+00
          2   -1    0    0  502    0  0.00000000000E+00  0.00000000000E+00  0.35284500572E+03  0.35284500572E+03  0.00000000000E+00 0. -1.
          1   -1    0    0  501    0 -0.00000000000E+00 -0.00000000000E+00 -0.60161521616E+03  0.60161521616E+03  0.00000000000E+00 0. -1.
         25    2    1    2    0    0  0.15843142928E+03  0.30987170685E+03 -0.14466988900E+03  0.39708380177E+03  0.12500070543E+03 0.  0.
          2    1    1    2  501    0 -0.79981993779E+02 -0.32027169173E+03 -0.23444509586E+03  0.40488958844E+03  0.00000000000E+00 0. -1.
          1    1    1    2  502    0 -0.78449435497E+02  0.10399984882E+02  0.13034477441E+03  0.15248683167E+03  0.00000000000E+00 0. -1.
         22    1    3    3    0    0  0.17241271388E+03  0.22421957914E+03 -0.10567705624E+03  0.30194072894E+03  0.00000000000E+00 0. -1.
         22    1    3    3    0    0 -0.13981284610E+02  0.85652127714E+02 -0.38992832755E+02  0.95143072830E+02  0.00000000000E+00 0. -1.
</event>
<event>
 7    1  0.3110367E-005  0.1057570E+03  0.7818608E-02  0.1302304E+00
          2   -1    0    0  502    0  0.00000000000E+00  0.00000000000E+00  0.35895934534E+03  0.35895934534E+03  0.00000000000E+00 0. -1.
          1   -1    0    0  501    0 -0.00000000000E+00 -0.00000000000E+00 -0.27166382720E+04  0.27166382720E+04  0.00000000000E+00 0. -1.
         25    2    1    2    0    0 -0.14123546958E+03 -0.71431014674E+02 -0.39134407088E+02  0.20544201594E+03  0.12500028949E+03 0.  0.
          2    1    1    2  501    0  0.38737728232E+02  0.66519243457E+02 -0.25842123912E+04  0.25853586026E+04  0.00000000000E+00 0. -1.
          1    1    1    2  502    0  0.10249774135E+03  0.49117712169E+01  0.26566787164E+03  0.28479699876E+03  0.00000000000E+00 0. -1.
         22    1    3    3    0    0 -0.11793091846E+03 -0.33425034459E+02 -0.78840151728E+02  0.14574190880E+03  0.00000000000E+00 0. -1.
         22    1    3    3    0    0 -0.23304551120E+02 -0.38005980215E+02  0.39705744640E+02  0.59700107139E+02  0.00000000000E+00 0. -1.
</event>
<event>
 7    1  0.3110367E-005  0.2438387E+03  0.7818608E-02  0.1145882E+00
          2   -1    0    0  502    0  0.00000000000E+00  0.00000000000E+00  0.47983214703E+03  0.47983214703E+03  0.00000000000E+00 0. -1.
          1   -1    0    0  501    0 -0.00000000000E+00 -0.00000000000E+00 -0.57419517650E+03  0.57419517650E+03  0.00000000000E+00 0. -1.
         25    2    1    2    0    0 -0.22554053374E+03  0.37466016612E+02  0.26765998682E+03  0.37354457221E+03  0.12498577567E+03 0.  0.
          2    1    1    2  501    0 -0.35479142240E+02  0.16803820500E+03 -0.29534248287E+03  0.34164717189E+03  0.00000000000E+00 0. -1.
          1    1    1    2  502    0  0.26101967598E+03 -0.20550422161E+03 -0.66680533423E+02  0.33883557943E+03  0.00000000000E+00 0. -1.
         22    1    3    3    0    0 -0.29098875436E+02  0.55903468594E+02  0.58115200801E+02  0.85728168746E+02  0.00000000000E+00 0. -1.
         22    1    3    3    0    0 -0.19644165830E+03 -0.18437451982E+02  0.20954478602E+03  0.28781640346E+03  0.00000000000E+00 0. -1.
</event>
<event>
 7    1  0.3110367E-005  0.3884359E+02  0.7818608E-02  0.1554471E+00
          2   -1    0    0  502    0  0.00000000000E+00  0.00000000000E+00  0.39720372758E+03  0.39720372758E+03  0.00000000000E+00 0. -1.
          1   -1    0    0  501    0 -0.00000000000E+00 -0.00000000000E+00 -0.68316608786E+03  0.68316608786E+03  0.00000000000E+00 0. -1.
         25    2    1    2    0    0  0.42414484015E+02  0.14328662161E+02 -0.59102991046E+03  0.60576013721E+03  0.12499875906E+03 0.  0.
          2    1    1    2  501    0 -0.66993608307E+01 -0.29624022196E+02 -0.81044033065E+02  0.86548249099E+02  0.00000000000E+00 0. -1.
          1    1    1    2  502    0 -0.35715123184E+02  0.15295360035E+02  0.38611158324E+03  0.38806142913E+03  0.00000000000E+00 0. -1.
         22    1    3    3    0    0  0.25108432887E+02 -0.48650087410E+02 -0.14532687176E+03  0.15529701885E+03  0.00000000000E+00 0.  1.
         22    1    3    3    0    0  0.17306051128E+02  0.62978749571E+02 -0.44570303870E+03  0.45046311836E+03  0.00000000000E+00 0.  1.
</event>
<event>
 7    1  0.3110367E-005  0.1697728E+03  0.7818608E-02  0.1187628E+00
          2   -1    0    0  502    0  0.00000000000E+00  0.00000000000E+00  0.16134046740E+03  0.16134046740E+03  0.00000000000E+00 0. -1.
          1   -1    0    0  501    0 -0.00000000000E+00 -0.00000000000E+00 -0.11465043693E+04  0.11465043693E+04  0.00000000000E+00 0. -1.
         25    2    1    2    0    0 -0.29088461769E+03 -0.10796096657E+03 -0.75209604263E+03  0.82312858077E+03  0.12499108782E+03 0.  0.
          2    1    1    2  501    0  0.13690256074E+03  0.67380066378E+02 -0.27985153024E+03  0.31874639364E+03  0.00000000000E+00 0. -1.
          1    1    1    2  502    0  0.15398205696E+03  0.40580900197E+02  0.46783670945E+02  0.16596986230E+03  0.00000000000E+00 0. -1.
         22    1    3    3    0    0 -0.27169969530E+03 -0.82046271968E+02 -0.55445303346E+03  0.62287276509E+03  0.00000000000E+00 0. -1.
         22    1    3    3    0    0 -0.19184922389E+02 -0.25914694606E+02 -0.19764300917E+03  0.20025581569E+03  0.00000000000E+00 0. -1.
</event>
<event>
 7    1  0.3110367E-005  0.1304595E+03  0.7818608E-02  0.1349110E+00
          2   -1    0    0  502    0  0.00000000000E+00  0.00000000000E+00  0.24584425330E+02  0.24584425330E+02  0.00000000000E+00 0. -1.
          1   -1    0    0  501    0 -0.00000000000E+00 -0.00000000000E+00 -0.13915330794E+04  0.13915330794E+04  0.00000000000E+00 0. -1.
         25    2    1    2    0    0 -0.14823237036E+03  0.34205356808E+02 -0.87877819071E+03  0.90056771094E+03  0.12501300521E+03 0.  0.
          2    1    1    2  501    0  0.37898906484E+02  0.16215635417E+02 -0.84044361753E+02  0.93609447639E+02  0.00000000000E+00 0. -1.
          1    1    1    2  502    0  0.11033346388E+03 -0.50420992225E+02 -0.40412610163E+03  0.42194034617E+03  0.00000000000E+00 0. -1.
         22    1    3    3    0    0 -0.16718944496E+03  0.13881569857E+02 -0.71262698578E+03  0.73210807218E+03  0.00000000000E+00 0.  1.
         22    1    3    3    0    0  0.18957074599E+02  0.20323786951E+02 -0.16615120493E+03  0.16845963876E+03  0.00000000000E+00 0.  1.
</event>
<event>
 7    1  0.3110367E-005  0.1033182E+03  0.7818608E-02  0.1360704E+00
          2   -1    0    0  502    0  0.00000000000E+00  0.00000000000E+00  0.13130333252E+04  0.13130333252E+04  0.00000000000E+00 0. -1.
          1   -1    0    0  501    0 -0.00000000000E+00 -0.00000000000E+00 -0.94770874184E+02  0.94770874184E+02  0.00000000000E+00 0. -1.
         25    2    1    2    0    0  0.39714409343E+02  0.68797552032E+02  0.11054451382E+03  0.18481225711E+03  0.12500057347E+03 0.  0.
          2    1    1    2  501    0 -0.20712577957E+02 -0.11198584743E+03 -0.38404824939E+00  0.11388585691E+03  0.00000000000E+00 0. -1.
          1    1    1    2  502    0 -0.19001831386E+02  0.43188295398E+02  0.11081019854E+04  0.11091060854E+04  0.00000000000E+00 0. -1.
         22    1    3    3    0    0  0.46556190896E+02  0.40857800731E+02  0.13404691461E+03  0.14766656395E+03  0.00000000000E+00 0. -1.
         22    1    3    3    0    0 -0.68417815528E+01  0.27939751301E+02 -0.23502400790E+02  0.37145693161E+02  0.00000000000E+00 0. -1.
</event>
<event>
 7    1  0.8796610E-005  0.1131003E+03  0.7818608E-02  0.1274388E+00
          2   -1    0    0  502    0  0.00000000000E+00  0.00000000000E+00  0.25623001563E+04  0.25623001563E+04  0.00000000000E+00 0. -1.
          1   -1    0    0  501    0 -0.00000000000E+00 -0.00000000000E+00 -0.96973568688E+03  0.96973568688E+03  0.00000000000E+00 0. -1.
         25    2    1    2    0    0  0.10101196491E+03 -0.24022392552E+02 -0.20427944351E+03  0.26102900314E+03  0.12500222815E+03 0.  0.
          2    1    1    2  501    0 -0.97979770603E+02 -0.69480489387E+02 -0.73131707948E+03  0.74111554065E+03  0.00000000000E+00 0. -1.
          1    1    1    2  502    0 -0.30321943030E+01  0.93502881938E+02  0.25281609924E+04  0.25298912993E+04  0.00000000000E+00 0. -1.
         22    1    3    3    0    0  0.46391140264E+02  0.60184515343E+01  0.69512979853E+00  0.46785070902E+02  0.00000000000E+00 0.  1.
         22    1    3    3    0    0  0.54620824641E+02 -0.30040844086E+02 -0.20497457331E+03  0.21424393224E+03  0.00000000000E+00 0.  1.
</event>
<event>
 7    1  0.3110367E-005  0.7996322E+03  0.7818608E-02  0.1095026E+00
          2   -1    0    0  502    0  0.00000000000E+00  0.00000000000E+00  0.28300347602E+04  0.28300347602E+04  0.00000000000E+00 0. -1.
          1   -1    0    0  501    0 -0.00000000000E+00 -0.00000000000E+00 -0.26012624111E+04  0.26012624111E+04  0.00000000000E+00 0. -1.
         25    2    1    2    0    0  0.81665611276E+03 -0.27041909803E+03  0.11259188642E+04  0.14224529082E+04  0.12500116885E+03 0.  0.
          2    1    1    2  501    0 -0.95347155484E+02  0.26268427609E+02 -0.23587170169E+04  0.23607895027E+04  0.00000000000E+00 0. -1.
          1    1    1    2  502    0 -0.72130895728E+03  0.24415067042E+03  0.14615705017E+04  0.16480547604E+04  0.00000000000E+00 0. -1.
         22    1    3    3    0    0  0.57509957196E+03 -0.15084288606E+03  0.84430781435E+03  0.10326416510E+04  0.00000000000E+00 0.  1.
         22    1    3    3    0    0  0.24155654080E+03 -0.11957621197E+03  0.28161104988E+03  0.38981125726E+03  0.00000000000E+00 0.  1.
</event>
<event>
 7    1  0.3110367E-005  0.9133455E+02  0.7818608E-02  0.1428838E+00
          2   -1    0    0  502    0  0.00000000000E+00  0.00000000000E+00  0.23976642980E+03  0.23976642980E+03  0.00000000000E+00 0. -1.
          1   -1    0    0  501    0 -0.00000000000E+00 -0.00000000000E+00 -0.51883222261E+03  0.51883222261E+03  0.00000000000E+00 0. -1.
         25    2    1    2    0    0 -0.68698663932E+02  0.38228105417E+01 -0.13483361018E+03  0.19630299589E+03  0.12498257259E+03 0.  0.
          2    1    1    2  501    0 -0.20009318078E+02  0.23652024918E+02 -0.34221535712E+03  0.34361481595E+03  0.00000000000E+00 0. -1.
          1    1    1    2  502    0  0.88707982010E+02 -0.27474835460E+02  0.19798317449E+03  0.21868084058E+03  0.00000000000E+00 0. -1.
         22    1    3    3    0    0  0.42205341723E+01  0.17049561622E+02  0.18800569920E+02  0.25728620047E+02  0.00000000000E+00 0. -1.
         22    1    3    3    0    0 -0.72919198105E+02 -0.13226751080E+02 -0.15363418010E+03  0.17057437584E+03  0.00000000000E+00 0. -1.
</event>
<event>
 7    1  0.3110367E-005  0.5915566E+03  0.7818608E-02  0.1180922E+00
          2   -1    0    0  502    0  0.00000000000E+00  0.00000000000E+00  0.70225178158E+03  0.70225178158E+03  0.00000000000E+00 0. -1.
          1   -1    0    0  501    0 -0.00000000000E+00 -0.00000000000E+00 -0.77848928600E+03  0.77848928600E+03  0.00000000000E+00 0. -1.
         25    2    1    2    0    0 -0.53227470860E+03 -0.31948326821E+03  0.24852520927E+03  0.68027622683E+03  0.12500016427E+03 0.  0.
          2    1    1    2  501    0  0.48513467380E+03  0.32172350361E+03 -0.40376473299E+03  0.70844027561E+03  0.00000000000E+00 0. -1.
          1    1    1    2  502    0  0.47140034800E+02 -0.22402353979E+01  0.79002019301E+02  0.92024565140E+02  0.00000000000E+00 0. -1.
         22    1    3    3    0    0 -0.14007683760E+03 -0.13682255045E+03  0.39391783070E+02  0.19973393131E+03  0.00000000000E+00 0. -1.
         22    1    3    3    0    0 -0.39219787100E+03 -0.18266071776E+03  0.20913342620E+03  0.48054229552E+03  0.00000000000E+00 0. -1.
</event>
<event>
 7    1  0.3110367E-005  0.1131726E+03  0.7818608E-02  0.1290286E+00
          2   -1    0    0  502    0  0.00000000000E+00  0.00000000000E+00  0.14745084620E+04  0.14745084620E+04  0.00000000000E+00 0. -1.
          1   -1    0    0  501    0 -0.00000000000E+00 -0.00000000000E+00 -0.44395684893E+03  0.44395684893E+03  0.00000000000E+00 0. -1.
         25    2    1    2    0    0 -0.91327474894E+01  0.10102519810E+03  0.86962172253E+01  0.16121503864E+03  0.12500066704E+03 0.  0.
          2    1    1    2  501    0  0.79657986172E+02 -0.10989861243E+02 -0.36091181063E+03  0.36976141884E+03  0.00000000000E+00 0. -1.
          1    1    1    2  502    0 -0.70525238683E+02 -0.90035336862E+02  0.13827672065E+04  0.13874888534E+04  0.00000000000E+00 0. -1.
         22    1    3    3    0    0 -0.32486095322E+02 -0.16660860665E+02  0.18321865257E+02  0.40848762697E+02  0.00000000000E+00 0. -1.
         22    1    3    3    0    0  0.23353347833E+02  0.11768605877E+03 -0.96256480320E+01  0.12036627594E+03  0.00000000000E+00 0. -1.
</event>
<event>
 7    1  0.3110367E-005  0.2042817E+03  0.7818608E-02  0.1175555E+00
          2   -1    0    0  502    0  0.00000000000E+00  0.00000000000E+00  0.20344075854E+04  0.20344075854E+04  0.00000000000E+00 0. -1.
          1   -1    0    0  501    0 -0.00000000000E+00 -0.00000000000E+00 -0.56816958993E+02  0.56816958993E+02  0.00000000000E+00 0. -1.
         25    2    1    2    0    0  0.70980375967E+02 -0.61093816205E+02  0.11123693797E+04  0.11232815850E+04  0.12500085711E+03 0.  0.
          2    1    1    2  501    0 -0.19902099209E+03  0.12953726115E+03  0.29069990894E+03  0.37536075232E+03  0.00000000000E+00 0. -1.
          1    1    1    2  502    0  0.12804061613E+03 -0.68443444940E+02  0.57452133777E+03  0.59258220703E+03  0.00000000000E+00 0. -1.
         22    1    3    3    0    0 -0.14477703513E+01  0.33988692790E+02  0.34300846980E+03  0.34469136577E+03  0.00000000000E+00 0.  1.
         22    1    3    3    0    0  0.72428146318E+02 -0.95082508995E+02  0.76936090988E+03  0.77859021927E+03  0.00000000000E+00 0.  1.
</event>
<event>
 7    1  0.3110367E-005  0.3632085E+02  0.7818608E-02  0.1553928E+00
          2   -1    0    0  502    0  0.00000000000E+00  0.00000000000E+00  0.20699230007E+04  0.20699230007E+04  0.00000000000E+00 0. -1.
          1   -1    0    0  501    0 -0.00000000000E+00 -0.00000000000E+00 -0.45094487537E+02  0.45094487537E+02  0.00000000000E+00 0. -1.
         25    2    1    2    0    0 -0.49809893790E+01 -0.18621098782E+01  0.57597330650E+03  0.58940618575E+03  0.12500449709E+03 0.  0.
          2    1    1    2  501    0 -0.32413918865E+02  0.34262136653E+01 -0.31177908004E+02  0.45105022157E+02  0.00000000000E+00 0. -1.
          1    1    1    2  502    0  0.37394908244E+02 -0.15641037871E+01  0.14800331147E+04  0.14805062804E+04  0.00000000000E+00 0. -1.
         22    1    3    3    0    0  0.59440672420E+02  0.76592024287E+01  0.28546351321E+03  0.29168694570E+03  0.00000000000E+00 0.  1.
         22    1    3    3    0    0 -0.64421661799E+02 -0.95213123069E+01  0.29050979329E+03  0.29771924005E+03  0.00000000000E+00 0.  1.
</event>
<event>
 7    1  0.3110367E-005  0.1894353E+03  0.7818608E-02  0.1321525E+00
          2   -1    0    0  502    0  0.00000000000E+00  0.00000000000E+00  0.21768505011E+04  0.21768505011E+04  0.00000000000E+00 0. -1.
          1   -1    0    0  501    0 -0.00000000000E+00 -0.00000000000E+00 -0.98267415508E+03  0.98267415508E+03  0.00000000000E+00 0. -1.
         25    2    1    2    0    0 -0.15845071871E+03 -0.74435074544E+02  0.22679067708E+03  0.31258239275E+03  0.12500612170E+03 0.  0.
          2    1    1    2  501    0 -0.26303437488E+02  0.24746600841E+02 -0.93463057947E+03  0.93532806285E+03  0.00000000000E+00 0. -1.
          1    1    1    2  502    0  0.18475415620E+03  0.49688473702E+02  0.19020162485E+04  0.19116142006E+04  0.00000000000E+00 0. -1.
         22    1    3    3    0    0 -0.39080148124E+02  0.35507935527E+02  0.53638734397E+02  0.75267425162E+02  0.00000000000E+00 0.  1.
         22    1    3    3    0    0 -0.11937057059E+03 -0.10994301007E+03  0.17315194268E+03  0.23731496758E+03  0.00000000000E+00 0.  1.
</event>
<event>
 7    1  0.3110367E-005  0.5245183E+02  0.7818608E-02  0.1434458E+00
          2   -1    0    0  502    0  0.00000000000E+00  0.00000000000E+00  0.22265371766E+03  0.22265371766E+03  0.00000000000E+00 0. -1.
          1   -1    0    0  501    0 -0.00000000000E+00 -0.00000000000E+00 -0.29728241129E+03  0.29728241129E+03  0.00000000000E+00 0. -1.
         25    2    1    2    0    0 -0.16702343408E+02 -0.19349339638E+02 -0.73690849921E+02  0.14734413439E+03  0.12500634927E+03 0.  0.
          2    1    1    2  501    0 -0.25435205003E+02  0.50584285113E+02 -0.17859427531E+03  0.18735430267E+03  0.00000000000E+00 0. -1.
          1    1    1    2  502    0  0.42137548411E+02 -0.31234945475E+02  0.17765643161E+03  0.18523769189E+03  0.00000000000E+00 0. -1.
         22    1    3    3    0    0 -0.63933091866E+02 -0.16275172424E+02 -0.75139438699E+02  0.99991283225E+02  0.00000000000E+00 0.  1.
         22    1    3    3    0    0  0.47230748458E+02 -0.30741672141E+01  0.14485887788E+01  0.47352851165E+02  0.00000000000E+00 0.  1.
</event>
<event>
 7    1  0.3110367E-005  0.1579768E+03  0.7818608E-02  0.1196826E+00
          2   -1    0    0  502    0  0.00000000000E+00  0.00000000000E+00  0.95833977424E+03  0.95833977424E+03  0.00000000000E+00 0. -1.
          1   -1    0    0  501    0 -0.00000000000E+00 -0.00000000000E+00 -0.12197882434E+04  0.12197882434E+04  0.00000000000E+00 0. -1.
         25    2    1    2    0    0  0.25545225140E+03 -0.60946807688E+02 -0.95511701547E+02  0.30612951880E+03  0.12498972372E+03 0.  0.
          2    1    1    2  501    0 -0.14819562725E+03 -0.41313674380E+02 -0.10066427959E+04  0.10183312242E+04  0.00000000000E+00 0. -1.
          1    1    1    2  502    0 -0.10725662415E+03  0.10226048207E+03  0.84070602834E+03  0.85366727459E+03  0.00000000000E+00 0. -1.
         22    1    3    3    0    0  0.25847210173E+02 -0.53346882186E+02 -0.60209392893E+01  0.59583721121E+02  0.00000000000E+00 0. -1.
         22    1    3    3    0    0  0.22960504123E+03 -0.75999255024E+01 -0.89490762257E+02  0.24654579768E+03  0.00000000000E+00 0. -1.
</event>
<event>
 7    1  0.3110367E-005  0.2448652E+03  0.7818608E-02  0.1246176E+00
          2   -1    0    0  502    0  0.00000000000E+00  0.00000000000E+00  0.44835829367E+03  0.44835829367E+03  0.00000000000E+00 0. -1.
          1   -1    0    0  501    0 -0.00000000000E+00 -0.00000000000E+00 -0.20990406963E+04  0.20990406963E+04  0.00000000000E+00 0. -1.
         25    2    1    2    0    0 -0.20603977652E+03  0.13558639788E+03 -0.14719996131E+04  0.14977458447E+04  0.12499477377E+03 0.  0.
          2    1    1    2  501    0  0.23089220702E+03 -0.84277468448E+02 -0.58751881353E+03  0.63686125585E+03  0.00000000000E+00 0. -1.
          1    1    1    2  502    0 -0.24852430503E+02 -0.51308929435E+02  0.40883602395E+03  0.41279188948E+03  0.00000000000E+00 0. -1.
         22    1    3    3    0    0 -0.14269724641E+03  0.15313411262E+03 -0.11820755120E+04  0.12004645253E+04  0.00000000000E+00 0.  1.
         22    1    3    3    0    0 -0.63342530113E+02 -0.17547714736E+02 -0.28992410112E+03  0.29728131934E+03  0.00000000000E+00 0.  1.
</event>
<event>
 7    1  0.3110367E-005  0.3518705E+03  0.7818608E-02  0.1182350E+00
          2   -1    0    0  502    0  0.00000000000E+00  0.00000000000E+00  0.85094026139E+03  0.85094026139E+03  0.00000000000E+00 0. -1.
          1   -1    0    0  501    0 -0.00000000000E+00 -0.00000000000E+00 -0.42015166757E+03  0.42015166757E+03  0.00000000000E+00 0. -1.
         25    2    1    2    0    0 -0.27337644506E+03 -0.29427211597E+03  0.69834191028E+02  0.42641765668E+03  0.12499777893E+03 0.  0.
          2    1    1    2  501    0  0.13131801746E+02  0.76968375833E+02 -0.18568313037E+03  0.20143187434E+03  0.00000000000E+00 0. -1.
          1    1    1    2  502    0  0.26024464331E+03  0.21730374014E+03  0.54663753316E+03  0.64324239795E+03  0.00000000000E+00 0. -1.
         22    1    3    3    0    0 -0.28311542955E+03 -0.26459102845E+03  0.75156814796E+02  0.39472940807E+03  0.00000000000E+00 0.  1.
         22    1    3    3    0    0  0.97389844969E+01 -0.29681087529E+02 -0.53226237685E+01  0.31688248606E+02  0.00000000000E+00 0.  1.
</event>
<event>
 7    1  0.3110367E-005  0.2879898E+03  0.7818608E-02  0.1174344E+00
          2   -1    0    0  502    0  0.00000000000E+00  0.00000000000E+00  0.75598476365E+03  0.75598476365E+03  0.00000000000E+00 0. -1.
          1   -1    0    0  501    0 -0.00000000000E+00 -0.00000000000E+00 -0.93957303740E+03  0.93957303740E+03  0.00000000000E+00 0. -1.
         25    2    1    2    0    0  0.27087526640E+03  0.21735986294E+03 -0.52515348780E+03  0.64189554068E+03  0.12499991770E+03 0.  0.
          2    1    1    2  501    0 -0.17967415098E+03 -0.16653077833E+03 -0.30924947025E+03  0.39452570957E+03  0.00000000000E+00 0. -1.
          1    1    1    2  502    0 -0.91201115420E+02 -0.50829084609E+02  0.65081468430E+03  0.65913655080E+03  0.00000000000E+00 0. -1.
         22    1    3    3    0    0  0.66062392439E+02  0.11052501411E+03 -0.26064778970E+03  0.29071857305E+03  0.00000000000E+00 0. -1.
         22    1    3    3    0    0  0.20481287396E+03  0.10683484882E+03 -0.26450569810E+03  0.35117696763E+03  0.00000000000E+00 0. -1.
</event>
<event>
 7    1  0.3110367E-005  0.5143044E+03  0.7818608E-02  0.1168147E+00
          2   -1    0    0  502    0  0.00000000000E+00  0.00000000000E+00  0.27388896982E+04  0.27388896982E+04  0.00000000000E+00 0. -1.
          1   -1    0    0  501    0 -0.00000000000E+00 -0.00000000000E+00 -0.54450406902E+03  0.54450406902E+03  0.00000000000E+00 0. -1.
         25    2    1    2    0    0 -0.26908471300E+03  0.46718188973E+03  0.71799195079E+03  0.90653625464E+03  0.12502015319E+03 0.  0.
          2    1    1    2  501    0  0.30020837389E+03 -0.41269487294E+03 -0.30488625716E+03  0.59447267028E+03  0.00000000000E+00 0. -1.
          1    1    1    2  502    0 -0.31123660888E+02 -0.54487016793E+02  0.17812799356E+04  0.17823848423E+04  0.00000000000E+00 0. -1.
         22    1    3    3    0    0 -0.20813006049E+03  0.39001072058E+03  0.50008419212E+03  0.66746586689E+03  0.00000000000E+00 0. -1.
         22    1    3    3    0    0 -0.60954652511E+02  0.77171169150E+02  0.21790775867E+03  0.23907038775E+03  0.00000000000E+00 0. -1.
</event>
<event>
 7    1  0.3110367E-005  0.5385680E+03  0.7818608E-02  0.1036960E+00
          2   -1    0    0  502    0  0.00000000000E+00  0.00000000000E+00  0.62837445196E+03  0.62837445196E+03  0.00000000000E+00 0. -1.
          1   -1    0    0  501    0 -0.00000000000E+00 -0.00000000000E+00 -0.12359511018E+04  0.12359511018E+04  0.00000000000E+00 0. -1.
         25    2    1    2    0    0  0.22298340693E+03 -0.47265012249E+03  0.16862401729E+03  0.56318631359E+03  0.12500010623E+03 0.  0.
          2    1    1    2  501    0 -0.48749583561E+03  0.27862211348E+03 -0.79415027246E+03  0.97260327323E+03  0.00000000000E+00 0. -1.
          1    1    1    2  502    0  0.26451242868E+03  0.19402800901E+03  0.17949605382E+02  0.32853596689E+03  0.00000000000E+00 0. -1.
         22    1    3    3    0    0  0.75170601167E+02 -0.76090823685E+02  0.72441648921E+02  0.12918291384E+03  0.00000000000E+00 0.  1.
         22    1    3    3    0    0  0.14781280576E+03 -0.39655929880E+03  0.96182368365E+02  0.43400339976E+03  0.00000000000E+00 0.  1.
</event>
<event>
 7    1  0.3110367E-005  0.3367665E+03  0.7818608E-02  0.1146042E+00
          2   -1    0    0  502    0  0.00000000000E+00  0.00000000000E+00  0.12859316128E+04  0.12859316128E+04  0.00000000000E+00 0. -1.
          1   -1    0    0  501    0 -0.00000000000E+00 -0.00000000000E+00 -0.29242876956E+04  0.29242876956E+04  0.00000000000E+00 0. -1.
         25    2    1    2    0    0  0.43250304249E+03  0.13094968508E+03 -0.37623960020E+03  0.60115595223E+03  0.12500216144E+03 0.  0.
          2    1    1    2  501    0 -0.10903630713E+03 -0.59292599024E+02 -0.24105767839E+04  0.24137698647E+04  0.00000000000E+00 0. -1.
          1    1    1    2  502    0 -0.32346673536E+03 -0.71657086054E+02  0.11484603013E+04  0.11952934914E+04  0.00000000000E+00 0. -1.
         22    1    3    3    0    0  0.18859250578E+03 -0.47992870997E+01 -0.13200706995E+03  0.23025210728E+03  0.00000000000E+00 0.  1.
         22    1    3    3    0    0  0.24391053671E+03  0.13574897218E+03 -0.24423253025E+03  0.37090384495E+03  0.00000000000E+00 0.  1.
</event>
<event>
 7    1  0.3552643E-005  0.8794325E+02  0.7818608E-02  0.1385767E+00
          2   -1    0    0  502    0  0.00000000000E+00  0.00000000000E+00  0.27204244099E+04  0.27204244099E+04  0.00000000000E+00 0. -1.
          1   -1    0    0  501    0 -0.00000000000E+00 -0.00000000000E+00 -0.82684019476E+03  0.82684019476E+03  0.00000000000E+00 0. -1.
         25    2    1    2    0    0 -0.13109005542E+03  0.77840001598E+01 -0.56000534104E+02  0.18975376280E+03  0.12500094955E+03 0.  0.
          2    1    1    2  501    0  0.86073426759E+02 -0.51943304678E+01 -0.70112995362E+03  0.70641264692E+03  0.00000000000E+00 0. -1.
          1    1    1    2  502    0  0.45016628664E+02 -0.25896696920E+01  0.26507147028E+04  0.26510981949E+04  0.00000000000E+00 0. -1.
         22    1    3    3    0    0  0.18997827438E+02 -0.20593609301E+02 -0.34990264468E+01  0.28235746448E+02  0.00000000000E+00 0. -1.
         22    1    3    3    0    0 -0.15008788286E+03  0.28377609461E+02 -0.52501507658E+02  0.16151801635E+03  0.00000000000E+00 0. -1.
</event>
<event>
 7    1  0.3110367E-005  0.1374542E+03  0.7818608E-02  0.1259658E+00
          2   -1    0    0  502    0  0.00000000000E+00  0.00000000000E+00  0.61324848416E+03  0.61324848416E+03  0.00000000000E+00 0. -1.
          1   -1    0    0  501    0 -0.00000000000E+00 -0.00000000000E+00 -0.77196581346E+03  0.77196581346E+03  0.00000000000E+00 0. -1.
         25    2    1    2    0    0 -0.21855560270E+03 -0.17296510887E+02  0.40433805183E+02  0.25558772187E+03  0.12499788081E+03 0.  0.
          2    1    1    2  501    0  0.88356300550E+02  0.90823525607E+01 -0.65217344281E+03  0.65819413890E+03  0.00000000000E+00 0. -1.
          1    1    1    2  502    0  0.13019930215E+03  0.82141583260E+01  0.45302230833E+03  0.47143243685E+03  0.00000000000E+00 0. -1.
         22    1    3    3    0    0 -0.16496226513E+03 -0.10598193426E+02  0.84714715550E+02  0.18574566926E+03  0.00000000000E+00 0.  1.
         22    1    3    3    0    0 -0.53593337573E+02 -0.66983174606E+01 -0.44280910367E+02  0.69842052604E+02  0.00000000000E+00 0.  1.
</event>
<event>
 7    1  0.3110367E-005  0.4431851E+02  0.7818608E-02  0.1511046E+00
          2   -1    0    0  502    0  0.00000000000E+00  0.00000000000E+00  0.88469133861E+03  0.88469133861E+03  0.00000000000E+00 0. -1.
          1   -1    0    0  501    0 -0.00000000000E+00 -0.00000000000E+00 -0.33945998098E+02  0.33945998098E+02  0.00000000000E+00 0. -1.
         25    2    1    2    0    0 -0.48726577264E+01 -0.23383610896E+02  0.19101722805E+03  0.22952646166E+03  0.12499711653E+03 0.  0.
          2    1    1    2  501    0  0.33247313090E+02 -0.12200105119E+02  0.86659297684E+01  0.36459905805E+02  0.00000000000E+00 0. -1.
          1    1    1    2  502    0 -0.28374655363E+02  0.35583716015E+02  0.65106218269E+03  0.65265096924E+03  0.00000000000E+00 0. -1.
         22    1    3    3    0    0  0.12110440114E+02 -0.29791467667E+02 -0.51088699091E+01  0.32562169111E+02  0.00000000000E+00 0.  1.
         22    1    3    3    0    0 -0.16983097840E+02  0.64078567703E+01  0.19612609796E+03  0.19696429255E+03  0.00000000000E+00 0.  1.
</event>
<event>
 7    1  0.3110367E-005  0.1220087E+03  0.7818608E-02  0.1279376E+00
          2   -1    0    0  502    0  0.00000000000E+00  0.00000000000E+00  0.15508943428E+03  0.15508943428E+03  0.00000000000E+00 0. -1.
          1   -1    0    0  501    0 -0.00000000000E+00 -0.00000000000E+00 -0.97426315137E+03  0.97426315137E+03  0.00000000000E+00 0. -1.
         25    2    1    2    0    0  0.48760969399E+02  0.11411490626E+03 -0.44475014613E+03  0.47835918713E+03  0.12499990186E+03 0.  0.
          2    1    1    2  501    0  0.33092938457E+02 -0.12578766175E+03 -0.49107675552E+03  0.50800989974E+03  0.00000000000E+00 0. -1.
          1    1    1    2  502    0 -0.81853907856E+02  0.11672755494E+02  0.11665318456E+03  0.14298349877E+03  0.00000000000E+00 0. -1.
         22    1    3    3    0    0  0.60180927738E+02  0.11392179720E+03 -0.44826152065E+03  0.46641002438E+03  0.00000000000E+00 0.  1.
         22    1    3    3    0    0 -0.11419958339E+02  0.19310906090E+00  0.35113745222E+01  0.11949162758E+02  0.00000000000E+00 0.  1.
</event>
<event>
 7    1  0.3110367E-005  0.2151493E+03  0.7818608E-02  0.1352776E+00
          2   -1    0    0  502    0  0.00000000000E+00  0.00000000000E+00  0.86067133420E+03  0.86067133420E+03  0.00000000000E+00 0. -1.
          1   -1    0    0  501    0 -0.00000000000E+00 -0.00000000000E+00 -0.29490746363E+03  0.29490746363E+03  0.00000000000E+00 0. -1.
         25    2    1    2    0    0  0.12718405813E+03  0.15168794885E+03  0.41617201166E+02  0.23778524184E+03  0.12499924534E+03 0.  0.
          2    1    1    2  501    0  0.23464886297E+02  0.60294513643E+01 -0.17949589241E+03  0.18112352295E+03  0.00000000000E+00 0. -1.
          1    1    1    2  502    0 -0.15064894442E+03 -0.15771740022E+03  0.70364256181E+03  0.73667003304E+03  0.00000000000E+00 0. -1.
         22    1    3    3    0    0  0.85560624381E+02  0.16332049781E+03  0.10773868594E+02  0.18468969028E+03  0.00000000000E+00 0.  1.
         22    1    3    3    0    0  0.41623433746E+02 -0.11632548959E+02  0.30843332572E+02  0.53095551567E+02  0.00000000000E+00 0.  1.
</event>
<event>
 7    1  0.3110367E-005  0.1746384E+03  0.7818608E-02  0.1247018E+00
          2   -1    0    0  502    0  0.00000000000E+00  0.00000000000E+00  0.27601062200E+04  0.27601062200E+04  0.00000000000E+00 0. -1.
          1   -1    0    0  501    0 -0.00000000000E+00 -0.00000000000E+00 -0.63101084701E+02  0.63101084701E+02  0.00000000000E+00 0. -1.
         25    2    1    2    0    0 -0.75266147095E+02  0.20971120631E+03  0.16612283466E+04  0.16807570978E+04  0.12498407613E+03 0.  0.
          2    1    1    2  501    0  0.10430198104E+03 -0.13595733781E+03  0.90370431319E+02  0.19372691040E+03  0.00000000000E+00 0. -1.
          1    1    1    2  502    0 -0.29035833949E+02 -0.73753868495E+02  0.94540635742E+03  0.94872329655E+03  0.00000000000E+00 0. -1.
         22    1    3    3    0    0 -0.54161783927E+02  0.19981513019E+03  0.16217529730E+04  0.16349135422E+04  0.00000000000E+00 0. -1.
         22    1    3    3    0    0 -0.21104363168E+02  0.98960761213E+01  0.39475373625E+02  0.45843555601E+02  0.00000000000E+00 0. -1.
</event>
<event>
 7    1  0.4547824E-005  0.1635973E+03  0.7818608E-02  0.1198928E+00
          2   -1    0    0  502    0  0.00000000000E+00  0.00000000000E+00  0.18982308256E+04  0.18982308256E+04  0.00000000000E+00 0. -1.
          1   -1    0    0  501    0 -0.00000000000E+00 -0.00000000000E+00 -0.90960987509E+03  0.90960987509E+03  0.00000000000E+00 0. -1.
         25    2    1    2    0    0  0.14438884281E+03  0.57447080952E+02 -0.88148783762E+02  0.21804465279E+03  0.12499982998E+03 0.  0.
          2    1    1    2  501    0 -0.53664665466E+02 -0.16389130205E+03 -0.74396817638E+03  0.76369424685E+03  0.00000000000E+00 0. -1.
          1    1    1    2  502    0 -0.90724177341E+02  0.10644422110E+03  0.18207379106E+04  0.18261018010E+04  0.00000000000E+00 0. -1.
         22    1    3    3    0    0  0.36753616938E+01 -0.23060490820E+02  0.13230570057E+02  0.26839197165E+02  0.00000000000E+00 0.  1.
         22    1    3    3    0    0  0.14071348111E+03  0.80507571773E+02 -0.10137935382E+03  0.19120545562E+03  0.00000000000E+00 0.  1.
</event>
<event>
 7    1  0.3110367E-005  0.7777499E+02  0.7818608E-02  0.1345010E+00
          2   -1    0    0  502    0  0.00000000000E+00  0.00000000000E+00  0.74071899760E+02  0.74071899760E+02  0.00000000000E+00 0. -1.
          1   -1    0    0  501    0 -0.00000000000E+00 -0.00000000000E+00 -0.18309910500E+04  0.18309910500E+04  0.00000000000E+00 0. -1.
         25    2    1    2    0    0 -0.10760118310E+03 -0.96651527984E+02 -0.14905171288E+04  0.15027258530E+04  0.12499658169E+03 0.  0.
          2    1    1    2  501    0  0.40715380031E+02  0.58919134405E+02 -0.30715837110E+03  0.31539732324E+03  0.00000000000E+00 0. -1.
          1    1    1    2  502    0  0.66885803073E+02  0.37732393579E+02  0.40756349705E+02  0.86939773517E+02  0.00000000000E+00 0. -1.
         22    1    3    3    0    0 -0.53498900754E+02 -0.80582696379E+02 -0.43159346031E+03  0.44229924070E+03  0.00000000000E+00 0.  1.
         22    1    3    3    0    0 -0.54102282349E+02 -0.16068831605E+02 -0.10589236685E+04  0.10604266123E+04  0.00000000000E+00 0.  1.
</event>
<event>
 7    1  0.3110367E-005  0.1387329E+03  0.7818608E-02  0.1352807E+00
          2   -1    0    0  502    0  0.00000000000E+00  0.00000000000E+00  0.52470548467E+03  0.52470548467E+03  0.00000000000E+00 0. -1.
          1   -1    0    0  501    0 -0.00000000000E+00 -0.00000000000E+00 -0.51525976855E+03  0.51525976855E+03  0.00000000000E+00 0. -1.
         25    2    1    2    0    0  0.13412788684E+03 -0.26988642560E+02  0.14849142096E+03  0.23747225042E+03  0.12499876306E+03 0.  0.
          2    1    1    2  501    0 -0.86617890072E+01 -0.36549825810E+02 -0.45505453906E+03  0.45660217901E+03  0.00000000000E+00 0. -1.
          1    1    1    2  502    0 -0.12546609783E+03  0.63538468370E+02  0.31600883423E+03  0.34589082379E+03  0.00000000000E+00 0. -1.
         22    1    3    3    0    0  0.15340232792E+03 -0.25421061844E+02  0.15241994352E+03  0.21773916455E+03  0.00000000000E+00 0. -1.
         22    1    3    3    0    0 -0.19274441079E+02 -0.15675807161E+01 -0.39285225663E+01  0.19733085866E+02  0.00000000000E+00 0. -1.
</event>
<event>
 7    1  0.3110367E-005  0.9217141E+02  0.7818608E-02  0.1341444E+00
          2   -1    0    0  502    0  0.00000000000E+00  0.00000000000E+00  0.75150176476E+03  0.75150176476E+03  0.00000000000E+00 0. -1.
          1   -1    0    0  501    0 -0.00000000000E+00 -0.00000000000E+00 -0.56563429624E+02  0.56563429624E+02  0.00000000000E+00 0. -1.
         25    2    1    2    0    0  0.68762855345E+02 -0.57681509908E+02  0.12700026977E+03  0.19952084981E+03  0.12499605645E+03 0.  0.
          2    1    1    2  501    0 -0.23845316195E+02  0.10087982467E+03  0.13035825855E+03  0.16654913300E+03  0.00000000000E+00 0. -1.
          1    1    1    2  502    0 -0.44917539150E+02 -0.43198314764E+02  0.43757980682E+03  0.44199521158E+03  0.00000000000E+00 0. -1.
         22    1    3    3    0    0  0.10057987764E+03 -0.61438822467E+02  0.11671634259E+03  0.16587267804E+03  0.00000000000E+00 0.  1.
         22    1    3    3    0    0 -0.31817022294E+02  0.37573125594E+01  0.10283927177E+02  0.33648171771E+02  0.00000000000E+00 0.  1.
</event>
<event>
 7    1  0.3110367E-005  0.5510674E+03  0.7818608E-02  0.1134694E+00
          2   -1    0    0  502    0  0.00000000000E+00  0.00000000000E+00  0.19872760138E+04  0.19872760138E+04  0.00000000000E+00 0. -1.
          1   -1    0    0  501    0 -0.00000000000E+00 -0.00000000000E+00 -0.15327220198E+04  0.15327220198E+04  0.00000000000E+00 0. -1.
         25    2    1    2    0    0 -0.37787650573E+03 -0.45525741950E+03  0.97149488682E+03  0.11443233531E+04  0.12499459864E+03 0.  0.
          2    1    1    2  501    0  0.14920875707E+02  0.85676311056E+02 -0.13726446241E+04  0.13753967888E+04  0.00000000000E+00 0. -1.
          1    1    1    2  502    0  0.36295563002E+03  0.36958110844E+03  0.85570373118E+03  0.10002778917E+04  0.00000000000E+00 0. -1.
         22    1    3    3    0    0 -0.20813375314E+02 -0.94169659554E+02  0.13937314885E+03  0.16948745084E+03  0.00000000000E+00 0. -1.
         22    1    3    3    0    0 -0.35706313042E+03 -0.36108775994E+03  0.83212173798E+03  0.97483590224E+03  0.00000000000E+00 0. -1.
</event>
<event>
 7    1  0.3110367E-005  0.4427051E+03  0.7818608E-02  0.1055821E+00
          2   -1    0    0  502    0  0.00000000000E+00  0.00000000000E+00  0.22463833049E+04  0.22463833049E+04  0.00000000000E+00 0. -1.
          1   -1    0    0  501    0 -0.00000000000E+00 -0.00000000000E+00 -0.50231930090E+03  0.50231930090E+03  0.00000000000E+00 0. -1.
         25    2    1    2    0    0 -0.55716883756E+02  0.38471372753E+03 -0.16112333421E+03  0.43897002780E+03  0.12499973279E+03 0.  0.
          2    1    1    2  501    0  0.11161680876E+03 -0.68388533205E+03  0.45736031739E+03  0.83026256047E+03  0.00000000000E+00 0. -1.
          1    1    1    2  502    0 -0.55899925006E+02  0.29917160452E+03  0.14478270208E+04  0.14794700175E+04  0.00000000000E+00 0. -1.
         22    1    3    3    0    0  0.38549527221E+02  0.13016068099E+03 -0.38442764317E+02  0.14108761481E+03  0.00000000000E+00 0. -1.
         22    1    3    3    0    0 -0.94266410977E+02  0.25455304654E+03 -0.12268056989E+03  0.29788241299E+03  0.00000000000E+00 0. -1.
</event>
<event>
 7    1  0.3110367E-005  0.5998318E+03  0.7818608E-02  0.1007485E+00
          2   -1    0    0  502    0  0.00000000000E+00  0.00000000000E+00  0.14791366275E+04  0.14791366275E+04  0.00000000000E+00 0. -1.
          1   -1    0    0  501    0 -0.00000000000E+00 -0.00000000000E+00 -0.10644546001E+04  0.10644546001E+04  0.00000000000E+00 0. -1.
         25    2    1    2    0    0  0.28664312608E+03 -0.53799153295E+03 -0.20320506814E+03  0.65461192182E+03  0.12500118885E+03 0.  0.
          2    1    1    2  501    0 -0.45459014708E+03 -0.65371765171E+02 -0.45511217090E+03  0.64656999436E+03  0.00000000000E+00 0. -1.
          1    1    1    2  502    0  0.16794702100E+03  0.60336329812E+03  0.10729992664E+04  0.12424093114E+04  0.00000000000E+00 0. -1.
         22    1    3    3    0    0  0.40627628123E+02 -0.19993295047E+03 -0.73515860474E+02  0.21686025590E+03  0.00000000000E+00 0.  1.
         22    1    3    3    0    0  0.24601549796E+03 -0.33805858248E+03 -0.12968920766E+03  0.43775166591E+03  0.00000000000E+00 0.  1.
</event>
<event>
 7    1  0.3110367E-005  0.7231623E+03  0.7818608E-02  0.1025952E+00
          2   -1    0    0  502    0  0.00000000000E+00  0.00000000000E+00  0.11548662009E+04  0.11548662009E+04  0.00000000000E+00 0. -1.
          1   -1    0    0  501    0 -0.00000000000E+00 -0.00000000000E+00 -0.16092803834E+04  0.16092803834E+04  0.00000000000E+00 0. -1.
         25    2    1    2    0    0  0.56599512005E+03 -0.20818384767E+03 -0.12387940415E+04  0.13834472717E+04  0.12499874328E+03 0.  0.
          2    1    1    2  501    0 -0.15141813906E+02 -0.28712047368E+03 -0.18706523905E+02  0.28812735895E+03  0.00000000000E+00 0. -1.
          1    1    1    2  502    0 -0.55085330615E+03  0.49530432135E+03  0.80308638291E+03  0.10925719537E+04  0.00000000000E+00 0. -1.
         22    1    3    3    0    0  0.20826383335E+03 -0.25662742644E+02 -0.50674761524E+03  0.54847565688E+03  0.00000000000E+00 0. -1.
         22    1    3    3    0    0  0.35773128671E+03 -0.18252110503E+03 -0.73204642630E+03  0.83497161481E+03  0.00000000000E+00 0. -1.
</event>
<event>
 7    1  0.3110367E-005  0.1843446E+03  0.7818608E-02  0.1211759E+00
          2   -1    0    0  502    0  0.00000000000E+00  0.00000000000E+00  0.12572298470E+03  0.12572298470E+03  0.00000000000E+00 0. -1.
          1   -1    0    0  501    0 -0.00000000000E+00 -0.00000000000E+00 -0.81224632956E+03  0.81224632956E+03  0.00000000000E+00 0. -1.
         25    2    1    2    0    0  0.17402707038E+03 -0.69646498216E+02 -0.21022481679E+03  0.30814862890E+03  0.12500019185E+03 0.  0.
          2    1    1    2  501    0 -0.18792378226E+03 -0.37568773020E+02 -0.48487025548E+03  0.52136927920E+03  0.00000000000E+00 0. -1.
          1    1    1    2  502    0  0.13896711877E+02  0.10721527124E+03  0.85717274107E+01  0.10845140616E+03  0.00000000000E+00 0. -1.
         22    1    3    3    0    0  0.11613414929E+03  0.20422125844E+02 -0.11831783616E+03  0.16704285141E+03  0.00000000000E+00 0. -1.
         22    1    3    3    0    0  0.57892921094E+02 -0.90068624059E+02 -0.91906980634E+02  0.14110577749E+03  0.00000000000E+00 0. -1.
</event>
<event>
 7    1  0.3110367E-005  0.9391668E+02  0.7818608E-02  0.1345542E+00
          2   -1    0    0  502    0  0.00000000000E+00  0.00000000000E+00  0.10682829083E+04  0.10682829083E+04  0.00000000000E+00 0. -1.
          1   -1    0    0  501    0 -0.00000000000E+00 -0.00000000000E+00 -0.67373039884E+03  0.67373039884E+03  0.00000000000E+00 0. -1.
         25    2    1    2    0    0  0.24200433920E+02  0.71064637166E+02 -0.81454846271E+02  0.16702107160E+03  0.12500121088E+03 0.  0.
          2    1    1    2  501    0  0.55477985293E+02 -0.20194401704E+02 -0.54571833845E+03  0.54890265588E+03  0.00000000000E+00 0. -1.
          1    1    1    2  502    0 -0.79678419214E+02 -0.50870235463E+02  0.10217256942E+04  0.10260895797E+04  0.00000000000E+00 0. -1.
         22    1    3    3    0    0  0.16991236380E+02 -0.34667499534E+02 -0.12480746929E+02  0.40574704948E+02  0.00000000000E+00 0.  1.
         22    1    3    3    0    0  0.72091975405E+01  0.10573213670E+03 -0.68974099341E+02  0.12644636666E+03  0.00000000000E+00 0.  1.
</event>
<event>
 7    1  0.3110367E-005  0.4124536E+03  0.7818608E-02  0.1102721E+00
          2   -1    0    0  502    0  0.00000000000E+00  0.00000000000E+00  0.26432158421E+04  0.26432158421E+04  0.00000000000E+00 0. -1.
          1   -1    0    0  501    0 -0.00000000000E+00 -0.00000000000E+00 -0.24183838425E+03  0.24183838425E+03  0.00000000000E+00 0. -1.
         25    2    1    2    0    0  0.76723590340E+02 -0.37058778829E+03  0.10738299673E+04  0.11454070225E+04  0.12499852197E+03 0.  0.
          2    1    1    2  501    0 -0.15208956094E+03 -0.83459464169E+02 -0.12636193439E+03  0.21462538333E+03  0.00000000000E+00 0. -1.
          1    1    1    2  502    0  0.75365970605E+02  0.45404725246E+03  0.14539094250E+04  0.15250218205E+04  0.00000000000E+00 0. -1.
         22    1    3    3    0    0 -0.63174391699E+01 -0.10589125580E+02  0.14905095429E+03  0.14956011030E+03  0.00000000000E+00 0. -1.
         22    1    3    3    0    0  0.83041029510E+02 -0.35999866271E+03  0.92477901298E+03  0.99584691222E+03  0.00000000000E+00 0. -1.
</event>
<event>
 7    1  0.3110367E-005  0.1331874E+03  0.7818608E-02  0.1363950E+00
          2   -1    0    0  502    0  0.00000000000E+00  0.00000000000E+00  0.91715826436E+03  0.91715826436E+03  0.00000000000E+00 0. -1.
          1   -1    0    0  501    0 -0.00000000000E+00 -0.00000000000E+00 -0.84358750519E+03  0.84358750519E+03  0.00000000000E+00 0. -1.
         25    2    1    2    0    0  0.23299047176E+02  0.11931886896E+03 -0.37868906865E+03  0.41690589971E+03  0.12500112165E+03 0.  0.
          2    1    1    2  501    0  0.48646690098E+01 -0.14112752170E+03 -0.43424061593E+03  0.45662408490E+03  0.00000000000E+00 0. -1.
          1    1    1    2  502    0 -0.28163716186E+02  0.21808652742E+02  0.88650044375E+03  0.88721578493E+03  0.00000000000E+00 0. -1.
         22    1    3    3    0    0  0.24158805060E+02  0.58692344236E+02 -0.45125638186E+02  0.77876584128E+02  0.00000000000E+00 0.  1.
         22    1    3    3    0    0 -0.85975788383E+00  0.60626524722E+02 -0.33356343046E+03  0.33902931559E+03  0.00000000000E+00 0.  1.
</event>
<event>
 7    1  0.3110367E-005  0.9403821E+03  0.7818608E-02  0.1156850E+00
          2   -1    0    0  502    0  0.00000000000E+00  0.00000000000E+00  0.20648350559E+04  0.20648350559E+04  0.00000000000E+00 0. -1.
          1   -1    0    0  501    0 -0.00000000000E+00 -0.00000000000E+00 -0.17362336761E+04  0.17362336761E+04  0.00000000000E+00 0. -1.
         25    2    1    2    0    0  0.70036913226E+03 -0.63354577939E+03 -0.24973960406E+03  0.98483082500E+03  0.12499883205E+03 0.  0.
          2    1    1    2  501    0 -0.66955277045E+03  0.65764167602E+03 -0.92185819369E+03  0.13155287970E+04  0.00000000000E+00 0. -1.
          1    1    1    2  502    0 -0.30816361814E+02 -0.24095896624E+02  0.15001991776E+04  0.15007091100E+04  0.00000000000E+00 0. -1.
         22    1    3    3    0    0  0.66868386397E+03 -0.62456966124E+03 -0.25838470281E+03  0.95078284919E+03  0.00000000000E+00 0. -1.
         22    1    3    3    0    0  0.31685268296E+02 -0.89761181531E+01  0.86450987463E+01  0.34047975805E+02  0.00000000000E+00 0. -1.
</event>
<event>
 7    1  0.3110367E-005  0.4812432E+02  0.7818608E-02  0.1457478E+00
          2   -1    0    0  502    0  0.00000000000E+00  0.00000000000E+00  0.26883609661E+03  0.26883609661E+03  0.00000000000E+00 0. -1.
          1   -1    0    0  501    0 -0.00000000000E+00 -0.00000000000E+00 -0.26596495315E+03  0.26596495315E+03  0.00000000000E+00 0. -1.
         25    2    1    2    0    0  0.65448709178E+02 -0.18870706854E+02  0.14396909579E+03  0.20246414730E+03  0.12499997315E+03 0.  0.
          2    1    1    2  501    0 -0.42422354585E+02 -0.22690736580E+02 -0.22814728975E+03  0.23316455888E+03  0.00000000000E+00 0. -1.
          1    1    1    2  502    0 -0.23026354593E+02  0.41561443435E+02  0.87049337426E+02  0.99172343587E+02  0.00000000000E+00 0. -1.
         22    1    3    3    0    0  0.30111355492E+02  0.48022861327E+02  0.10003781911E+03  0.11498023392E+03  0.00000000000E+00 0. -1.
         22    1    3    3    0    0  0.35337353686E+02 -0.66893568181E+02  0.43931276681E+02  0.87483913380E+02  0.00000000000E+00 0. -1.
</event>
<event>
 7    1  0.3110367E-005  0.4377204E+03  0.7818608E-02  0.1140484E+00
          2   -1    0    0  502    0  0.00000000000E+00  0.00000000000E+00  0.13386979425E+04  0.13386979425E+04  0.00000000000E+00 0. -1.
          1   -1    0    0  501    0 -0.00000000000E+00 -0.00000000000E+00 -0.42880873703E+03  0.42880873703E+03  0.00000000000E+00 0. -1.
         25    2    1    2    0    0  0.24597647255E+03  0.35898996289E+03 -0.16766299375E+03  0.48281846741E+03  0.12499829794E+03 0.  0.
          2    1    1    2  501    0  0.79604742136E+02 -0.63884829539E+02 -0.18590172389E+02  0.10374864300E+03  0.00000000000E+00 0. -1.
          1    1    1    2  502    0 -0.32558121468E+03 -0.29510513336E+03  0.10961423716E+04  0.11809395691E+04  0.00000000000E+00 0. -1.
         22    1    3    3    0    0  0.10388197773E+03  0.55774185477E+02 -0.44706526685E+02  0.12609876522E+03  0.00000000000E+00 0. -1.
         22    1    3    3    0    0  0.14209449482E+03  0.30321577742E+03 -0.12295646707E+03  0.35671970219E+03  0.00000000000E+00 0. -1.
</event>
<event>
 7    1  0.3110367E-005  0.6681215E+02  0.7818608E-02  0.1480786E+00
          2   -1    0    0  502    0  0.00000000000E+00  0.00000000000E+00  0.11163711165E+04  0.11163711165E+04  0.00000000000E+00 0. -1.
          1   -1    0    0  501    0 -0.00000000000E+00 -0.00000000000E+00 -0.23539744014E+02  0.23539744014E+02  0.00000000000E+00 0. -1.
         25    2    1    2    0    0  0.40282085608E+02 -0.75108266263E+02  0.42338695636E+03  0.44960583075E+03  0.12499996059E+03 0.  0.
          2    1    1    2  501    0 -0.42929702510E+02  0.46273819577E+02  0.88848581746E+02  0.10898759661E+03  0.00000000000E+00 0. -1.
          1    1    1    2  502    0  0.26476169020E+01  0.28834446686E+02  0.58059583441E+03  0.58131743318E+03  0.00000000000E+00 0. -1.
         22    1    3    3    0    0 -0.29413228036E+02  0.16520878828E+02  0.13348574537E+03  0.13768268460E+03  0.00000000000E+00 0.  1.
         22    1    3    3    0    0  0.69695313644E+02 -0.91629145091E+02  0.28990121099E+03  0.31192314616E+03  0.00000000000E+00 0.  1.
</event>
<event>
 7    1  0.3110367E-005  0.1213798E+03  0.7818608E-02  0.1279753E+00
          2   -1    0    0  502    0  0.00000000000E+00  0.00000000000E+00  0.65113097525E+03  0.65113097525E+03  0.00000000000E+00 0. -1.
          1   -1    0    0  501    0 -0.00000000000E+00 -0.00000000000E+00 -0.35012794846E+03  0.35012794846E+03  0.00000000000E+00 0. -1.
         25    2    1    2    0    0 -0.10739513707E+02 -0.72762726734E+02  0.95950875481E+02  0.17389147104E+03  0.12498768594E+03 0.  0.
          2    1    1    2  501    0 -0.77636098257E+02 -0.28820148884E+02 -0.29660822562E+03  0.30795195118E+03  0.00000000000E+00 0. -1.
          1    1    1    2  502    0  0.88375611964E+02  0.10158287562E+03  0.50166037693E+03  0.51941550149E+03  0.00000000000E+00 0. -1.
         22    1    3    3    0    0  0.49247319549E+01 -0.84299938655E+01 -0.30026375346E+02  0.31573739054E+02  0.00000000000E+00 0.  1.
         22    1    3    3    0    0 -0.15664245661E+02 -0.64332732868E+02  0.12597725083E+03  0.14231773198E+03  0.00000000000E+00 0.  1.
</event>
<event>
 7    1  0.3110367E-005  0.3768400E+03  0.7818608E-02  0.1161574E+00
          2   -1    0    0  502    0  0.00000000000E+00  0.00000000000E+00  0.48489557803E+03  0.48489557803E+03  0.00000000000E+00 0. -1.
          1   -1    0    0  501    0 -0.00000000000E+00 -0.00000000000E+00 -0.44412612210E+03  0.44412612210E+03  0.00000000000E+00 0. -1.
         25    2    1    2    0    0  0.36039489082E+03  0.11652276252E+02 -0.68847316226E+02  0.38779455876E+03  0.12499765593E+03 0.  0.
          2    1    1    2  501    0 -0.40633522411E+03  0.68503939899E+02  0.15248555490E+03  0.43937791091E+03  0.00000000000E+00 0. -1.
          1    1    1    2  502    0  0.45940333299E+02 -0.80156216151E+02 -0.42868782740E+02  0.10184923046E+03  0.00000000000E+00 0. -1.
         22    1    3    3    0    0  0.16924540629E+03  0.62703643405E+02 -0.74641917836E+01  0.18064182407E+03  0.00000000000E+00 0. -1.
         22    1    3    3    0    0  0.19114948453E+03 -0.51051367153E+02 -0.61383124442E+02  0.20715273469E+03  0.00000000000E+00 0. -1.
</event>
<event>
 7    1  0.3110367E-005  0.2259463E+03  0.7818608E-02  0.1243645E+00
          2   -1    0    0  502    0  0.00000000000E+00  0.00000000000E+00  0.28971667046E+04  0.28971667046E+04  0.00000000000E+00 0. -1.
          1   -1    0    0  501    0 -0.00000000000E+00 -0.00000000000E+00 -0.10888136974E+03  0.10888136974E+03  0.00000000000E+00 0. -1.
         25    2    1    2    0    0 -0.20102912632E+03 -0.91860863645E+02  0.25427552591E+04  0.25554021911E+04  0.12499969088E+03 0.  0.
          2    1    1    2  501    0  0.17162511522E+03  0.14800764232E+03  0.33189372067E+02  0.22904797920E+03  0.00000000000E+00 0. -1.
          1    1    1    2  502    0  0.29404011102E+02 -0.56146778676E+02  0.21234070372E+03  0.22159790405E+03  0.00000000000E+00 0. -1.
         22    1    3    3    0    0 -0.23397472826E+02 -0.58980216868E+02  0.39509031850E+03  0.40015305507E+03  0.00000000000E+00 0. -1.
         22    1    3    3    0    0 -0.17763165349E+03 -0.32880646777E+02  0.21476649406E+04  0.21552491360E+04  0.00000000000E+00 0. -1.
</event>
<event>
 7    1  0.3110367E-005  0.1108918E+03  0.7818608E-02  0.1426228E+00
          2   -1    0    0  502    0  0.00000000000E+00  0.00000000000E+00  0.22360896910E+03  0.22360896910E+03  0.00000000000E+00 0. -1.
          1   -1    0    0  501    0 -0.00000000000E+00 -0.00000000000E+00 -0.16833116340E+03  0.16833116340E+03  0.00000000000E+00 0. -1.
         25    2    1    2    0    0 -0.46020065723E+02  0.77002825908E+02  0.76191601705E+02  0.17168965892E+03  0.12499958865E+03 0.  0.
          2    1    1    2  501    0  0.59613488003E+02 -0.99199728252E+02 -0.89880079880E+02  0.14653594370E+03  0.00000000000E+00 0. -1.
          1    1    1    2  502    0 -0.13593422280E+02  0.22196902344E+02  0.68966283879E+02  0.73714529878E+02  0.00000000000E+00 0. -1.
         22    1    3    3    0    0 -0.25375954863E+02 -0.45948210056E+00 -0.29576856391E+02  0.38973589045E+02  0.00000000000E+00 0. -1.
         22    1    3    3    0    0 -0.20644110860E+02  0.77462308008E+02  0.10576845810E+03  0.13271606988E+03  0.00000000000E+00 0. -1.
</event>
<event>
 7    1  0.3110367E-005  0.1648543E+03  0.7818608E-02  0.1244776E+00
          2   -1    0    0  502    0  0.00000000000E+00  0.00000000000E+00  0.78519588983E+02  0.78519588983E+02  0.00000000000E+00 0. -1.
          1   -1    0    0  501    0 -0.00000000000E+00 -0.00000000000E+00 -0.14975228546E+04  0.14975228546E+04  0.00000000000E+00 0. -1.
         25    2    1    2    0    0  0.14509754454E+03 -0.92950774445E+02 -0.53758471915E+03  0.57820119358E+03  0.12500458429E+03 0.  0.
          2    1    1    2  501    0 -0.66328119141E+02 -0.54556636882E+02 -0.81241520972E+03  0.81694205364E+03  0.00000000000E+00 0. -1.
          1    1    1    2  502    0 -0.78769425396E+02  0.14750741133E+03 -0.69003336791E+02  0.18089919641E+03  0.00000000000E+00 0. -1.
         22    1    3    3    0    0  0.11986070157E+03 -0.34867563012E+02 -0.46688892556E+03  0.48328832341E+03  0.00000000000E+00 0.  1.
         22    1    3    3    0    0  0.25236842962E+02 -0.58083211433E+02 -0.70695793593E+02  0.94912870174E+02  0.00000000000E+00 0.  1.
</event>
<event>
 7    1  0.3110367E-005  0.2696212E+03  0.7818608E-02  0.1112415E+00
          2   -1    0    0  502    0  0.00000000000E+00  0.00000000000E+00  0.14212741332E+04  0.14212741332E+04  0.00000000000E+00 0. -1.
          1   -1    0    0  501    0 -0.00000000000E+00 -0.00000000000E+00 -0.34111910513E+03  0.34111910513E+03  0.00000000000E+00 0. -1.
         25    2    1    2    0    0 -0.10918696257E+03  0.10939592975E+03  0.12854100655E+03  0.23672198631E+03  0.12500098478E+03 0.  0.
          2    1    1    2  501    0  0.81473842987E+02 -0.34218701815E+03 -0.16227466814E+03  0.38737967216E+03  0.00000000000E+00 0. -1.
          1    1    1    2  502    0  0.27713119578E+02  0.23279108840E+03  0.11138886897E+04  0.11382915799E+04  0.00000000000E+00 0. -1.
         22    1    3    3    0    0  0.22341237247E+02  0.31996682362E+02  0.30549192206E+01  0.39143979043E+02  0.00000000000E+00 0.  1.
         22    1    3    3    0    0 -0.13152819981E+03  0.77399247389E+02  0.12548608733E+03  0.19757800726E+03  0.00000000000E+00 0.  1.
</event>
<event>
 7    1  0.3110367E-005  0.1018457E+04  0.7818608E-02  0.1082030E+00
          2   -1    0    0  502    0  0.00000000000E+00  0.00000000000E+00  0.21666348176E+04  0.21666348176E+04  0.00000000000E+00 0. -1.
          1   -1    0    0  501    0 -0.00000000000E+00 -0.00000000000E+00 -0.11878399701E+04  0.11878399701E+04  0.00000000000E+00 0. -1.
         25    2    1    2    0    0 -0.88645047001E+03  0.57264573142E+03  0.28573493042E+03  0.11004481617E+04  0.12499654613E+03 0.  0.
          2    1    1    2  501    0  0.87939593777E+03 -0.48066896899E+03 -0.45615427611E+03  0.11011160687E+04  0.00000000000E+00 0. -1.
          1    1    1    2  502    0  0.70545322374E+01 -0.91976762438E+02  0.11492141932E+04  0.11529105573E+04  0.00000000000E+00 0. -1.
         22    1    3    3    0    0 -0.69952832644E+02  0.39795301119E+02  0.58045304970E+02  0.99228636064E+02  0.00000000000E+00 0.  1.
         22    1    3    3    0    0 -0.81649763736E+03  0.53285043030E+03  0.22768962545E+03  0.10012195256E+04  0.00000000000E+00 0.  1.
</event>
<event>
 7    1  0.3110367E-005  0.2485026E+03  0.7818608E-02  0.1126130E+00
          2   -1    0    0  502    0  0.00000000000E+00  0.00000000000E+00  0.21518076294E+04  0.21518076294E+04  0.00000000000E+00 0. -1.
          1   -1    0    0  501    0 -0.00000000000E+00 -0.00000000000E+00 -0.19469458121E+03  0.19469458121E+03  0.00000000000E+00 0. -1.
         25    2    1    2    0    0 -0.20545909553E+03  0.24682358592E+03  0.12750963630E+03  0.36744851837E+03  0.12499753517E+03 0.  0.
          2    1    1    2  501    0  0.22207779288E+03 -0.33247298213E+02  0.11719070639E+03  0.25329348707E+03  0.00000000000E+00 0. -1.
          1    1    1    2  502    0 -0.16618697350E+02 -0.21357628771E+03  0.17124127055E+04  0.17257602052E+04  0.00000000000E+00 0. -1.
         22    1    3    3    0    0 -0.28940877425E+02 -0.85385351974E+01  0.28768119015E+02  0.41690354293E+02  0.00000000000E+00 0. -1.
         22    1    3    3    0    0 -0.17651821811E+03  0.25536212112E+03  0.98741517290E+02  0.32575816408E+03  0.00000000000E+00 0. -1.
</event>
<event>
 7    1  0.3110367E-005  0.1675312E+03  0.7818608E-02  0.1298114E+00
          2   -1    0    0  502    0  0.00000000000E+00  0.00000000000E+00  0.10475377468E+04  0.10475377468E+04  0.00000000000E+00 0. -1.
          1   -1    0    0  501    0 -0.00000000000E+00 -0.00000000000E+00 -0.92031723559E+02  0.92031723559E+02  0.00000000000E+00 0. -1.
         25    2    1    2    0    0 -0.43282640026E+02 -0.15589360782E+03  0.80995084691E+03  0.83535731664E+03  0.12500107266E+03 0.  0.
          2    1    1    2  501    0 -0.49116276994E+02 -0.11764862822E+02 -0.16774474498E+02  0.53218452229E+02  0.00000000000E+00 0. -1.
          1    1    1    2  502    0  0.92398917020E+02  0.16765847065E+03  0.16232965081E+03  0.25099370147E+03  0.00000000000E+00 0. -1.
         22    1    3    3    0    0 -0.52475951480E+01 -0.15995103890E+03  0.72070268323E+03  0.73825756326E+03  0.00000000000E+00 0.  1.
         22    1    3    3    0    0 -0.38035044878E+02  0.40574310737E+01  0.89248163681E+02  0.97099753379E+02  0.00000000000E+00 0.  1.
</event>
<event>
 7    1  0.3110367E-005  0.9349435E+02  0.7818608E-02  0.1311023E+00
          2   -1    0    0  502    0  0.00000000000E+00  0.00000000000E+00  0.34627816947E+03  0.34627816947E+03  0.00000000000E+00 0. -1.
          1   -1    0    0  501    0 -0.00000000000E+00 -0.00000000000E+00 -0.11887243567E+04  0.11887243567E+04  0.00000000000E+00 0. -1.
         25    2    1    2    0    0  0.65879151809E+01  0.23645864866E+02 -0.15166124618E+03  0.19805872555E+03  0.12499439035E+03 0.  0.
          2    1    1    2  501    0  0.75807701323E+02  0.26831267597E+02 -0.10049972124E+04  0.10082093639E+04  0.00000000000E+00 0. -1.
          1    1    1    2  502    0 -0.82395616504E+02 -0.50477132463E+02  0.31421227128E+03  0.32873443681E+03  0.00000000000E+00 0. -1.
         22    1    3    3    0    0  0.34688670142E+02  0.27389227901E+02 -0.16197114410E+03  0.16789319570E+03  0.00000000000E+00 0. -1.
         22    1    3    3    0    0 -0.28100754961E+02 -0.37433630351E+01  0.10309897912E+02  0.30165529850E+02  0.00000000000E+00 0. -1.
</event>
<event>
 7    1  0.3110367E-005  0.3089346E+03  0.7818608E-02  0.1249955E+00
          2   -1    0    0  502    0  0.00000000000E+00  0.00000000000E+00  0.52270027283E+03  0.52270027283E+03  0.00000000000E+00 0. -1.
          1   -1    0    0  501    0 -0.00000000000E+00 -0.00000000000E+00 -0.11455927983E+04  0.11455927983E+04  0.00000000000E+00 0. -1.
         25    2    1    2    0    0  0.24356148430E+03  0.17786602869E+03  0.72609022792E+02  0.33445219016E+03  0.12501070560E+03 0.  0.
          2    1    1    2  501    0 -0.22253754431E+03 -0.21595803337E+03 -0.98933928759E+03  0.10367994294E+04  0.00000000000E+00 0. -1.
          1    1    1    2  502    0 -0.21023939986E+02  0.38092004672E+02  0.29383773935E+03  0.29704145155E+03  0.00000000000E+00 0. -1.
         22    1    3    3    0    0  0.16845446097E+03  0.18222705705E+03  0.35910696527E+02  0.25074525692E+03  0.00000000000E+00 0.  1.
         22    1    3    3    0    0  0.75107023330E+02 -0.43610283591E+01  0.36698326265E+02  0.83706933240E+02  0.00000000000E+00 0.  1.
</event>
<event>
 7    1  0.3110367E-005  0.1752554E+03  0.7818608E-02  0.1174449E+00
          2   -1    0    0  502    0  0.00000000000E+00  0.00000000000E+00  0.20566654509E+04  0.20566654509E+04  0.00000000000E+00 0. -1.
          1   -1    0    0  501    0 -0.00000000000E+00 -0.00000000000E+00 -0.16769959605E+03  0.16769959605E+03  0.00000000000E+00 0. -1.
         25    2    1    2    0    0  0.16734445765E+03 -0.21910326483E+02  0.15898553275E+04  0.16036673263E+04  0.12499880424E+03 0.  0.
          2    1    1    2  501    0 -0.11062741481E+03 -0.13979930496E+03 -0.86922299540E+02  0.19833748191E+03  0.00000000000E+00 0. -1.
          1    1    1    2  502    0 -0.56717042840E+02  0.16170963145E+03  0.38603282684E+03  0.42236023872E+03  0.00000000000E+00 0. -1.
         22    1    3    3    0    0  0.42071704688E+02 -0.64730791601E+02  0.53696080291E+03  0.54248226476E+03  0.00000000000E+00 0. -1.
         22    1    3    3    0    0  0.12527275296E+03  0.42820465117E+02  0.10528945246E+04  0.10611850615E+04  0.00000000000E+00 0. -1.
</event>
<event>
 7    1  0.3110367E-005  0.2501431E+03  0.7818608E-02  0.1215277E+00
          2   -1    0    0  502    0  0.00000000000E+00  0.00000000000E+00  0.96313238810E+03  0.96313238810E+03  0.00000000000E+00 0. -1.
          1   -1    0    0  501    0 -0.00000000000E+00 -0.00000000000E+00 -0.13216094730E+04  0.13216094730E+04  0.00000000000E+00 0. -1.
         25    2    1    2    0    0 -0.96206594287E+02 -0.19840145944E+03  0.51296561596E+02  0.25860160142E+03  0.12499841253E+03 0.  0.
          2    1    1    2  501    0  0.39658879849E+02  0.25030007176E+03 -0.12029017588E+04  0.12293069568E+04  0.00000000000E+00 0. -1.
          1    1    1    2  502    0  0.56547714438E+02 -0.51898612320E+02  0.79312811234E+03  0.79683330286E+03  0.00000000000E+00 0. -1.
         22    1    3    3    0    0  0.24851342205E+02 -0.15059098990E+02 -0.96213566865E+01  0.30609413197E+02  0.00000000000E+00 0.  1.
         22    1    3    3    0    0 -0.12105793649E+03 -0.18334236045E+03  0.60917918283E+02  0.22799218822E+03  0.00000000000E+00 0.  1.
</event>
<event>
 7    1  0.3110367E-005  0.8177949E+02  0.7818608E-02  0.1428551E+00
          2   -1    0    0  502    0  0.00000000000E+00  0.00000000000E+00  0.34040859620E+03  0.34040859620E+03  0.00000000000E+00 0. -1.
          1   -1    0    0  501    0 -0.00000000000E+00 -0.00000000000E+00 -0.14541934605E+03  0.14541934605E+03  0.00000000000E+00 0. -1.
         25    2    1    2    0    0  0.11069847332E+03 -0.17837561706E+02 -0.56943790099E+02  0.17731298538E+03  0.12499987581E+03 0.  0.
          2    1    1    2  501    0 -0.34114890007E+02 -0.62118574368E+01 -0.87418912504E+01  0.35760782369E+02  0.00000000000E+00 0. -1.
          1    1    1    2  502    0 -0.76583583308E+02  0.24049419143E+02  0.26067493150E+03  0.27275417449E+03  0.00000000000E+00 0. -1.
         22    1    3    3    0    0  0.51420373816E+02  0.41223105132E+02 -0.65847028940E+02  0.93162387583E+02  0.00000000000E+00 0. -1.
         22    1    3    3    0    0  0.59278099500E+02 -0.59060666838E+02  0.89032388410E+01  0.84150597796E+02  0.00000000000E+00 0. -1.
</event>
<event>
 7    1  0.3110367E-005  0.2706589E+03  0.7818608E-02  0.1172599E+00
          2   -1    0    0  502    0  0.00000000000E+00  0.00000000000E+00  0.66591073596E+03  0.66591073596E+03  0.00000000000E+00 0. -1.
          1   -1    0    0  501    0 -0.00000000000E+00 -0.00000000000E+00 -0.52685412158E+03  0.52685412158E+03  0.00000000000E+00 0. -1.
         25    2    1    2    0    0 -0.26800519790E+03 -0.12052633926E+03  0.58923563844E+02  0.32474270691E+03  0.12502981548E+03 0.  0.
          2    1    1    2  501    0 -0.84257499966E+00  0.11331733192E+03 -0.34601805329E+03  0.36410166279E+03  0.00000000000E+00 0. -1.
          1    1    1    2  502    0  0.26884777290E+03  0.72090073367E+01  0.42615110382E+03  0.50392048784E+03  0.00000000000E+00 0. -1.
         22    1    3    3    0    0 -0.16944687520E+03 -0.49510209760E+02 -0.23286289125E+02  0.17806110088E+03  0.00000000000E+00 0. -1.
         22    1    3    3    0    0 -0.98558322699E+02 -0.71016129496E+02  0.82209852969E+02  0.14668160603E+03  0.00000000000E+00 0. -1.
</event>
<event>
 7    1  0.3110367E-005  0.2247851E+03  0.7818608E-02  0.1236219E+00
          2   -1    0    0  502    0  0.00000000000E+00  0.00000000000E+00  0.15271541354E+04  0.15271541354E+04  0.00000000000E+00 0. -1.
          1   -1    0    0  501    0 -0.00000000000E+00 -0.00000000000E+00 -0.13148696516E+03  0.13148696516E+03  0.00000000000E+00 0. -1.
         25    2    1    2    0    0  0.23764896637E+03 -0.59713680026E+02  0.18723744219E+03  0.33275704984E+03  0.12500655847E+03 0.  0.
          2    1    1    2  501    0 -0.21293398727E+03 -0.43849821704E+01  0.13916569134E+03  0.25441540961E+03  0.00000000000E+00 0. -1.
          1    1    1    2  502    0 -0.24714979106E+02  0.64098662196E+02  0.10692640367E+04  0.10714686411E+04  0.00000000000E+00 0. -1.
         22    1    3    3    0    0 -0.59007537593E+01 -0.27059925512E+02  0.87476158215E+01  0.29044435719E+02  0.00000000000E+00 0. -1.
         22    1    3    3    0    0  0.24354972013E+03 -0.32653754513E+02  0.17848982637E+03  0.30371261413E+03  0.00000000000E+00 0. -1.
</event>
<event>
 7    1  0.3110367E-005  0.1461274E+03  0.7818608E-02  0.1261415E+00
          2   -1    0    0  502    0  0.00000000000E+00  0.00000000000E+00  0.19181605107E+03  0.19181605107E+03  0.00000000000E+00 0. -1.
          1   -1    0    0  501    0 -0.00000000000E+00 -0.00000000000E+00 -0.27331033858E+03  0.27331033858E+03  0.00000000000E+00 0. -1.
         25    2    1    2    0    0  0.33780009209E+01 -0.11653678856E+03 -0.50881912273E+02  0.17834824386E+03  0.12500757222E+03 0.  0.
          2    1    1    2  501    0 -0.74143492187E+02 -0.35306544563E+02 -0.77395838697E+02  0.11284469580E+03  0.00000000000E+00 0. -1.
          1    1    1    2  502    0  0.70765491266E+02  0.15184333313E+03  0.46783463459E+02  0.17393344998E+03  0.00000000000E+00 0. -1.
         22    1    3    3    0    0 -0.16939594224E+02 -0.10060916210E+03 -0.86910762326E+02  0.13402475129E+03  0.00000000000E+00 0. -1.
         22    1    3    3    0    0  0.20317595145E+02 -0.15927626463E+02  0.36028850053E+02  0.44323492567E+02  0.00000000000E+00 0. -1.
</event>
<event>
 7    1  0.3110367E-005  0.1423872E+03  0.7818608E-02  0.1362764E+00
          2   -1    0    0  502    0  0.00000000000E+00  0.00000000000E+00  0.11797558796E+03  0.11797558796E+03  0.00000000000E+00 0. -1.
          1   -1    0    0  501    0 -0.00000000000E+00 -0.00000000000E+00 -0.13335030806E+04  0.13335030806E+04  0.00000000000E+00 0. -1.
         25    2    1    2    0    0 -0.15942546414E+03 -0.43329106833E+02 -0.32229497664E+02  0.20966097484E+03  0.12500037494E+03 0.  0.
          2    1    1    2  501    0  0.12904913459E+03  0.57809069188E+02 -0.11971170860E+04  0.12054397062E+04  0.00000000000E+00 0. -1.
          1    1    1    2  502    0  0.30376329550E+02 -0.14479962355E+02  0.13819090970E+02  0.36377987602E+02  0.00000000000E+00 0. -1.
         22    1    3    3    0    0  0.66618802534E+01 -0.29636708527E+02  0.18368687926E+02  0.35498223011E+02  0.00000000000E+00 0. -1.
         22    1    3    3    0    0 -0.16608734439E+03 -0.13692398306E+02 -0.50598185590E+02  0.17416275183E+03  0.00000000000E+00 0. -1.
</event>
<event>
 7    1  0.3110367E-005  0.1552042E+03  0.7818608E-02  0.1235556E+00
          2   -1    0    0  502    0  0.00000000000E+00  0.00000000000E+00  0.51721957418E+03  0.51721957418E+03  0.00000000000E+00 0. -1.
          1   -1    0    0  501    0 -0.00000000000E+00 -0.00000000000E+00 -0.14706542068E+04  0.14706542068E+04  0.00000000000E+00 0. -1.
         25    2    1    2    0    0 -0.69874194235E+02 -0.24179741662E+03 -0.33853422556E+03  0.43997794217E+03  0.12500709587E+03 0.  0.
          2    1    1    2  501    0  0.19470262703E+02  0.98263619253E+02 -0.10665862239E+04  0.10712800769E+04  0.00000000000E+00 0. -1.
          1    1    1    2  502    0  0.50403931532E+02  0.14353379737E+03  0.45168581691E+03  0.47661576191E+03  0.00000000000E+00 0. -1.
         22    1    3    3    0    0  0.12948868118E+02 -0.17178413730E+03 -0.19771712710E+03  0.26223944281E+03  0.00000000000E+00 0. -1.
         22    1    3    3    0    0 -0.82823062353E+02 -0.70013279319E+02 -0.14081709846E+03  0.17773849937E+03  0.00000000000E+00 0. -1.
</event>
