<event>
 7    1  0.7029100E-006  0.1429768E+03  0.7818608E-02  0.1260737E+00
          2   -1    0    0  502    0  0.00000000000E+00  0.00000000000E+00  0.99787493143E+03  0.99787493143E+03  0.00000000000E+00 0. -1.
          1   -1    0    0  501    0 -0.00000000000E+00 -0.00000000000E+00 -0.97620605141E+03  0.97620605141E+03  0.00000000000E+00 0. -1.
         25    2    1    2    0    0  0.19138819738E+03  0.22130844930E+02  0.48631558955E+01  0.22971353229E+03  0.12500176094E+03 0.  0.
          2    1    1    2  501    0 -0.13519290854E+03  0.40961805569E+02 -0.85595164142E+03  0.86752994443E+03  0.00000000000E+00 0. -1.
          1    1    1    2  502    0 -0.56195288833E+02 -0.63092650498E+02  0.87275736554E+03  0.87683750612E+03  0.00000000000E+00 0. -1.
         22    1    3    3    0    0  0.15679782861E+03 -0.36994752691E+02  0.10399143381E+01  0.16110633819E+03  0.00000000000E+00 0.  1.
         22    1    3    3    0    0  0.34590368763E+02  0.59125597621E+02  0.38232415574E+01  0.68607194092E+02  0.00000000000E+00 0.  1.
</event>
<event>
 7    1  0.7029100E-006  0.9522207E+02  0.7818608E-02  0.1346069E+00
          2   -1    0    0  502    0  0.00000000000E+00  0.00000000000E+00  0.35852478128E+04  0.35852478128E+04  0.00000000000E+00 0. -1.
          1   -1    0    0  501    0 -0.00000000000E+00 -0.00000000000E+00 -0.19823571923E+03  0.19823571923E+03  0.00000000000E+00 0. -1.
         25    2    1    2    0    0 -0.10683034103E+03  0.39797377100E+02  0.81633173921E+02  0.18784312549E+03  0.12499804687E+03 0.  0.
          2    1    1    2  501    0  0.46862492765E+02  0.34118415360E+02 -0.13865873157E+03  0.15028773515E+03  0.00000000000E+00 0. -1.
          1    1    1    2  502    0  0.59967848267E+02 -0.73915792460E+02  0.34440376512E+04  0.34453526714E+04  0.00000000000E+00 0. -1.
         22    1    3    3    0    0 -0.45585626040E+02  0.28488362226E+02  0.10766725995E+03  0.12034066208E+03  0.00000000000E+00 0. -1.
         22    1    3    3    0    0 -0.61244714991E+02  0.11309014874E+02 -0.26034086028E+02  0.67502463415E+02  0.00000000000E+00 0. -1.
</event>
<event>
 7    1  0.7029100E-006  0.7454401E+02  0.7818608E-02  0.1425924E+00
          2   -1    0    0  502    0  0.00000000000E+00  0.00000000000E+00  0.19489204817E+04  0.19489204817E+04  0.00000000000E+00 0. -1.
          1   -1    0    0  501    0 -0.00000000000E+00 -0.00000000000E+00 -0.86666908003E+03  0.86666908003E+03  0.00000000000E+00 0. -1.
         25    2    1    2    0    0  0.94455428156E+02 -0.44914102805E+02  0.25809518024E+02  0.16501189660E+03  0.12499476093E+03 0.  0.
          2    1    1    2  501    0 -0.55828659141E+02  0.48678151773E+02 -0.79514330079E+03  0.79858579404E+03  0.00000000000E+00 0. -1.
          1    1    1    2  502    0 -0.38626769014E+02 -0.37640489679E+01  0.18515851844E+04  0.18519918711E+04  0.00000000000E+00 0. -1.
         22    1    3    3    0    0 -0.26521466446E+02  0.11009570003E+02 -0.22813414162E+01  0.28806307170E+02  0.00000000000E+00 0.  1.
         22    1    3    3    0    0  0.12097689460E+03 -0.55923672808E+02  0.28090859440E+02  0.13620558943E+03  0.00000000000E+00 0.  1.
</event>
<event>
 7    1  0.7029100E-006  0.1091805E+03  0.7818608E-02  0.1398518E+00
          2   -1    0    0  502    0  0.00000000000E+00  0.00000000000E+00  0.81757383772E+02  0.81757383772E+02  0.00000000000E+00 0. -1.
          1   -1    0    0  501    0 -0.00000000000E+00 -0.00000000000E+00 -0.48618926881E+03  0.48618926881E+03  0.00000000000E+00 0. -1.
         25    2    1    2    0    0 -0.93016067676E+02 -0.82625813193E+02 -0.77453767095E+02  0.19262121398E+03  0.12499932874E+03 0.  0.
          2    1    1    2  501    0  0.95065709141E+02  0.49896220019E+02 -0.32522090596E+03  0.34248468506E+03  0.00000000000E+00 0. -1.
          1    1    1    2  502    0 -0.20496414642E+01  0.32729593174E+02 -0.17572119855E+01  0.32840753545E+02  0.00000000000E+00 0. -1.
         22    1    3    3    0    0 -0.54273598663E+01 -0.73178936213E+02 -0.74360040024E+02  0.10447022778E+03  0.00000000000E+00 0.  1.
         22    1    3    3    0    0 -0.87588707810E+02 -0.94468769800E+01 -0.30937270717E+01  0.88150986198E+02  0.00000000000E+00 0.  1.
</event>
<event>
 7    1  0.7029100E-006  0.1025183E+03  0.7818608E-02  0.1316254E+00
          2   -1    0    0  502    0  0.00000000000E+00  0.00000000000E+00  0.87977788219E+03  0.87977788219E+03  0.00000000000E+00 0. -1.
          1   -1    0    0  501    0 -0.00000000000E+00 -0.00000000000E+00 -0.12493170258E+04  0.12493170258E+04  0.00000000000E+00 0. -1.
         25    2    1    2    0    0  0.42414515459E+02 -0.16366292224E+03 -0.15447386195E+02  0.21081121566E+03  0.12497281172E+03 0.  0.
          2    1    1    2  501    0 -0.13046248947E+02  0.10016928120E+03 -0.11323704968E+04  0.11368672005E+04  0.00000000000E+00 0. -1.
          1    1    1    2  502    0 -0.29368266512E+02  0.63493641034E+02  0.77827873940E+03  0.78141649185E+03  0.00000000000E+00 0. -1.
         22    1    3    3    0    0  0.84720925869E+02 -0.11595086378E+03 -0.26680811398E+02  0.14606198612E+03  0.00000000000E+00 0.  1.
         22    1    3    3    0    0 -0.42306410410E+02 -0.47712058456E+02  0.11233425203E+02  0.64749229537E+02  0.00000000000E+00 0.  1.
</event>
<event>
 7    1  0.7029100E-006  0.6947565E+02  0.7818608E-02  0.1493557E+00
          2   -1    0    0  502    0  0.00000000000E+00  0.00000000000E+00  0.65893486750E+03  0.65893486750E+03  0.00000000000E+00 0. -1.
          1   -1    0    0  501    0 -0.00000000000E+00 -0.00000000000E+00 -0.86953003152E+03  0.86953003152E+03  0.00000000000E+00 0. -1.
         25    2    1    2    0    0 -0.49745662394E+02 -0.52606615263E+02 -0.15437685639E+03  0.21142280880E+03  0.12500121358E+03 0.  0.
          2    1    1    2  501    0 -0.12684414214E+02  0.22082451923E+02 -0.68447757855E+03  0.68495115489E+03  0.00000000000E+00 0. -1.
          1    1    1    2  502    0  0.62430076608E+02  0.30524163340E+02  0.62825927093E+03  0.63209093533E+03  0.00000000000E+00 0. -1.
         22    1    3    3    0    0 -0.28071884192E+02  0.16442432445E+02 -0.13158639499E+03  0.13554838108E+03  0.00000000000E+00 0. -1.
         22    1    3    3    0    0 -0.21673778203E+02 -0.69049047708E+02 -0.22790461398E+02  0.75874427719E+02  0.00000000000E+00 0. -1.
</event>
<event>
 7    1  0.7029100E-006  0.9191611E+02  0.7818608E-02  0.1306317E+00
          2   -1    0    0  502    0  0.00000000000E+00  0.00000000000E+00  0.83176000566E+03  0.83176000566E+03  0.00000000000E+00 0. -1.
          1   -1    0    0  501    0 -0.00000000000E+00 -0.00000000000E+00 -0.27827884167E+03  0.27827884167E+03  0.00000000000E+00 0. -1.
         25    2    1    2    0    0 -0.28161443303E+02 -0.28373166212E+02 -0.68698616176E+02  0.14813112395E+03  0.12500090627E+03 0.  0.
          2    1    1    2  501    0  0.10980563737E+03  0.53328561730E+02 -0.14525593249E+03  0.18973797569E+03  0.00000000000E+00 0. -1.
          1    1    1    2  502    0 -0.81644194070E+02 -0.24955395518E+02  0.76743571266E+03  0.77216974769E+03  0.00000000000E+00 0. -1.
         22    1    3    3    0    0 -0.36005668747E+02 -0.10425640793E+02  0.29685890850E+02  0.47815837161E+02  0.00000000000E+00 0. -1.
         22    1    3    3    0    0  0.78442254439E+01 -0.17947525419E+02 -0.98384507025E+02  0.10031528679E+03  0.00000000000E+00 0. -1.
</event>
<event>
 7    1  0.7029100E-006  0.1005625E+03  0.7818608E-02  0.1299773E+00
          2   -1    0    0  502    0  0.00000000000E+00  0.00000000000E+00  0.26875073313E+03  0.26875073313E+03  0.00000000000E+00 0. -1.
          1   -1    0    0  501    0 -0.00000000000E+00 -0.00000000000E+00 -0.10961395352E+04  0.10961395352E+04  0.00000000000E+00 0. -1.
         25    2    1    2    0    0 -0.82681705683E+02  0.81728087030E+02 -0.15281007360E+03  0.22910997894E+03  0.12499887677E+03 0.  0.
          2    1    1    2  501    0  0.80482643657E+02  0.19709303716E+02 -0.89200524888E+03  0.89584556516E+03  0.00000000000E+00 0. -1.
          1    1    1    2  502    0  0.21990620257E+01 -0.10143739075E+03  0.21742652041E+03  0.23993472423E+03  0.00000000000E+00 0. -1.
         22    1    3    3    0    0 -0.22183729588E+02  0.95612288366E+02 -0.52930379471E+02  0.11151436058E+03  0.00000000000E+00 0.  1.
         22    1    3    3    0    0 -0.60497976095E+02 -0.13884201336E+02 -0.99879694128E+02  0.11759561836E+03  0.00000000000E+00 0.  1.
</event>
<event>
 7    1  0.7029100E-006  0.8110306E+02  0.7818608E-02  0.1434256E+00
          2   -1    0    0  502    0  0.00000000000E+00  0.00000000000E+00  0.89139748052E+02  0.89139748052E+02  0.00000000000E+00 0. -1.
          1   -1    0    0  501    0 -0.00000000000E+00 -0.00000000000E+00 -0.62476336763E+03  0.62476336763E+03  0.00000000000E+00 0. -1.
         25    2    1    2    0    0 -0.34246646416E+02  0.59764527598E+02 -0.20262041798E+03  0.24783987128E+03  0.12499974587E+03 0.  0.
          2    1    1    2  501    0  0.24542440507E+02  0.22784329225E+02 -0.37252568187E+03  0.37402786086E+03  0.00000000000E+00 0. -1.
          1    1    1    2  502    0  0.97042059092E+01 -0.82548856823E+02  0.39522480277E+02  0.92035383535E+02  0.00000000000E+00 0. -1.
         22    1    3    3    0    0 -0.60384447443E+02 -0.14093030521E+02 -0.67569769769E+02  0.91709153245E+02  0.00000000000E+00 0. -1.
         22    1    3    3    0    0  0.26137801027E+02  0.73857558118E+02 -0.13505064821E+03  0.15613071804E+03  0.00000000000E+00 0. -1.
</event>
<event>
 7    1  0.7029100E-006  0.6811594E+02  0.7818608E-02  0.1429145E+00
          2   -1    0    0  502    0  0.00000000000E+00  0.00000000000E+00  0.12400674261E+03  0.12400674261E+03  0.00000000000E+00 0. -1.
          1   -1    0    0  501    0 -0.00000000000E+00 -0.00000000000E+00 -0.18884727775E+04  0.18884727775E+04  0.00000000000E+00 0. -1.
         25    2    1    2    0    0 -0.33513698177E+02 -0.31953436452E+01 -0.15041467637E+03  0.19845123469E+03  0.12499975798E+03 0.  0.
          2    1    1    2  501    0  0.59364459747E+02  0.35589136762E+02 -0.17090144623E+04  0.17104154928E+04  0.00000000000E+00 0. -1.
          1    1    1    2  502    0 -0.25850761570E+02 -0.32393793117E+02  0.94963103786E+02  0.10361279258E+03  0.00000000000E+00 0. -1.
         22    1    3    3    0    0 -0.52059100059E+02  0.48140573854E+02 -0.10857470789E+03  0.12967702936E+03  0.00000000000E+00 0. -1.
         22    1    3    3    0    0  0.18545401882E+02 -0.51335917500E+02 -0.41839968478E+02  0.68774205330E+02  0.00000000000E+00 0. -1.
</event>
<event>
 7    1  0.7029100E-006  0.2075289E+03  0.7818608E-02  0.1310453E+00
          2   -1    0    0  502    0  0.00000000000E+00  0.00000000000E+00  0.99260398574E+03  0.99260398574E+03  0.00000000000E+00 0. -1.
          1   -1    0    0  501    0 -0.00000000000E+00 -0.00000000000E+00 -0.36370500803E+04  0.36370500803E+04  0.00000000000E+00 0. -1.
         25    2    1    2    0    0  0.12905726556E+03  0.15423754389E+03 -0.54379817432E+02  0.24293255003E+03  0.12495623865E+03 0.  0.
          2    1    1    2  501    0 -0.10353543863E+03 -0.18021364871E+03 -0.34849275055E+04  0.34911196292E+04  0.00000000000E+00 0. -1.
          1    1    1    2  502    0 -0.25521826932E+02  0.25976104820E+02  0.89486122839E+03  0.89560188686E+03  0.00000000000E+00 0. -1.
         22    1    3    3    0    0  0.38431588441E+02  0.12899956425E+03 -0.62702845686E+02  0.14849081259E+03  0.00000000000E+00 0.  1.
         22    1    3    3    0    0  0.90625677123E+02  0.25237979641E+02  0.83230282542E+01  0.94441737434E+02  0.00000000000E+00 0.  1.
</event>
<event>
 7    1  0.7029100E-006  0.1674408E+03  0.7818608E-02  0.1341665E+00
          2   -1    0    0  502    0  0.00000000000E+00  0.00000000000E+00  0.32253809400E+03  0.32253809400E+03  0.00000000000E+00 0. -1.
          1   -1    0    0  501    0 -0.00000000000E+00 -0.00000000000E+00 -0.20889053687E+03  0.20889053687E+03  0.00000000000E+00 0. -1.
         25    2    1    2    0    0 -0.72495826439E+02 -0.14376887486E+03 -0.76538112845E+02  0.21773793732E+03  0.12500636943E+03 0.  0.
          2    1    1    2  501    0 -0.32444143519E+02  0.10941515788E+02 -0.23166564709E+02  0.41340403201E+02  0.00000000000E+00 0. -1.
          1    1    1    2  502    0  0.10493996996E+03  0.13282735908E+03  0.21335223468E+03  0.27235029035E+03  0.00000000000E+00 0. -1.
         22    1    3    3    0    0  0.33593689240E+02 -0.15956665189E+02 -0.79609123949E+01  0.38033238711E+02  0.00000000000E+00 0.  1.
         22    1    3    3    0    0 -0.10608951568E+03 -0.12781220968E+03 -0.68577200451E+02  0.17970469860E+03  0.00000000000E+00 0.  1.
</event>
<event>
 7    1  0.7029100E-006  0.4198741E+02  0.7818608E-02  0.1563511E+00
          2   -1    0    0  502    0  0.00000000000E+00  0.00000000000E+00  0.41629332909E+03  0.41629332909E+03  0.00000000000E+00 0. -1.
          1   -1    0    0  501    0 -0.00000000000E+00 -0.00000000000E+00 -0.16716185262E+04  0.16716185262E+04  0.00000000000E+00 0. -1.
         25    2    1    2    0    0 -0.13310041708E+02 -0.11448367400E+02 -0.48762803609E+02  0.13530686365E+03  0.12498765543E+03 0.  0.
          2    1    1    2  501    0  0.39701525522E+02  0.14168111746E+02 -0.15788302550E+04  0.15793928962E+04  0.00000000000E+00 0. -1.
          1    1    1    2  502    0 -0.26391483814E+02 -0.27197443460E+01  0.37226786152E+03  0.37321209539E+03  0.00000000000E+00 0. -1.
         22    1    3    3    0    0 -0.46687382264E+02 -0.27459389348E+02  0.19569975762E+02  0.57590916622E+02  0.00000000000E+00 0.  1.
         22    1    3    3    0    0  0.33377340556E+02  0.16011021947E+02 -0.68332779371E+02  0.77715947031E+02  0.00000000000E+00 0.  1.
</event>
<event>
 7    1  0.7029100E-006  0.1084855E+03  0.7818608E-02  0.1435565E+00
          2   -1    0    0  502    0  0.00000000000E+00  0.00000000000E+00  0.16288269614E+04  0.16288269614E+04  0.00000000000E+00 0. -1.
          1   -1    0    0  501    0 -0.00000000000E+00 -0.00000000000E+00 -0.34233118637E+02  0.34233118637E+02  0.00000000000E+00 0. -1.
         25    2    1    2    0    0 -0.75190797781E+02  0.75790588866E+02  0.30786406303E+03  0.34900254838E+03  0.12499851215E+03 0.  0.
          2    1    1    2  501    0  0.93639699372E+02 -0.59232257619E+02  0.21347956033E+03  0.24052105172E+03  0.00000000000E+00 0. -1.
          1    1    1    2  502    0 -0.18448901591E+02 -0.16558331247E+02  0.10732502194E+04  0.10735364800E+04  0.00000000000E+00 0. -1.
         22    1    3    3    0    0 -0.29423365027E+02 -0.11216352463E+02  0.20235676221E+03  0.20479209014E+03  0.00000000000E+00 0. -1.
         22    1    3    3    0    0 -0.45767432754E+02  0.87006941329E+02  0.10550730082E+03  0.14421045825E+03  0.00000000000E+00 0. -1.
</event>
<event>
 7    1  0.7029100E-006  0.7485235E+02  0.7818608E-02  0.1351357E+00
          2   -1    0    0  502    0  0.00000000000E+00  0.00000000000E+00  0.24106806672E+04  0.24106806672E+04  0.00000000000E+00 0. -1.
          1   -1    0    0  501    0 -0.00000000000E+00 -0.00000000000E+00 -0.14436819372E+04  0.14436819372E+04  0.00000000000E+00 0. -1.
         25    2    1    2    0    0  0.13002623643E+03 -0.62464354021E+02  0.18772903277E+03  0.26772297448E+03  0.12499913453E+03 0.  0.
          2    1    1    2  501    0 -0.63598669634E+02  0.38903300054E+02 -0.14021254418E+04  0.14041061256E+04  0.00000000000E+00 0. -1.
          1    1    1    2  502    0 -0.66427566794E+02  0.23561053966E+02  0.21813951390E+04  0.21825335043E+04  0.00000000000E+00 0. -1.
         22    1    3    3    0    0  0.79835322836E+02  0.28536759594E+02  0.10457703800E+03  0.13462682607E+03  0.00000000000E+00 0. -1.
         22    1    3    3    0    0  0.50190913593E+02 -0.91001113615E+02  0.83151994768E+02  0.13309614841E+03  0.00000000000E+00 0. -1.
</event>
<event>
 7    1  0.7029100E-006  0.3648759E+02  0.7818608E-02  0.1557110E+00
          2   -1    0    0  502    0  0.00000000000E+00  0.00000000000E+00  0.53572928322E+03  0.53572928322E+03  0.00000000000E+00 0. -1.
          1   -1    0    0  501    0 -0.00000000000E+00 -0.00000000000E+00 -0.39533056625E+03  0.39533056625E+03  0.00000000000E+00 0. -1.
         25    2    1    2    0    0 -0.48339296763E+02  0.30415381241E+02 -0.51528230030E+02  0.14677187619E+03  0.12500016849E+03 0.  0.
          2    1    1    2  501    0  0.11951342226E+02 -0.29462262685E+02 -0.29464547564E+03  0.29635589385E+03  0.00000000000E+00 0. -1.
          1    1    1    2  502    0  0.36387954537E+02 -0.95311855602E+00  0.48657242264E+03  0.48793207944E+03  0.00000000000E+00 0. -1.
         22    1    3    3    0    0 -0.29629853326E+02  0.79389235107E+02 -0.27381916510E+02  0.89052502552E+02  0.00000000000E+00 0. -1.
         22    1    3    3    0    0 -0.18709443437E+02 -0.48973853866E+02 -0.24146313520E+02  0.57719373635E+02  0.00000000000E+00 0. -1.
</event>
<event>
 7    1  0.7029100E-006  0.2198453E+03  0.7818608E-02  0.1221457E+00
          2   -1    0    0  502    0  0.00000000000E+00  0.00000000000E+00  0.16565651299E+04  0.16565651299E+04  0.00000000000E+00 0. -1.
          1   -1    0    0  501    0 -0.00000000000E+00 -0.00000000000E+00 -0.60393132603E+02  0.60393132603E+02  0.00000000000E+00 0. -1.
         25    2    1    2    0    0  0.23126581306E+03 -0.11012957439E+03  0.85589774689E+03  0.90210779610E+03  0.12500049285E+03 0.  0.
          2    1    1    2  501    0 -0.79193089955E+02 -0.20610531396E+02  0.49690763222E+02  0.95736677667E+02  0.00000000000E+00 0. -1.
          1    1    1    2  502    0 -0.15207272311E+03  0.13074010579E+03  0.69058348721E+03  0.71911378876E+03  0.00000000000E+00 0. -1.
         22    1    3    3    0    0  0.10592253636E+03 -0.58012920295E+02  0.21135629897E+03  0.24342671946E+03  0.00000000000E+00 0.  1.
         22    1    3    3    0    0  0.12534327670E+03 -0.52116654096E+02  0.64454144791E+03  0.65868107664E+03  0.00000000000E+00 0.  1.
</event>
<event>
 7    1  0.7594349E-006  0.4812243E+02  0.7818608E-02  0.1466262E+00
          2   -1    0    0  502    0  0.00000000000E+00  0.00000000000E+00  0.98096265660E+03  0.98096265660E+03  0.00000000000E+00 0. -1.
          1   -1    0    0  501    0 -0.00000000000E+00 -0.00000000000E+00 -0.14988195496E+04  0.14988195496E+04  0.00000000000E+00 0. -1.
         25    2    1    2    0    0  0.84287621867E+02  0.36934513203E+02 -0.96796387240E+02  0.18292944936E+03  0.12500032558E+03 0.  0.
          2    1    1    2  501    0 -0.38689628187E+02 -0.22159208091E+02 -0.13579781164E+04  0.13587098595E+04  0.00000000000E+00 0. -1.
          1    1    1    2  502    0 -0.45597993681E+02 -0.14775305111E+02  0.93691761062E+03  0.93814289730E+03  0.00000000000E+00 0. -1.
         22    1    3    3    0    0  0.11618570483E+03  0.22216129608E+02 -0.62297625606E+02  0.13369244025E+03  0.00000000000E+00 0. -1.
         22    1    3    3    0    0 -0.31898082967E+02  0.14718383595E+02 -0.34498761634E+02  0.49237009118E+02  0.00000000000E+00 0. -1.
</event>
<event>
 7    1  0.7029100E-006  0.8170889E+02  0.7818608E-02  0.1416618E+00
          2   -1    0    0  502    0  0.00000000000E+00  0.00000000000E+00  0.14081158298E+04  0.14081158298E+04  0.00000000000E+00 0. -1.
          1   -1    0    0  501    0 -0.00000000000E+00 -0.00000000000E+00 -0.68729544595E+02  0.68729544595E+02  0.00000000000E+00 0. -1.
         25    2    1    2    0    0 -0.63735987358E+02  0.30395820785E+02  0.58183920815E+03  0.59928882818E+03  0.12499621368E+03 0.  0.
          2    1    1    2  501    0  0.97814931718E+01  0.36749151114E+02 -0.51454451725E+02  0.63982328174E+02  0.00000000000E+00 0. -1.
          1    1    1    2  502    0  0.53954494187E+02 -0.67144971898E+02  0.80900152874E+03  0.81357421800E+03  0.00000000000E+00 0. -1.
         22    1    3    3    0    0 -0.80726256752E+02  0.95417577639E+01  0.19168989634E+03  0.20821332818E+03  0.00000000000E+00 0.  1.
         22    1    3    3    0    0  0.16990269393E+02  0.20854063021E+02  0.39014931181E+03  0.39107550000E+03  0.00000000000E+00 0.  1.
</event>
<event>
 7    1  0.7029100E-006  0.2721464E+02  0.7818608E-02  0.1680607E+00
          2   -1    0    0  502    0  0.00000000000E+00  0.00000000000E+00  0.75947951093E+03  0.75947951093E+03  0.00000000000E+00 0. -1.
          1   -1    0    0  501    0 -0.00000000000E+00 -0.00000000000E+00 -0.84100330725E+03  0.84100330725E+03  0.00000000000E+00 0. -1.
         25    2    1    2    0    0 -0.25444892021E+02 -0.29172320544E+02  0.90766390845E+02  0.15925182112E+03  0.12499655198E+03 0.  0.
          2    1    1    2  501    0  0.49713140115E+01  0.26745294868E+02 -0.80636367880E+03  0.80682241370E+03  0.00000000000E+00 0. -1.
          1    1    1    2  502    0  0.20473578009E+02  0.24270256757E+01  0.63407349164E+03  0.63440858336E+03  0.00000000000E+00 0. -1.
         22    1    3    3    0    0 -0.62345286913E+02 -0.41827489098E+02  0.93774940531E+02  0.12012582202E+03  0.00000000000E+00 0.  1.
         22    1    3    3    0    0  0.36900394892E+02  0.12655168554E+02 -0.30085496857E+01  0.39125999100E+02  0.00000000000E+00 0.  1.
</event>
<event>
 7    1  0.7029100E-006  0.3490163E+02  0.7818608E-02  0.1565365E+00
          2   -1    0    0  502    0  0.00000000000E+00  0.00000000000E+00  0.28072620698E+04  0.28072620698E+04  0.00000000000E+00 0. -1.
          1   -1    0    0  501    0 -0.00000000000E+00 -0.00000000000E+00 -0.13547309826E+02  0.13547309826E+02  0.00000000000E+00 0. -1.
         25    2    1    2    0    0  0.22427182378E+02  0.47301050414E+02  0.61790660383E+03  0.63259266800E+03  0.12499817865E+03 0.  0.
          2    1    1    2  501    0 -0.29911424843E+02 -0.16654780269E+02  0.42045380468E+02  0.54220743822E+02  0.00000000000E+00 0. -1.
          1    1    1    2  502    0  0.74842424649E+01 -0.30646270145E+02  0.21337627757E+04  0.21339959678E+04  0.00000000000E+00 0. -1.
         22    1    3    3    0    0  0.56778302807E+02  0.40610576199E+02  0.56412120089E+03  0.56842389452E+03  0.00000000000E+00 0. -1.
         22    1    3    3    0    0 -0.34351120430E+02  0.66904742151E+01  0.53785402943E+02  0.64168773478E+02  0.00000000000E+00 0. -1.
</event>
<event>
 7    1  0.7029100E-006  0.4605070E+02  0.7818608E-02  0.1471636E+00
          2   -1    0    0  502    0  0.00000000000E+00  0.00000000000E+00  0.27801770495E+04  0.27801770495E+04  0.00000000000E+00 0. -1.
          1   -1    0    0  501    0 -0.00000000000E+00 -0.00000000000E+00 -0.71105039676E+02  0.71105039676E+02  0.00000000000E+00 0. -1.
         25    2    1    2    0    0 -0.84220569421E+02 -0.11838680911E+02  0.46814663772E+03  0.49196333073E+03  0.12503353830E+03 0.  0.
          2    1    1    2  501    0  0.39711767556E+02  0.20801594909E+02 -0.50451931086E+02  0.67491689737E+02  0.00000000000E+00 0. -1.
          1    1    1    2  502    0  0.44508801866E+02 -0.89629139980E+01  0.22913773031E+04  0.22918270687E+04  0.00000000000E+00 0. -1.
         22    1    3    3    0    0 -0.88357057758E+02  0.10176455834E+02  0.16044891829E+03  0.18345131586E+03  0.00000000000E+00 0. -1.
         22    1    3    3    0    0  0.41364883365E+01 -0.22015136745E+02  0.30769771943E+03  0.30851201488E+03  0.00000000000E+00 0. -1.
</event>
<event>
 7    1  0.7029100E-006  0.5406387E+02  0.7818608E-02  0.1426369E+00
          2   -1    0    0  502    0  0.00000000000E+00  0.00000000000E+00  0.62159998302E+02  0.62159998302E+02  0.00000000000E+00 0. -1.
          1   -1    0    0  501    0 -0.00000000000E+00 -0.00000000000E+00 -0.28626107421E+04  0.28626107421E+04  0.00000000000E+00 0. -1.
         25    2    1    2    0    0  0.28994719098E+02  0.25339221431E+02 -0.13419188818E+04  0.13482783810E+04  0.12500215074E+03 0.  0.
          2    1    1    2  501    0 -0.55500230825E+02  0.21781471678E+02 -0.15044070109E+04  0.15055879790E+04  0.00000000000E+00 0. -1.
          1    1    1    2  502    0  0.26505511727E+02 -0.47120693109E+02  0.45875148848E+02  0.70904380350E+02  0.00000000000E+00 0. -1.
         22    1    3    3    0    0  0.91218814304E+01 -0.76674416464E+01 -0.12272934593E+04  0.12273513081E+04  0.00000000000E+00 0. -1.
         22    1    3    3    0    0  0.19872837668E+02  0.33006663078E+02 -0.11462542248E+03  0.12092707291E+03  0.00000000000E+00 0. -1.
</event>
<event>
 7    1  0.7029100E-006  0.1712534E+03  0.7818608E-02  0.1270147E+00
          2   -1    0    0  502    0  0.00000000000E+00  0.00000000000E+00  0.12907597458E+04  0.12907597458E+04  0.00000000000E+00 0. -1.
          1   -1    0    0  501    0 -0.00000000000E+00 -0.00000000000E+00 -0.74598776919E+03  0.74598776919E+03  0.00000000000E+00 0. -1.
         25    2    1    2    0    0 -0.11617669238E+03 -0.10528824768E+03  0.13472253773E+02  0.20097070562E+03  0.12500033577E+03 0.  0.
          2    1    1    2  501    0  0.40346077417E+02 -0.50145142929E+02 -0.64430879949E+03  0.64751538239E+03  0.00000000000E+00 0. -1.
          1    1    1    2  502    0  0.75830614963E+02  0.15543339061E+03  0.11756085224E+04  0.11882614270E+04  0.00000000000E+00 0. -1.
         22    1    3    3    0    0 -0.31784342653E+02 -0.37548087264E+02  0.64669779820E+02  0.81254438138E+02  0.00000000000E+00 0.  1.
         22    1    3    3    0    0 -0.84392349727E+02 -0.67740160420E+02 -0.51197526047E+02  0.11971626748E+03  0.00000000000E+00 0.  1.
</event>
<event>
 7    1  0.7029100E-006  0.1427501E+03  0.7818608E-02  0.1351355E+00
          2   -1    0    0  502    0  0.00000000000E+00  0.00000000000E+00  0.30061195228E+03  0.30061195228E+03  0.00000000000E+00 0. -1.
          1   -1    0    0  501    0 -0.00000000000E+00 -0.00000000000E+00 -0.83325579432E+03  0.83325579432E+03  0.00000000000E+00 0. -1.
         25    2    1    2    0    0  0.15253709310E+03  0.74945030255E+02  0.12150627151E+03  0.24346397230E+03  0.12500643768E+03 0.  0.
          2    1    1    2  501    0 -0.13542664188E+03 -0.42185673712E+02 -0.76267757708E+03  0.77575582046E+03  0.00000000000E+00 0. -1.
          1    1    1    2  502    0 -0.17110451217E+02 -0.32759356543E+02  0.10852746353E+03  0.11464795385E+03  0.00000000000E+00 0. -1.
         22    1    3    3    0    0  0.11944234737E+02  0.69163568422E+02  0.43553855405E+02  0.82602677082E+02  0.00000000000E+00 0.  1.
         22    1    3    3    0    0  0.14059285836E+03  0.57814618322E+01  0.77952416103E+02  0.16086129522E+03  0.00000000000E+00 0.  1.
</event>
<event>
 7    1  0.7029100E-006  0.8748748E+02  0.7818608E-02  0.1359874E+00
          2   -1    0    0  502    0  0.00000000000E+00  0.00000000000E+00  0.37129450118E+03  0.37129450118E+03  0.00000000000E+00 0. -1.
          1   -1    0    0  501    0 -0.00000000000E+00 -0.00000000000E+00 -0.25140633695E+04  0.25140633695E+04  0.00000000000E+00 0. -1.
         25    2    1    2    0    0 -0.91621859720E+01 -0.11909657614E+03 -0.41785623742E+02  0.17787459440E+03  0.12500157152E+03 0.  0.
          2    1    1    2  501    0  0.40616484500E+02  0.38714208478E+02 -0.23977560031E+04  0.23984124623E+04  0.00000000000E+00 0. -1.
          1    1    1    2  502    0 -0.31454298528E+02  0.80382367664E+02  0.29677275848E+03  0.30907081406E+03  0.00000000000E+00 0. -1.
         22    1    3    3    0    0 -0.16523897733E+02  0.16425370439E+02  0.18124424147E+02  0.29518244207E+02  0.00000000000E+00 0.  1.
         22    1    3    3    0    0  0.73617117614E+01 -0.13552194658E+03 -0.59910047889E+02  0.14835635020E+03  0.00000000000E+00 0.  1.
</event>
<event>
 7    1  0.7029100E-006  0.9340303E+02  0.7818608E-02  0.1325678E+00
          2   -1    0    0  502    0  0.00000000000E+00  0.00000000000E+00  0.71869724942E+03  0.71869724942E+03  0.00000000000E+00 0. -1.
          1   -1    0    0  501    0 -0.00000000000E+00 -0.00000000000E+00 -0.86657901519E+03  0.86657901519E+03  0.00000000000E+00 0. -1.
         25    2    1    2    0    0  0.13376295911E+03  0.13027633305E+02 -0.89692888929E+01  0.18376248820E+03  0.12500382182E+03 0.  0.
          2    1    1    2  501    0 -0.49199376526E+02 -0.50623795094E+02 -0.76518808317E+03  0.76843747300E+03  0.00000000000E+00 0. -1.
          1    1    1    2  502    0 -0.84563582582E+02  0.37596161789E+02  0.62627560630E+03  0.63307630340E+03  0.00000000000E+00 0. -1.
         22    1    3    3    0    0 -0.10784296925E+02 -0.28165709572E+02 -0.14273054463E+02  0.33366575185E+02  0.00000000000E+00 0.  1.
         22    1    3    3    0    0  0.14454725603E+03  0.41193342877E+02  0.53037655702E+01  0.15039591302E+03  0.00000000000E+00 0.  1.
</event>
<event>
 7    1  0.7029100E-006  0.4003947E+02  0.7818608E-02  0.1513907E+00
          2   -1    0    0  502    0  0.00000000000E+00  0.00000000000E+00  0.72789649822E+03  0.72789649822E+03  0.00000000000E+00 0. -1.
          1   -1    0    0  501    0 -0.00000000000E+00 -0.00000000000E+00 -0.15181776011E+04  0.15181776011E+04  0.00000000000E+00 0. -1.
         25    2    1    2    0    0 -0.70528109974E+02  0.15790765193E+02 -0.12454279976E+03  0.19068223606E+03  0.12500097446E+03 0.  0.
          2    1    1    2  501    0  0.37789955594E+02  0.70904209215E+01 -0.13597190956E+04  0.13602626121E+04  0.00000000000E+00 0. -1.
          1    1    1    2  502    0  0.32738154380E+02 -0.22881186114E+02  0.69398079252E+03  0.69512925116E+03  0.00000000000E+00 0. -1.
         22    1    3    3    0    0 -0.99222284919E+02 -0.17160510783E+02 -0.86379717263E+02  0.13266876237E+03  0.00000000000E+00 0. -1.
         22    1    3    3    0    0  0.28694174946E+02  0.32951275976E+02 -0.38163082496E+02  0.58013473692E+02  0.00000000000E+00 0. -1.
</event>
<event>
 7    1  0.7029100E-006  0.1132612E+03  0.7818608E-02  0.1404442E+00
          2   -1    0    0  502    0  0.00000000000E+00  0.00000000000E+00  0.23551558465E+04  0.23551558465E+04  0.00000000000E+00 0. -1.
          1   -1    0    0  501    0 -0.00000000000E+00 -0.00000000000E+00 -0.73201435672E+02  0.73201435672E+02  0.00000000000E+00 0. -1.
         25    2    1    2    0    0  0.10812216922E+03  0.88663020023E+01  0.39763061613E+03  0.43070167803E+03  0.12499925513E+03 0.  0.
          2    1    1    2  501    0 -0.10753825265E+03 -0.39027440458E+02  0.13185404161E+01  0.11440872100E+03  0.00000000000E+00 0. -1.
          1    1    1    2  502    0 -0.58391657239E+00  0.30161138455E+02  0.18830052542E+04  0.18832468831E+04  0.00000000000E+00 0. -1.
         22    1    3    3    0    0  0.13119648626E+03  0.26953972518E+02  0.29531749116E+03  0.32427065119E+03  0.00000000000E+00 0. -1.
         22    1    3    3    0    0 -0.23074317037E+02 -0.18087670516E+02  0.10231312498E+03  0.10643102684E+03  0.00000000000E+00 0. -1.
</event>
<event>
 7    1  0.7029100E-006  0.4036654E+02  0.7818608E-02  0.1511286E+00
          2   -1    0    0  502    0  0.00000000000E+00  0.00000000000E+00  0.76379235907E+03  0.76379235907E+03  0.00000000000E+00 0. -1.
          1   -1    0    0  501    0 -0.00000000000E+00 -0.00000000000E+00 -0.94100058684E+03  0.94100058684E+03  0.00000000000E+00 0. -1.
         25    2    1    2    0    0  0.30825293698E+02 -0.47313306272E+02  0.31059953274E+02  0.14063739680E+03  0.12500163599E+03 0.  0.
          2    1    1    2  501    0  0.72413371937E+01  0.39707645311E+02 -0.88519592820E+03  0.88611566139E+03  0.00000000000E+00 0. -1.
          1    1    1    2  502    0 -0.38066630892E+02  0.76056609613E+01  0.67692774716E+03  0.67803988772E+03  0.00000000000E+00 0. -1.
         22    1    3    3    0    0  0.16883756888E+02  0.42779335431E+02  0.11183357205E+02  0.47330753902E+02  0.00000000000E+00 0. -1.
         22    1    3    3    0    0  0.13941536811E+02 -0.90092641704E+02  0.19876596069E+02  0.93306642899E+02  0.00000000000E+00 0. -1.
</event>
<event>
 7    1  0.7029100E-006  0.9396114E+02  0.7818608E-02  0.1426952E+00
          2   -1    0    0  502    0  0.00000000000E+00  0.00000000000E+00  0.26453755145E+03  0.26453755145E+03  0.00000000000E+00 0. -1.
          1   -1    0    0  501    0 -0.00000000000E+00 -0.00000000000E+00 -0.25060818737E+03  0.25060818737E+03  0.00000000000E+00 0. -1.
         25    2    1    2    0    0 -0.66376508031E+02  0.93535503699E+02 -0.39153834123E+02  0.17410537502E+03  0.12499971045E+03 0.  0.
          2    1    1    2  501    0  0.29076378951E+02 -0.93721575282E+01 -0.13137814693E+03  0.13488324819E+03  0.00000000000E+00 0. -1.
          1    1    1    2  502    0  0.37300129080E+02 -0.84163346171E+02  0.18446134514E+03  0.20615711561E+03  0.00000000000E+00 0. -1.
         22    1    3    3    0    0  0.39922485775E-01  0.77995948897E+02 -0.64629236122E+02  0.10129317746E+03  0.00000000000E+00 0.  1.
         22    1    3    3    0    0 -0.66416430517E+02  0.15539554802E+02  0.25475401999E+02  0.72812197557E+02  0.00000000000E+00 0.  1.
</event>
<event>
 7    1  0.7029100E-006  0.9574394E+02  0.7818608E-02  0.1474713E+00
          2   -1    0    0  502    0  0.00000000000E+00  0.00000000000E+00  0.14551661904E+03  0.14551661904E+03  0.00000000000E+00 0. -1.
          1   -1    0    0  501    0 -0.00000000000E+00 -0.00000000000E+00 -0.15882224922E+04  0.15882224922E+04  0.00000000000E+00 0. -1.
         25    2    1    2    0    0 -0.28655025906E+02 -0.85697946612E+02 -0.17955299516E+03  0.23670562251E+03  0.12500010036E+03 0.  0.
          2    1    1    2  501    0  0.18460913480E+02 -0.10206068275E+02 -0.13601123369E+04  0.13602759051E+04  0.00000000000E+00 0. -1.
          1    1    1    2  502    0  0.10194112426E+02  0.95904014886E+02  0.96959458901E+02  0.13675758359E+03  0.00000000000E+00 0. -1.
         22    1    3    3    0    0 -0.29360167068E+02 -0.78536030785E+02 -0.33204334574E+02  0.90180127391E+02  0.00000000000E+00 0. -1.
         22    1    3    3    0    0  0.70514116186E+00 -0.71619158263E+01 -0.14634866059E+03  0.14652549511E+03  0.00000000000E+00 0. -1.
</event>
<event>
 7    1  0.7029100E-006  0.6274718E+02  0.7818608E-02  0.1451332E+00
          2   -1    0    0  502    0  0.00000000000E+00  0.00000000000E+00  0.26318281420E+03  0.26318281420E+03  0.00000000000E+00 0. -1.
          1   -1    0    0  501    0 -0.00000000000E+00 -0.00000000000E+00 -0.78326318350E+03  0.78326318350E+03  0.00000000000E+00 0. -1.
         25    2    1    2    0    0 -0.89388893898E+02 -0.13951741871E+02 -0.17225443385E+03  0.23126234785E+03  0.12500263237E+03 0.  0.
          2    1    1    2  501    0  0.60495141434E+02 -0.10910850945E+02 -0.57831047556E+03  0.58156832354E+03  0.00000000000E+00 0. -1.
          1    1    1    2  502    0  0.28893752463E+02  0.24862592816E+02  0.23048454011E+03  0.23361532631E+03  0.00000000000E+00 0. -1.
         22    1    3    3    0    0 -0.87639870980E+02  0.10553401353E+02 -0.40294317790E+02  0.97034804640E+02  0.00000000000E+00 0. -1.
         22    1    3    3    0    0 -0.17490229179E+01 -0.24505143223E+02 -0.13196011606E+03  0.13422754321E+03  0.00000000000E+00 0. -1.
</event>
<event>
 7    1  0.7029100E-006  0.1091349E+03  0.7818608E-02  0.1314487E+00
          2   -1    0    0  502    0  0.00000000000E+00  0.00000000000E+00  0.29823101881E+03  0.29823101881E+03  0.00000000000E+00 0. -1.
          1   -1    0    0  501    0 -0.00000000000E+00 -0.00000000000E+00 -0.73765056285E+03  0.73765056285E+03  0.00000000000E+00 0. -1.
         25    2    1    2    0    0 -0.41929057867E+02  0.58166640233E+02  0.36237175124E-01  0.14410299092E+03  0.12499706696E+03 0.  0.
          2    1    1    2  501    0 -0.66260235132E+02 -0.82232368904E+01 -0.64808614311E+03  0.65151645357E+03  0.00000000000E+00 0. -1.
          1    1    1    2  502    0  0.10818929300E+03 -0.49943403343E+02  0.20863036189E+03  0.24026213717E+03  0.00000000000E+00 0. -1.
         22    1    3    3    0    0 -0.18384484997E+02  0.94353069022E+02 -0.17133057478E+02  0.97642370829E+02  0.00000000000E+00 0. -1.
         22    1    3    3    0    0 -0.23544572870E+02 -0.36186428789E+02  0.17169294653E+02  0.46460620089E+02  0.00000000000E+00 0. -1.
</event>
<event>
 7    1  0.7029100E-006  0.4325669E+02  0.7818608E-02  0.1601908E+00
          2   -1    0    0  502    0  0.00000000000E+00  0.00000000000E+00  0.10199351383E+04  0.10199351383E+04  0.00000000000E+00 0. -1.
          1   -1    0    0  501    0 -0.00000000000E+00 -0.00000000000E+00 -0.35004433163E+03  0.35004433163E+03  0.00000000000E+00 0. -1.
         25    2    1    2    0    0 -0.30215540386E+02  0.71336647896E+01  0.10232108197E+03  0.16449427784E+03  0.12499958229E+03 0.  0.
          2    1    1    2  501    0  0.42461028418E+02  0.90988953868E+01 -0.31736236580E+03  0.32031952806E+03  0.00000000000E+00 0. -1.
          1    1    1    2  502    0 -0.12245488032E+02 -0.16232560176E+02  0.88493209053E+03  0.88516566406E+03  0.00000000000E+00 0. -1.
         22    1    3    3    0    0 -0.44119602140E+02 -0.51239947704E+02  0.65214357980E+02  0.93941386089E+02  0.00000000000E+00 0. -1.
         22    1    3    3    0    0  0.13904061754E+02  0.58373612494E+02  0.37106723987E+02  0.70552891747E+02  0.00000000000E+00 0. -1.
</event>
<event>
 7    1  0.7029100E-006  0.2459538E+03  0.7818608E-02  0.1358571E+00
          2   -1    0    0  502    0  0.00000000000E+00  0.00000000000E+00  0.74753599924E+03  0.74753599924E+03  0.00000000000E+00 0. -1.
          1   -1    0    0  501    0 -0.00000000000E+00 -0.00000000000E+00 -0.21708975146E+03  0.21708975146E+03  0.00000000000E+00 0. -1.
         25    2    1    2    0    0  0.26221650879E+03 -0.26292224073E+02 -0.36484392618E+02  0.29394728195E+03  0.12500046052E+03 0.  0.
          2    1    1    2  501    0 -0.20163657406E+02  0.78852152096E+00 -0.24136119170E+02  0.31460246260E+02  0.00000000000E+00 0. -1.
          1    1    1    2  502    0 -0.24205285139E+03  0.25503702552E+02  0.59106675957E+03  0.63921822250E+03  0.00000000000E+00 0. -1.
         22    1    3    3    0    0  0.22651407134E+03 -0.67464472796E+02 -0.20915975192E+02  0.23727106360E+03  0.00000000000E+00 0. -1.
         22    1    3    3    0    0  0.35702437455E+02  0.41172248723E+02 -0.15568417426E+02  0.56676218348E+02  0.00000000000E+00 0. -1.
</event>
<event>
 7    1  0.7777152E-006  0.1064675E+03  0.7818608E-02  0.1363589E+00
          2   -1    0    0  502    0  0.00000000000E+00  0.00000000000E+00  0.69044203007E+03  0.69044203007E+03  0.00000000000E+00 0. -1.
          1   -1    0    0  501    0 -0.00000000000E+00 -0.00000000000E+00 -0.16927933371E+04  0.16927933371E+04  0.00000000000E+00 0. -1.
         25    2    1    2    0    0 -0.13010605850E+03 -0.64398192672E+02 -0.35372996014E+03  0.40227353597E+03  0.12499759745E+03 0.  0.
          2    1    1    2  501    0  0.28327144821E+02  0.34571408208E+02 -0.13101867525E+04  0.13109488685E+04  0.00000000000E+00 0. -1.
          1    1    1    2  502    0  0.10177891368E+03  0.29826784464E+02  0.66156540558E+03  0.67001296271E+03  0.00000000000E+00 0. -1.
         22    1    3    3    0    0 -0.31868718537E+02 -0.34384120126E+02 -0.25678645765E+03  0.26103097090E+03  0.00000000000E+00 0. -1.
         22    1    3    3    0    0 -0.98237339961E+02 -0.30014072545E+02 -0.96943502492E+02  0.14124256507E+03  0.00000000000E+00 0. -1.
</event>
<event>
 7    1  0.7029100E-006  0.9019303E+02  0.7818608E-02  0.1403452E+00
          2   -1    0    0  502    0  0.00000000000E+00  0.00000000000E+00  0.50463683119E+03  0.50463683119E+03  0.00000000000E+00 0. -1.
          1   -1    0    0  501    0 -0.00000000000E+00 -0.00000000000E+00 -0.12764790086E+04  0.12764790086E+04  0.00000000000E+00 0. -1.
         25    2    1    2    0    0 -0.55387938601E+02 -0.19346701602E+02 -0.21398079591E+03  0.25466497086E+03  0.12499739101E+03 0.  0.
          2    1    1    2  501    0 -0.35293883297E+02  0.14558643628E+02 -0.10375451728E+04  0.10382473684E+04  0.00000000000E+00 0. -1.
          1    1    1    2  502    0  0.90681821898E+02  0.47880579739E+01  0.47968379130E+03  0.48820350056E+03  0.00000000000E+00 0. -1.
         22    1    3    3    0    0 -0.55654380520E+01 -0.54363788492E+02 -0.17258450561E+03  0.18102985162E+03  0.00000000000E+00 0.  1.
         22    1    3    3    0    0 -0.49822500549E+02  0.35017086890E+02 -0.41396290298E+02  0.73635119241E+02  0.00000000000E+00 0.  1.
</event>
<event>
 7    1  0.7029100E-006  0.5515413E+02  0.7818608E-02  0.1458302E+00
          2   -1    0    0  502    0  0.00000000000E+00  0.00000000000E+00  0.11477508434E+04  0.11477508434E+04  0.00000000000E+00 0. -1.
          1   -1    0    0  501    0 -0.00000000000E+00 -0.00000000000E+00 -0.43606456582E+03  0.43606456582E+03  0.00000000000E+00 0. -1.
         25    2    1    2    0    0  0.36391725726E+02 -0.27091465632E+02  0.23912558715E+03  0.27361441792E+03  0.12500199218E+03 0.  0.
          2    1    1    2  501    0 -0.29439026265E+02 -0.28837296180E+02 -0.41691240678E+03  0.41894415004E+03  0.00000000000E+00 0. -1.
          1    1    1    2  502    0 -0.69526994613E+01  0.55928761812E+02  0.88947309725E+03  0.89125684130E+03  0.00000000000E+00 0. -1.
         22    1    3    3    0    0  0.73972548072E+02 -0.43995116965E+02  0.19548675109E+03  0.21359442417E+03  0.00000000000E+00 0.  1.
         22    1    3    3    0    0 -0.37580822345E+02  0.16903651333E+02  0.43638836062E+02  0.60019993747E+02  0.00000000000E+00 0.  1.
</event>
<event>
 7    1  0.7029100E-006  0.8753970E+02  0.7818608E-02  0.1365618E+00
          2   -1    0    0  502    0  0.00000000000E+00  0.00000000000E+00  0.10617332740E+03  0.10617332740E+03  0.00000000000E+00 0. -1.
          1   -1    0    0  501    0 -0.00000000000E+00 -0.00000000000E+00 -0.71725726127E+03  0.71725726127E+03  0.00000000000E+00 0. -1.
         25    2    1    2    0    0 -0.10191240922E+02  0.42236403288E+02 -0.17525361074E+03  0.21960545318E+03  0.12499980733E+03 0.  0.
          2    1    1    2  501    0  0.29928378714E+02 -0.91904638645E+02 -0.50626463107E+03  0.51540862151E+03  0.00000000000E+00 0. -1.
          1    1    1    2  502    0 -0.19737137792E+02  0.49668235357E+02  0.70434307934E+02  0.88416513988E+02  0.00000000000E+00 0. -1.
         22    1    3    3    0    0 -0.10125667495E+02  0.73879125491E+02 -0.17239772273E+03  0.18783404678E+03  0.00000000000E+00 0. -1.
         22    1    3    3    0    0 -0.65573427314E-01 -0.31642722202E+02 -0.28558880124E+01  0.31771406399E+02  0.00000000000E+00 0. -1.
</event>
<event>
 7    1  0.7029100E-006  0.5199698E+02  0.7818608E-02  0.1447432E+00
          2   -1    0    0  502    0  0.00000000000E+00  0.00000000000E+00  0.16079526438E+03  0.16079526438E+03  0.00000000000E+00 0. -1.
          1   -1    0    0  501    0 -0.00000000000E+00 -0.00000000000E+00 -0.41946964770E+03  0.41946964770E+03  0.00000000000E+00 0. -1.
         25    2    1    2    0    0  0.31732601853E+02  0.34630183851E+02 -0.18837668632E+03  0.23090430804E+03  0.12499926348E+03 0.  0.
          2    1    1    2  501    0 -0.44395025214E+02  0.16440070175E+02 -0.20203332662E+03  0.20750580531E+03  0.00000000000E+00 0. -1.
          1    1    1    2  502    0  0.12662423361E+02 -0.51070254026E+02  0.13173562962E+03  0.14185479873E+03  0.00000000000E+00 0. -1.
         22    1    3    3    0    0  0.31986719381E+02 -0.38829026020E+02 -0.36368809261E+02  0.62076837592E+02  0.00000000000E+00 0. -1.
         22    1    3    3    0    0 -0.25411752789E+00  0.73459209870E+02 -0.15200787705E+03  0.16882747045E+03  0.00000000000E+00 0. -1.
</event>
<event>
 7    1  0.7029100E-006  0.7288730E+02  0.7818608E-02  0.1468509E+00
          2   -1    0    0  502    0  0.00000000000E+00  0.00000000000E+00  0.13791018796E+03  0.13791018796E+03  0.00000000000E+00 0. -1.
          1   -1    0    0  501    0 -0.00000000000E+00 -0.00000000000E+00 -0.24314414300E+03  0.24314414300E+03  0.00000000000E+00 0. -1.
         25    2    1    2    0    0 -0.32995829897E+02 -0.33030052720E+02  0.20412244024E+02  0.13498697452E+03  0.12500045765E+03 0.  0.
          2    1    1    2  501    0  0.50999596571E+02  0.55720760252E+02 -0.17400735073E+03  0.18969533489E+03  0.00000000000E+00 0. -1.
          1    1    1    2  502    0 -0.18003766674E+02 -0.22690707532E+02  0.48361151661E+02  0.56372021542E+02  0.00000000000E+00 0. -1.
         22    1    3    3    0    0  0.17861981063E+02  0.38020747606E+02 -0.86785708083E+01  0.42894582493E+02  0.00000000000E+00 0.  1.
         22    1    3    3    0    0 -0.50857810960E+02 -0.71050800326E+02  0.29090814833E+02  0.92092392032E+02  0.00000000000E+00 0.  1.
</event>
<event>
 7    1  0.7029100E-006  0.1324158E+03  0.7818608E-02  0.1328315E+00
          2   -1    0    0  502    0  0.00000000000E+00  0.00000000000E+00  0.14438634549E+04  0.14438634549E+04  0.00000000000E+00 0. -1.
          1   -1    0    0  501    0 -0.00000000000E+00 -0.00000000000E+00 -0.21606333366E+04  0.21606333366E+04  0.00000000000E+00 0. -1.
         25    2    1    2    0    0 -0.13522294493E+02 -0.13459635247E+03  0.10407022223E+04  0.10568754763E+04  0.12500250586E+03 0.  0.
          2    1    1    2  501    0  0.59382761276E+02  0.11836695875E+03 -0.21490031892E+04  0.21530795983E+04  0.00000000000E+00 0. -1.
          1    1    1    2  502    0 -0.45860466782E+02  0.16229393711E+02  0.39153108521E+03  0.39454171683E+03  0.00000000000E+00 0. -1.
         22    1    3    3    0    0  0.12822145148E+02  0.11415378606E+02  0.34984006017E+03  0.35026102549E+03  0.00000000000E+00 0. -1.
         22    1    3    3    0    0 -0.26344439642E+02 -0.14601173107E+03  0.69086216211E+03  0.70661445085E+03  0.00000000000E+00 0. -1.
</event>
<event>
 7    1  0.7029100E-006  0.4966584E+02  0.7818608E-02  0.1513088E+00
          2   -1    0    0  502    0  0.00000000000E+00  0.00000000000E+00  0.10148415777E+03  0.10148415777E+03  0.00000000000E+00 0. -1.
          1   -1    0    0  501    0 -0.00000000000E+00 -0.00000000000E+00 -0.34178842329E+03  0.34178842329E+03  0.00000000000E+00 0. -1.
         25    2    1    2    0    0 -0.30309802179E+01  0.34885524870E+02 -0.46984139940E+02  0.13805724839E+03  0.12500443088E+03 0.  0.
          2    1    1    2  501    0  0.29356992740E+02  0.10471764004E+02 -0.23572248817E+03  0.23777422546E+03  0.00000000000E+00 0. -1.
          1    1    1    2  502    0 -0.26326012522E+02 -0.45357288875E+02  0.42402362588E+02  0.67441107215E+02  0.00000000000E+00 0. -1.
         22    1    3    3    0    0 -0.34219037314E+02  0.40268883401E+02  0.25714057660E+02  0.58768514074E+02  0.00000000000E+00 0. -1.
         22    1    3    3    0    0  0.31188057096E+02 -0.53833585313E+01 -0.72698197601E+02  0.79288734312E+02  0.00000000000E+00 0. -1.
</event>
<event>
 7    1  0.7029100E-006  0.6154590E+02  0.7818608E-02  0.1401236E+00
          2   -1    0    0  502    0  0.00000000000E+00  0.00000000000E+00  0.27797941878E+04  0.27797941878E+04  0.00000000000E+00 0. -1.
          1   -1    0    0  501    0 -0.00000000000E+00 -0.00000000000E+00 -0.41370219996E+02  0.41370219996E+02  0.00000000000E+00 0. -1.
         25    2    1    2    0    0 -0.49776267152E+02  0.50781841435E+02  0.50069006220E+03  0.52093494806E+03  0.12500483806E+03 0.  0.
          2    1    1    2  501    0  0.62252477804E+02  0.47707366363E+01  0.66746244586E+00  0.62438581237E+02  0.00000000000E+00 0. -1.
          1    1    1    2  502    0 -0.12476210651E+02 -0.55552578071E+02  0.22370664431E+04  0.22377908785E+04  0.00000000000E+00 0. -1.
         22    1    3    3    0    0 -0.54127841177E+02  0.27946412067E+02  0.84887503333E+02  0.10448307691E+03  0.00000000000E+00 0.  1.
         22    1    3    3    0    0  0.43515740246E+01  0.22835429368E+02  0.41580255886E+03  0.41645187115E+03  0.00000000000E+00 0.  1.
</event>
<event>
 7    1  0.7650758E-006  0.1438378E+03  0.7818608E-02  0.1341969E+00
          2   -1    0    0  502    0  0.00000000000E+00  0.00000000000E+00  0.12291124309E+04  0.12291124309E+04  0.00000000000E+00 0. -1.
          1   -1    0    0  501    0 -0.00000000000E+00 -0.00000000000E+00 -0.11396036172E+04  0.11396036172E+04  0.00000000000E+00 0. -1.
         25    2    1    2    0    0 -0.11047730648E+03 -0.33149442055E+02 -0.18050971159E+03  0.24800913775E+03  0.12498262148E+03 0.  0.
          2    1    1    2  501    0 -0.33512144475E+02  0.21383543275E+02 -0.92054857019E+03  0.92140652799E+03  0.00000000000E+00 0. -1.
          1    1    1    2  502    0  0.14398945095E+03  0.11765898779E+02  0.11905670954E+04  0.11993003823E+04  0.00000000000E+00 0. -1.
         22    1    3    3    0    0 -0.12123057870E+03 -0.53213649119E+02 -0.18215394362E+03  0.22518571189E+03  0.00000000000E+00 0. -1.
         22    1    3    3    0    0  0.10753272224E+02  0.20064207065E+02  0.16442320264E+01  0.22823425852E+02  0.00000000000E+00 0. -1.
</event>
<event>
 7    1  0.7029100E-006  0.5930003E+02  0.7818608E-02  0.1423733E+00
          2   -1    0    0  502    0  0.00000000000E+00  0.00000000000E+00  0.14156038340E+04  0.14156038340E+04  0.00000000000E+00 0. -1.
          1   -1    0    0  501    0 -0.00000000000E+00 -0.00000000000E+00 -0.43873208426E+03  0.43873208426E+03  0.00000000000E+00 0. -1.
         25    2    1    2    0    0 -0.68919443183E+02  0.36471377696E+02  0.13951514524E+03  0.20290246302E+03  0.12499953083E+03 0.  0.
          2    1    1    2  501    0  0.58071539216E+02  0.11937745733E+02 -0.40438172138E+03  0.40870452655E+03  0.00000000000E+00 0. -1.
          1    1    1    2  502    0  0.10847903967E+02 -0.48409123429E+02  0.12417383259E+04  0.12427289287E+04  0.00000000000E+00 0. -1.
         22    1    3    3    0    0 -0.38461516311E+02  0.54200107656E+02  0.82279170668E+01  0.66967443777E+02  0.00000000000E+00 0.  1.
         22    1    3    3    0    0 -0.30457926872E+02 -0.17728729959E+02  0.13128722817E+03  0.13593501924E+03  0.00000000000E+00 0.  1.
</event>
<event>
 7    1  0.7029100E-006  0.7392912E+02  0.7818608E-02  0.1394292E+00
          2   -1    0    0  502    0  0.00000000000E+00  0.00000000000E+00  0.44026970850E+02  0.44026970850E+02  0.00000000000E+00 0. -1.
          1   -1    0    0  501    0 -0.00000000000E+00 -0.00000000000E+00 -0.72855479535E+03  0.72855479535E+03  0.00000000000E+00 0. -1.
         25    2    1    2    0    0  0.41519132507E+02  0.23695918020E+02 -0.18623837179E+03  0.22933722106E+03  0.12500197976E+03 0.  0.
          2    1    1    2  501    0  0.55315626040E+01  0.49781171469E+02 -0.42876743821E+03  0.43168307737E+03  0.00000000000E+00 0. -1.
          1    1    1    2  502    0 -0.47050695111E+02 -0.73477089489E+02 -0.69522014500E+02  0.11156146777E+03  0.00000000000E+00 0. -1.
         22    1    3    3    0    0 -0.23223664401E+02 -0.35711611698E+02 -0.86454713439E+02  0.96379848900E+02  0.00000000000E+00 0. -1.
         22    1    3    3    0    0  0.64742796908E+02  0.59407529717E+02 -0.99783658348E+02  0.13295737216E+03  0.00000000000E+00 0. -1.
</event>
<event>
 7    1  0.7029100E-006  0.1230283E+03  0.7818608E-02  0.1337710E+00
          2   -1    0    0  502    0  0.00000000000E+00  0.00000000000E+00  0.17798256613E+03  0.17798256613E+03  0.00000000000E+00 0. -1.
          1   -1    0    0  501    0 -0.00000000000E+00 -0.00000000000E+00 -0.36397307749E+03  0.36397307749E+03  0.00000000000E+00 0. -1.
         25    2    1    2    0    0  0.10023438498E+03  0.40888436489E+02 -0.16579357605E+03  0.23416146609E+03  0.12500114467E+03 0.  0.
          2    1    1    2  501    0 -0.10675064858E+03 -0.88670645117E+02 -0.12856842345E+03  0.18917722851E+03  0.00000000000E+00 0. -1.
          1    1    1    2  502    0  0.65162635971E+01  0.47782208629E+02  0.10837148814E+03  0.11861694902E+03  0.00000000000E+00 0. -1.
         22    1    3    3    0    0 -0.18979345202E+02 -0.46414708719E-01  0.70442203719E+01  0.20244474290E+02  0.00000000000E+00 0.  1.
         22    1    3    3    0    0  0.11921373019E+03  0.40934851197E+02 -0.17283779642E+03  0.21391699180E+03  0.00000000000E+00 0.  1.
</event>
<event>
 7    1  0.7029100E-006  0.9497090E+02  0.7818608E-02  0.1321734E+00
          2   -1    0    0  502    0  0.00000000000E+00  0.00000000000E+00  0.16755339628E+04  0.16755339628E+04  0.00000000000E+00 0. -1.
          1   -1    0    0  501    0 -0.00000000000E+00 -0.00000000000E+00 -0.15959098163E+03  0.15959098163E+03  0.00000000000E+00 0. -1.
         25    2    1    2    0    0 -0.51515064184E+02 -0.22763740979E+02  0.46658266556E+03  0.48630880559E+03  0.12499952342E+03 0.  0.
          2    1    1    2  501    0  0.88757061290E+02 -0.38742087008E+02 -0.13286089695E+03  0.16441041078E+03  0.00000000000E+00 0. -1.
          1    1    1    2  502    0 -0.37241997106E+02  0.61505827987E+02  0.11822212126E+04  0.11844057281E+04  0.00000000000E+00 0. -1.
         22    1    3    3    0    0 -0.79622114028E+01  0.20762628689E+02  0.37671259441E+03  0.37736833777E+03  0.00000000000E+00 0. -1.
         22    1    3    3    0    0 -0.43552852781E+02 -0.43526369668E+02  0.89870071151E+02  0.10894046783E+03  0.00000000000E+00 0. -1.
</event>
<event>
 7    1  0.7029100E-006  0.5726781E+02  0.7818608E-02  0.1483213E+00
          2   -1    0    0  502    0  0.00000000000E+00  0.00000000000E+00  0.98027480943E+03  0.98027480943E+03  0.00000000000E+00 0. -1.
          1   -1    0    0  501    0 -0.00000000000E+00 -0.00000000000E+00 -0.27156958343E+03  0.27156958343E+03  0.00000000000E+00 0. -1.
         25    2    1    2    0    0 -0.43740778975E+02 -0.42656456840E+02 -0.75171691361E+02  0.15815444285E+03  0.12501686109E+03 0.  0.
          2    1    1    2  501    0  0.30513172906E+02 -0.13105986718E+02 -0.15224025542E+03  0.15582013983E+03  0.00000000000E+00 0. -1.
          1    1    1    2  502    0  0.13227606069E+02  0.55762443558E+02  0.93611717277E+03  0.93786981017E+03  0.00000000000E+00 0. -1.
         22    1    3    3    0    0 -0.59735952454E+02 -0.76792925506E+02 -0.70540893978E+02  0.12017302171E+03  0.00000000000E+00 0.  1.
         22    1    3    3    0    0  0.15995173479E+02  0.34136468667E+02 -0.46307973822E+01  0.37981421143E+02  0.00000000000E+00 0.  1.
</event>
<event>
 7    1  0.7029100E-006  0.3047724E+02  0.7818608E-02  0.1603753E+00
          2   -1    0    0  502    0  0.00000000000E+00  0.00000000000E+00  0.18462734904E+04  0.18462734904E+04  0.00000000000E+00 0. -1.
          1   -1    0    0  501    0 -0.00000000000E+00 -0.00000000000E+00 -0.29010458774E+02  0.29010458774E+02  0.00000000000E+00 0. -1.
         25    2    1    2    0    0  0.12000924796E+02  0.10230145332E+02  0.17549672743E+03  0.21603966416E+03  0.12500142833E+03 0.  0.
          2    1    1    2  501    0  0.38995189713E+01 -0.33932935675E+02  0.25250006162E+02  0.42476030687E+02  0.00000000000E+00 0. -1.
          1    1    1    2  502    0 -0.15900443767E+02  0.23702790343E+02  0.16165162980E+04  0.16167682543E+04  0.00000000000E+00 0. -1.
         22    1    3    3    0    0  0.50697940789E+02  0.49333474885E+02  0.92083911112E+02  0.11611855851E+03  0.00000000000E+00 0. -1.
         22    1    3    3    0    0 -0.38697015994E+02 -0.39103329553E+02  0.83412816318E+02  0.99921105654E+02  0.00000000000E+00 0. -1.
</event>
<event>
 7    1  0.7029100E-006  0.8687435E+02  0.7818608E-02  0.1448604E+00
          2   -1    0    0  502    0  0.00000000000E+00  0.00000000000E+00  0.26547495373E+03  0.26547495373E+03  0.00000000000E+00 0. -1.
          1   -1    0    0  501    0 -0.00000000000E+00 -0.00000000000E+00 -0.17868223227E+03  0.17868223227E+03  0.00000000000E+00 0. -1.
         25    2    1    2    0    0  0.60483223927E+02  0.51055451793E+00 -0.10633525680E+03  0.17490242382E+03  0.12500075990E+03 0.  0.
          2    1    1    2  501    0  0.28016577925E+02 -0.20414822543E+01 -0.22613400290E+02  0.36061921207E+02  0.00000000000E+00 0. -1.
          1    1    1    2  502    0 -0.88499801852E+02  0.15309277363E+01  0.21574137854E+03  0.23319284098E+03  0.00000000000E+00 0. -1.
         22    1    3    3    0    0 -0.30551320576E+02 -0.43252638794E+01 -0.70486234095E+02  0.76944137486E+02  0.00000000000E+00 0. -1.
         22    1    3    3    0    0  0.91034544503E+02  0.48358183973E+01 -0.35849022703E+02  0.97958286332E+02  0.00000000000E+00 0. -1.
</event>
<event>
 7    1  0.7029100E-006  0.4116775E+02  0.7818608E-02  0.1558008E+00
          2   -1    0    0  502    0  0.00000000000E+00  0.00000000000E+00  0.42271633132E+03  0.42271633132E+03  0.00000000000E+00 0. -1.
          1   -1    0    0  501    0 -0.00000000000E+00 -0.00000000000E+00 -0.11417359205E+04  0.11417359205E+04  0.00000000000E+00 0. -1.
         25    2    1    2    0    0 -0.17216086425E+02 -0.51788591308E+02 -0.15929959365E+03  0.20971528956E+03  0.12500276123E+03 0.  0.
          2    1    1    2  501    0 -0.13571870317E+02  0.24512550567E+02 -0.95595861278E+03  0.95636913907E+03  0.00000000000E+00 0. -1.
          1    1    1    2  502    0  0.30787956741E+02  0.27276040741E+02  0.39623861730E+03  0.39836782315E+03  0.00000000000E+00 0. -1.
         22    1    3    3    0    0 -0.71615877996E+02 -0.29359211267E+02 -0.95417244458E+02  0.12286271935E+03  0.00000000000E+00 0.  1.
         22    1    3    3    0    0  0.54399791571E+02 -0.22429380041E+02 -0.63882349196E+02  0.86852570203E+02  0.00000000000E+00 0.  1.
</event>
<event>
 7    1  0.7029100E-006  0.1076124E+03  0.7818608E-02  0.1381011E+00
          2   -1    0    0  502    0  0.00000000000E+00  0.00000000000E+00  0.37108620514E+03  0.37108620514E+03  0.00000000000E+00 0. -1.
          1   -1    0    0  501    0 -0.00000000000E+00 -0.00000000000E+00 -0.89633114151E+03  0.89633114151E+03  0.00000000000E+00 0. -1.
         25    2    1    2    0    0 -0.10505234199E+03 -0.91088055109E+02  0.16695293362E+03  0.25066209870E+03  0.12500070936E+03 0.  0.
          2    1    1    2  501    0  0.91865815115E+02  0.55130314141E+02 -0.84880142274E+03  0.85553640178E+03  0.00000000000E+00 0. -1.
          1    1    1    2  502    0  0.13186526876E+02  0.35957740968E+02  0.15660355275E+03  0.16121884617E+03  0.00000000000E+00 0. -1.
         22    1    3    3    0    0  0.19195827010E+02 -0.53869025994E+02  0.54517992482E+02  0.79009893307E+02  0.00000000000E+00 0. -1.
         22    1    3    3    0    0 -0.12424816900E+03 -0.37219029114E+02  0.11243494114E+03  0.17165220539E+03  0.00000000000E+00 0. -1.
</event>
<event>
 7    1  0.7029100E-006  0.1582615E+03  0.7818608E-02  0.1319353E+00
          2   -1    0    0  502    0  0.00000000000E+00  0.00000000000E+00  0.13747322914E+03  0.13747322914E+03  0.00000000000E+00 0. -1.
          1   -1    0    0  501    0 -0.00000000000E+00 -0.00000000000E+00 -0.33658445790E+03  0.33658445790E+03  0.00000000000E+00 0. -1.
         25    2    1    2    0    0 -0.10705002294E+03 -0.88487435702E+02 -0.98924074618E+02  0.21142896132E+03  0.12500599768E+03 0.  0.
          2    1    1    2  501    0  0.15112195882E+03  0.87982782375E+02 -0.12222739852E+03  0.21335030673E+03  0.00000000000E+00 0. -1.
          1    1    1    2  502    0 -0.44071935872E+02  0.50465332709E+00  0.22040244376E+02  0.49278418995E+02  0.00000000000E+00 0. -1.
         22    1    3    3    0    0 -0.81404982522E+02  0.10198982276E+02 -0.62567855216E+02  0.10317716281E+03  0.00000000000E+00 0. -1.
         22    1    3    3    0    0 -0.25645040422E+02 -0.98686417977E+02 -0.36356219402E+02  0.10825179851E+03  0.00000000000E+00 0. -1.
</event>
<event>
 7    1  0.7029100E-006  0.1573669E+03  0.7818608E-02  0.1203580E+00
          2   -1    0    0  502    0  0.00000000000E+00  0.00000000000E+00  0.10198162733E+04  0.10198162733E+04  0.00000000000E+00 0. -1.
          1   -1    0    0  501    0 -0.00000000000E+00 -0.00000000000E+00 -0.15774533942E+03  0.15774533942E+03  0.00000000000E+00 0. -1.
         25    2    1    2    0    0 -0.11101520879E+02  0.57851706330E+02  0.18237914177E+03  0.22881692868E+03  0.12499988721E+03 0.  0.
          2    1    1    2  501    0 -0.14240762409E+03 -0.92482374279E+02 -0.69300029857E+02  0.18339960493E+03  0.00000000000E+00 0. -1.
          1    1    1    2  502    0  0.15350914497E+03  0.34630667949E+02  0.74899182200E+03  0.76534507915E+03  0.00000000000E+00 0. -1.
         22    1    3    3    0    0  0.10306516727E+00  0.38534352807E+02 -0.61044494054E+01  0.39015013408E+02  0.00000000000E+00 0.  1.
         22    1    3    3    0    0 -0.11204586046E+02  0.19317353524E+02  0.18848359118E+03  0.18980191527E+03  0.00000000000E+00 0.  1.
</event>
<event>
 7    1  0.7029100E-006  0.1491792E+03  0.7818608E-02  0.1311849E+00
          2   -1    0    0  502    0  0.00000000000E+00  0.00000000000E+00  0.19775290753E+04  0.19775290753E+04  0.00000000000E+00 0. -1.
          1   -1    0    0  501    0 -0.00000000000E+00 -0.00000000000E+00 -0.52895663918E+03  0.52895663918E+03  0.00000000000E+00 0. -1.
         25    2    1    2    0    0 -0.14687699065E+03 -0.11508619382E+03  0.44531864701E+02  0.22896449948E+03  0.12499589056E+03 0.  0.
          2    1    1    2  501    0  0.49923249783E+02  0.31633083900E+01 -0.43231783534E+03  0.43520230714E+03  0.00000000000E+00 0. -1.
          1    1    1    2  502    0  0.96953740871E+02  0.11192288543E+03  0.18363584068E+04  0.18423189079E+04  0.00000000000E+00 0. -1.
         22    1    3    3    0    0 -0.12859906711E+03 -0.26564682602E+02  0.82735089416E+01  0.13157451642E+03  0.00000000000E+00 0.  1.
         22    1    3    3    0    0 -0.18277923549E+02 -0.88521511218E+02  0.36258355759E+02  0.97389983058E+02  0.00000000000E+00 0.  1.
</event>
<event>
 7    1  0.7029100E-006  0.6579157E+02  0.7818608E-02  0.1395170E+00
          2   -1    0    0  502    0  0.00000000000E+00  0.00000000000E+00  0.80315002382E+03  0.80315002382E+03  0.00000000000E+00 0. -1.
          1   -1    0    0  501    0 -0.00000000000E+00 -0.00000000000E+00 -0.23083945614E+03  0.23083945614E+03  0.00000000000E+00 0. -1.
         25    2    1    2    0    0  0.92654229172E+02  0.27576074418E+02  0.19841873841E+03  0.25365405249E+03  0.12500054610E+03 0.  0.
          2    1    1    2  501    0 -0.41665176583E+02 -0.50462299913E+02 -0.19655229174E+03  0.20715992383E+03  0.00000000000E+00 0. -1.
          1    1    1    2  502    0 -0.50989052589E+02  0.22886225495E+02  0.57044412100E+03  0.57317550365E+03  0.00000000000E+00 0. -1.
         22    1    3    3    0    0  0.11734700132E+03 -0.21074771918E+01  0.13039166030E+03  0.17543302214E+03  0.00000000000E+00 0. -1.
         22    1    3    3    0    0 -0.24692772151E+02  0.29683551610E+02  0.68027078108E+02  0.78221030347E+02  0.00000000000E+00 0. -1.
</event>
<event>
 7    1  0.7029100E-006  0.5478598E+02  0.7818608E-02  0.1484268E+00
          2   -1    0    0  502    0  0.00000000000E+00  0.00000000000E+00  0.55373990043E+03  0.55373990043E+03  0.00000000000E+00 0. -1.
          1   -1    0    0  501    0 -0.00000000000E+00 -0.00000000000E+00 -0.45701717623E+03  0.45701717623E+03  0.00000000000E+00 0. -1.
         25    2    1    2    0    0  0.14746589605E+02  0.14461733882E+02 -0.14946740737E+03  0.19593796042E+03  0.12499829924E+03 0.  0.
          2    1    1    2  501    0  0.22578668712E+02  0.26028283673E+02 -0.28183328273E+03  0.28393180006E+03  0.00000000000E+00 0. -1.
          1    1    1    2  502    0 -0.37325258317E+02 -0.40490017555E+02  0.52802341430E+03  0.53088731618E+03  0.00000000000E+00 0. -1.
         22    1    3    3    0    0  0.32263538893E+02  0.59366263932E+02 -0.45839788356E+02  0.81649099393E+02  0.00000000000E+00 0.  1.
         22    1    3    3    0    0 -0.17516949288E+02 -0.44904530050E+02 -0.10362761901E+03  0.11428886102E+03  0.00000000000E+00 0.  1.
</event>
<event>
 7    1  0.7029100E-006  0.1297668E+03  0.7818608E-02  0.1324823E+00
          2   -1    0    0  502    0  0.00000000000E+00  0.00000000000E+00  0.13770910926E+04  0.13770910926E+04  0.00000000000E+00 0. -1.
          1   -1    0    0  501    0 -0.00000000000E+00 -0.00000000000E+00 -0.14625012199E+04  0.14625012199E+04  0.00000000000E+00 0. -1.
         25    2    1    2    0    0  0.12359873496E+03  0.18393414577E+02  0.73570861290E+03  0.75664269468E+03  0.12500415727E+03 0.  0.
          2    1    1    2  501    0 -0.52891908644E+01  0.50923540819E+02 -0.14441249137E+04  0.14450321619E+04  0.00000000000E+00 0. -1.
          1    1    1    2  502    0 -0.11830954410E+03 -0.69316955396E+02  0.62300617339E+03  0.63791745596E+03  0.00000000000E+00 0. -1.
         22    1    3    3    0    0  0.82516561444E+02  0.48878359519E+02  0.24231984509E+03  0.26060887219E+03  0.00000000000E+00 0. -1.
         22    1    3    3    0    0  0.41082173519E+02 -0.30484944943E+02  0.49338876782E+03  0.49603382249E+03  0.00000000000E+00 0. -1.
</event>
<event>
 7    1  0.7029100E-006  0.1271901E+03  0.7818608E-02  0.1378041E+00
          2   -1    0    0  502    0  0.00000000000E+00  0.00000000000E+00  0.23048327161E+04  0.23048327161E+04  0.00000000000E+00 0. -1.
          1   -1    0    0  501    0 -0.00000000000E+00 -0.00000000000E+00 -0.89433815279E+03  0.89433815279E+03  0.00000000000E+00 0. -1.
         25    2    1    2    0    0  0.35533871863E+02  0.93568969409E+02 -0.17932852401E+03  0.24041896555E+03  0.12499900554E+03 0.  0.
          2    1    1    2  501    0 -0.41943513478E+02 -0.12614336066E+03 -0.67788729634E+03  0.69079851787E+03  0.00000000000E+00 0. -1.
          1    1    1    2  502    0  0.64096416152E+01  0.32574391252E+02  0.22677103837E+04  0.22679533855E+04  0.00000000000E+00 0. -1.
         22    1    3    3    0    0  0.55041383316E+02 -0.83358652199E+01 -0.52082363858E+02  0.76233937005E+02  0.00000000000E+00 0.  1.
         22    1    3    3    0    0 -0.19507511453E+02  0.10190483463E+03 -0.12724616016E+03  0.16418502855E+03  0.00000000000E+00 0.  1.
</event>
<event>
 7    1  0.7029100E-006  0.2350431E+03  0.7818608E-02  0.1248304E+00
          2   -1    0    0  502    0  0.00000000000E+00  0.00000000000E+00  0.10867718677E+04  0.10867718677E+04  0.00000000000E+00 0. -1.
          1   -1    0    0  501    0 -0.00000000000E+00 -0.00000000000E+00 -0.41846860293E+03  0.41846860293E+03  0.00000000000E+00 0. -1.
         25    2    1    2    0    0 -0.41625552129E+02 -0.19007304301E+03 -0.22578218555E+03  0.32321886222E+03  0.12502955376E+03 0.  0.
          2    1    1    2  501    0  0.34192978000E+02 -0.47021143089E+02 -0.12384760583E+03  0.13681512018E+03  0.00000000000E+00 0. -1.
          1    1    1    2  502    0  0.74325741290E+01  0.23709418610E+03  0.10179330562E+04  0.10452064882E+04  0.00000000000E+00 0. -1.
         22    1    3    3    0    0 -0.57795615339E+02 -0.14380545463E+03 -0.22620378743E+03  0.27420520670E+03  0.00000000000E+00 0.  1.
         22    1    3    3    0    0  0.16170063210E+02 -0.46267588384E+02  0.42160188221E+00  0.49013655518E+02  0.00000000000E+00 0.  1.
</event>
<event>
 7    1  0.7029100E-006  0.6365359E+02  0.7818608E-02  0.1515743E+00
          2   -1    0    0  502    0  0.00000000000E+00  0.00000000000E+00  0.10064478540E+04  0.10064478540E+04  0.00000000000E+00 0. -1.
          1   -1    0    0  501    0 -0.00000000000E+00 -0.00000000000E+00 -0.81263379482E+02  0.81263379482E+02  0.00000000000E+00 0. -1.
         25    2    1    2    0    0  0.39536928094E+02  0.16862233461E+02  0.88540441612E+03  0.89521340622E+03  0.12497423328E+03 0.  0.
          2    1    1    2  501    0 -0.52055668245E+02 -0.37207652055E+02 -0.61313471982E+02  0.88620222378E+02  0.00000000000E+00 0. -1.
          1    1    1    2  502    0  0.12518740152E+02  0.20345418593E+02  0.10109353040E+03  0.10387760491E+03  0.00000000000E+00 0. -1.
         22    1    3    3    0    0 -0.96708449856E+01 -0.39574297179E+02  0.13317928946E+03  0.13927086336E+03  0.00000000000E+00 0. -1.
         22    1    3    3    0    0  0.49207773079E+02  0.56436530640E+02  0.75222512666E+03  0.75594254286E+03  0.00000000000E+00 0. -1.
</event>
<event>
 7    1  0.7029100E-006  0.9530641E+02  0.7818608E-02  0.1329604E+00
          2   -1    0    0  502    0  0.00000000000E+00  0.00000000000E+00  0.21337942470E+03  0.21337942470E+03  0.00000000000E+00 0. -1.
          1   -1    0    0  501    0 -0.00000000000E+00 -0.00000000000E+00 -0.77698143302E+03  0.77698143302E+03  0.00000000000E+00 0. -1.
         25    2    1    2    0    0 -0.10799606736E+03 -0.92139920164E+02 -0.14826525695E+03  0.24033324072E+03  0.12499825889E+03 0.  0.
          2    1    1    2  501    0  0.41901950234E+02  0.82279058407E+02 -0.57215870584E+03  0.57956121468E+03  0.00000000000E+00 0. -1.
          1    1    1    2  502    0  0.66094117122E+02  0.98608617570E+01  0.15682195448E+03  0.17046640231E+03  0.00000000000E+00 0. -1.
         22    1    3    3    0    0 -0.61834681447E+02 -0.35318513328E+02 -0.15113194204E+03  0.16706821696E+03  0.00000000000E+00 0.  1.
         22    1    3    3    0    0 -0.46161385909E+02 -0.56821406836E+02  0.28666850858E+01  0.73265023765E+02  0.00000000000E+00 0.  1.
</event>
<event>
 7    1  0.7029100E-006  0.2089615E+03  0.7818608E-02  0.1251593E+00
          2   -1    0    0  502    0  0.00000000000E+00  0.00000000000E+00  0.33888518040E+03  0.33888518040E+03  0.00000000000E+00 0. -1.
          1   -1    0    0  501    0 -0.00000000000E+00 -0.00000000000E+00 -0.13599729062E+04  0.13599729062E+04  0.00000000000E+00 0. -1.
         25    2    1    2    0    0  0.19370077278E+03 -0.14861163653E+02 -0.22186794134E+03  0.32029857663E+03  0.12499980495E+03 0.  0.
          2    1    1    2  501    0 -0.19890253614E+03  0.77928459841E+02 -0.10747913239E+04  0.10958154286E+04  0.00000000000E+00 0. -1.
          1    1    1    2  502    0  0.52017633587E+01 -0.63067296189E+02  0.27557153942E+03  0.28274408133E+03  0.00000000000E+00 0. -1.
         22    1    3    3    0    0  0.43045440384E+02 -0.28176696908E+02  0.40611101606E+00  0.51449014691E+02  0.00000000000E+00 0. -1.
         22    1    3    3    0    0  0.15065533239E+03  0.13315533255E+02 -0.22227405235E+03  0.26884956194E+03  0.00000000000E+00 0. -1.
</event>
<event>
 7    1  0.7029100E-006  0.2637968E+02  0.7818608E-02  0.1682852E+00
          2   -1    0    0  502    0  0.00000000000E+00  0.00000000000E+00  0.75472688660E+03  0.75472688660E+03  0.00000000000E+00 0. -1.
          1   -1    0    0  501    0 -0.00000000000E+00 -0.00000000000E+00 -0.85474847520E+02  0.85474847520E+02  0.00000000000E+00 0. -1.
         25    2    1    2    0    0 -0.31168843379E+02 -0.23185968530E+02  0.56121763625E+03  0.57628077234E+03  0.12500082958E+03 0.  0.
          2    1    1    2  501    0  0.59077405054E+01  0.20164231893E+02 -0.75634259602E+02  0.78498655220E+02  0.00000000000E+00 0. -1.
          1    1    1    2  502    0  0.25261102873E+02  0.30217366367E+01  0.18366866244E+03  0.18542230657E+03  0.00000000000E+00 0. -1.
         22    1    3    3    0    0 -0.64170120327E+01 -0.54579789099E+02  0.50097356654E+03  0.50397881483E+03  0.00000000000E+00 0. -1.
         22    1    3    3    0    0 -0.24751831346E+02  0.31393820569E+02  0.60244069706E+02  0.72301957509E+02  0.00000000000E+00 0. -1.
</event>
<event>
 7    1  0.7029100E-006  0.2874901E+02  0.7818608E-02  0.1651757E+00
          2   -1    0    0  502    0  0.00000000000E+00  0.00000000000E+00  0.20165459452E+02  0.20165459452E+02  0.00000000000E+00 0. -1.
          1   -1    0    0  501    0 -0.00000000000E+00 -0.00000000000E+00 -0.67543373813E+03  0.67543373813E+03  0.00000000000E+00 0. -1.
         25    2    1    2    0    0  0.89726339391E+01 -0.42436480080E+01 -0.34576710457E+03  0.36780258437E+03  0.12500133505E+03 0.  0.
          2    1    1    2  501    0 -0.29626609477E+02 -0.56362944587E+01 -0.30229258295E+03  0.30379320188E+03  0.00000000000E+00 0. -1.
          1    1    1    2  502    0  0.20653975538E+02  0.98799424667E+01 -0.72085911616E+01  0.24003411324E+02  0.00000000000E+00 0. -1.
         22    1    3    3    0    0 -0.43314419367E+02 -0.37361296899E+02 -0.10922032412E+03  0.12329267875E+03  0.00000000000E+00 0.  1.
         22    1    3    3    0    0  0.52287053306E+02  0.33117648891E+02 -0.23654678044E+03  0.24450990563E+03  0.00000000000E+00 0.  1.
</event>
<event>
 7    1  0.7029100E-006  0.1693717E+03  0.7818608E-02  0.1328177E+00
          2   -1    0    0  502    0  0.00000000000E+00  0.00000000000E+00  0.11793327456E+03  0.11793327456E+03  0.00000000000E+00 0. -1.
          1   -1    0    0  501    0 -0.00000000000E+00 -0.00000000000E+00 -0.27474174237E+04  0.27474174237E+04  0.00000000000E+00 0. -1.
         25    2    1    2    0    0 -0.82287818811E+02  0.13333536766E+03 -0.60320285302E+03  0.63563222855E+03  0.12500017073E+03 0.  0.
          2    1    1    2  501    0  0.11940560363E+03 -0.12483294693E+03 -0.21207967925E+04  0.21278204807E+04  0.00000000000E+00 0. -1.
          1    1    1    2  502    0 -0.37117784823E+02 -0.85024207349E+01  0.94515496406E+02  0.10189798904E+03  0.00000000000E+00 0. -1.
         22    1    3    3    0    0 -0.40327853321E+02  0.14967289957E+01 -0.29565890588E+03  0.29840034279E+03  0.00000000000E+00 0.  1.
         22    1    3    3    0    0 -0.41959965491E+02  0.13183863866E+03 -0.30754394714E+03  0.33723188576E+03  0.00000000000E+00 0.  1.
</event>
<event>
 7    1  0.7029100E-006  0.1576241E+03  0.7818608E-02  0.1262079E+00
          2   -1    0    0  502    0  0.00000000000E+00  0.00000000000E+00  0.67970299740E+03  0.67970299740E+03  0.00000000000E+00 0. -1.
          1   -1    0    0  501    0 -0.00000000000E+00 -0.00000000000E+00 -0.27429381336E+04  0.27429381336E+04  0.00000000000E+00 0. -1.
         25    2    1    2    0    0  0.74913027644E+02 -0.12886251196E+03 -0.51223181850E+03  0.54792727868E+03  0.12500143252E+03 0.  0.
          2    1    1    2  501    0 -0.66284283173E+01  0.16139230007E+03 -0.22077373486E+04  0.22136385457E+04  0.00000000000E+00 0. -1.
          1    1    1    2  502    0 -0.68284599327E+02 -0.32529788106E+02  0.65673403093E+03  0.66107530660E+03  0.00000000000E+00 0. -1.
         22    1    3    3    0    0  0.98295165972E+02 -0.62831171648E+02 -0.24034596214E+03  0.26716264204E+03  0.00000000000E+00 0. -1.
         22    1    3    3    0    0 -0.23382138328E+02 -0.66031340313E+02 -0.27188585636E+03  0.28076463664E+03  0.00000000000E+00 0. -1.
</event>
<event>
 7    1  0.7029100E-006  0.6021602E+02  0.7818608E-02  0.1468319E+00
          2   -1    0    0  502    0  0.00000000000E+00  0.00000000000E+00  0.14895764238E+04  0.14895764238E+04  0.00000000000E+00 0. -1.
          1   -1    0    0  501    0 -0.00000000000E+00 -0.00000000000E+00 -0.29042572766E+03  0.29042572766E+03  0.00000000000E+00 0. -1.
         25    2    1    2    0    0  0.74326279607E+02 -0.27801680764E+02 -0.92084874238E+02  0.17435395539E+03  0.12498939316E+03 0.  0.
          2    1    1    2  501    0 -0.41754457246E+02  0.40904646461E+02 -0.15155202675E+03  0.16243349905E+03  0.00000000000E+00 0. -1.
          1    1    1    2  502    0 -0.32571822361E+02 -0.13102965697E+02  0.14427875971E+04  0.14432146970E+04  0.00000000000E+00 0. -1.
         22    1    3    3    0    0  0.57878424874E+02 -0.53818453122E+02 -0.11245070434E+03  0.13744634906E+03  0.00000000000E+00 0. -1.
         22    1    3    3    0    0  0.16447854733E+02  0.26016772357E+02  0.20365830102E+02  0.36907606329E+02  0.00000000000E+00 0. -1.
</event>
<event>
 7    1  0.7029100E-006  0.7960588E+02  0.7818608E-02  0.1390307E+00
          2   -1    0    0  502    0  0.00000000000E+00  0.00000000000E+00  0.19086283445E+04  0.19086283445E+04  0.00000000000E+00 0. -1.
          1   -1    0    0  501    0 -0.00000000000E+00 -0.00000000000E+00 -0.13196037261E+03  0.13196037261E+03  0.00000000000E+00 0. -1.
         25    2    1    2    0    0 -0.21138638844E+02 -0.49553399439E+02  0.17450425672E+04  0.17503431666E+04  0.12500103203E+03 0.  0.
          2    1    1    2  501    0 -0.17629029356E+02  0.77897101323E+02 -0.11270535131E+03  0.13813485181E+03  0.00000000000E+00 0. -1.
          1    1    1    2  502    0  0.38767668200E+02 -0.28343701883E+02  0.14433075608E+03  0.15211069878E+03  0.00000000000E+00 0. -1.
         22    1    3    3    0    0 -0.97190234506E+01 -0.62599807609E+02  0.17106949698E+04  0.17118675401E+04  0.00000000000E+00 0.  1.
         22    1    3    3    0    0 -0.11419615393E+02  0.13046408169E+02  0.34347597397E+02  0.38475626425E+02  0.00000000000E+00 0.  1.
</event>
<event>
 7    1  0.7029100E-006  0.2840880E+03  0.7818608E-02  0.1160830E+00
          2   -1    0    0  502    0  0.00000000000E+00  0.00000000000E+00  0.97196885322E+03  0.97196885322E+03  0.00000000000E+00 0. -1.
          1   -1    0    0  501    0 -0.00000000000E+00 -0.00000000000E+00 -0.97060716626E+03  0.97060716626E+03  0.00000000000E+00 0. -1.
         25    2    1    2    0    0 -0.33633974527E+03  0.23011814800E+02 -0.55597377856E+03  0.66210745491E+03  0.12500188615E+03 0.  0.
          2    1    1    2  501    0  0.24072161772E+03  0.55333345703E+02 -0.31450815461E+03  0.39990505836E+03  0.00000000000E+00 0. -1.
          1    1    1    2  502    0  0.95618127552E+02 -0.78345160503E+02  0.87184362014E+03  0.88056350621E+03  0.00000000000E+00 0. -1.
         22    1    3    3    0    0 -0.92930774967E+02  0.62648167706E+02 -0.15294879937E+03  0.18961607812E+03  0.00000000000E+00 0.  1.
         22    1    3    3    0    0 -0.24340897030E+03 -0.39636352906E+02 -0.40302497919E+03  0.47249137679E+03  0.00000000000E+00 0.  1.
</event>
<event>
 7    1  0.7029100E-006  0.4569410E+02  0.7818608E-02  0.1593979E+00
          2   -1    0    0  502    0  0.00000000000E+00  0.00000000000E+00  0.30138250118E+03  0.30138250118E+03  0.00000000000E+00 0. -1.
          1   -1    0    0  501    0 -0.00000000000E+00 -0.00000000000E+00 -0.41895646939E+03  0.41895646939E+03  0.00000000000E+00 0. -1.
         25    2    1    2    0    0  0.44324159811E+01 -0.34390663752E+02 -0.12723914300E+03  0.18170358915E+03  0.12499612288E+03 0.  0.
          2    1    1    2  501    0  0.19649530508E+02 -0.46482241417E+01 -0.26217554880E+03  0.26295195080E+03  0.00000000000E+00 0. -1.
          1    1    1    2  502    0 -0.24081946489E+02  0.39038887894E+02  0.27184072360E+03  0.27568343062E+03  0.00000000000E+00 0. -1.
         22    1    3    3    0    0 -0.29484537357E+02 -0.10004360653E+02  0.14202668985E+02  0.34221937139E+02  0.00000000000E+00 0.  1.
         22    1    3    3    0    0  0.33916953338E+02 -0.24386303099E+02 -0.14144181198E+03  0.14748165201E+03  0.00000000000E+00 0.  1.
</event>
<event>
 7    1  0.7029100E-006  0.1107310E+03  0.7818608E-02  0.1332494E+00
          2   -1    0    0  502    0  0.00000000000E+00  0.00000000000E+00  0.22097008855E+04  0.22097008855E+04  0.00000000000E+00 0. -1.
          1   -1    0    0  501    0 -0.00000000000E+00 -0.00000000000E+00 -0.98710798265E+03  0.98710798265E+03  0.00000000000E+00 0. -1.
         25    2    1    2    0    0  0.14733521918E+03  0.41545071329E+02  0.13295236586E+03  0.23819089751E+03  0.12499964922E+03 0.  0.
          2    1    1    2  501    0 -0.11009066044E+03  0.37518268840E+00 -0.93085593065E+03  0.93734351115E+03  0.00000000000E+00 0. -1.
          1    1    1    2  502    0 -0.37244558738E+02 -0.41920254017E+02  0.20204964677E+04  0.20212744595E+04  0.00000000000E+00 0. -1.
         22    1    3    3    0    0  0.38754673028E+02  0.36555573237E+02  0.11670277907E+03  0.12828785313E+03  0.00000000000E+00 0. -1.
         22    1    3    3    0    0  0.10858054615E+03  0.49894980924E+01  0.16249586783E+02  0.10990304438E+03  0.00000000000E+00 0. -1.
</event>
<event>
 7    1  0.7029100E-006  0.3407728E+03  0.7818608E-02  0.1264997E+00
          2   -1    0    0  502    0  0.00000000000E+00  0.00000000000E+00  0.17816718178E+04  0.17816718178E+04  0.00000000000E+00 0. -1.
          1   -1    0    0  501    0 -0.00000000000E+00 -0.00000000000E+00 -0.85004493439E+03  0.85004493439E+03  0.00000000000E+00 0. -1.
         25    2    1    2    0    0 -0.21006838939E+03  0.26562950307E+03 -0.58196096435E+02  0.36564948639E+03  0.12500000054E+03 0.  0.
          2    1    1    2  501    0 -0.27116104837E+02 -0.20515611874E+02 -0.61978534997E+03  0.62071737008E+03  0.00000000000E+00 0. -1.
          1    1    1    2  502    0  0.23718449423E+03 -0.24511389119E+03  0.16096083298E+04  0.16453498957E+04  0.00000000000E+00 0. -1.
         22    1    3    3    0    0 -0.12397469427E+03  0.10339218753E+03 -0.80932890162E+02  0.18058184286E+03  0.00000000000E+00 0.  1.
         22    1    3    3    0    0 -0.86093695125E+02  0.16223731554E+03  0.22736793727E+02  0.18506764353E+03  0.00000000000E+00 0.  1.
</event>
<event>
 7    1  0.7029100E-006  0.5669724E+02  0.7818608E-02  0.1471432E+00
          2   -1    0    0  502    0  0.00000000000E+00  0.00000000000E+00  0.91691877578E+03  0.91691877578E+03  0.00000000000E+00 0. -1.
          1   -1    0    0  501    0 -0.00000000000E+00 -0.00000000000E+00 -0.10582093836E+03  0.10582093836E+03  0.00000000000E+00 0. -1.
         25    2    1    2    0    0 -0.27373645721E+01  0.25636044000E+02  0.92493620643E+02  0.15764382696E+03  0.12502722265E+03 0.  0.
          2    1    1    2  501    0  0.25360620750E+02 -0.54235017042E+02 -0.60512927918E+02  0.85125863306E+02  0.00000000000E+00 0. -1.
          1    1    1    2  502    0 -0.22623256177E+02  0.28598973042E+02  0.77911714469E+03  0.77997002387E+03  0.00000000000E+00 0. -1.
         22    1    3    3    0    0  0.35045961435E+02  0.59799911287E+02  0.78699062790E+02  0.10487035466E+03  0.00000000000E+00 0. -1.
         22    1    3    3    0    0 -0.37783326007E+02 -0.34163867287E+02  0.13794557853E+02  0.52773472299E+02  0.00000000000E+00 0. -1.
</event>
<event>
 7    1  0.7029100E-006  0.6773218E+02  0.7818608E-02  0.1451960E+00
          2   -1    0    0  502    0  0.00000000000E+00  0.00000000000E+00  0.97832910607E+03  0.97832910607E+03  0.00000000000E+00 0. -1.
          1   -1    0    0  501    0 -0.00000000000E+00 -0.00000000000E+00 -0.47858418061E+02  0.47858418061E+02  0.00000000000E+00 0. -1.
         25    2    1    2    0    0 -0.51778961529E+02 -0.92893694581E+01  0.31096544875E+03  0.33925067183E+03  0.12499661907E+03 0.  0.
          2    1    1    2  501    0  0.54359697227E+02  0.44344699356E+02  0.38282406268E+01  0.70257273430E+02  0.00000000000E+00 0. -1.
          1    1    1    2  502    0 -0.25807356980E+01 -0.35055329898E+02  0.61567699864E+03  0.61667957887E+03  0.00000000000E+00 0. -1.
         22    1    3    3    0    0 -0.52035835130E+02 -0.36906800651E+01  0.32235928941E+03  0.32655299834E+03  0.00000000000E+00 0.  1.
         22    1    3    3    0    0  0.25687360121E+00 -0.55986893931E+01 -0.11393840661E+02  0.12697673487E+02  0.00000000000E+00 0.  1.
</event>
<event>
 7    1  0.7489872E-006  0.1013358E+03  0.7818608E-02  0.1380033E+00
          2   -1    0    0  502    0  0.00000000000E+00  0.00000000000E+00  0.55313962429E+03  0.55313962429E+03  0.00000000000E+00 0. -1.
          1   -1    0    0  501    0 -0.00000000000E+00 -0.00000000000E+00 -0.13232485520E+04  0.13232485520E+04  0.00000000000E+00 0. -1.
         25    2    1    2    0    0 -0.92026440392E+02  0.98065889678E+02 -0.66826692112E+03  0.69303076327E+03  0.12500070613E+03 0.  0.
          2    1    1    2  501    0  0.92817797042E+01 -0.39932282881E+02 -0.63720749298E+03  0.63852496251E+03  0.00000000000E+00 0. -1.
          1    1    1    2  502    0  0.82744660688E+02 -0.58133606798E+02  0.53536548638E+03  0.54483245050E+03  0.00000000000E+00 0. -1.
         22    1    3    3    0    0 -0.88995099031E+02  0.12496519555E+03 -0.51400348621E+03  0.53641030153E+03  0.00000000000E+00 0.  1.
         22    1    3    3    0    0 -0.30313413605E+01 -0.26899305875E+02 -0.15426343490E+03  0.15662046174E+03  0.00000000000E+00 0.  1.
</event>
<event>
 7    1  0.7029100E-006  0.2248322E+03  0.7818608E-02  0.1176236E+00
          2   -1    0    0  502    0  0.00000000000E+00  0.00000000000E+00  0.42584686000E+03  0.42584686000E+03  0.00000000000E+00 0. -1.
          1   -1    0    0  501    0 -0.00000000000E+00 -0.00000000000E+00 -0.10412287103E+04  0.10412287103E+04  0.00000000000E+00 0. -1.
         25    2    1    2    0    0  0.66344629519E+02  0.32872864611E+03 -0.17986873731E+03  0.40055131947E+03  0.12499785690E+03 0.  0.
          2    1    1    2  501    0 -0.11449196580E+02 -0.20989330885E+03 -0.72177019150E+03  0.75175693847E+03  0.00000000000E+00 0. -1.
          1    1    1    2  502    0 -0.54895432939E+02 -0.11883533727E+03  0.28625707850E+03  0.31476731237E+03  0.00000000000E+00 0. -1.
         22    1    3    3    0    0  0.87644079652E+02  0.12776914304E+03 -0.64286131356E+02  0.16774726614E+03  0.00000000000E+00 0. -1.
         22    1    3    3    0    0 -0.21299450133E+02  0.20095950307E+03 -0.11558260595E+03  0.23280405333E+03  0.00000000000E+00 0. -1.
</event>
<event>
 7    1  0.7029100E-006  0.9603191E+02  0.7818608E-02  0.1366107E+00
          2   -1    0    0  502    0  0.00000000000E+00  0.00000000000E+00  0.33684280795E+04  0.33684280795E+04  0.00000000000E+00 0. -1.
          1   -1    0    0  501    0 -0.00000000000E+00 -0.00000000000E+00 -0.46037354410E+03  0.46037354410E+03  0.00000000000E+00 0. -1.
         25    2    1    2    0    0 -0.13061609070E+03  0.31602237879E+02  0.48027644500E+03  0.51414492206E+03  0.12498108927E+03 0.  0.
          2    1    1    2  501    0  0.36173610990E+02 -0.32339118559E+02 -0.44133262533E+03  0.44399193112E+03  0.00000000000E+00 0. -1.
          1    1    1    2  502    0  0.94442479713E+02  0.73688068011E+00  0.28691107157E+04  0.28706647704E+04  0.00000000000E+00 0. -1.
         22    1    3    3    0    0  0.22170453836E+02 -0.70618543316E+01  0.37244791622E+02  0.43915524736E+02  0.00000000000E+00 0. -1.
         22    1    3    3    0    0 -0.15278654454E+03  0.38664092211E+02  0.44303165337E+03  0.47022939733E+03  0.00000000000E+00 0. -1.
</event>
<event>
 7    1  0.7029100E-006  0.8129642E+02  0.7818608E-02  0.1494189E+00
          2   -1    0    0  502    0  0.00000000000E+00  0.00000000000E+00  0.16693308656E+04  0.16693308656E+04  0.00000000000E+00 0. -1.
          1   -1    0    0  501    0 -0.00000000000E+00 -0.00000000000E+00 -0.25658232995E+02  0.25658232995E+02  0.00000000000E+00 0. -1.
         25    2    1    2    0    0 -0.75669408757E+02  0.23997394408E+02  0.12219368380E+04  0.12308758442E+04  0.12499589361E+03 0.  0.
          2    1    1    2  501    0  0.68441399757E+02 -0.44424643642E+02  0.58904582222E+02  0.10063559991E+03  0.00000000000E+00 0. -1.
          1    1    1    2  502    0  0.72280090003E+01  0.20427249234E+02  0.36283121239E+03  0.36347765449E+03  0.00000000000E+00 0. -1.
         22    1    3    3    0    0 -0.99490695712E+02 -0.75797690845E+01  0.65449560227E+03  0.66205765975E+03  0.00000000000E+00 0. -1.
         22    1    3    3    0    0  0.23821286955E+02  0.31577163492E+02  0.56744123570E+03  0.56881818444E+03  0.00000000000E+00 0. -1.
</event>
<event>
 7    1  0.7029100E-006  0.8723285E+02  0.7818608E-02  0.1335309E+00
          2   -1    0    0  502    0  0.00000000000E+00  0.00000000000E+00  0.14189229693E+04  0.14189229693E+04  0.00000000000E+00 0. -1.
          1   -1    0    0  501    0 -0.00000000000E+00 -0.00000000000E+00 -0.25776392555E+02  0.25776392555E+02  0.00000000000E+00 0. -1.
         25    2    1    2    0    0  0.13140444574E+03 -0.22474992754E+02  0.79175551831E+03  0.81257055516E+03  0.12498741011E+03 0.  0.
          2    1    1    2  501    0 -0.78384225704E+02 -0.22382830738E+02  0.11590624419E+03  0.14170157160E+03  0.00000000000E+00 0. -1.
          1    1    1    2  502    0 -0.53020220032E+02  0.44857823492E+02  0.48548481425E+03  0.49042723510E+03  0.00000000000E+00 0. -1.
         22    1    3    3    0    0  0.70631333825E+02 -0.73670749861E+02  0.39803467784E+03  0.41091090210E+03  0.00000000000E+00 0.  1.
         22    1    3    3    0    0  0.60773111911E+02  0.51195757106E+02  0.39372084047E+03  0.40165965306E+03  0.00000000000E+00 0.  1.
</event>
<event>
 7    1  0.8543618E-006  0.1131892E+03  0.7818608E-02  0.1359692E+00
          2   -1    0    0  502    0  0.00000000000E+00  0.00000000000E+00  0.27042625920E+04  0.27042625920E+04  0.00000000000E+00 0. -1.
          1   -1    0    0  501    0 -0.00000000000E+00 -0.00000000000E+00 -0.94740590410E+03  0.94740590410E+03  0.00000000000E+00 0. -1.
         25    2    1    2    0    0  0.11323337675E+03  0.42815575075E+02 -0.43617637602E+03  0.46960414042E+03  0.12499298628E+03 0.  0.
          2    1    1    2  501    0 -0.83858042313E+02 -0.74812716339E+02 -0.48795286176E+03  0.50072658117E+03  0.00000000000E+00 0. -1.
          1    1    1    2  502    0 -0.29375334433E+02  0.31997141264E+02  0.26809859257E+04  0.26813377745E+04  0.00000000000E+00 0. -1.
         22    1    3    3    0    0 -0.48959758927E+01  0.51991344568E+02 -0.17869376375E+03  0.18616802006E+03  0.00000000000E+00 0.  1.
         22    1    3    3    0    0  0.11812935264E+03 -0.91757694932E+01 -0.25748261228E+03  0.28343612036E+03  0.00000000000E+00 0.  1.
</event>
<event>
 7    1  0.7029100E-006  0.9086381E+02  0.7818608E-02  0.1469686E+00
          2   -1    0    0  502    0  0.00000000000E+00  0.00000000000E+00  0.97889228482E+03  0.97889228482E+03  0.00000000000E+00 0. -1.
          1   -1    0    0  501    0 -0.00000000000E+00 -0.00000000000E+00 -0.29214993774E+03  0.29214993774E+03  0.00000000000E+00 0. -1.
         25    2    1    2    0    0 -0.80965232779E+02 -0.43143609336E+02  0.17547590686E+02  0.15604399727E+03  0.12500028480E+03 0.  0.
          2    1    1    2  501    0  0.88507595343E+02  0.21373491435E+02 -0.21344684293E+03  0.23205597455E+03  0.00000000000E+00 0. -1.
          1    1    1    2  502    0 -0.75423625641E+01  0.21770117900E+02  0.88264159932E+03  0.88294225073E+03  0.00000000000E+00 0. -1.
         22    1    3    3    0    0 -0.12734422076E+02  0.34470567608E+02  0.35569999013E+02  0.51143038301E+02  0.00000000000E+00 0. -1.
         22    1    3    3    0    0 -0.68230810703E+02 -0.77614176944E+02 -0.18022408327E+02  0.10490095897E+03  0.00000000000E+00 0. -1.
</event>
<event>
 7    1  0.7029100E-006  0.6853483E+02  0.7818608E-02  0.1443316E+00
          2   -1    0    0  502    0  0.00000000000E+00  0.00000000000E+00  0.29070831771E+04  0.29070831771E+04  0.00000000000E+00 0. -1.
          1   -1    0    0  501    0 -0.00000000000E+00 -0.00000000000E+00 -0.14656262318E+02  0.14656262318E+02  0.00000000000E+00 0. -1.
         25    2    1    2    0    0 -0.50755972852E+02  0.84758539320E+02  0.72654110544E+03  0.74380534141E+03  0.12499691693E+03 0.  0.
          2    1    1    2  501    0  0.33170453979E+02 -0.52169831778E+02  0.15738161851E+03  0.16908856913E+03  0.00000000000E+00 0. -1.
          1    1    1    2  502    0  0.17585518872E+02 -0.32588707543E+02  0.20085041908E+04  0.20088455289E+04  0.00000000000E+00 0. -1.
         22    1    3    3    0    0 -0.70232337271E+02 -0.14745007327E+01  0.35594239489E+03  0.36280813639E+03  0.00000000000E+00 0.  1.
         22    1    3    3    0    0  0.19476364420E+02  0.86233040053E+02  0.37059871055E+03  0.38099720502E+03  0.00000000000E+00 0.  1.
</event>
<event>
 7    1  0.7029100E-006  0.6165677E+02  0.7818608E-02  0.1499766E+00
          2   -1    0    0  502    0  0.00000000000E+00  0.00000000000E+00  0.15252602280E+04  0.15252602280E+04  0.00000000000E+00 0. -1.
          1   -1    0    0  501    0 -0.00000000000E+00 -0.00000000000E+00 -0.31351943653E+03  0.31351943653E+03  0.00000000000E+00 0. -1.
         25    2    1    2    0    0  0.15905351463E+02  0.87511188548E+02 -0.10530228231E+03  0.18605505286E+03  0.12496689045E+03 0.  0.
          2    1    1    2  501    0 -0.31434753442E+01 -0.27311624615E+02 -0.16607264138E+03  0.16833279090E+03  0.00000000000E+00 0. -1.
          1    1    1    2  502    0 -0.12761876119E+02 -0.60199563933E+02  0.14831157152E+04  0.14843918208E+04  0.00000000000E+00 0. -1.
         22    1    3    3    0    0  0.70184857453E+02  0.48678048188E+02 -0.70699112909E+02  0.11087755029E+03  0.00000000000E+00 0. -1.
         22    1    3    3    0    0 -0.54279505990E+02  0.38833140360E+02 -0.34603169400E+02  0.75177502574E+02  0.00000000000E+00 0. -1.
</event>
<event>
 7    1  0.7029100E-006  0.1047840E+03  0.7818608E-02  0.1296614E+00
          2   -1    0    0  502    0  0.00000000000E+00  0.00000000000E+00  0.64778381538E+03  0.64778381538E+03  0.00000000000E+00 0. -1.
          1   -1    0    0  501    0 -0.00000000000E+00 -0.00000000000E+00 -0.22530137670E+04  0.22530137670E+04  0.00000000000E+00 0. -1.
         25    2    1    2    0    0  0.47870609160E+01 -0.70526619528E+02 -0.25020557254E+03  0.28848756931E+03  0.12500131642E+03 0.  0.
          2    1    1    2  501    0 -0.86574769255E+02  0.66668722262E+02 -0.19794878773E+04  0.19825014920E+04  0.00000000000E+00 0. -1.
          1    1    1    2  502    0  0.81787708339E+02  0.38578972659E+01  0.62446349824E+03  0.62980852109E+03  0.00000000000E+00 0. -1.
         22    1    3    3    0    0 -0.65953296232E+01 -0.75241705677E+02 -0.56333959288E+02  0.94224877899E+02  0.00000000000E+00 0. -1.
         22    1    3    3    0    0  0.11382390539E+02  0.47150861493E+01 -0.19387161325E+03  0.19426269142E+03  0.00000000000E+00 0. -1.
</event>
<event>
 7    1  0.7029100E-006  0.4864566E+02  0.7818608E-02  0.1476354E+00
          2   -1    0    0  502    0  0.00000000000E+00  0.00000000000E+00  0.16210304964E+03  0.16210304964E+03  0.00000000000E+00 0. -1.
          1   -1    0    0  501    0 -0.00000000000E+00 -0.00000000000E+00 -0.35567116731E+03  0.35567116731E+03  0.00000000000E+00 0. -1.
         25    2    1    2    0    0 -0.63273976588E+02  0.52525596793E+02 -0.46749228210E+01  0.14969521741E+03  0.12499707509E+03 0.  0.
          2    1    1    2  501    0  0.23743493138E+02 -0.41510836418E+02 -0.27158585611E+03  0.27576399375E+03  0.00000000000E+00 0. -1.
          1    1    1    2  502    0  0.39530483449E+02 -0.11014760375E+02  0.82692661259E+02  0.92315005790E+02  0.00000000000E+00 0. -1.
         22    1    3    3    0    0 -0.52117267531E+02 -0.31128346079E+02 -0.20010169666E+02  0.63918623221E+02  0.00000000000E+00 0. -1.
         22    1    3    3    0    0 -0.11156709057E+02  0.83653942872E+02  0.15335246845E+02  0.85776594190E+02  0.00000000000E+00 0. -1.
</event>
<event>
 7    1  0.7029100E-006  0.1319798E+03  0.7818608E-02  0.1225885E+00
          2   -1    0    0  502    0  0.00000000000E+00  0.00000000000E+00  0.23524228092E+04  0.23524228092E+04  0.00000000000E+00 0. -1.
          1   -1    0    0  501    0 -0.00000000000E+00 -0.00000000000E+00 -0.66022478134E+02  0.66022478134E+02  0.00000000000E+00 0. -1.
         25    2    1    2    0    0 -0.34896190670E+02 -0.59985797748E+02  0.63196507047E+03  0.64793622613E+03  0.12500185114E+03 0.  0.
          2    1    1    2  501    0  0.14672253760E+03 -0.66105740051E+01  0.41902094562E+02  0.15273175262E+03  0.00000000000E+00 0. -1.
          1    1    1    2  502    0 -0.11182634693E+03  0.66596371753E+02  0.16125331661E+04  0.16177773086E+04  0.00000000000E+00 0. -1.
         22    1    3    3    0    0 -0.41966976575E+02  0.71748217539E+01  0.47699123329E+03  0.47888760877E+03  0.00000000000E+00 0.  1.
         22    1    3    3    0    0  0.70707859048E+01 -0.67160619502E+02  0.15497383717E+03  0.16904861736E+03  0.00000000000E+00 0.  1.
</event>
<event>
 7    1  0.7029100E-006  0.1196695E+03  0.7818608E-02  0.1269906E+00
          2   -1    0    0  502    0  0.00000000000E+00  0.00000000000E+00  0.15472162767E+04  0.15472162767E+04  0.00000000000E+00 0. -1.
          1   -1    0    0  501    0 -0.00000000000E+00 -0.00000000000E+00 -0.69274307952E+03  0.69274307952E+03  0.00000000000E+00 0. -1.
         25    2    1    2    0    0  0.32271086064E+02 -0.45855945894E+01  0.86267064918E+02  0.15533345619E+03  0.12499610174E+03 0.  0.
          2    1    1    2  501    0 -0.12359712883E+03 -0.89173914832E+01 -0.65086427776E+03  0.66255571705E+03  0.00000000000E+00 0. -1.
          1    1    1    2  502    0  0.91326042771E+02  0.13502986073E+02  0.14190704100E+04  0.14220701829E+04  0.00000000000E+00 0. -1.
         22    1    3    3    0    0  0.58822126743E+02  0.32698525466E+02  0.12396702127E+02  0.68431822903E+02  0.00000000000E+00 0. -1.
         22    1    3    3    0    0 -0.26551040679E+02 -0.37284120055E+02  0.73870362790E+02  0.86901633289E+02  0.00000000000E+00 0. -1.
</event>
<event>
 7    1  0.7029100E-006  0.1073057E+03  0.7818608E-02  0.1394431E+00
          2   -1    0    0  502    0  0.00000000000E+00  0.00000000000E+00  0.78886310914E+03  0.78886310914E+03  0.00000000000E+00 0. -1.
          1   -1    0    0  501    0 -0.00000000000E+00 -0.00000000000E+00 -0.58529742640E+03  0.58529742640E+03  0.00000000000E+00 0. -1.
         25    2    1    2    0    0 -0.82408979564E+02 -0.42991107335E+02 -0.60099639867E+02  0.16697618516E+03  0.12501841655E+03 0.  0.
          2    1    1    2  501    0  0.65658853652E+01 -0.33838831763E+02 -0.46715909991E+03  0.46842907896E+03  0.00000000000E+00 0. -1.
          1    1    1    2  502    0  0.75843094199E+02  0.76829939098E+02  0.73082442253E+03  0.73875527142E+03  0.00000000000E+00 0. -1.
         22    1    3    3    0    0 -0.99398135234E+02 -0.61722942419E+02 -0.18734649520E+02  0.11849345130E+03  0.00000000000E+00 0.  1.
         22    1    3    3    0    0  0.16989155670E+02  0.18731835084E+02 -0.41364990347E+02  0.48482733858E+02  0.00000000000E+00 0.  1.
</event>
<event>
 7    1  0.7029100E-006  0.1196386E+03  0.7818608E-02  0.1315399E+00
          2   -1    0    0  502    0  0.00000000000E+00  0.00000000000E+00  0.11972367601E+04  0.11972367601E+04  0.00000000000E+00 0. -1.
          1   -1    0    0  501    0 -0.00000000000E+00 -0.00000000000E+00 -0.20639472407E+03  0.20639472407E+03  0.00000000000E+00 0. -1.
         25    2    1    2    0    0  0.46714537222E+02  0.10671248957E+03  0.55269806500E+03  0.57850696489E+03  0.12500141580E+03 0.  0.
          2    1    1    2  501    0 -0.57392151744E+02  0.18849499717E+02 -0.18228168991E+03  0.19203066734E+03  0.00000000000E+00 0. -1.
          1    1    1    2  502    0  0.10677614523E+02 -0.12556198929E+03  0.62042566096E+03  0.63309385196E+03  0.00000000000E+00 0. -1.
         22    1    3    3    0    0  0.39240774255E+02  0.12833881343E+03  0.35553851234E+03  0.38002410865E+03  0.00000000000E+00 0.  1.
         22    1    3    3    0    0  0.74737629671E+01 -0.21626323857E+02  0.19715955266E+03  0.19848285624E+03  0.00000000000E+00 0.  1.
</event>
<event>
 7    1  0.7029100E-006  0.7332508E+02  0.7818608E-02  0.1428995E+00
          2   -1    0    0  502    0  0.00000000000E+00  0.00000000000E+00  0.15750975540E+04  0.15750975540E+04  0.00000000000E+00 0. -1.
          1   -1    0    0  501    0 -0.00000000000E+00 -0.00000000000E+00 -0.15822723358E+02  0.15822723358E+02  0.00000000000E+00 0. -1.
         25    2    1    2    0    0 -0.39690877464E+02  0.41628976677E+02  0.11109544500E+04  0.11194404555E+04  0.12497522182E+03 0.  0.
          2    1    1    2  501    0 -0.15906194861E+02  0.35108711774E+02  0.56718086795E+02  0.68575287437E+02  0.00000000000E+00 0. -1.
          1    1    1    2  502    0  0.55597072325E+02 -0.76737688451E+02  0.39160229390E+03  0.40290453443E+03  0.00000000000E+00 0. -1.
         22    1    3    3    0    0 -0.77298224363E+02 -0.29048931973E+01  0.72399715410E+03  0.72811766428E+03  0.00000000000E+00 0. -1.
         22    1    3    3    0    0  0.37607346900E+02  0.44533869874E+02  0.38695729587E+03  0.39132279123E+03  0.00000000000E+00 0. -1.
</event>
<event>
 7    1  0.7029100E-006  0.8664381E+02  0.7818608E-02  0.1388428E+00
          2   -1    0    0  502    0  0.00000000000E+00  0.00000000000E+00  0.12883880664E+04  0.12883880664E+04  0.00000000000E+00 0. -1.
          1   -1    0    0  501    0 -0.00000000000E+00 -0.00000000000E+00 -0.20465433359E+03  0.20465433359E+03  0.00000000000E+00 0. -1.
         25    2    1    2    0    0 -0.77786761326E+02 -0.98894061962E+02  0.89735250231E+02  0.19876404587E+03  0.12499566020E+03 0.  0.
          2    1    1    2  501    0  0.60633502092E+02  0.57513440494E+02 -0.13803304409E+03  0.16136089574E+03  0.00000000000E+00 0. -1.
          1    1    1    2  502    0  0.17153259234E+02  0.41380621469E+02  0.11320315267E+04  0.11329174584E+04  0.00000000000E+00 0. -1.
         22    1    3    3    0    0  0.12021729589E+02  0.28784154966E+01 -0.20478684006E+02  0.23920362805E+02  0.00000000000E+00 0. -1.
         22    1    3    3    0    0 -0.89808490915E+02 -0.10177247746E+03  0.11021393424E+03  0.17484368307E+03  0.00000000000E+00 0. -1.
</event>
<event>
 7    1  0.7029100E-006  0.1520697E+03  0.7818608E-02  0.1338601E+00
          2   -1    0    0  502    0  0.00000000000E+00  0.00000000000E+00  0.26958653737E+04  0.26958653737E+04  0.00000000000E+00 0. -1.
          1   -1    0    0  501    0 -0.00000000000E+00 -0.00000000000E+00 -0.20089106926E+03  0.20089106926E+03  0.00000000000E+00 0. -1.
         25    2    1    2    0    0 -0.68007127587E+02 -0.16466861700E+03  0.74920644912E+03  0.78017695187E+03  0.12500020004E+03 0.  0.
          2    1    1    2  501    0 -0.76705095576E+01  0.37946678395E+02 -0.18053036518E+03  0.18463477427E+03  0.00000000000E+00 0. -1.
          1    1    1    2  502    0  0.75677637144E+02  0.12672193860E+03  0.19262982205E+04  0.19319447169E+04  0.00000000000E+00 0. -1.
         22    1    3    3    0    0 -0.50518017862E+02 -0.62421555710E+01  0.28129235025E+03  0.28586084192E+03  0.00000000000E+00 0. -1.
         22    1    3    3    0    0 -0.17489109725E+02 -0.15842646143E+03  0.46791409886E+03  0.49431610995E+03  0.00000000000E+00 0. -1.
</event>
<event>
 7    1  0.7029100E-006  0.6449430E+02  0.7818608E-02  0.1420704E+00
          2   -1    0    0  502    0  0.00000000000E+00  0.00000000000E+00  0.33295288405E+03  0.33295288405E+03  0.00000000000E+00 0. -1.
          1   -1    0    0  501    0 -0.00000000000E+00 -0.00000000000E+00 -0.31759464572E+03  0.31759464572E+03  0.00000000000E+00 0. -1.
         25    2    1    2    0    0 -0.14182329271E+02  0.10494919892E+03 -0.61305377772E+02  0.17492453864E+03  0.12499908822E+03 0.  0.
          2    1    1    2  501    0 -0.18963573731E+01 -0.61119615605E+02 -0.19273822113E+03  0.20220589869E+03  0.00000000000E+00 0. -1.
          1    1    1    2  502    0  0.16078686644E+02 -0.43829583312E+02  0.26940183723E+03  0.27341709244E+03  0.00000000000E+00 0. -1.
         22    1    3    3    0    0  0.73238193178E+01 -0.27118643093E+02 -0.21337998088E+02  0.35275618988E+02  0.00000000000E+00 0. -1.
         22    1    3    3    0    0 -0.21506148589E+02  0.13206784201E+03 -0.39967379684E+02  0.13964891965E+03  0.00000000000E+00 0. -1.
</event>
<event>
 7    1  0.7029100E-006  0.8701798E+02  0.7818608E-02  0.1320945E+00
          2   -1    0    0  502    0  0.00000000000E+00  0.00000000000E+00  0.30571725134E+04  0.30571725134E+04  0.00000000000E+00 0. -1.
          1   -1    0    0  501    0 -0.00000000000E+00 -0.00000000000E+00 -0.29224425689E+03  0.29224425689E+03  0.00000000000E+00 0. -1.
         25    2    1    2    0    0  0.14632636000E+03  0.69293071703E+02  0.41180146749E+02  0.20864863053E+03  0.12500205246E+03 0.  0.
          2    1    1    2  501    0 -0.62391811207E+02 -0.48504898204E+02 -0.20035965755E+03  0.21538211539E+03  0.00000000000E+00 0. -1.
          1    1    1    2  502    0 -0.83934548796E+02 -0.20788173500E+02  0.29241077673E+04  0.29253860244E+04  0.00000000000E+00 0. -1.
         22    1    3    3    0    0  0.34825090924E+02  0.65801770310E+02  0.59872758113E+02  0.95537464368E+02  0.00000000000E+00 0. -1.
         22    1    3    3    0    0  0.11150126908E+03  0.34913013934E+01 -0.18692611364E+02  0.11311116617E+03  0.00000000000E+00 0. -1.
</event>
<event>
 7    1  0.7029100E-006  0.5098310E+02  0.7818608E-02  0.1502849E+00
          2   -1    0    0  502    0  0.00000000000E+00  0.00000000000E+00  0.67514289545E+03  0.67514289545E+03  0.00000000000E+00 0. -1.
          1   -1    0    0  501    0 -0.00000000000E+00 -0.00000000000E+00 -0.13344726593E+04  0.13344726593E+04  0.00000000000E+00 0. -1.
         25    2    1    2    0    0 -0.80669599637E+02 -0.17409210303E+02 -0.12348167477E+03  0.19412303523E+03  0.12500145558E+03 0.  0.
          2    1    1    2  501    0  0.48201658990E+02  0.15073673689E+02 -0.11747133571E+04  0.11757984891E+04  0.00000000000E+00 0. -1.
          1    1    1    2  502    0  0.32467940647E+02  0.23355366138E+01  0.63886526802E+03  0.63969403044E+03  0.00000000000E+00 0. -1.
         22    1    3    3    0    0  0.16802309201E+01  0.38587922260E+02 -0.72733448525E+02  0.82352932278E+02  0.00000000000E+00 0. -1.
         22    1    3    3    0    0 -0.82349830557E+02 -0.55997132563E+02 -0.50748226241E+02  0.11177010296E+03  0.00000000000E+00 0. -1.
</event>
<event>
 7    1  0.7029100E-006  0.8025038E+02  0.7818608E-02  0.1399034E+00
          2   -1    0    0  502    0  0.00000000000E+00  0.00000000000E+00  0.31228947004E+03  0.31228947004E+03  0.00000000000E+00 0. -1.
          1   -1    0    0  501    0 -0.00000000000E+00 -0.00000000000E+00 -0.17283207963E+04  0.17283207963E+04  0.00000000000E+00 0. -1.
         25    2    1    2    0    0  0.14304353911E+02  0.11832306115E+03 -0.34294251048E+03  0.38397501594E+03  0.12498914363E+03 0.  0.
          2    1    1    2  501    0  0.45431782867E+01 -0.78084655804E+02 -0.13620418179E+04  0.13642858086E+04  0.00000000000E+00 0. -1.
          1    1    1    2  502    0 -0.18847532197E+02 -0.40238405351E+02  0.28895300206E+03  0.29234944182E+03  0.00000000000E+00 0. -1.
         22    1    3    3    0    0 -0.43972360185E+02  0.72528255045E+02 -0.25622961824E+03  0.26990282233E+03  0.00000000000E+00 0. -1.
         22    1    3    3    0    0  0.58276714096E+02  0.45794806110E+02 -0.86712892242E+02  0.11407219360E+03  0.00000000000E+00 0. -1.
</event>
<event>
 7    1  0.7029100E-006  0.6886728E+02  0.7818608E-02  0.1477971E+00
          2   -1    0    0  502    0  0.00000000000E+00  0.00000000000E+00  0.20783706354E+03  0.20783706354E+03  0.00000000000E+00 0. -1.
          1   -1    0    0  501    0 -0.00000000000E+00 -0.00000000000E+00 -0.69594992890E+03  0.69594992890E+03  0.00000000000E+00 0. -1.
         25    2    1    2    0    0  0.19567457145E+01 -0.63003760214E+02 -0.31933190174E+03  0.34866897340E+03  0.12499554747E+03 0.  0.
          2    1    1    2  501    0  0.28636195481E+02  0.10683444209E+01 -0.35517806751E+03  0.35633219429E+03  0.00000000000E+00 0. -1.
          1    1    1    2  502    0 -0.30592941195E+02  0.61935415793E+02  0.18639710389E+03  0.19878582474E+03  0.00000000000E+00 0. -1.
         22    1    3    3    0    0 -0.49946612097E+02 -0.91481104724E+01 -0.21100629991E+03  0.21702997624E+03  0.00000000000E+00 0. -1.
         22    1    3    3    0    0  0.51903357812E+02 -0.53855649741E+02 -0.10832560183E+03  0.13163899716E+03  0.00000000000E+00 0. -1.
</event>
<event>
 7    1  0.7029100E-006  0.5989382E+02  0.7818608E-02  0.1484409E+00
          2   -1    0    0  502    0  0.00000000000E+00  0.00000000000E+00  0.83513185807E+02  0.83513185807E+02  0.00000000000E+00 0. -1.
          1   -1    0    0  501    0 -0.00000000000E+00 -0.00000000000E+00 -0.22787768037E+03  0.22787768037E+03  0.00000000000E+00 0. -1.
         25    2    1    2    0    0  0.47295943085E+02  0.52976093667E+01 -0.26641211495E+02  0.13638356931E+03  0.12500301169E+03 0.  0.
          2    1    1    2  501    0  0.17728567063E+02 -0.26021904803E+02 -0.99508217960E+02  0.10437110262E+03  0.00000000000E+00 0. -1.
          1    1    1    2  502    0 -0.65024510148E+02  0.20724295436E+02 -0.18215065107E+02  0.70636194250E+02  0.00000000000E+00 0. -1.
         22    1    3    3    0    0 -0.15825499566E+02  0.28909666353E+02 -0.54313024158E+02  0.63530463861E+02  0.00000000000E+00 0. -1.
         22    1    3    3    0    0  0.63121442651E+02 -0.23612056986E+02  0.27671812663E+02  0.72853105449E+02  0.00000000000E+00 0. -1.
</event>
<event>
 7    1  0.7029100E-006  0.6022474E+02  0.7818608E-02  0.1519982E+00
          2   -1    0    0  502    0  0.00000000000E+00  0.00000000000E+00  0.10674309598E+04  0.10674309598E+04  0.00000000000E+00 0. -1.
          1   -1    0    0  501    0 -0.00000000000E+00 -0.00000000000E+00 -0.17459499244E+02  0.17459499244E+02  0.00000000000E+00 0. -1.
         25    2    1    2    0    0 -0.31478128276E+02 -0.23192260745E+02  0.61464222124E+03  0.62844244634E+03  0.12500437876E+03 0.  0.
          2    1    1    2  501    0  0.50521768123E+02  0.38671045935E+02  0.89832389822E+02  0.11008068454E+03  0.00000000000E+00 0. -1.
          1    1    1    2  502    0 -0.19043639847E+02 -0.15478785190E+02  0.34549684950E+03  0.34636732817E+03  0.00000000000E+00 0. -1.
         22    1    3    3    0    0 -0.63157633190E+01  0.15303551881E+02  0.54335817656E+03  0.54361033434E+03  0.00000000000E+00 0. -1.
         22    1    3    3    0    0 -0.25162364957E+02 -0.38495812626E+02  0.71284044678E+02  0.84832111996E+02  0.00000000000E+00 0. -1.
</event>
<event>
 7    1  0.7029100E-006  0.1027128E+03  0.7818608E-02  0.1287966E+00
          2   -1    0    0  502    0  0.00000000000E+00  0.00000000000E+00  0.21831352549E+04  0.21831352549E+04  0.00000000000E+00 0. -1.
          1   -1    0    0  501    0 -0.00000000000E+00 -0.00000000000E+00 -0.15342172428E+03  0.15342172428E+03  0.00000000000E+00 0. -1.
         25    2    1    2    0    0  0.67379175918E+02 -0.14071334637E+03  0.69404682884E+03  0.72226460417E+03  0.12499983447E+03 0.  0.
          2    1    1    2  501    0  0.16907113984E+02  0.88957574529E+02 -0.12274489778E+03  0.15253068708E+03  0.00000000000E+00 0. -1.
          1    1    1    2  502    0 -0.84286289902E+02  0.51755771837E+02  0.14584115995E+04  0.14617616879E+04  0.00000000000E+00 0. -1.
         22    1    3    3    0    0  0.69953373858E+02 -0.15596882042E+03  0.68069062061E+03  0.70182581062E+03  0.00000000000E+00 0.  1.
         22    1    3    3    0    0 -0.25741979403E+01  0.15255474054E+02  0.13356208229E+02  0.20438793553E+02  0.00000000000E+00 0.  1.
</event>
<event>
 7    1  0.7029100E-006  0.6407468E+02  0.7818608E-02  0.1410197E+00
          2   -1    0    0  502    0  0.00000000000E+00  0.00000000000E+00  0.27874887004E+03  0.27874887004E+03  0.00000000000E+00 0. -1.
          1   -1    0    0  501    0 -0.00000000000E+00 -0.00000000000E+00 -0.37654307055E+03  0.37654307055E+03  0.00000000000E+00 0. -1.
         25    2    1    2    0    0  0.16526742725E+02 -0.79428668804E+01  0.77185522021E+01  0.12657366482E+03  0.12500037687E+03 0.  0.
          2    1    1    2  501    0 -0.66560117616E+02 -0.18009357817E+01 -0.31046375251E+03  0.31752359637E+03  0.00000000000E+00 0. -1.
          1    1    1    2  502    0  0.50033374891E+02  0.97438026621E+01  0.20495099979E+03  0.21119467940E+03  0.00000000000E+00 0. -1.
         22    1    3    3    0    0 -0.26213289524E+02  0.10589838533E+02 -0.46915234929E+02  0.54775181390E+02  0.00000000000E+00 0.  1.
         22    1    3    3    0    0  0.42740032249E+02 -0.18532705413E+02  0.54633787131E+02  0.71798483430E+02  0.00000000000E+00 0.  1.
</event>
<event>
 7    1  0.7029100E-006  0.6079308E+02  0.7818608E-02  0.1427953E+00
          2   -1    0    0  502    0  0.00000000000E+00  0.00000000000E+00  0.30320055334E+02  0.30320055334E+02  0.00000000000E+00 0. -1.
          1   -1    0    0  501    0 -0.00000000000E+00 -0.00000000000E+00 -0.16775755885E+04  0.16775755885E+04  0.00000000000E+00 0. -1.
         25    2    1    2    0    0  0.53962279055E+02 -0.75902003450E+02 -0.51678006124E+03  0.53977761024E+03  0.12500078054E+03 0.  0.
          2    1    1    2  501    0 -0.43130005413E+02  0.18317610155E+02 -0.11019556200E+04  0.11029514589E+04  0.00000000000E+00 0. -1.
          1    1    1    2  502    0 -0.10832273642E+02  0.57584393295E+02 -0.28519851905E+02  0.65166574684E+02  0.00000000000E+00 0. -1.
         22    1    3    3    0    0 -0.38025129020E+02 -0.54394779981E+01 -0.97899673015E+02  0.10516579451E+03  0.00000000000E+00 0. -1.
         22    1    3    3    0    0  0.91987408075E+02 -0.70462525452E+02 -0.41888038822E+03  0.43461181573E+03  0.00000000000E+00 0. -1.
</event>
<event>
 7    1  0.7029100E-006  0.1753933E+03  0.7818608E-02  0.1343621E+00
          2   -1    0    0  502    0  0.00000000000E+00  0.00000000000E+00  0.21303918218E+03  0.21303918218E+03  0.00000000000E+00 0. -1.
          1   -1    0    0  501    0 -0.00000000000E+00 -0.00000000000E+00 -0.58165000544E+03  0.58165000544E+03  0.00000000000E+00 0. -1.
         25    2    1    2    0    0  0.93661453726E+00 -0.18543609637E+03  0.19789285362E+02  0.22450901994E+03  0.12500104453E+03 0.  0.
          2    1    1    2  501    0 -0.26115724088E+02  0.18733532436E+02 -0.39990521802E+03  0.40119466557E+03  0.00000000000E+00 0. -1.
          1    1    1    2  502    0  0.25179109551E+02  0.16670256394E+03  0.11505109398E+02  0.16898550211E+03  0.00000000000E+00 0. -1.
         22    1    3    3    0    0 -0.22112788307E+01 -0.17253122264E+03  0.59593647375E+02  0.18254674838E+03  0.00000000000E+00 0.  1.
         22    1    3    3    0    0  0.31478933680E+01 -0.12904873738E+02 -0.39804362013E+02  0.41962271555E+02  0.00000000000E+00 0.  1.
</event>
<event>
 7    1  0.7029100E-006  0.3631713E+02  0.7818608E-02  0.1583122E+00
          2   -1    0    0  502    0  0.00000000000E+00  0.00000000000E+00  0.32349344329E+03  0.32349344329E+03  0.00000000000E+00 0. -1.
          1   -1    0    0  501    0 -0.00000000000E+00 -0.00000000000E+00 -0.14571075430E+04  0.14571075430E+04  0.00000000000E+00 0. -1.
         25    2    1    2    0    0 -0.64732618786E+01 -0.28195786706E+02 -0.96045938045E+03  0.96899120991E+03  0.12499935156E+03 0.  0.
          2    1    1    2  501    0 -0.25130293654E+02  0.10266577180E+02 -0.49097214155E+03  0.49172205365E+03  0.00000000000E+00 0. -1.
          1    1    1    2  502    0  0.31603555532E+02  0.17929209526E+02  0.31781742226E+03  0.31988772276E+03  0.00000000000E+00 0. -1.
         22    1    3    3    0    0  0.42103912400E+02  0.63950345527E+01 -0.71960379628E+03  0.72086285764E+03  0.00000000000E+00 0. -1.
         22    1    3    3    0    0 -0.48577174279E+02 -0.34590821259E+02 -0.24085558417E+03  0.24812835228E+03  0.00000000000E+00 0. -1.
</event>
<event>
 7    1  0.7029100E-006  0.6811585E+02  0.7818608E-02  0.1367729E+00
          2   -1    0    0  502    0  0.00000000000E+00  0.00000000000E+00  0.14533046885E+04  0.14533046885E+04  0.00000000000E+00 0. -1.
          1   -1    0    0  501    0 -0.00000000000E+00 -0.00000000000E+00 -0.85552514198E+03  0.85552514198E+03  0.00000000000E+00 0. -1.
         25    2    1    2    0    0  0.89493586745E+02  0.10301723961E+01  0.46624656830E+02  0.16065535812E+03  0.12500448850E+03 0.  0.
          2    1    1    2  501    0 -0.43591585287E+02 -0.51524589332E+02 -0.79621867483E+03  0.79907395638E+03  0.00000000000E+00 0. -1.
          1    1    1    2  502    0 -0.45902001458E+02  0.50494416936E+02  0.13473735645E+04  0.13491005160E+04  0.00000000000E+00 0. -1.
         22    1    3    3    0    0 -0.24392041928E+02  0.31995429607E+01 -0.17264940995E+02  0.30054732941E+02  0.00000000000E+00 0.  1.
         22    1    3    3    0    0  0.11388562867E+03 -0.21693705646E+01  0.63889597825E+02  0.13060062518E+03  0.00000000000E+00 0.  1.
</event>
<event>
 7    1  0.7029100E-006  0.1340239E+03  0.7818608E-02  0.1428665E+00
          2   -1    0    0  502    0  0.00000000000E+00  0.00000000000E+00  0.14009541691E+03  0.14009541691E+03  0.00000000000E+00 0. -1.
          1   -1    0    0  501    0 -0.00000000000E+00 -0.00000000000E+00 -0.67969040354E+03  0.67969040354E+03  0.00000000000E+00 0. -1.
         25    2    1    2    0    0  0.10339292056E+03  0.10053567106E+03 -0.67073665842E+02  0.20228994780E+03  0.12499931660E+03 0.  0.
          2    1    1    2  501    0 -0.10644514599E+03 -0.79616782198E+02 -0.53514149262E+03  0.55140349857E+03  0.00000000000E+00 0. -1.
          1    1    1    2  502    0  0.30522254221E+01 -0.20918888864E+02  0.62620171831E+02  0.66092374079E+02  0.00000000000E+00 0. -1.
         22    1    3    3    0    0  0.80286420468E+02  0.89605237598E+02 -0.10287629342E+03  0.15829889344E+03  0.00000000000E+00 0.  1.
         22    1    3    3    0    0  0.23106500096E+02  0.10930433464E+02  0.35802627574E+02  0.43991054359E+02  0.00000000000E+00 0.  1.
</event>
<event>
 7    1  0.7029100E-006  0.8678209E+02  0.7818608E-02  0.1325808E+00
          2   -1    0    0  502    0  0.00000000000E+00  0.00000000000E+00  0.75346706001E+03  0.75346706001E+03  0.00000000000E+00 0. -1.
          1   -1    0    0  501    0 -0.00000000000E+00 -0.00000000000E+00 -0.49116327777E+02  0.49116327777E+02  0.00000000000E+00 0. -1.
         25    2    1    2    0    0 -0.36529531177E+02 -0.43823171810E+02  0.20454574105E+03  0.24641527380E+03  0.12500659961E+03 0.  0.
          2    1    1    2  501    0 -0.62239042955E+02  0.43425288656E+02  0.39829550161E+02  0.85707918123E+02  0.00000000000E+00 0. -1.
          1    1    1    2  502    0  0.98768574133E+02  0.39788315407E+00  0.45997544102E+03  0.47046019586E+03  0.00000000000E+00 0. -1.
         22    1    3    3    0    0 -0.68854008601E+02 -0.68085357610E+02  0.13877808512E+03  0.16922129692E+03  0.00000000000E+00 0. -1.
         22    1    3    3    0    0  0.32324477424E+02  0.24262185800E+02  0.65767655932E+02  0.77193976885E+02  0.00000000000E+00 0. -1.
</event>
<event>
 7    1  0.7029100E-006  0.8664021E+02  0.7818608E-02  0.1322364E+00
          2   -1    0    0  502    0  0.00000000000E+00  0.00000000000E+00  0.42509076191E+03  0.42509076191E+03  0.00000000000E+00 0. -1.
          1   -1    0    0  501    0 -0.00000000000E+00 -0.00000000000E+00 -0.72947981679E+03  0.72947981679E+03  0.00000000000E+00 0. -1.
         25    2    1    2    0    0  0.19186893428E+02  0.74156375509E+02 -0.57517911084E+02  0.15748136521E+03  0.12499906153E+03 0.  0.
          2    1    1    2  501    0 -0.84093816525E+02 -0.30227715905E+02 -0.61461955290E+03  0.62108186223E+03  0.00000000000E+00 0. -1.
          1    1    1    2  502    0  0.64906923097E+02 -0.43928659604E+02  0.36774840910E+03  0.37600735126E+03  0.00000000000E+00 0. -1.
         22    1    3    3    0    0  0.37237230389E+02 -0.24976223060E+02 -0.26356301657E+02  0.52010361299E+02  0.00000000000E+00 0. -1.
         22    1    3    3    0    0 -0.18050336961E+02  0.99132598570E+02 -0.31161609426E+02  0.10547100391E+03  0.00000000000E+00 0. -1.
</event>
<event>
 7    1  0.7029100E-006  0.7348461E+02  0.7818608E-02  0.1375032E+00
          2   -1    0    0  502    0  0.00000000000E+00  0.00000000000E+00  0.11018026097E+03  0.11018026097E+03  0.00000000000E+00 0. -1.
          1   -1    0    0  501    0 -0.00000000000E+00 -0.00000000000E+00 -0.18339503139E+04  0.18339503139E+04  0.00000000000E+00 0. -1.
         25    2    1    2    0    0  0.22403727361E+02 -0.64214494676E+00 -0.10198238956E+04  0.10277012633E+04  0.12500707666E+03 0.  0.
          2    1    1    2  501    0 -0.46999180795E+02  0.69888451946E+02 -0.79498471426E+03  0.79943355860E+03  0.00000000000E+00 0. -1.
          1    1    1    2  502    0  0.24595453434E+02 -0.69246306999E+02  0.91038556934E+02  0.11699575296E+03  0.00000000000E+00 0. -1.
         22    1    3    3    0    0  0.65626920385E+02  0.27318424399E+02 -0.45287539728E+03  0.45842045597E+03  0.00000000000E+00 0.  1.
         22    1    3    3    0    0 -0.43223193024E+02 -0.27960569346E+02 -0.56694849828E+03  0.56928080730E+03  0.00000000000E+00 0.  1.
</event>
<event>
 7    1  0.7029100E-006  0.2559718E+02  0.7818608E-02  0.1653846E+00
          2   -1    0    0  502    0  0.00000000000E+00  0.00000000000E+00  0.86265227945E+03  0.86265227945E+03  0.00000000000E+00 0. -1.
          1   -1    0    0  501    0 -0.00000000000E+00 -0.00000000000E+00 -0.68516525195E+02  0.68516525195E+02  0.00000000000E+00 0. -1.
         25    2    1    2    0    0  0.23326855318E+02  0.80643846407E+01  0.14353589440E+03  0.19192983309E+03  0.12500132548E+03 0.  0.
          2    1    1    2  501    0 -0.19123036673E+02  0.17185237545E+02 -0.40333783108E+02  0.47831338899E+02  0.00000000000E+00 0. -1.
          1    1    1    2  502    0 -0.42038186448E+01 -0.25249622186E+02  0.69093364296E+03  0.69140763265E+03  0.00000000000E+00 0. -1.
         22    1    3    3    0    0  0.78933686825E+01 -0.29882795768E+02  0.14756450997E+03  0.15076661220E+03  0.00000000000E+00 0.  1.
         22    1    3    3    0    0  0.15433486635E+02  0.37947180409E+02 -0.40286155712E+01  0.41163220891E+02  0.00000000000E+00 0.  1.
</event>
<event>
 7    1  0.7029100E-006  0.5390971E+02  0.7818608E-02  0.1463430E+00
          2   -1    0    0  502    0  0.00000000000E+00  0.00000000000E+00  0.54096967814E+03  0.54096967814E+03  0.00000000000E+00 0. -1.
          1   -1    0    0  501    0 -0.00000000000E+00 -0.00000000000E+00 -0.65868380027E+03  0.65868380027E+03  0.00000000000E+00 0. -1.
         25    2    1    2    0    0  0.11817326340E+02 -0.65101136166E+01 -0.49997953355E+03  0.51554508750E+03  0.12500068998E+03 0.  0.
          2    1    1    2  501    0  0.37911533531E+02 -0.14588071189E+02 -0.14678763572E+03  0.15230464930E+03  0.00000000000E+00 0. -1.
          1    1    1    2  502    0 -0.49728859871E+02  0.21098184806E+02  0.52905304715E+03  0.53180374162E+03  0.00000000000E+00 0. -1.
         22    1    3    3    0    0  0.45799560529E+02  0.80140540724E+01 -0.45482554533E+03  0.45719591150E+03  0.00000000000E+00 0. -1.
         22    1    3    3    0    0 -0.33982234190E+02 -0.14524167689E+02 -0.45153988217E+02  0.58349175996E+02  0.00000000000E+00 0. -1.
</event>
<event>
 7    1  0.7029100E-006  0.8741346E+02  0.7818608E-02  0.1360793E+00
          2   -1    0    0  502    0  0.00000000000E+00  0.00000000000E+00  0.29176987296E+04  0.29176987296E+04  0.00000000000E+00 0. -1.
          1   -1    0    0  501    0 -0.00000000000E+00 -0.00000000000E+00 -0.11020827727E+03  0.11020827727E+03  0.00000000000E+00 0. -1.
         25    2    1    2    0    0 -0.36022467518E+01 -0.12488465261E+03  0.86337735295E+03  0.88128012094E+03  0.12500018137E+03 0.  0.
          2    1    1    2  501    0 -0.29620740688E+02  0.47202520465E+02 -0.92646897613E+02  0.10811528039E+03  0.00000000000E+00 0. -1.
          1    1    1    2  502    0  0.33222987440E+02  0.77682132145E+02  0.20367599970E+04  0.20385116056E+04  0.00000000000E+00 0. -1.
         22    1    3    3    0    0  0.28372823906E+02 -0.61015393962E+02  0.69671777811E+03  0.69995968296E+03  0.00000000000E+00 0. -1.
         22    1    3    3    0    0 -0.31975070658E+02 -0.63869258649E+02  0.16665957484E+03  0.18132043798E+03  0.00000000000E+00 0. -1.
</event>
<event>
 7    1  0.7029100E-006  0.1785323E+03  0.7818608E-02  0.1249477E+00
          2   -1    0    0  502    0  0.00000000000E+00  0.00000000000E+00  0.33079677914E+04  0.33079677914E+04  0.00000000000E+00 0. -1.
          1   -1    0    0  501    0 -0.00000000000E+00 -0.00000000000E+00 -0.64006984640E+03  0.64006984640E+03  0.00000000000E+00 0. -1.
         25    2    1    2    0    0 -0.52172460940E+02  0.94544929409E+02  0.72046474485E+02  0.18021224465E+03  0.12500019711E+03 0.  0.
          2    1    1    2  501    0 -0.17230293051E+02  0.73659935786E+02 -0.58093113965E+03  0.58583586281E+03  0.00000000000E+00 0. -1.
          1    1    1    2  502    0  0.69402753990E+02 -0.16820486520E+03  0.31767826101E+04  0.31819895303E+04  0.00000000000E+00 0. -1.
         22    1    3    3    0    0 -0.67322467057E+02  0.39593059545E+02  0.91205559230E+02  0.12007655462E+03  0.00000000000E+00 0. -1.
         22    1    3    3    0    0  0.15150006118E+02  0.54951869864E+02 -0.19159084745E+02  0.60135690029E+02  0.00000000000E+00 0. -1.
</event>
<event>
 7    1  0.7029100E-006  0.6955706E+02  0.7818608E-02  0.1503786E+00
          2   -1    0    0  502    0  0.00000000000E+00  0.00000000000E+00  0.13638371608E+04  0.13638371608E+04  0.00000000000E+00 0. -1.
          1   -1    0    0  501    0 -0.00000000000E+00 -0.00000000000E+00 -0.64995642709E+02  0.64995642709E+02  0.00000000000E+00 0. -1.
         25    2    1    2    0    0 -0.56681452399E+02 -0.57230708806E+02  0.54937908064E+03  0.56914917676E+03  0.12500108034E+03 0.  0.
          2    1    1    2  501    0  0.33236629385E+02  0.60747313970E+02 -0.33108705965E+02  0.76753476131E+02  0.00000000000E+00 0. -1.
          1    1    1    2  502    0  0.23444823014E+02 -0.35166051641E+01  0.78257114344E+03  0.78293015065E+03  0.00000000000E+00 0. -1.
         22    1    3    3    0    0 -0.21306914246E+02 -0.28263847046E+02  0.26352611889E+02  0.44128106666E+02  0.00000000000E+00 0.  1.
         22    1    3    3    0    0 -0.35374538154E+02 -0.28966861760E+02  0.52302646875E+03  0.52502107009E+03  0.00000000000E+00 0.  1.
</event>
<event>
 7    1  0.7029100E-006  0.1053583E+03  0.7818608E-02  0.1335816E+00
          2   -1    0    0  502    0  0.00000000000E+00  0.00000000000E+00  0.35828588115E+04  0.35828588115E+04  0.00000000000E+00 0. -1.
          1   -1    0    0  501    0 -0.00000000000E+00 -0.00000000000E+00 -0.21107889300E+03  0.21107889300E+03  0.00000000000E+00 0. -1.
         25    2    1    2    0    0 -0.12037649978E+03 -0.10464616923E+03  0.52934101177E+03  0.56680522441E+03  0.12499973295E+03 0.  0.
          2    1    1    2  501    0  0.70617600834E+02  0.76336701901E+02 -0.17800017448E+03  0.20615091491E+03  0.00000000000E+00 0. -1.
          1    1    1    2  502    0  0.49758898943E+02  0.28309467328E+02  0.30204390812E+04  0.30209815652E+04  0.00000000000E+00 0. -1.
         22    1    3    3    0    0 -0.10591605837E+03 -0.13345182706E+03  0.44085004419E+03  0.47262708664E+03  0.00000000000E+00 0.  1.
         22    1    3    3    0    0 -0.14460441404E+02  0.28805657834E+02  0.88490967587E+02  0.94178137767E+02  0.00000000000E+00 0.  1.
</event>
<event>
 7    1  0.7029100E-006  0.6887344E+02  0.7818608E-02  0.1396052E+00
          2   -1    0    0  502    0  0.00000000000E+00  0.00000000000E+00  0.12988053514E+04  0.12988053514E+04  0.00000000000E+00 0. -1.
          1   -1    0    0  501    0 -0.00000000000E+00 -0.00000000000E+00 -0.18560254756E+04  0.18560254756E+04  0.00000000000E+00 0. -1.
         25    2    1    2    0    0 -0.42300815969E+02 -0.51316146672E+02 -0.94381264598E+02  0.17018183235E+03  0.12502530549E+03 0.  0.
          2    1    1    2  501    0 -0.77305894717E+01  0.68850533203E+02 -0.17224899542E+04  0.17238827687E+04  0.00000000000E+00 0. -1.
          1    1    1    2  502    0  0.50031405441E+02 -0.17534386531E+02  0.12596510946E+04  0.12607662259E+04  0.00000000000E+00 0. -1.
         22    1    3    3    0    0 -0.83298014149E+02 -0.44840753459E+02 -0.85979092081E+02  0.12783448911E+03  0.00000000000E+00 0. -1.
         22    1    3    3    0    0  0.40997198180E+02 -0.64753932131E+01 -0.84021725179E+01  0.42347343233E+02  0.00000000000E+00 0. -1.
</event>
<event>
 7    1  0.7029100E-006  0.3945693E+02  0.7818608E-02  0.1553311E+00
          2   -1    0    0  502    0  0.00000000000E+00  0.00000000000E+00  0.11052278036E+04  0.11052278036E+04  0.00000000000E+00 0. -1.
          1   -1    0    0  501    0 -0.00000000000E+00 -0.00000000000E+00 -0.26209988974E+02  0.26209988974E+02  0.00000000000E+00 0. -1.
         25    2    1    2    0    0 -0.11323295040E+02  0.65112188837E+02  0.27989190662E+03  0.31357968486E+03  0.12499970088E+03 0.  0.
          2    1    1    2  501    0 -0.45826324338E+01 -0.29771870621E+02  0.16639866480E+02  0.34412932987E+02  0.00000000000E+00 0. -1.
          1    1    1    2  502    0  0.15905927473E+02 -0.35340318216E+02  0.78248604155E+03  0.78344517475E+03  0.00000000000E+00 0. -1.
         22    1    3    3    0    0  0.15886916230E+02  0.28726794778E+02  0.29766109505E+01  0.32961842458E+02  0.00000000000E+00 0.  1.
         22    1    3    3    0    0 -0.27210211270E+02  0.36385394059E+02  0.27691529567E+03  0.28061784240E+03  0.00000000000E+00 0.  1.
</event>
<event>
 7    1  0.7029100E-006  0.2503542E+02  0.7818608E-02  0.1685332E+00
          2   -1    0    0  502    0  0.00000000000E+00  0.00000000000E+00  0.45865203508E+03  0.45865203508E+03  0.00000000000E+00 0. -1.
          1   -1    0    0  501    0 -0.00000000000E+00 -0.00000000000E+00 -0.81333042445E+02  0.81333042445E+02  0.00000000000E+00 0. -1.
         25    2    1    2    0    0 -0.42658109640E+02  0.12380417726E+02  0.21053513860E+03  0.24884419185E+03  0.12500159268E+03 0.  0.
          2    1    1    2  501    0  0.20843046476E+02 -0.13520868876E+02 -0.59148755702E+02  0.64154670778E+02  0.00000000000E+00 0. -1.
          1    1    1    2  502    0  0.21815063164E+02  0.11404511498E+01  0.22593260974E+03  0.22698621490E+03  0.00000000000E+00 0. -1.
         22    1    3    3    0    0  0.35010788880E+02  0.20785177924E+02  0.13172933469E+03  0.13787819471E+03  0.00000000000E+00 0.  1.
         22    1    3    3    0    0 -0.77668898520E+02 -0.84047601982E+01  0.78805803909E+02  0.11096599714E+03  0.00000000000E+00 0.  1.
</event>
<event>
 7    1  0.7029100E-006  0.1690812E+03  0.7818608E-02  0.1270444E+00
          2   -1    0    0  502    0  0.00000000000E+00  0.00000000000E+00  0.25263850808E+04  0.25263850808E+04  0.00000000000E+00 0. -1.
          1   -1    0    0  501    0 -0.00000000000E+00 -0.00000000000E+00 -0.64036117486E+02  0.64036117486E+02  0.00000000000E+00 0. -1.
         25    2    1    2    0    0  0.95110228346E+02 -0.10557127442E+03  0.16519238793E+03  0.25121103459E+03  0.12500883709E+03 0.  0.
          2    1    1    2  501    0  0.58441352346E+02  0.28456052132E+02  0.41720280424E+02  0.77238075880E+02  0.00000000000E+00 0. -1.
          1    1    1    2  502    0 -0.15355158069E+03  0.77115222292E+02  0.22554362950E+04  0.22619720878E+04  0.00000000000E+00 0. -1.
         22    1    3    3    0    0  0.51721782890E+00 -0.86155361346E+02  0.45536749230E+02  0.97450548144E+02  0.00000000000E+00 0. -1.
         22    1    3    3    0    0  0.94593010517E+02 -0.19415913078E+02  0.11965563870E+03  0.15376048644E+03  0.00000000000E+00 0. -1.
</event>
<event>
 7    1  0.7029100E-006  0.4695668E+02  0.7818608E-02  0.1489483E+00
          2   -1    0    0  502    0  0.00000000000E+00  0.00000000000E+00  0.10316204889E+04  0.10316204889E+04  0.00000000000E+00 0. -1.
          1   -1    0    0  501    0 -0.00000000000E+00 -0.00000000000E+00 -0.96055626484E+02  0.96055626484E+02  0.00000000000E+00 0. -1.
         25    2    1    2    0    0  0.61767491576E+02 -0.21225888590E+02  0.24197152352E+03  0.28007299866E+03  0.12499962008E+03 0.  0.
          2    1    1    2  501    0 -0.44759745306E+02 -0.13605152710E+02 -0.69362018445E+02  0.83663759077E+02  0.00000000000E+00 0. -1.
          1    1    1    2  502    0 -0.17007746270E+02  0.34831041301E+02  0.76295535738E+03  0.76393935769E+03  0.00000000000E+00 0. -1.
         22    1    3    3    0    0  0.55230902229E+02  0.43962311386E+02  0.88518048145E+02  0.11321917784E+03  0.00000000000E+00 0. -1.
         22    1    3    3    0    0  0.65365893468E+01 -0.65188199976E+02  0.15345347538E+03  0.16685382082E+03  0.00000000000E+00 0. -1.
</event>
<event>
 7    1  0.7029100E-006  0.1063930E+03  0.7818608E-02  0.1407524E+00
          2   -1    0    0  502    0  0.00000000000E+00  0.00000000000E+00  0.30043643553E+03  0.30043643553E+03  0.00000000000E+00 0. -1.
          1   -1    0    0  501    0 -0.00000000000E+00 -0.00000000000E+00 -0.20536788465E+04  0.20536788465E+04  0.00000000000E+00 0. -1.
         25    2    1    2    0    0  0.12614357664E+03 -0.48141293788E+02 -0.99938089794E+03  0.10161782678E+04  0.12500522694E+03 0.  0.
          2    1    1    2  501    0 -0.31343674315E+02  0.43809702536E+00 -0.10360129652E+04  0.10364870872E+04  0.00000000000E+00 0. -1.
          1    1    1    2  502    0 -0.94799902326E+02  0.47703196762E+02  0.28215145223E+03  0.30144992695E+03  0.00000000000E+00 0. -1.
         22    1    3    3    0    0  0.20515216387E+02  0.35463450064E+02 -0.38660420569E+03  0.38876900886E+03  0.00000000000E+00 0.  1.
         22    1    3    3    0    0  0.10562836025E+03 -0.83604743852E+02 -0.61277669225E+03  0.62740925898E+03  0.00000000000E+00 0.  1.
</event>
<event>
 7    1  0.7029100E-006  0.6547992E+02  0.7818608E-02  0.1381118E+00
          2   -1    0    0  502    0  0.00000000000E+00  0.00000000000E+00  0.10134788316E+04  0.10134788316E+04  0.00000000000E+00 0. -1.
          1   -1    0    0  501    0 -0.00000000000E+00 -0.00000000000E+00 -0.11708524768E+03  0.11708524768E+03  0.00000000000E+00 0. -1.
         25    2    1    2    0    0  0.77365465952E+01  0.36844376432E+02  0.22712623154E+03  0.26197101605E+03  0.12500050386E+03 0.  0.
          2    1    1    2  501    0  0.55089393740E+02 -0.39633942739E+02 -0.86650588765E+02  0.11006368726E+03  0.00000000000E+00 0. -1.
          1    1    1    2  502    0 -0.62825940335E+02  0.27895663070E+01  0.75591794114E+03  0.75852937596E+03  0.00000000000E+00 0. -1.
         22    1    3    3    0    0  0.56809247817E+02  0.25957654487E+02  0.18850000486E+03  0.19857830269E+03  0.00000000000E+00 0. -1.
         22    1    3    3    0    0 -0.49072701222E+02  0.10886721945E+02  0.38626226680E+02  0.63392713362E+02  0.00000000000E+00 0. -1.
</event>
<event>
 7    1  0.7029100E-006  0.3565114E+02  0.7818608E-02  0.1558071E+00
          2   -1    0    0  502    0  0.00000000000E+00  0.00000000000E+00  0.15417267716E+04  0.15417267716E+04  0.00000000000E+00 0. -1.
          1   -1    0    0  501    0 -0.00000000000E+00 -0.00000000000E+00 -0.39063318681E+03  0.39063318681E+03  0.00000000000E+00 0. -1.
         25    2    1    2    0    0 -0.22456591607E+02  0.31548257485E+02  0.18251420527E+02  0.13212509948E+03  0.12499734599E+03 0.  0.
          2    1    1    2  501    0  0.32221433119E+02  0.27847612287E+01 -0.33269489563E+03  0.33426317360E+03  0.00000000000E+00 0. -1.
          1    1    1    2  502    0 -0.97648415122E+01 -0.34333018713E+02  0.14655370599E+04  0.14659716854E+04  0.00000000000E+00 0. -1.
         22    1    3    3    0    0 -0.34903254282E+02 -0.13417940484E+02  0.59217517042E+02  0.70035652427E+02  0.00000000000E+00 0. -1.
         22    1    3    3    0    0  0.12446662675E+02  0.44966197969E+02 -0.40966096514E+02  0.62089447051E+02  0.00000000000E+00 0. -1.
</event>
<event>
 7    1  0.7029100E-006  0.7071667E+02  0.7818608E-02  0.1467645E+00
          2   -1    0    0  502    0  0.00000000000E+00  0.00000000000E+00  0.77784561473E+03  0.77784561473E+03  0.00000000000E+00 0. -1.
          1   -1    0    0  501    0 -0.00000000000E+00 -0.00000000000E+00 -0.26776718566E+03  0.26776718566E+03  0.00000000000E+00 0. -1.
         25    2    1    2    0    0  0.11114870534E+02  0.96847845703E+02  0.12861481654E+03  0.20412767091E+03  0.12499315754E+03 0.  0.
          2    1    1    2  501    0 -0.17854008071E+02 -0.67573086118E+02 -0.22432054850E+03  0.23495658334E+03  0.00000000000E+00 0. -1.
          1    1    1    2  502    0  0.67391375372E+01 -0.29274759585E+02  0.60578416104E+03  0.60652854614E+03  0.00000000000E+00 0. -1.
         22    1    3    3    0    0  0.17556145127E+02  0.10534577946E+02 -0.22225620187E+02  0.30218764980E+02  0.00000000000E+00 0. -1.
         22    1    3    3    0    0 -0.64412745926E+01  0.86313267757E+02  0.15084043672E+03  0.17390890593E+03  0.00000000000E+00 0. -1.
</event>
<event>
 7    1  0.7029100E-006  0.6250112E+02  0.7818608E-02  0.1404999E+00
          2   -1    0    0  502    0  0.00000000000E+00  0.00000000000E+00  0.71254184428E+03  0.71254184428E+03  0.00000000000E+00 0. -1.
          1   -1    0    0  501    0 -0.00000000000E+00 -0.00000000000E+00 -0.26655518361E+04  0.26655518361E+04  0.00000000000E+00 0. -1.
         25    2    1    2    0    0  0.65475827100E+02 -0.62082375576E+01 -0.21439928431E+03  0.25673924697E+03  0.12498944626E+03 0.  0.
          2    1    1    2  501    0 -0.44791079941E+02 -0.44135771361E+02 -0.24285037500E+04  0.24293177378E+04  0.00000000000E+00 0. -1.
          1    1    1    2  502    0 -0.20684747159E+02  0.50344008918E+02  0.68989304251E+03  0.69203669563E+03  0.00000000000E+00 0. -1.
         22    1    3    3    0    0  0.57425113102E+02  0.38302309696E+02 -0.47429910179E+02  0.83751459226E+02  0.00000000000E+00 0. -1.
         22    1    3    3    0    0  0.80507139977E+01 -0.44510547254E+02 -0.16696937413E+03  0.17298778775E+03  0.00000000000E+00 0. -1.
</event>
<event>
 7    1  0.7029100E-006  0.1028853E+03  0.7818608E-02  0.1323257E+00
          2   -1    0    0  502    0  0.00000000000E+00  0.00000000000E+00  0.14257540089E+04  0.14257540089E+04  0.00000000000E+00 0. -1.
          1   -1    0    0  501    0 -0.00000000000E+00 -0.00000000000E+00 -0.88542367232E+03  0.88542367232E+03  0.00000000000E+00 0. -1.
         25    2    1    2    0    0 -0.24213996695E+02  0.62541027528E+02  0.53534351809E+03  0.55381916960E+03  0.12500116997E+03 0.  0.
          2    1    1    2  501    0 -0.30463275785E+02 -0.98565548969E+02 -0.87192422321E+03  0.87800628109E+03  0.00000000000E+00 0. -1.
          1    1    1    2  502    0  0.54677272480E+02  0.36024521440E+02  0.87691104172E+03  0.87935223055E+03  0.00000000000E+00 0. -1.
         22    1    3    3    0    0  0.33705385471E+00  0.49316945009E+02  0.60041356810E+02  0.77699673087E+02  0.00000000000E+00 0. -1.
         22    1    3    3    0    0 -0.24551050550E+02  0.13224082520E+02  0.47530216128E+03  0.47611949651E+03  0.00000000000E+00 0. -1.
</event>
<event>
 7    1  0.7029100E-006  0.1000890E+03  0.7818608E-02  0.1356887E+00
          2   -1    0    0  502    0  0.00000000000E+00  0.00000000000E+00  0.13208515883E+03  0.13208515883E+03  0.00000000000E+00 0. -1.
          1   -1    0    0  501    0 -0.00000000000E+00 -0.00000000000E+00 -0.89489641754E+03  0.89489641754E+03  0.00000000000E+00 0. -1.
         25    2    1    2    0    0  0.72517981222E+02  0.10671478829E+03 -0.32616653774E+03  0.37236634944E+03  0.12500073686E+03 0.  0.
          2    1    1    2  501    0 -0.24196378433E+02 -0.92758765863E+02 -0.53533340267E+03  0.54384878908E+03  0.00000000000E+00 0. -1.
          1    1    1    2  502    0 -0.48321602789E+02 -0.13956022430E+02  0.98688681699E+02  0.11076643785E+03  0.00000000000E+00 0. -1.
         22    1    3    3    0    0 -0.13915813866E+02  0.43054884931E+02 -0.23004425791E+02  0.50759990129E+02  0.00000000000E+00 0. -1.
         22    1    3    3    0    0  0.86433795088E+02  0.63659903362E+02 -0.30316211195E+03  0.32160635931E+03  0.00000000000E+00 0. -1.
</event>
<event>
 7    1  0.7029100E-006  0.7749504E+02  0.7818608E-02  0.1338068E+00
          2   -1    0    0  502    0  0.00000000000E+00  0.00000000000E+00  0.12680127133E+04  0.12680127133E+04  0.00000000000E+00 0. -1.
          1   -1    0    0  501    0 -0.00000000000E+00 -0.00000000000E+00 -0.46802137782E+02  0.46802137782E+02  0.00000000000E+00 0. -1.
         25    2    1    2    0    0  0.38334939901E+02  0.52863992211E+02  0.19786360498E+03  0.24297771929E+03  0.12499598637E+03 0.  0.
          2    1    1    2  501    0 -0.73704264082E+02  0.19815718896E+02  0.41898490145E+02  0.87065864353E+02  0.00000000000E+00 0. -1.
          1    1    1    2  502    0  0.35369324181E+02 -0.72679711108E+02  0.98144848043E+03  0.98477126747E+03  0.00000000000E+00 0. -1.
         22    1    3    3    0    0 -0.18299584413E+02 -0.75738613919E+01  0.14129701298E+03  0.14267825358E+03  0.00000000000E+00 0.  1.
         22    1    3    3    0    0  0.56634524314E+02  0.60437853603E+02  0.56566591994E+02  0.10029946571E+03  0.00000000000E+00 0.  1.
</event>
<event>
 7    1  0.7029100E-006  0.6061468E+02  0.7818608E-02  0.1491854E+00
          2   -1    0    0  502    0  0.00000000000E+00  0.00000000000E+00  0.20998371630E+04  0.20998371630E+04  0.00000000000E+00 0. -1.
          1   -1    0    0  501    0 -0.00000000000E+00 -0.00000000000E+00 -0.59268196275E+02  0.59268196275E+02  0.00000000000E+00 0. -1.
         25    2    1    2    0    0 -0.59058093451E+02  0.78117844580E+01  0.33549431347E+03  0.36294601466E+03  0.12499797124E+03 0.  0.
          2    1    1    2  501    0  0.96990954022E+01  0.27898165820E+02 -0.40165457209E+02  0.49856233918E+02  0.00000000000E+00 0. -1.
          1    1    1    2  502    0  0.49358998049E+02 -0.35709950278E+02  0.17452401105E+04  0.17463031107E+04  0.00000000000E+00 0. -1.
         22    1    3    3    0    0  0.26941050323E+02 -0.12772858396E+02  0.21556776041E+02  0.36792128198E+02  0.00000000000E+00 0. -1.
         22    1    3    3    0    0 -0.85999143774E+02  0.20584642854E+02  0.31393753743E+03  0.32615388647E+03  0.00000000000E+00 0. -1.
</event>
<event>
 7    1  0.7029100E-006  0.6834468E+02  0.7818608E-02  0.1408200E+00
          2   -1    0    0  502    0  0.00000000000E+00  0.00000000000E+00  0.24155848073E+03  0.24155848073E+03  0.00000000000E+00 0. -1.
          1   -1    0    0  501    0 -0.00000000000E+00 -0.00000000000E+00 -0.21121691240E+03  0.21121691240E+03  0.00000000000E+00 0. -1.
         25    2    1    2    0    0 -0.50530338536E+02 -0.35637802493E+02  0.76345276671E+01  0.13967353761E+03  0.12500817180E+03 0.  0.
          2    1    1    2  501    0  0.70368277363E+02 -0.86634292983E+01 -0.13261170979E+03  0.15037491492E+03  0.00000000000E+00 0. -1.
          1    1    1    2  502    0 -0.19837938828E+02  0.44301231792E+02  0.15531875045E+03  0.16272694059E+03  0.00000000000E+00 0. -1.
         22    1    3    3    0    0 -0.64319293473E+02  0.28206662319E+02 -0.12474395692E+02  0.71331604916E+02  0.00000000000E+00 0.  1.
         22    1    3    3    0    0  0.13788954937E+02 -0.63844464813E+02  0.20108923359E+02  0.68341932692E+02  0.00000000000E+00 0.  1.
</event>
<event>
 7    1  0.7029100E-006  0.8513930E+02  0.7818608E-02  0.1488430E+00
          2   -1    0    0  502    0  0.00000000000E+00  0.00000000000E+00  0.55023052456E+03  0.55023052456E+03  0.00000000000E+00 0. -1.
          1   -1    0    0  501    0 -0.00000000000E+00 -0.00000000000E+00 -0.79397500835E+02  0.79397500835E+02  0.00000000000E+00 0. -1.
         25    2    1    2    0    0  0.38168736398E+02 -0.81012890236E+02  0.40330113303E+03  0.43162235342E+03  0.12500444491E+03 0.  0.
          2    1    1    2  501    0 -0.53592659980E+02  0.65983341573E+02 -0.35958461654E+02  0.92298350653E+02  0.00000000000E+00 0. -1.
          1    1    1    2  502    0  0.15423923582E+02  0.15029548663E+02  0.10349035235E+03  0.10570732133E+03  0.00000000000E+00 0. -1.
         22    1    3    3    0    0 -0.16563581573E+02 -0.85286469576E+01  0.42548521361E+00  0.18635211057E+02  0.00000000000E+00 0.  1.
         22    1    3    3    0    0  0.54732317971E+02 -0.72484243278E+02  0.40287564782E+03  0.41298714236E+03  0.00000000000E+00 0.  1.
</event>
<event>
 7    1  0.7029100E-006  0.8068412E+02  0.7818608E-02  0.1389935E+00
          2   -1    0    0  502    0  0.00000000000E+00  0.00000000000E+00  0.36302263874E+02  0.36302263874E+02  0.00000000000E+00 0. -1.
          1   -1    0    0  501    0 -0.00000000000E+00 -0.00000000000E+00 -0.12321615863E+04  0.12321615863E+04  0.00000000000E+00 0. -1.
         25    2    1    2    0    0 -0.29553918272E+02 -0.28731936691E+02 -0.42301014835E+03  0.44301398284E+03  0.12499938046E+03 0.  0.
          2    1    1    2  501    0 -0.42701478046E+02 -0.20859578200E+02 -0.72313395900E+03  0.72469390841E+03  0.00000000000E+00 0. -1.
          1    1    1    2  502    0  0.72255396317E+02  0.49591514891E+02 -0.49715215062E+02  0.10075595890E+03  0.00000000000E+00 0. -1.
         22    1    3    3    0    0  0.16859985363E+02 -0.15886421462E+01 -0.35908006434E+03  0.35947917255E+03  0.00000000000E+00 0.  1.
         22    1    3    3    0    0 -0.46413903635E+02 -0.27143294545E+02 -0.63930084010E+02  0.83534810294E+02  0.00000000000E+00 0.  1.
</event>
<event>
 7    1  0.7029100E-006  0.7640848E+02  0.7818608E-02  0.1378474E+00
          2   -1    0    0  502    0  0.00000000000E+00  0.00000000000E+00  0.50121198973E+03  0.50121198973E+03  0.00000000000E+00 0. -1.
          1   -1    0    0  501    0 -0.00000000000E+00 -0.00000000000E+00 -0.15260932862E+04  0.15260932862E+04  0.00000000000E+00 0. -1.
         25    2    1    2    0    0 -0.90900120259E+02  0.44622759333E+02  0.17569335616E+02  0.16182288336E+03  0.12499576598E+03 0.  0.
          2    1    1    2  501    0  0.51257941614E+02  0.20128125611E+02 -0.14499375804E+04  0.14509829445E+04  0.00000000000E+00 0. -1.
          1    1    1    2  502    0  0.39642178645E+02 -0.64750884943E+02  0.40748694832E+03  0.41449944810E+03  0.00000000000E+00 0. -1.
         22    1    3    3    0    0 -0.25116518023E+02 -0.40184326640E+02 -0.14923522937E+02  0.49682301899E+02  0.00000000000E+00 0. -1.
         22    1    3    3    0    0 -0.65783602236E+02  0.84807085973E+02  0.32492858553E+02  0.11214058146E+03  0.00000000000E+00 0. -1.
</event>
<event>
 7    1  0.7029100E-006  0.1243074E+03  0.7818608E-02  0.1425676E+00
          2   -1    0    0  502    0  0.00000000000E+00  0.00000000000E+00  0.67887829233E+03  0.67887829233E+03  0.00000000000E+00 0. -1.
          1   -1    0    0  501    0 -0.00000000000E+00 -0.00000000000E+00 -0.84448095669E+03  0.84448095669E+03  0.00000000000E+00 0. -1.
         25    2    1    2    0    0 -0.87327223872E+02 -0.51967168595E+02  0.20022640873E+03  0.25698436995E+03  0.12499488392E+03 0.  0.
          2    1    1    2  501    0  0.10872544635E+03  0.61230685599E+02 -0.81102533535E+03  0.82056840917E+03  0.00000000000E+00 0. -1.
          1    1    1    2  502    0 -0.21398222479E+02 -0.92635170044E+01  0.44519626226E+03  0.44580646990E+03  0.00000000000E+00 0. -1.
         22    1    3    3    0    0 -0.41829958600E+02 -0.65225278747E+02  0.34868819848E+02  0.84970094867E+02  0.00000000000E+00 0. -1.
         22    1    3    3    0    0 -0.45497265272E+02  0.13258110153E+02  0.16535758888E+03  0.17201427508E+03  0.00000000000E+00 0. -1.
</event>
<event>
 7    1  0.7029100E-006  0.7748829E+02  0.7818608E-02  0.1507455E+00
          2   -1    0    0  502    0  0.00000000000E+00  0.00000000000E+00  0.88174024384E+03  0.88174024384E+03  0.00000000000E+00 0. -1.
          1   -1    0    0  501    0 -0.00000000000E+00 -0.00000000000E+00 -0.11348764597E+03  0.11348764597E+03  0.00000000000E+00 0. -1.
         25    2    1    2    0    0 -0.13492712473E+02  0.70169950220E+02  0.50537923922E+03  0.52549198357E+03  0.12501109616E+03 0.  0.
          2    1    1    2  501    0 -0.20509046586E+02  0.31838840306E+01 -0.97868344448E+02  0.10004484472E+03  0.00000000000E+00 0. -1.
          1    1    1    2  502    0  0.34001759058E+02 -0.73353834250E+02  0.36074170309E+03  0.36969106152E+03  0.00000000000E+00 0. -1.
         22    1    3    3    0    0  0.15273145602E+02 -0.32902842586E+02  0.10653740859E+03  0.11254370465E+03  0.00000000000E+00 0.  1.
         22    1    3    3    0    0 -0.28765858074E+02  0.10307279281E+03  0.39884183063E+03  0.41294827893E+03  0.00000000000E+00 0.  1.
</event>
<event>
 7    1  0.7029100E-006  0.3901067E+03  0.7818608E-02  0.1214972E+00
          2   -1    0    0  502    0  0.00000000000E+00  0.00000000000E+00  0.30841939853E+04  0.30841939853E+04  0.00000000000E+00 0. -1.
          1   -1    0    0  501    0 -0.00000000000E+00 -0.00000000000E+00 -0.64181848689E+03  0.64181848689E+03  0.00000000000E+00 0. -1.
         25    2    1    2    0    0 -0.30862283492E+03  0.15914342448E+03  0.38441306440E+03  0.53289167607E+03  0.12500180221E+03 0.  0.
          2    1    1    2  501    0  0.35165207194E+03 -0.18335842514E+03 -0.49803518886E+03  0.63664632341E+03  0.00000000000E+00 0. -1.
          1    1    1    2  502    0 -0.43029237023E+02  0.24215000666E+02  0.25559976228E+04  0.25564744727E+04  0.00000000000E+00 0. -1.
         22    1    3    3    0    0 -0.45091482419E+02  0.29070130124E+02  0.63277198948E+01  0.54021794595E+02  0.00000000000E+00 0. -1.
         22    1    3    3    0    0 -0.26353135250E+03  0.13007329435E+03  0.37808534451E+03  0.47886988147E+03  0.00000000000E+00 0. -1.
</event>
<event>
 7    1  0.7029100E-006  0.1202490E+03  0.7818608E-02  0.1247013E+00
          2   -1    0    0  502    0  0.00000000000E+00  0.00000000000E+00  0.17238281360E+04  0.17238281360E+04  0.00000000000E+00 0. -1.
          1   -1    0    0  501    0 -0.00000000000E+00 -0.00000000000E+00 -0.50213608436E+03  0.50213608436E+03  0.00000000000E+00 0. -1.
         25    2    1    2    0    0  0.61977090542E+02 -0.13413778748E+03  0.25915968483E+03  0.32345439500E+03  0.12499959049E+03 0.  0.
          2    1    1    2  501    0  0.55306214320E+02  0.10096582229E+03 -0.46029437804E+03  0.47447211621E+03  0.00000000000E+00 0. -1.
          1    1    1    2  502    0 -0.11728330486E+03  0.33171965191E+02  0.14228267448E+04  0.14280377091E+04  0.00000000000E+00 0. -1.
         22    1    3    3    0    0  0.11308306601E+02 -0.66343289155E+02  0.20687226519E+02  0.70407891285E+02  0.00000000000E+00 0. -1.
         22    1    3    3    0    0  0.50668783941E+02 -0.67794498321E+02  0.23847245832E+03  0.25304650372E+03  0.00000000000E+00 0. -1.
</event>
<event>
 7    1  0.7029100E-006  0.1513815E+03  0.7818608E-02  0.1250982E+00
          2   -1    0    0  502    0  0.00000000000E+00  0.00000000000E+00  0.56213368411E+03  0.56213368411E+03  0.00000000000E+00 0. -1.
          1   -1    0    0  501    0 -0.00000000000E+00 -0.00000000000E+00 -0.37931312069E+04  0.37931312069E+04  0.00000000000E+00 0. -1.
         25    2    1    2    0    0 -0.22628671458E+03 -0.39019220234E+01 -0.15655211805E+03  0.30224610968E+03  0.12499297164E+03 0.  0.
          2    1    1    2  501    0  0.81290622459E+02  0.33401169463E+02 -0.35519893800E+04  0.35530764640E+04  0.00000000000E+00 0. -1.
          1    1    1    2  502    0  0.14499609212E+03 -0.29499247439E+02  0.47754397527E+03  0.49994231732E+03  0.00000000000E+00 0. -1.
         22    1    3    3    0    0 -0.15176182967E+03 -0.47217694125E+02 -0.53065132205E+02  0.16756214321E+03  0.00000000000E+00 0.  1.
         22    1    3    3    0    0 -0.74524884913E+02  0.43315772101E+02 -0.10348698584E+03  0.13468396647E+03  0.00000000000E+00 0.  1.
</event>
<event>
 7    1  0.7029100E-006  0.2870195E+03  0.7818608E-02  0.1210053E+00
          2   -1    0    0  502    0  0.00000000000E+00  0.00000000000E+00  0.15690302484E+04  0.15690302484E+04  0.00000000000E+00 0. -1.
          1   -1    0    0  501    0 -0.00000000000E+00 -0.00000000000E+00 -0.64165094088E+03  0.64165094088E+03  0.00000000000E+00 0. -1.
         25    2    1    2    0    0  0.21096658241E+03  0.23730422429E+03 -0.10425530812E+03  0.35681200811E+03  0.12500178441E+03 0.  0.
          2    1    1    2  501    0 -0.22111807832E+03 -0.16732480724E+03 -0.36336248219E+03  0.45708105314E+03  0.00000000000E+00 0. -1.
          1    1    1    2  502    0  0.10151495911E+02 -0.69979417047E+02  0.13949970979E+04  0.13967881281E+04  0.00000000000E+00 0. -1.
         22    1    3    3    0    0  0.14406474864E+02  0.20975786777E+02  0.26383332672E+02  0.36655291457E+02  0.00000000000E+00 0.  1.
         22    1    3    3    0    0  0.19656010754E+03  0.21632843751E+03 -0.13063864079E+03  0.32015671666E+03  0.00000000000E+00 0.  1.
</event>
<event>
 7    1  0.7029100E-006  0.9245400E+02  0.7818608E-02  0.1401122E+00
          2   -1    0    0  502    0  0.00000000000E+00  0.00000000000E+00  0.80184658310E+03  0.80184658310E+03  0.00000000000E+00 0. -1.
          1   -1    0    0  501    0 -0.00000000000E+00 -0.00000000000E+00 -0.15965764653E+04  0.15965764653E+04  0.00000000000E+00 0. -1.
         25    2    1    2    0    0  0.12586156483E+03  0.20249383112E+02 -0.11397857213E+03  0.21181556499E+03  0.12499419047E+03 0.  0.
          2    1    1    2  501    0 -0.34063319414E+02 -0.16698562472E+02 -0.14306247796E+04  0.14311276713E+04  0.00000000000E+00 0. -1.
          1    1    1    2  502    0 -0.91798245413E+02 -0.35508206398E+01  0.74987346950E+03  0.75547981207E+03  0.00000000000E+00 0. -1.
         22    1    3    3    0    0  0.90685553739E+02  0.36940687814E+02 -0.72291832467E+01  0.98187296345E+02  0.00000000000E+00 0. -1.
         22    1    3    3    0    0  0.35176011088E+02 -0.16691304702E+02 -0.10674938888E+03  0.11362826864E+03  0.00000000000E+00 0. -1.
</event>
<event>
 7    1  0.7029100E-006  0.1195635E+03  0.7818608E-02  0.1299195E+00
          2   -1    0    0  502    0  0.00000000000E+00  0.00000000000E+00  0.75723617211E+02  0.75723617211E+02  0.00000000000E+00 0. -1.
          1   -1    0    0  501    0 -0.00000000000E+00 -0.00000000000E+00 -0.11379222580E+04  0.11379222580E+04  0.00000000000E+00 0. -1.
         25    2    1    2    0    0 -0.16994037597E+03 -0.63703147712E+02 -0.52072315296E+03  0.56543382661E+03  0.12499995133E+03 0.  0.
          2    1    1    2  501    0  0.61480725221E+02  0.33604127341E+02 -0.53051419708E+03  0.53512094918E+03  0.00000000000E+00 0. -1.
          1    1    1    2  502    0  0.10845965075E+03  0.30099020370E+02 -0.10961290724E+02  0.11309109940E+03  0.00000000000E+00 0. -1.
         22    1    3    3    0    0 -0.17344542743E+03 -0.22539276384E+02 -0.37177521678E+03  0.41086268642E+03  0.00000000000E+00 0. -1.
         22    1    3    3    0    0  0.35050514605E+01 -0.41163871327E+02 -0.14894793618E+03  0.15457114019E+03  0.00000000000E+00 0. -1.
</event>
<event>
 7    1  0.7029100E-006  0.1638717E+03  0.7818608E-02  0.1271078E+00
          2   -1    0    0  502    0  0.00000000000E+00  0.00000000000E+00  0.12998859978E+04  0.12998859978E+04  0.00000000000E+00 0. -1.
          1   -1    0    0  501    0 -0.00000000000E+00 -0.00000000000E+00 -0.11193156474E+04  0.11193156474E+04  0.00000000000E+00 0. -1.
         25    2    1    2    0    0  0.19159918447E+03  0.59452485805E+02 -0.60270742175E+02  0.24393204907E+03  0.12500174657E+03 0.  0.
          2    1    1    2  501    0 -0.57735863974E+02  0.33314508223E+02 -0.96056474647E+03  0.96287481980E+03  0.00000000000E+00 0. -1.
          1    1    1    2  502    0 -0.13386332050E+03 -0.92766994027E+02  0.12014058390E+04  0.12123947764E+04  0.00000000000E+00 0. -1.
         22    1    3    3    0    0  0.48919410088E+02 -0.24376896692E+02 -0.56204572925E+02  0.78398314991E+02  0.00000000000E+00 0. -1.
         22    1    3    3    0    0  0.14267977438E+03  0.83829382497E+02 -0.40661692503E+01  0.16553373408E+03  0.00000000000E+00 0. -1.
</event>
<event>
 7    1  0.7029100E-006  0.2203152E+03  0.7818608E-02  0.1276440E+00
          2   -1    0    0  502    0  0.00000000000E+00  0.00000000000E+00  0.24154927672E+04  0.24154927672E+04  0.00000000000E+00 0. -1.
          1   -1    0    0  501    0 -0.00000000000E+00 -0.00000000000E+00 -0.90636415153E+02  0.90636415153E+02  0.00000000000E+00 0. -1.
         25    2    1    2    0    0 -0.16764409822E+03  0.69415948011E+02  0.16969418941E+04  0.17111851675E+04  0.12497907046E+03 0.  0.
          2    1    1    2  501    0  0.21444663416E+03 -0.64217849627E+02  0.69283796985E+02  0.23433210544E+03  0.00000000000E+00 0. -1.
          1    1    1    2  502    0 -0.46802535937E+02 -0.51980983835E+01  0.55863066096E+03  0.56061190940E+03  0.00000000000E+00 0. -1.
         22    1    3    3    0    0 -0.68277351091E+02 -0.29513103557E+02  0.41661099904E+03  0.42319917825E+03  0.00000000000E+00 0.  1.
         22    1    3    3    0    0 -0.99366747134E+02  0.98929051568E+02  0.12803308950E+04  0.12879859892E+04  0.00000000000E+00 0.  1.
</event>
<event>
 7    1  0.7029100E-006  0.6733042E+02  0.7818608E-02  0.1389245E+00
          2   -1    0    0  502    0  0.00000000000E+00  0.00000000000E+00  0.48040908217E+03  0.48040908217E+03  0.00000000000E+00 0. -1.
          1   -1    0    0  501    0 -0.00000000000E+00 -0.00000000000E+00 -0.88276039682E+03  0.88276039682E+03  0.00000000000E+00 0. -1.
         25    2    1    2    0    0  0.12145793307E+03 -0.22977629433E+02 -0.94990886029E+02  0.19982052441E+03  0.12499989034E+03 0.  0.
          2    1    1    2  501    0 -0.56288047688E+02  0.10540008457E+02 -0.73165792960E+03  0.73389560704E+03  0.00000000000E+00 0. -1.
          1    1    1    2  502    0 -0.65169885385E+02  0.12437620976E+02  0.42429750098E+03  0.42945334754E+03  0.00000000000E+00 0. -1.
         22    1    3    3    0    0 -0.12018189533E+02 -0.36407392798E+02 -0.59226706672E+01  0.38794499067E+02  0.00000000000E+00 0. -1.
         22    1    3    3    0    0  0.13347612261E+03  0.13429763365E+02 -0.89068215362E+02  0.16102602534E+03  0.00000000000E+00 0. -1.
</event>
<event>
 7    1  0.7029100E-006  0.1891732E+03  0.7818608E-02  0.1347077E+00
          2   -1    0    0  502    0  0.00000000000E+00  0.00000000000E+00  0.95947172857E+03  0.95947172857E+03  0.00000000000E+00 0. -1.
          1   -1    0    0  501    0 -0.00000000000E+00 -0.00000000000E+00 -0.24819255047E+03  0.24819255047E+03  0.00000000000E+00 0. -1.
         25    2    1    2    0    0 -0.81567995715E+02  0.18846681625E+03  0.50432420889E+03  0.55869549155E+03  0.12499866339E+03 0.  0.
          2    1    1    2  501    0  0.94491839163E+02 -0.16258735668E+03 -0.18036715136E+03  0.26056796716E+03  0.00000000000E+00 0. -1.
          1    1    1    2  502    0 -0.12923843448E+02 -0.25879459574E+02  0.38732212056E+03  0.38840082033E+03  0.00000000000E+00 0. -1.
         22    1    3    3    0    0  0.18495855426E+02  0.11406897641E+03  0.23234472787E+03  0.25949547321E+03  0.00000000000E+00 0. -1.
         22    1    3    3    0    0 -0.10006385114E+03  0.74397839848E+02  0.27197948102E+03  0.29920001834E+03  0.00000000000E+00 0. -1.
</event>
<event>
 7    1  0.7029100E-006  0.6232133E+02  0.7818608E-02  0.1413092E+00
          2   -1    0    0  502    0  0.00000000000E+00  0.00000000000E+00  0.30487485778E+03  0.30487485778E+03  0.00000000000E+00 0. -1.
          1   -1    0    0  501    0 -0.00000000000E+00 -0.00000000000E+00 -0.61025953867E+03  0.61025953867E+03  0.00000000000E+00 0. -1.
         25    2    1    2    0    0  0.49769585515E+02  0.88034018882E+01 -0.12095471547E+03  0.18112511603E+03  0.12498701107E+03 0.  0.
          2    1    1    2  501    0 -0.31176042721E+02 -0.56550483131E+02 -0.45452889869E+03  0.45909304343E+03  0.00000000000E+00 0. -1.
          1    1    1    2  502    0 -0.18593542794E+02  0.47747081243E+02  0.27009893327E+03  0.27491623698E+03  0.00000000000E+00 0. -1.
         22    1    3    3    0    0 -0.88053394208E+01  0.81836626178E+01  0.22865535315E+02  0.25832906174E+02  0.00000000000E+00 0. -1.
         22    1    3    3    0    0  0.58574924936E+02  0.61973927041E+00 -0.14382025078E+03  0.15529220986E+03  0.00000000000E+00 0. -1.
</event>
<event>
 7    1  0.7029100E-006  0.9616643E+02  0.7818608E-02  0.1423224E+00
          2   -1    0    0  502    0  0.00000000000E+00  0.00000000000E+00  0.16371187632E+04  0.16371187632E+04  0.00000000000E+00 0. -1.
          1   -1    0    0  501    0 -0.00000000000E+00 -0.00000000000E+00 -0.33019011760E+04  0.33019011760E+04  0.00000000000E+00 0. -1.
         25    2    1    2    0    0 -0.66541497362E+02 -0.15006280977E+02 -0.39251174935E+03  0.41754791587E+03  0.12501131679E+03 0.  0.
          2    1    1    2  501    0  0.97181155057E+02  0.12918723326E+02 -0.28958966572E+04  0.28975556111E+04  0.00000000000E+00 0. -1.
          1    1    1    2  502    0 -0.30639657695E+02  0.20875576505E+01  0.16236259938E+04  0.16239164123E+04  0.00000000000E+00 0. -1.
         22    1    3    3    0    0 -0.77510396682E+02 -0.13347805096E+02 -0.11222590412E+03  0.13704261764E+03  0.00000000000E+00 0.  1.
         22    1    3    3    0    0  0.10968899320E+02 -0.16584758813E+01 -0.28028584523E+03  0.28050529823E+03  0.00000000000E+00 0.  1.
</event>
<event>
 7    1  0.7029100E-006  0.1268845E+03  0.7818608E-02  0.1284818E+00
          2   -1    0    0  502    0  0.00000000000E+00  0.00000000000E+00  0.12324602393E+04  0.12324602393E+04  0.00000000000E+00 0. -1.
          1   -1    0    0  501    0 -0.00000000000E+00 -0.00000000000E+00 -0.76542693111E+03  0.76542693111E+03  0.00000000000E+00 0. -1.
         25    2    1    2    0    0 -0.63475331234E+01 -0.11971852199E+03  0.26349156674E+03  0.31531803564E+03  0.12499936869E+03 0.  0.
          2    1    1    2  501    0 -0.68188071738E+02  0.10765326599E+03 -0.73249247422E+03  0.74349449466E+03  0.00000000000E+00 0. -1.
          1    1    1    2  502    0  0.74535604861E+02  0.12065256004E+02  0.93603421567E+03  0.93907464011E+03  0.00000000000E+00 0. -1.
         22    1    3    3    0    0 -0.21940151446E+02 -0.14324303671E+03  0.21736299312E+03  0.26124051866E+03  0.00000000000E+00 0.  1.
         22    1    3    3    0    0  0.15592618322E+02  0.23524514718E+02  0.46128573618E+02  0.54077516982E+02  0.00000000000E+00 0.  1.
</event>
<event>
 7    1  0.7029100E-006  0.9065621E+02  0.7818608E-02  0.1376767E+00
          2   -1    0    0  502    0  0.00000000000E+00  0.00000000000E+00  0.19382545530E+04  0.19382545530E+04  0.00000000000E+00 0. -1.
          1   -1    0    0  501    0 -0.00000000000E+00 -0.00000000000E+00 -0.14213402742E+03  0.14213402742E+03  0.00000000000E+00 0. -1.
         25    2    1    2    0    0 -0.88309328252E+02  0.90793689891E+02  0.60927868784E+03  0.63473350289E+03  0.12499627461E+03 0.  0.
          2    1    1    2  501    0  0.42729082987E+02 -0.79058627853E+02 -0.11332722893E+03  0.14463437347E+03  0.00000000000E+00 0. -1.
          1    1    1    2  502    0  0.45580245265E+02 -0.11735062039E+02  0.13001690667E+04  0.13010207041E+04  0.00000000000E+00 0. -1.
         22    1    3    3    0    0  0.21582573310E+02  0.95472439600E+01  0.23804320383E+02  0.33520188048E+02  0.00000000000E+00 0.  1.
         22    1    3    3    0    0 -0.10989190156E+03  0.81246445931E+02  0.58547436745E+03  0.60121331485E+03  0.00000000000E+00 0.  1.
</event>
<event>
 7    1  0.7029100E-006  0.6120950E+02  0.7818608E-02  0.1503223E+00
          2   -1    0    0  502    0  0.00000000000E+00  0.00000000000E+00  0.12639667947E+04  0.12639667947E+04  0.00000000000E+00 0. -1.
          1   -1    0    0  501    0 -0.00000000000E+00 -0.00000000000E+00 -0.27466036575E+03  0.27466036575E+03  0.00000000000E+00 0. -1.
         25    2    1    2    0    0  0.10080868024E+02 -0.86278096441E+02  0.16956172374E+03  0.22786397765E+03  0.12500112131E+03 0.  0.
          2    1    1    2  501    0 -0.12429754798E+01  0.60718878662E+02 -0.24157855643E+03  0.24909541573E+03  0.00000000000E+00 0. -1.
          1    1    1    2  502    0 -0.88378925445E+01  0.25559217780E+02  0.10613232617E+04  0.10616677671E+04  0.00000000000E+00 0. -1.
         22    1    3    3    0    0 -0.11155849995E+02 -0.43184147681E+02  0.17399183944E+03  0.17961760435E+03  0.00000000000E+00 0.  1.
         22    1    3    3    0    0  0.21236718020E+02 -0.43093948760E+02 -0.44301156983E+01  0.48246373305E+02  0.00000000000E+00 0.  1.
</event>
<event>
 7    1  0.7029100E-006  0.1086633E+03  0.7818608E-02  0.1351375E+00
          2   -1    0    0  502    0  0.00000000000E+00  0.00000000000E+00  0.15421884012E+04  0.15421884012E+04  0.00000000000E+00 0. -1.
          1   -1    0    0  501    0 -0.00000000000E+00 -0.00000000000E+00 -0.10617026218E+03  0.10617026218E+03  0.00000000000E+00 0. -1.
         25    2    1    2    0    0  0.12985122539E+03  0.53777875777E+02  0.55128560845E+03  0.58248949816E+03  0.12499917092E+03 0.  0.
          2    1    1    2  501    0 -0.27045161278E+02 -0.40312172076E+02 -0.81083182357E+02  0.94503938686E+02  0.00000000000E+00 0. -1.
          1    1    1    2  502    0 -0.10280606411E+03 -0.13465703701E+02  0.96581571296E+03  0.97136522657E+03  0.00000000000E+00 0. -1.
         22    1    3    3    0    0  0.13563613273E+03  0.28944551243E+02  0.53392135133E+03  0.55164024233E+03  0.00000000000E+00 0. -1.
         22    1    3    3    0    0 -0.57849073417E+01  0.24833324534E+02  0.17364257115E+02  0.30849255834E+02  0.00000000000E+00 0. -1.
</event>
<event>
 7    1  0.7029100E-006  0.9711179E+02  0.7818608E-02  0.1382892E+00
          2   -1    0    0  502    0  0.00000000000E+00  0.00000000000E+00  0.97222268158E+03  0.97222268158E+03  0.00000000000E+00 0. -1.
          1   -1    0    0  501    0 -0.00000000000E+00 -0.00000000000E+00 -0.46062890129E+02  0.46062890129E+02  0.00000000000E+00 0. -1.
         25    2    1    2    0    0 -0.89170007017E+02  0.25209565129E+02  0.21737114697E+03  0.26733174753E+03  0.12501694037E+03 0.  0.
          2    1    1    2  501    0  0.14317760366E+02  0.39267659039E+02  0.71616945634E+01  0.42405626718E+02  0.00000000000E+00 0. -1.
          1    1    1    2  502    0  0.74852246650E+02 -0.64477224167E+02  0.70162694992E+03  0.70854819746E+03  0.00000000000E+00 0. -1.
         22    1    3    3    0    0 -0.74843958773E+02  0.27048849343E+01  0.22694891110E+03  0.23898690930E+03  0.00000000000E+00 0. -1.
         22    1    3    3    0    0 -0.14326048243E+02  0.22504680194E+02 -0.95777641297E+01  0.28344838236E+02  0.00000000000E+00 0. -1.
</event>
<event>
 7    1  0.7029100E-006  0.1312917E+03  0.7818608E-02  0.1380012E+00
          2   -1    0    0  502    0  0.00000000000E+00  0.00000000000E+00  0.20864887357E+04  0.20864887357E+04  0.00000000000E+00 0. -1.
          1   -1    0    0  501    0 -0.00000000000E+00 -0.00000000000E+00 -0.40005022117E+03  0.40005022117E+03  0.00000000000E+00 0. -1.
         25    2    1    2    0    0 -0.12545229033E+03 -0.91249546505E+02  0.93983683904E+03  0.96072001465E+03  0.12499962255E+03 0.  0.
          2    1    1    2  501    0  0.11593399338E+03  0.61066432868E+02 -0.37836245371E+03  0.40040972319E+03  0.00000000000E+00 0. -1.
          1    1    1    2  502    0  0.95182969509E+01  0.30183113637E+02  0.11249641292E+04  0.11254092190E+04  0.00000000000E+00 0. -1.
         22    1    3    3    0    0 -0.12447380965E+03 -0.58502126957E+02  0.46915696203E+03  0.48890130207E+03  0.00000000000E+00 0.  1.
         22    1    3    3    0    0 -0.97848067997E+00 -0.32747419548E+02  0.47067987701E+03  0.47181871257E+03  0.00000000000E+00 0.  1.
</event>
<event>
 7    1  0.7029100E-006  0.9527841E+02  0.7818608E-02  0.1462304E+00
          2   -1    0    0  502    0  0.00000000000E+00  0.00000000000E+00  0.30352757904E+03  0.30352757904E+03  0.00000000000E+00 0. -1.
          1   -1    0    0  501    0 -0.00000000000E+00 -0.00000000000E+00 -0.12193859886E+04  0.12193859886E+04  0.00000000000E+00 0. -1.
         25    2    1    2    0    0 -0.95406365550E+02  0.15523763541E+02  0.15998653146E+03  0.22486526077E+03  0.12500133371E+03 0.  0.
          2    1    1    2  501    0  0.94985187611E+02  0.76445414773E+01 -0.11838026178E+04  0.11876317875E+04  0.00000000000E+00 0. -1.
          1    1    1    2  502    0  0.42117793891E+00 -0.23168305018E+02  0.10795767682E+03  0.11041651929E+03  0.00000000000E+00 0. -1.
         22    1    3    3    0    0 -0.63369785268E+02 -0.13089502262E+02  0.16900993214E+03  0.18097353927E+03  0.00000000000E+00 0.  1.
         22    1    3    3    0    0 -0.32036580283E+02  0.28613265803E+02 -0.90234006791E+01  0.43891721496E+02  0.00000000000E+00 0.  1.
</event>
<event>
 7    1  0.7029100E-006  0.1155990E+03  0.7818608E-02  0.1372104E+00
          2   -1    0    0  502    0  0.00000000000E+00  0.00000000000E+00  0.20117146499E+03  0.20117146499E+03  0.00000000000E+00 0. -1.
          1   -1    0    0  501    0 -0.00000000000E+00 -0.00000000000E+00 -0.19068512295E+04  0.19068512295E+04  0.00000000000E+00 0. -1.
         25    2    1    2    0    0 -0.12028760214E+03  0.63451859782E+02 -0.25684822389E+03  0.31637203478E+03  0.12500003415E+03 0.  0.
          2    1    1    2  501    0  0.84500960502E+02 -0.77247781150E+02 -0.16160447905E+04  0.16200951814E+04  0.00000000000E+00 0. -1.
          1    1    1    2  502    0  0.35786641640E+02  0.13795921367E+02  0.16721324992E+03  0.17155547824E+03  0.00000000000E+00 0. -1.
         22    1    3    3    0    0 -0.79387587673E+01 -0.34321957976E+02 -0.59238895492E+02  0.68922183868E+02  0.00000000000E+00 0.  1.
         22    1    3    3    0    0 -0.11234884337E+03  0.97773817758E+02 -0.19760932840E+03  0.24744985091E+03  0.00000000000E+00 0.  1.
</event>
<event>
 7    1  0.7029100E-006  0.7196761E+02  0.7818608E-02  0.1517567E+00
          2   -1    0    0  502    0  0.00000000000E+00  0.00000000000E+00  0.67556345084E+01  0.67556345084E+01  0.00000000000E+00 0. -1.
          1   -1    0    0  501    0 -0.00000000000E+00 -0.00000000000E+00 -0.34230473177E+04  0.34230473177E+04  0.00000000000E+00 0. -1.
         25    2    1    2    0    0  0.75290455711E+02  0.36690654283E+02 -0.22472535664E+04  0.22522846572E+04  0.12499091291E+03 0.  0.
          2    1    1    2  501    0 -0.19716400757E+02  0.68466200659E+01 -0.87035900461E+03  0.87060921749E+03  0.00000000000E+00 0. -1.
          1    1    1    2  502    0 -0.55574054954E+02 -0.43537274349E+02 -0.29867911216E+03  0.30690907755E+03  0.00000000000E+00 0. -1.
         22    1    3    3    0    0  0.17670702395E+02  0.69063321204E+02 -0.70010420444E+03  0.70372430194E+03  0.00000000000E+00 0. -1.
         22    1    3    3    0    0  0.57619753316E+02 -0.32372666921E+02 -0.15471493620E+04  0.15485603552E+04  0.00000000000E+00 0. -1.
</event>
<event>
 7    1  0.7029100E-006  0.7796522E+02  0.7818608E-02  0.1367864E+00
          2   -1    0    0  502    0  0.00000000000E+00  0.00000000000E+00  0.76718908643E+03  0.76718908643E+03  0.00000000000E+00 0. -1.
          1   -1    0    0  501    0 -0.00000000000E+00 -0.00000000000E+00 -0.13523059524E+04  0.13523059524E+04  0.00000000000E+00 0. -1.
         25    2    1    2    0    0 -0.19801995869E+02 -0.23169488673E+02 -0.39148594505E+02  0.13448608114E+03  0.12499979729E+03 0.  0.
          2    1    1    2  501    0  0.78053691745E+02  0.14463130709E+02 -0.12630351097E+04  0.12655272614E+04  0.00000000000E+00 0. -1.
          1    1    1    2  502    0 -0.58251695876E+02  0.87063579644E+01  0.71706683827E+03  0.71948169629E+03  0.00000000000E+00 0. -1.
         22    1    3    3    0    0  0.16331718874E+02  0.38169599609E+02 -0.47177540536E+02  0.62843963169E+02  0.00000000000E+00 0. -1.
         22    1    3    3    0    0 -0.36133714742E+02 -0.61339088283E+02  0.80289460310E+01  0.71642117967E+02  0.00000000000E+00 0. -1.
</event>
<event>
 7    1  0.7029100E-006  0.1445737E+03  0.7818608E-02  0.1421289E+00
          2   -1    0    0  502    0  0.00000000000E+00  0.00000000000E+00  0.16289629814E+04  0.16289629814E+04  0.00000000000E+00 0. -1.
          1   -1    0    0  501    0 -0.00000000000E+00 -0.00000000000E+00 -0.53700794977E+02  0.53700794977E+02  0.00000000000E+00 0. -1.
         25    2    1    2    0    0  0.69682647039E+02  0.11641230833E+03  0.55677408138E+03  0.58654011389E+03  0.12499772268E+03 0.  0.
          2    1    1    2  501    0 -0.59394283778E+02 -0.13441275568E+03  0.10079598964E+03  0.17819736632E+03  0.00000000000E+00 0. -1.
          1    1    1    2  502    0 -0.10288363262E+02  0.18000447356E+02  0.91769211543E+03  0.91792629620E+03  0.00000000000E+00 0. -1.
         22    1    3    3    0    0 -0.45030783628E+01  0.52838474766E+02  0.59256671163E+02  0.79520658999E+02  0.00000000000E+00 0. -1.
         22    1    3    3    0    0  0.74185725402E+02  0.63573833563E+02  0.49751741022E+03  0.50701945489E+03  0.00000000000E+00 0. -1.
</event>
<event>
 7    1  0.7029100E-006  0.1015262E+03  0.7818608E-02  0.1364994E+00
          2   -1    0    0  502    0  0.00000000000E+00  0.00000000000E+00  0.88467493174E+03  0.88467493174E+03  0.00000000000E+00 0. -1.
          1   -1    0    0  501    0 -0.00000000000E+00 -0.00000000000E+00 -0.86104296823E+03  0.86104296823E+03  0.00000000000E+00 0. -1.
         25    2    1    2    0    0 -0.62055357504E+02 -0.10982727964E+03 -0.13202312590E+02  0.17807769149E+03  0.12499785758E+03 0.  0.
          2    1    1    2  501    0  0.16923042304E+02  0.99390037225E+02 -0.76140848670E+03  0.76805445932E+03  0.00000000000E+00 0. -1.
          1    1    1    2  502    0  0.45132315199E+02  0.10437242416E+02  0.79824276280E+03  0.79958574917E+03  0.00000000000E+00 0. -1.
         22    1    3    3    0    0 -0.54463126143E+02 -0.40112216665E+02  0.49649658343E+02  0.83906558793E+02  0.00000000000E+00 0.  1.
         22    1    3    3    0    0 -0.75922313613E+01 -0.69715062976E+02 -0.62851970933E+02  0.94171132694E+02  0.00000000000E+00 0.  1.
</event>
<event>
 7    1  0.7029100E-006  0.1181120E+03  0.7818608E-02  0.1346645E+00
          2   -1    0    0  502    0  0.00000000000E+00  0.00000000000E+00  0.34177904232E+04  0.34177904232E+04  0.00000000000E+00 0. -1.
          1   -1    0    0  501    0 -0.00000000000E+00 -0.00000000000E+00 -0.73396257606E+03  0.73396257606E+03  0.00000000000E+00 0. -1.
         25    2    1    2    0    0 -0.14816818879E+03  0.34949234060E+02  0.29673501325E+03  0.35616266924E+03  0.12499967096E+03 0.  0.
          2    1    1    2  501    0  0.43315446734E+02  0.16919419052E+02 -0.70237292808E+03  0.70391066533E+03  0.00000000000E+00 0. -1.
          1    1    1    2  502    0  0.10485274206E+03 -0.51868653112E+02  0.30894657620E+04  0.30916796647E+04  0.00000000000E+00 0. -1.
         22    1    3    3    0    0 -0.60734739126E+02  0.19075413868E+02  0.21904627061E+02  0.67323046853E+02  0.00000000000E+00 0. -1.
         22    1    3    3    0    0 -0.87433449667E+02  0.15873820191E+02  0.27483038619E+03  0.28883962239E+03  0.00000000000E+00 0. -1.
</event>
<event>
 7    1  0.7029100E-006  0.1277978E+03  0.7818608E-02  0.1297151E+00
          2   -1    0    0  502    0  0.00000000000E+00  0.00000000000E+00  0.20458039583E+03  0.20458039583E+03  0.00000000000E+00 0. -1.
          1   -1    0    0  501    0 -0.00000000000E+00 -0.00000000000E+00 -0.14939580742E+04  0.14939580742E+04  0.00000000000E+00 0. -1.
         25    2    1    2    0    0  0.70826311985E+02 -0.49770550641E+02 -0.36307475715E+03  0.39362605962E+03  0.12499888540E+03 0.  0.
          2    1    1    2  501    0  0.58758829501E+02  0.31777520403E+02 -0.10918604858E+04  0.10939020665E+04  0.00000000000E+00 0. -1.
          1    1    1    2  502    0 -0.12958514149E+03  0.17993030237E+02  0.16555756455E+03  0.21101034385E+03  0.00000000000E+00 0. -1.
         22    1    3    3    0    0 -0.19047473268E+02 -0.58655060283E+02 -0.14172297992E+03  0.15455945578E+03  0.00000000000E+00 0. -1.
         22    1    3    3    0    0  0.89873785253E+02  0.88845096420E+01 -0.22135177723E+03  0.23906660384E+03  0.00000000000E+00 0. -1.
</event>
<event>
 7    1  0.7029100E-006  0.1159954E+03  0.7818608E-02  0.1392423E+00
          2   -1    0    0  502    0  0.00000000000E+00  0.00000000000E+00  0.11654029512E+03  0.11654029512E+03  0.00000000000E+00 0. -1.
          1   -1    0    0  501    0 -0.00000000000E+00 -0.00000000000E+00 -0.24444328940E+04  0.24444328940E+04  0.00000000000E+00 0. -1.
         25    2    1    2    0    0 -0.70148184673E+02  0.56310322375E+02 -0.86585776439E+03  0.87944637108E+03  0.12499852493E+03 0.  0.
          2    1    1    2  501    0 -0.69672089150E+01  0.31645805871E+02 -0.15403921144E+04  0.15407328987E+04  0.00000000000E+00 0. -1.
          1    1    1    2  502    0  0.77115393588E+02 -0.87956128246E+02  0.78357279876E+02  0.14079391938E+03  0.00000000000E+00 0. -1.
         22    1    3    3    0    0 -0.79591732302E+02  0.48784637266E+02 -0.31710309342E+03  0.33055885488E+03  0.00000000000E+00 0. -1.
         22    1    3    3    0    0  0.94435476292E+01  0.75256851089E+01 -0.54875467097E+03  0.54888751620E+03  0.00000000000E+00 0. -1.
</event>
<event>
 7    1  0.7029100E-006  0.1015390E+03  0.7818608E-02  0.1469441E+00
          2   -1    0    0  502    0  0.00000000000E+00  0.00000000000E+00  0.18911233184E+04  0.18911233184E+04  0.00000000000E+00 0. -1.
          1   -1    0    0  501    0 -0.00000000000E+00 -0.00000000000E+00 -0.80119729942E+02  0.80119729942E+02  0.00000000000E+00 0. -1.
         25    2    1    2    0    0  0.19865994592E+02  0.89614033327E+02  0.94003860154E+03  0.95274467790E+03  0.12499806470E+03 0.  0.
          2    1    1    2  501    0  0.18152827426E+02  0.98513557709E+01 -0.69254276667E+02  0.72268452251E+02  0.00000000000E+00 0. -1.
          1    1    1    2  502    0 -0.38018822019E+02 -0.99465389098E+02  0.94021926356E+03  0.94622991816E+03  0.00000000000E+00 0. -1.
         22    1    3    3    0    0 -0.36720679506E+02 -0.11831710790E+02  0.20811243615E+03  0.21165817670E+03  0.00000000000E+00 0.  1.
         22    1    3    3    0    0  0.56586674098E+02  0.10144574412E+03  0.73192616539E+03  0.74108650120E+03  0.00000000000E+00 0.  1.
</event>
<event>
 7    1  0.7029100E-006  0.3321841E+02  0.7818608E-02  0.1571706E+00
          2   -1    0    0  502    0  0.00000000000E+00  0.00000000000E+00  0.22237037218E+04  0.22237037218E+04  0.00000000000E+00 0. -1.
          1   -1    0    0  501    0 -0.00000000000E+00 -0.00000000000E+00 -0.18121206220E+03  0.18121206220E+03  0.00000000000E+00 0. -1.
         25    2    1    2    0    0 -0.33052658045E+02  0.27655787488E+02 -0.12977468470E+03  0.18526747471E+03  0.12500099044E+03 0.  0.
          2    1    1    2  501    0  0.32716775250E+02  0.41963965812E+01 -0.12037170444E+02  0.35112541909E+02  0.00000000000E+00 0. -1.
          1    1    1    2  502    0  0.33588279586E+00 -0.31852184070E+02  0.21843035147E+04  0.21845357673E+04  0.00000000000E+00 0. -1.
         22    1    3    3    0    0 -0.48607357866E+01 -0.40918158199E+02 -0.94639327604E+02  0.10322075737E+03  0.00000000000E+00 0. -1.
         22    1    3    3    0    0 -0.28191922259E+02  0.68573945687E+02 -0.35135357099E+02  0.82046717340E+02  0.00000000000E+00 0. -1.
</event>
<event>
 7    1  0.7029100E-006  0.6080362E+02  0.7818608E-02  0.1501942E+00
          2   -1    0    0  502    0  0.00000000000E+00  0.00000000000E+00  0.71416610906E+03  0.71416610906E+03  0.00000000000E+00 0. -1.
          1   -1    0    0  501    0 -0.00000000000E+00 -0.00000000000E+00 -0.17383165307E+03  0.17383165307E+03  0.00000000000E+00 0. -1.
         25    2    1    2    0    0  0.47920800109E+01 -0.43568989022E+02  0.14285981112E+03  0.19482338336E+03  0.12500401688E+03 0.  0.
          2    1    1    2  501    0 -0.22237741570E+02 -0.16117404936E+02 -0.14478200300E+03  0.14736389071E+03  0.00000000000E+00 0. -1.
          1    1    1    2  502    0  0.17445661559E+02  0.59686393958E+02  0.54225664786E+03  0.54581048806E+03  0.00000000000E+00 0. -1.
         22    1    3    3    0    0 -0.59754022030E+02 -0.17500435633E+02  0.76657859808E+02  0.98758472378E+02  0.00000000000E+00 0. -1.
         22    1    3    3    0    0  0.64546102041E+02 -0.26068553389E+02  0.66201951316E+02  0.96064910984E+02  0.00000000000E+00 0. -1.
</event>
<event>
 7    1  0.7029100E-006  0.7902134E+02  0.7818608E-02  0.1357982E+00
          2   -1    0    0  502    0  0.00000000000E+00  0.00000000000E+00  0.41021885369E+02  0.41021885369E+02  0.00000000000E+00 0. -1.
          1   -1    0    0  501    0 -0.00000000000E+00 -0.00000000000E+00 -0.13384954054E+04  0.13384954054E+04  0.00000000000E+00 0. -1.
         25    2    1    2    0    0 -0.35533737136E+02 -0.56940464561E+02 -0.18087676798E+03  0.22988043502E+03  0.12499498483E+03 0.  0.
          2    1    1    2  501    0 -0.24141276633E+02  0.77508173469E+02 -0.10650605411E+04  0.10681499307E+04  0.00000000000E+00 0. -1.
          1    1    1    2  502    0  0.59675013769E+02 -0.20567708908E+02 -0.51536210953E+02  0.81486925071E+02  0.00000000000E+00 0. -1.
         22    1    3    3    0    0 -0.34734998679E+02 -0.26909912979E+02  0.25468066305E+01  0.44013063672E+02  0.00000000000E+00 0. -1.
         22    1    3    3    0    0 -0.79873845754E+00 -0.30030551582E+02 -0.18342357461E+03  0.18586737135E+03  0.00000000000E+00 0. -1.
</event>
<event>
 7    1  0.7029100E-006  0.9018581E+02  0.7818608E-02  0.1380316E+00
          2   -1    0    0  502    0  0.00000000000E+00  0.00000000000E+00  0.22788154696E+04  0.22788154696E+04  0.00000000000E+00 0. -1.
          1   -1    0    0  501    0 -0.00000000000E+00 -0.00000000000E+00 -0.37402531312E+03  0.37402531312E+03  0.00000000000E+00 0. -1.
         25    2    1    2    0    0 -0.89698332020E+02 -0.10079117079E+03  0.12230204189E+03  0.22087768220E+03  0.12499804065E+03 0.  0.
          2    1    1    2  501    0  0.26885652520E+02  0.37275101814E+02 -0.32215915403E+03  0.32542094594E+03  0.00000000000E+00 0. -1.
          1    1    1    2  502    0  0.62812679501E+02  0.63516068980E+02  0.21046472686E+04  0.21065421546E+04  0.00000000000E+00 0. -1.
         22    1    3    3    0    0 -0.12089776926E+03 -0.68321115892E+02  0.90630150063E+02  0.16582481596E+03  0.00000000000E+00 0. -1.
         22    1    3    3    0    0  0.31199437236E+02 -0.32470054903E+02  0.31671891831E+02  0.55052866241E+02  0.00000000000E+00 0. -1.
</event>
<event>
 7    1  0.1441995E-005  0.1041079E+03  0.7818608E-02  0.1303723E+00
          2   -1    0    0  502    0  0.00000000000E+00  0.00000000000E+00  0.87623523853E+03  0.87623523853E+03  0.00000000000E+00 0. -1.
          1   -1    0    0  501    0 -0.00000000000E+00 -0.00000000000E+00 -0.15968303728E+04  0.15968303728E+04  0.00000000000E+00 0. -1.
         25    2    1    2    0    0 -0.12089532634E+02 -0.26438173372E+02 -0.30801689347E+03  0.33368281942E+03  0.12499873401E+03 0.  0.
          2    1    1    2  501    0 -0.54981031280E+02 -0.54171437313E+02 -0.12716220171E+04  0.12739623279E+04  0.00000000000E+00 0. -1.
          1    1    1    2  502    0  0.67070563914E+02  0.80609610685E+02  0.85904377633E+03  0.86542046402E+03  0.00000000000E+00 0. -1.
         22    1    3    3    0    0 -0.13240487681E+02  0.38884824230E+02 -0.22145754720E+03  0.22523495573E+03  0.00000000000E+00 0. -1.
         22    1    3    3    0    0  0.11509550472E+01 -0.65322997602E+02 -0.86559346267E+02  0.10844786369E+03  0.00000000000E+00 0. -1.
</event>
<event>
 7    1  0.7029100E-006  0.9159322E+02  0.7818608E-02  0.1424206E+00
          2   -1    0    0  502    0  0.00000000000E+00  0.00000000000E+00  0.11702630282E+04  0.11702630282E+04  0.00000000000E+00 0. -1.
          1   -1    0    0  501    0 -0.00000000000E+00 -0.00000000000E+00 -0.80877954451E+03  0.80877954451E+03  0.00000000000E+00 0. -1.
         25    2    1    2    0    0  0.39967237814E+02  0.46006086416E+02  0.48173427593E+02  0.14721221115E+03  0.12504725467E+03 0.  0.
          2    1    1    2  501    0  0.23308639610E+02  0.21928868487E+02 -0.75691244048E+03  0.75758868162E+03  0.00000000000E+00 0. -1.
          1    1    1    2  502    0 -0.63275877423E+02 -0.67934954904E+02  0.10702224966E+04  0.10742416800E+04  0.00000000000E+00 0. -1.
         22    1    3    3    0    0  0.41434593061E+02 -0.37321052581E+02  0.18890526638E+02  0.58877317063E+02  0.00000000000E+00 0. -1.
         22    1    3    3    0    0 -0.14673552468E+01  0.83327138997E+02  0.29282900955E+02  0.88334894086E+02  0.00000000000E+00 0. -1.
</event>
<event>
 7    1  0.7029100E-006  0.7403822E+02  0.7818608E-02  0.1407785E+00
          2   -1    0    0  502    0  0.00000000000E+00  0.00000000000E+00  0.60068435641E+03  0.60068435641E+03  0.00000000000E+00 0. -1.
          1   -1    0    0  501    0 -0.00000000000E+00 -0.00000000000E+00 -0.71900015703E+03  0.71900015703E+03  0.00000000000E+00 0. -1.
         25    2    1    2    0    0 -0.40314977221E+01 -0.53083357054E+02  0.11749715562E+03  0.17961754536E+03  0.12499114069E+03 0.  0.
          2    1    1    2  501    0  0.48878210942E+02  0.56175030008E+02 -0.68479931161E+03  0.68883583725E+03  0.00000000000E+00 0. -1.
          1    1    1    2  502    0 -0.44846713220E+02 -0.30916729537E+01  0.44898635536E+03  0.45123113083E+03  0.00000000000E+00 0. -1.
         22    1    3    3    0    0  0.43543922799E+02 -0.14042378710E+01  0.97173642476E+02  0.10649301333E+03  0.00000000000E+00 0. -1.
         22    1    3    3    0    0 -0.47575420521E+02 -0.51679119183E+02  0.20323513147E+02  0.73124532026E+02  0.00000000000E+00 0. -1.
</event>
<event>
 7    1  0.7029100E-006  0.1668045E+03  0.7818608E-02  0.1264990E+00
          2   -1    0    0  502    0  0.00000000000E+00  0.00000000000E+00  0.43952315099E+03  0.43952315099E+03  0.00000000000E+00 0. -1.
          1   -1    0    0  501    0 -0.00000000000E+00 -0.00000000000E+00 -0.10380907561E+04  0.10380907561E+04  0.00000000000E+00 0. -1.
         25    2    1    2    0    0  0.10064374118E+03  0.85427513546E+02  0.15379631188E+03  0.23812873443E+03  0.12499986362E+03 0.  0.
          2    1    1    2  501    0  0.56250785254E+02  0.40767197131E+02 -0.95282994144E+03  0.95535910134E+03  0.00000000000E+00 0. -1.
          1    1    1    2  502    0 -0.15689452644E+03 -0.12619471068E+03  0.20046602447E+03  0.28412607130E+03  0.00000000000E+00 0. -1.
         22    1    3    3    0    0  0.11314449774E+03  0.79554825642E+02  0.16847210512E+03  0.21797591118E+03  0.00000000000E+00 0. -1.
         22    1    3    3    0    0 -0.12500756558E+02  0.58726879041E+01 -0.14675793242E+02  0.20152823252E+02  0.00000000000E+00 0. -1.
</event>
<event>
 7    1  0.7029100E-006  0.1337440E+03  0.7818608E-02  0.1324768E+00
          2   -1    0    0  502    0  0.00000000000E+00  0.00000000000E+00  0.64769437130E+03  0.64769437130E+03  0.00000000000E+00 0. -1.
          1   -1    0    0  501    0 -0.00000000000E+00 -0.00000000000E+00 -0.10642101141E+03  0.10642101141E+03  0.00000000000E+00 0. -1.
         25    2    1    2    0    0 -0.82197874456E+02  0.10950131570E+03  0.27752459648E+03  0.33375466408E+03  0.12500098177E+03 0.  0.
          2    1    1    2  501    0  0.11411992613E+03 -0.71409455217E+02 -0.16600655114E+02  0.13564014739E+03  0.00000000000E+00 0. -1.
          1    1    1    2  502    0 -0.31922051674E+02 -0.38091860484E+02  0.28034941852E+03  0.28472057123E+03  0.00000000000E+00 0. -1.
         22    1    3    3    0    0 -0.29950881575E+02  0.12073204566E+03  0.23329228242E+03  0.26438337919E+03  0.00000000000E+00 0. -1.
         22    1    3    3    0    0 -0.52246992881E+02 -0.11230729961E+02  0.44232314055E+02  0.69371284889E+02  0.00000000000E+00 0. -1.
</event>
<event>
 7    1  0.7029100E-006  0.1043145E+03  0.7818608E-02  0.1276435E+00
          2   -1    0    0  502    0  0.00000000000E+00  0.00000000000E+00  0.20762202481E+03  0.20762202481E+03  0.00000000000E+00 0. -1.
          1   -1    0    0  501    0 -0.00000000000E+00 -0.00000000000E+00 -0.12629787355E+04  0.12629787355E+04  0.00000000000E+00 0. -1.
         25    2    1    2    0    0  0.12670356824E+03 -0.25201628369E+02 -0.15768395905E+03  0.23912044156E+03  0.12500175341E+03 0.  0.
          2    1    1    2  501    0 -0.83455995684E+02 -0.64364992700E+02 -0.10468742172E+04  0.10521660430E+04  0.00000000000E+00 0. -1.
          1    1    1    2  502    0 -0.43247572554E+02  0.89566621069E+02  0.14920146556E+03  0.17931427570E+03  0.00000000000E+00 0. -1.
         22    1    3    3    0    0  0.34935901811E+01  0.30245599682E+02  0.13064352592E+01  0.30474714857E+02  0.00000000000E+00 0. -1.
         22    1    3    3    0    0  0.12320997806E+03 -0.55447228052E+02 -0.15899039430E+03  0.20864572671E+03  0.00000000000E+00 0. -1.
</event>
<event>
 7    1  0.7029100E-006  0.1256513E+03  0.7818608E-02  0.1410373E+00
          2   -1    0    0  502    0  0.00000000000E+00  0.00000000000E+00  0.23710961085E+04  0.23710961085E+04  0.00000000000E+00 0. -1.
          1   -1    0    0  501    0 -0.00000000000E+00 -0.00000000000E+00 -0.21791680317E+02  0.21791680317E+02  0.00000000000E+00 0. -1.
         25    2    1    2    0    0  0.89825362707E+02  0.74343309248E+02  0.18545809410E+04  0.18624422946E+04  0.12500124299E+03 0.  0.
          2    1    1    2  501    0 -0.11174407242E+03 -0.60437322685E+02  0.21655637363E+03  0.25106985214E+03  0.00000000000E+00 0. -1.
          1    1    1    2  502    0  0.21918709713E+02 -0.13905986563E+02  0.27816711356E+03  0.27937564203E+03  0.00000000000E+00 0. -1.
         22    1    3    3    0    0  0.70384130947E+01 -0.16901796391E+02  0.86868583972E+03  0.86887875915E+03  0.00000000000E+00 0.  1.
         22    1    3    3    0    0  0.82786949612E+02  0.91245105639E+02  0.98589510128E+03  0.99356353549E+03  0.00000000000E+00 0.  1.
</event>
<event>
 7    1  0.7029100E-006  0.8671946E+02  0.7818608E-02  0.1408064E+00
          2   -1    0    0  502    0  0.00000000000E+00  0.00000000000E+00  0.60323518220E+02  0.60323518220E+02  0.00000000000E+00 0. -1.
          1   -1    0    0  501    0 -0.00000000000E+00 -0.00000000000E+00 -0.14981040174E+04  0.14981040174E+04  0.00000000000E+00 0. -1.
         25    2    1    2    0    0 -0.36252852730E+02  0.11163967838E+03 -0.19473260415E+03  0.25946604750E+03  0.12499662222E+03 0.  0.
          2    1    1    2  501    0  0.12263464728E+02 -0.36279329115E+02 -0.12141606094E+04  0.12147644083E+04  0.00000000000E+00 0. -1.
          1    1    1    2  502    0  0.23989388001E+02 -0.75360349267E+02 -0.28887285648E+02  0.84197079821E+02  0.00000000000E+00 0. -1.
         22    1    3    3    0    0  0.58518839459E+01  0.10580624876E+03 -0.18885663018E+03  0.21655492048E+03  0.00000000000E+00 0. -1.
         22    1    3    3    0    0 -0.42104736675E+02  0.58334296175E+01 -0.58759739667E+01  0.42911127015E+02  0.00000000000E+00 0. -1.
</event>
<event>
 7    1  0.7029100E-006  0.1584255E+03  0.7818608E-02  0.1237706E+00
          2   -1    0    0  502    0  0.00000000000E+00  0.00000000000E+00  0.10372649563E+04  0.10372649563E+04  0.00000000000E+00 0. -1.
          1   -1    0    0  501    0 -0.00000000000E+00 -0.00000000000E+00 -0.52486986839E+03  0.52486986839E+03  0.00000000000E+00 0. -1.
         25    2    1    2    0    0 -0.11119283853E+03  0.38752488721E+02  0.85706950523E+01  0.17194188482E+03  0.12499980888E+03 0.  0.
          2    1    1    2  501    0 -0.46133058919E+02 -0.84195222997E+02 -0.43078105062E+03  0.44134953073E+03  0.00000000000E+00 0. -1.
          1    1    1    2  502    0  0.15732589745E+03  0.45442734276E+02  0.93460544350E+03  0.94884340917E+03  0.00000000000E+00 0. -1.
         22    1    3    3    0    0 -0.35486250929E+02  0.24860413858E+02  0.63860277276E+02  0.77171556910E+02  0.00000000000E+00 0. -1.
         22    1    3    3    0    0 -0.75706587602E+02  0.13892074863E+02 -0.55289582223E+02  0.94770327913E+02  0.00000000000E+00 0. -1.
</event>
<event>
 7    1  0.7029100E-006  0.2276703E+02  0.7818608E-02  0.1708173E+00
          2   -1    0    0  502    0  0.00000000000E+00  0.00000000000E+00  0.16750562856E+02  0.16750562856E+02  0.00000000000E+00 0. -1.
          1   -1    0    0  501    0 -0.00000000000E+00 -0.00000000000E+00 -0.77918838393E+03  0.77918838393E+03  0.00000000000E+00 0. -1.
         25    2    1    2    0    0  0.19189117756E+02  0.16608381526E+02 -0.62444455334E+03  0.63733819545E+03  0.12499965843E+03 0.  0.
          2    1    1    2  501    0 -0.23289469519E+02  0.42602311528E+01 -0.13507451142E+03  0.13713377628E+03  0.00000000000E+00 0. -1.
          1    1    1    2  502    0  0.41003517633E+01 -0.20868612679E+02 -0.29187563124E+01  0.21466975058E+02  0.00000000000E+00 0. -1.
         22    1    3    3    0    0 -0.29369481205E+02  0.41836374099E+02 -0.48268007439E+03  0.48537913309E+03  0.00000000000E+00 0.  1.
         22    1    3    3    0    0  0.48558598961E+02 -0.25227992573E+02 -0.14176447895E+03  0.15195906237E+03  0.00000000000E+00 0.  1.
</event>
<event>
 7    1  0.7029100E-006  0.2218190E+03  0.7818608E-02  0.1267359E+00
          2   -1    0    0  502    0  0.00000000000E+00  0.00000000000E+00  0.73476208374E+03  0.73476208374E+03  0.00000000000E+00 0. -1.
          1   -1    0    0  501    0 -0.00000000000E+00 -0.00000000000E+00 -0.25382932953E+03  0.25382932953E+03  0.00000000000E+00 0. -1.
         25    2    1    2    0    0  0.22075561709E+03  0.82861661297E+01  0.84075500389E+01  0.25396088591E+03  0.12499496649E+03 0.  0.
          2    1    1    2  501    0 -0.22087302051E+03  0.42763847491E+02 -0.32255209667E+02  0.22727524368E+03  0.00000000000E+00 0. -1.
          1    1    1    2  502    0  0.11740341412E+00 -0.51050013620E+02  0.50478041384E+03  0.50735528368E+03  0.00000000000E+00 0. -1.
         22    1    3    3    0    0  0.16509865550E+03 -0.11002531050E+02  0.59648497883E+02  0.17588793318E+03  0.00000000000E+00 0. -1.
         22    1    3    3    0    0  0.55656961590E+02  0.19288697180E+02 -0.51240947844E+02  0.78072952732E+02  0.00000000000E+00 0. -1.
</event>
<event>
 7    1  0.7029100E-006  0.1208531E+03  0.7818608E-02  0.1397389E+00
          2   -1    0    0  502    0  0.00000000000E+00  0.00000000000E+00  0.18488567802E+04  0.18488567802E+04  0.00000000000E+00 0. -1.
          1   -1    0    0  501    0 -0.00000000000E+00 -0.00000000000E+00 -0.89268483026E+03  0.89268483026E+03  0.00000000000E+00 0. -1.
         25    2    1    2    0    0 -0.97159726480E+02  0.11183086086E+03 -0.70162183604E+02  0.20614017927E+03  0.12499955044E+03 0.  0.
          2    1    1    2  501    0  0.82386656653E+02 -0.85843275071E+02 -0.74971656850E+03  0.75909917807E+03  0.00000000000E+00 0. -1.
          1    1    1    2  502    0  0.14773069828E+02 -0.25987585794E+02  0.17760507020E+04  0.17763022531E+04  0.00000000000E+00 0. -1.
         22    1    3    3    0    0 -0.71585281677E+02  0.13277863134E+03 -0.81168313477E+02  0.17129773088E+03  0.00000000000E+00 0. -1.
         22    1    3    3    0    0 -0.25574444803E+02 -0.20947770473E+02  0.11006129873E+02  0.34842448387E+02  0.00000000000E+00 0. -1.
</event>
<event>
 7    1  0.7029100E-006  0.7674024E+02  0.7818608E-02  0.1419414E+00
          2   -1    0    0  502    0  0.00000000000E+00  0.00000000000E+00  0.36183892263E+03  0.36183892263E+03  0.00000000000E+00 0. -1.
          1   -1    0    0  501    0 -0.00000000000E+00 -0.00000000000E+00 -0.20529365273E+04  0.20529365273E+04  0.00000000000E+00 0. -1.
         25    2    1    2    0    0 -0.62628603831E+02 -0.41601189344E+02 -0.14778855858E+04  0.14850666313E+04  0.12499637398E+03 0.  0.
          2    1    1    2  501    0  0.82137117301E+02  0.71089837832E+01 -0.56737611342E+03  0.57333471705E+03  0.00000000000E+00 0. -1.
          1    1    1    2  502    0 -0.19508513471E+02  0.34492205561E+02  0.35416409463E+03  0.35637410157E+03  0.00000000000E+00 0. -1.
         22    1    3    3    0    0  0.28296535652E+02  0.11900217985E+02 -0.15687653462E+03  0.15985166947E+03  0.00000000000E+00 0. -1.
         22    1    3    3    0    0 -0.90925139482E+02 -0.53501407329E+02 -0.13210090512E+04  0.13252149618E+04  0.00000000000E+00 0. -1.
</event>
<event>
 7    1  0.7029100E-006  0.8888134E+02  0.7818608E-02  0.1339272E+00
          2   -1    0    0  502    0  0.00000000000E+00  0.00000000000E+00  0.15946466986E+04  0.15946466986E+04  0.00000000000E+00 0. -1.
          1   -1    0    0  501    0 -0.00000000000E+00 -0.00000000000E+00 -0.26828162716E+03  0.26828162716E+03  0.00000000000E+00 0. -1.
         25    2    1    2    0    0 -0.92877285398E+02 -0.92314699276E+01  0.37494324963E+03  0.40610231214E+03  0.12500094920E+03 0.  0.
          2    1    1    2  501    0  0.19630381411E+02  0.62858458740E+02 -0.24666542905E+03  0.25530446843E+03  0.00000000000E+00 0. -1.
          1    1    1    2  502    0  0.73246903987E+02 -0.53626988813E+02  0.11980872509E+04  0.12015215452E+04  0.00000000000E+00 0. -1.
         22    1    3    3    0    0 -0.80639905843E+02 -0.35580314188E+02  0.36485227706E+03  0.37534775509E+03  0.00000000000E+00 0. -1.
         22    1    3    3    0    0 -0.12237379555E+02  0.26348844261E+02  0.10090972573E+02  0.30754557056E+02  0.00000000000E+00 0. -1.
</event>
<event>
 7    1  0.7029100E-006  0.8690436E+02  0.7818608E-02  0.1314690E+00
          2   -1    0    0  502    0  0.00000000000E+00  0.00000000000E+00  0.86911072150E+03  0.86911072150E+03  0.00000000000E+00 0. -1.
          1   -1    0    0  501    0 -0.00000000000E+00 -0.00000000000E+00 -0.47436107105E+03  0.47436107105E+03  0.00000000000E+00 0. -1.
         25    2    1    2    0    0 -0.44199869665E+02 -0.38068026224E+02  0.43166965090E+02  0.14453461045E+03  0.12499625452E+03 0.  0.
          2    1    1    2  501    0 -0.38189014055E+02  0.74474104250E+02 -0.41688765718E+03  0.42520596387E+03  0.00000000000E+00 0. -1.
          1    1    1    2  502    0  0.82388883719E+02 -0.36406078026E+02  0.76847034255E+03  0.77373121823E+03  0.00000000000E+00 0. -1.
         22    1    3    3    0    0 -0.20925991190E+02 -0.66245218929E+02  0.70439038393E+02  0.98934242141E+02  0.00000000000E+00 0. -1.
         22    1    3    3    0    0 -0.23273878475E+02  0.28177192705E+02 -0.27272073303E+02  0.45600368313E+02  0.00000000000E+00 0. -1.
</event>
<event>
 7    1  0.7029100E-006  0.7722036E+02  0.7818608E-02  0.1465446E+00
          2   -1    0    0  502    0  0.00000000000E+00  0.00000000000E+00  0.37872309720E+03  0.37872309720E+03  0.00000000000E+00 0. -1.
          1   -1    0    0  501    0 -0.00000000000E+00 -0.00000000000E+00 -0.46880386856E+03  0.46880386856E+03  0.00000000000E+00 0. -1.
         25    2    1    2    0    0 -0.76757870464E+02 -0.68066828541E+02 -0.10154159244E+03  0.19094674525E+03  0.12500040280E+03 0.  0.
          2    1    1    2  501    0  0.57373439022E+02  0.47932386219E+02 -0.31762744399E+03  0.32630724529E+03  0.00000000000E+00 0. -1.
          1    1    1    2  502    0  0.19384431442E+02  0.20134442321E+02  0.32908826507E+03  0.33027297522E+03  0.00000000000E+00 0. -1.
         22    1    3    3    0    0 -0.37957624325E+02 -0.72839567921E+02 -0.12180766873E+03  0.14691321269E+03  0.00000000000E+00 0.  1.
         22    1    3    3    0    0 -0.38800246139E+02  0.47727393801E+01  0.20266076294E+02  0.44033532563E+02  0.00000000000E+00 0.  1.
</event>
<event>
 7    1  0.7029100E-006  0.1253905E+03  0.7818608E-02  0.1278575E+00
          2   -1    0    0  502    0  0.00000000000E+00  0.00000000000E+00  0.26965002537E+04  0.26965002537E+04  0.00000000000E+00 0. -1.
          1   -1    0    0  501    0 -0.00000000000E+00 -0.00000000000E+00 -0.17836221687E+03  0.17836221687E+03  0.00000000000E+00 0. -1.
         25    2    1    2    0    0  0.59480009637E+02 -0.31943617304E+02  0.35828333755E+03  0.38542269407E+03  0.12500174760E+03 0.  0.
          2    1    1    2  501    0  0.75293953330E+02  0.30049832194E+02 -0.15273968971E+03  0.17292074669E+03  0.00000000000E+00 0. -1.
          1    1    1    2  502    0 -0.13477396297E+03  0.18937851099E+01  0.23125943890E+04  0.23165190298E+04  0.00000000000E+00 0. -1.
         22    1    3    3    0    0 -0.30396037648E+02  0.36026717491E+01  0.18040019082E+03  0.18297848834E+03  0.00000000000E+00 0. -1.
         22    1    3    3    0    0  0.89876047284E+02 -0.35546289053E+02  0.17788314674E+03  0.20244420573E+03  0.00000000000E+00 0. -1.
</event>
<event>
 7    1  0.7029100E-006  0.9551409E+02  0.7818608E-02  0.1304323E+00
          2   -1    0    0  502    0  0.00000000000E+00  0.00000000000E+00  0.48782211750E+03  0.48782211750E+03  0.00000000000E+00 0. -1.
          1   -1    0    0  501    0 -0.00000000000E+00 -0.00000000000E+00 -0.39150430762E+03  0.39150430762E+03  0.00000000000E+00 0. -1.
         25    2    1    2    0    0 -0.22088469363E+01 -0.18080994285E+02  0.11863866764E+03  0.17329688038E+03  0.12499949572E+03 0.  0.
          2    1    1    2  501    0  0.57384321172E+02  0.80977880050E+02 -0.35209043068E+03  0.36581149346E+03  0.00000000000E+00 0. -1.
          1    1    1    2  502    0 -0.55175474236E+02 -0.62896885765E+02  0.32976957292E+03  0.34021805128E+03  0.00000000000E+00 0. -1.
         22    1    3    3    0    0 -0.53583306828E+02  0.24904776030E+02  0.50227762108E+02  0.77551574620E+02  0.00000000000E+00 0. -1.
         22    1    3    3    0    0  0.51374459891E+02 -0.42985770316E+02  0.68410905532E+02  0.95745305757E+02  0.00000000000E+00 0. -1.
</event>
<event>
 7    1  0.7029100E-006  0.8120634E+02  0.7818608E-02  0.1498757E+00
          2   -1    0    0  502    0  0.00000000000E+00  0.00000000000E+00  0.43130203547E+03  0.43130203547E+03  0.00000000000E+00 0. -1.
          1   -1    0    0  501    0 -0.00000000000E+00 -0.00000000000E+00 -0.48910019625E+03  0.48910019625E+03  0.00000000000E+00 0. -1.
         25    2    1    2    0    0 -0.66498124935E+02 -0.35779987606E+02  0.27472057570E+02  0.14860105150E+03  0.12500140170E+03 0.  0.
          2    1    1    2  501    0  0.59632503851E+02  0.55645889416E+02 -0.42432636281E+03  0.43209415953E+03  0.00000000000E+00 0. -1.
          1    1    1    2  502    0  0.68656210842E+01 -0.19865901810E+02  0.33905614446E+03  0.33970702068E+03  0.00000000000E+00 0. -1.
         22    1    3    3    0    0 -0.71303026398E+02 -0.26517415408E+02  0.70867480397E+02  0.10396871968E+03  0.00000000000E+00 0.  1.
         22    1    3    3    0    0  0.48049014627E+01 -0.92625721980E+01 -0.43395422827E+02  0.44632331825E+02  0.00000000000E+00 0.  1.
</event>
<event>
 7    1  0.7029100E-006  0.3701917E+02  0.7818608E-02  0.1592887E+00
          2   -1    0    0  502    0  0.00000000000E+00  0.00000000000E+00  0.35901924560E+03  0.35901924560E+03  0.00000000000E+00 0. -1.
          1   -1    0    0  501    0 -0.00000000000E+00 -0.00000000000E+00 -0.32614318678E+03  0.32614318678E+03  0.00000000000E+00 0. -1.
         25    2    1    2    0    0 -0.19845168294E+02 -0.24067815728E+02 -0.22604998408E+03  0.26018518307E+03  0.12499857492E+03 0.  0.
          2    1    1    2  501    0  0.72881381249E+00  0.40316774990E+02 -0.77634990402E+02  0.87482371081E+02  0.00000000000E+00 0. -1.
          1    1    1    2  502    0  0.19116354481E+02 -0.16248959262E+02  0.33656103330E+03  0.33749487822E+03  0.00000000000E+00 0. -1.
         22    1    3    3    0    0  0.45819600013E+02  0.37354370974E+01 -0.14558138254E+03  0.15266737758E+03  0.00000000000E+00 0.  1.
         22    1    3    3    0    0 -0.65664768306E+02 -0.27803252826E+02 -0.80468601543E+02  0.10751780550E+03  0.00000000000E+00 0.  1.
</event>
<event>
 7    1  0.7029100E-006  0.5484474E+02  0.7818608E-02  0.1511706E+00
          2   -1    0    0  502    0  0.00000000000E+00  0.00000000000E+00  0.55675914298E+03  0.55675914298E+03  0.00000000000E+00 0. -1.
          1   -1    0    0  501    0 -0.00000000000E+00 -0.00000000000E+00 -0.12528829340E+03  0.12528829340E+03  0.00000000000E+00 0. -1.
         25    2    1    2    0    0 -0.44415246385E+02 -0.36876937619E+02  0.25608454769E+03  0.29075182091E+03  0.12499881262E+03 0.  0.
          2    1    1    2  501    0 -0.10018266767E+02  0.26670888925E+02 -0.10330145536E+03  0.10715825990E+03  0.00000000000E+00 0. -1.
          1    1    1    2  502    0  0.54433513151E+02  0.10206048694E+02  0.27868775726E+03  0.28413735557E+03  0.00000000000E+00 0. -1.
         22    1    3    3    0    0 -0.19603242712E+01 -0.72573860667E+02  0.89897598233E+02  0.11555252611E+03  0.00000000000E+00 0. -1.
         22    1    3    3    0    0 -0.42454922114E+02  0.35696923048E+02  0.16618694945E+03  0.17519929479E+03  0.00000000000E+00 0. -1.
</event>
<event>
 7    1  0.7029100E-006  0.1355475E+03  0.7818608E-02  0.1283576E+00
          2   -1    0    0  502    0  0.00000000000E+00  0.00000000000E+00  0.31278451284E+04  0.31278451284E+04  0.00000000000E+00 0. -1.
          1   -1    0    0  501    0 -0.00000000000E+00 -0.00000000000E+00 -0.83847305361E+02  0.83847305361E+02  0.00000000000E+00 0. -1.
         25    2    1    2    0    0 -0.13030512093E+03  0.72967868747E+02  0.26573124663E+03  0.32945600130E+03  0.12499770777E+03 0.  0.
          2    1    1    2  501    0  0.57971857906E+02  0.41876005017E+02 -0.24945580562E+02  0.75740465373E+02  0.00000000000E+00 0. -1.
          1    1    1    2  502    0  0.72333263025E+02 -0.11484387376E+03  0.28032121570E+04  0.28064959671E+04  0.00000000000E+00 0. -1.
         22    1    3    3    0    0 -0.47297570835E+02  0.16859864737E+02  0.53902682870E+01  0.50501190461E+02  0.00000000000E+00 0. -1.
         22    1    3    3    0    0 -0.83007550097E+02  0.56108004010E+02  0.26034097834E+03  0.27895481084E+03  0.00000000000E+00 0. -1.
</event>
<event>
 7    1  0.7029100E-006  0.1227104E+03  0.7818608E-02  0.1337982E+00
          2   -1    0    0  502    0  0.00000000000E+00  0.00000000000E+00  0.31037302744E+03  0.31037302744E+03  0.00000000000E+00 0. -1.
          1   -1    0    0  501    0 -0.00000000000E+00 -0.00000000000E+00 -0.38552527403E+03  0.38552527403E+03  0.00000000000E+00 0. -1.
         25    2    1    2    0    0 -0.16969284056E+02  0.11799091132E+03  0.11754638808E+03  0.20892991161E+03  0.12499897144E+03 0.  0.
          2    1    1    2  501    0 -0.31240595800E+02 -0.11955137942E+03 -0.32417327008E+03  0.34692479902E+03  0.00000000000E+00 0. -1.
          1    1    1    2  502    0  0.48209879856E+02  0.15604680976E+01  0.13147463541E+03  0.14004359083E+03  0.00000000000E+00 0. -1.
         22    1    3    3    0    0  0.33196139538E+02  0.11711592978E+03  0.92281727198E+02  0.15275484235E+03  0.00000000000E+00 0.  1.
         22    1    3    3    0    0 -0.50165423593E+02  0.87498154442E+00  0.25264660885E+02  0.56175069262E+02  0.00000000000E+00 0.  1.
</event>
<event>
 7    1  0.7029100E-006  0.2028047E+03  0.7818608E-02  0.1298480E+00
          2   -1    0    0  502    0  0.00000000000E+00  0.00000000000E+00  0.19352995019E+04  0.19352995019E+04  0.00000000000E+00 0. -1.
          1   -1    0    0  501    0 -0.00000000000E+00 -0.00000000000E+00 -0.19956376248E+03  0.19956376248E+03  0.00000000000E+00 0. -1.
         25    2    1    2    0    0  0.14209189022E+03  0.12355341017E+03  0.66994243302E+02  0.23573494838E+03  0.12500874697E+03 0.  0.
          2    1    1    2  501    0 -0.17240231244E+02  0.37837857365E+02 -0.10539283183E+03  0.11329862322E+03  0.00000000000E+00 0. -1.
          1    1    1    2  502    0 -0.12485165898E+03 -0.16139126754E+03  0.17741343280E+04  0.17858296928E+04  0.00000000000E+00 0. -1.
         22    1    3    3    0    0  0.11663645720E+03  0.13395343164E+03  0.16681383793E+02  0.17839802006E+03  0.00000000000E+00 0.  1.
         22    1    3    3    0    0  0.25455433017E+02 -0.10400021466E+02  0.50312859509E+02  0.57336928315E+02  0.00000000000E+00 0.  1.
</event>
<event>
 7    1  0.7029100E-006  0.9245487E+02  0.7818608E-02  0.1301936E+00
          2   -1    0    0  502    0  0.00000000000E+00  0.00000000000E+00  0.33378606398E+04  0.33378606398E+04  0.00000000000E+00 0. -1.
          1   -1    0    0  501    0 -0.00000000000E+00 -0.00000000000E+00 -0.85975952049E+02  0.85975952049E+02  0.00000000000E+00 0. -1.
         25    2    1    2    0    0 -0.57831404844E+01 -0.55242102826E+02  0.10898410888E+04  0.10983934582E+04  0.12501782062E+03 0.  0.
          2    1    1    2  501    0 -0.91371620018E+02  0.14111326596E+02 -0.53880177364E+02  0.10700923323E+03  0.00000000000E+00 0. -1.
          1    1    1    2  502    0  0.97154760503E+02  0.41130776229E+02  0.22159237763E+04  0.22184339004E+04  0.00000000000E+00 0. -1.
         22    1    3    3    0    0  0.45373870666E+02 -0.15092521208E+02  0.79633314855E+03  0.79776754498E+03  0.00000000000E+00 0.  1.
         22    1    3    3    0    0 -0.51157011150E+02 -0.40149581618E+02  0.29350794027E+03  0.30062591321E+03  0.00000000000E+00 0.  1.
</event>
<event>
 7    1  0.7029100E-006  0.5812508E+02  0.7818608E-02  0.1438740E+00
          2   -1    0    0  502    0  0.00000000000E+00  0.00000000000E+00  0.57634334430E+03  0.57634334430E+03  0.00000000000E+00 0. -1.
          1   -1    0    0  501    0 -0.00000000000E+00 -0.00000000000E+00 -0.12369690863E+03  0.12369690863E+03  0.00000000000E+00 0. -1.
         25    2    1    2    0    0  0.57966020918E+02 -0.50210573824E+02  0.18244952020E+03  0.23407995640E+03  0.12499774902E+03 0.  0.
          2    1    1    2  501    0 -0.44791278977E+02 -0.59076823604E+01 -0.90253371570E+02  0.10092982940E+03  0.00000000000E+00 0. -1.
          1    1    1    2  502    0 -0.13174741941E+02  0.56118256184E+02  0.36045028704E+03  0.36503046713E+03  0.00000000000E+00 0. -1.
         22    1    3    3    0    0  0.62894538380E+02 -0.84010543307E+02  0.10053852807E+03  0.14533234317E+03  0.00000000000E+00 0.  1.
         22    1    3    3    0    0 -0.49285174623E+01  0.33799969484E+02  0.81910992135E+02  0.88747613230E+02  0.00000000000E+00 0.  1.
</event>
<event>
 7    1  0.7029100E-006  0.5824927E+02  0.7818608E-02  0.1410703E+00
          2   -1    0    0  502    0  0.00000000000E+00  0.00000000000E+00  0.43863164264E+02  0.43863164264E+02  0.00000000000E+00 0. -1.
          1   -1    0    0  501    0 -0.00000000000E+00 -0.00000000000E+00 -0.33457837679E+04  0.33457837679E+04  0.00000000000E+00 0. -1.
         25    2    1    2    0    0 -0.33073973804E+01  0.75946179369E+00 -0.11667390042E+03  0.17102229729E+03  0.12499724585E+03 0.  0.
          2    1    1    2  501    0  0.44028836012E+02 -0.38983208225E+02 -0.31541545626E+04  0.31547027172E+04  0.00000000000E+00 0. -1.
          1    1    1    2  502    0 -0.40721438632E+02  0.38223746431E+02 -0.31092140615E+02  0.63921917708E+02  0.00000000000E+00 0. -1.
         22    1    3    3    0    0 -0.30104728440E+02 -0.55170232501E+02 -0.54190064727E+02  0.82985615282E+02  0.00000000000E+00 0.  1.
         22    1    3    3    0    0  0.26797331059E+02  0.55929694295E+02 -0.62483835692E+02  0.88036682006E+02  0.00000000000E+00 0.  1.
</event>
<event>
 7    1  0.7029100E-006  0.8243231E+02  0.7818608E-02  0.1471839E+00
          2   -1    0    0  502    0  0.00000000000E+00  0.00000000000E+00  0.16493899291E+03  0.16493899291E+03  0.00000000000E+00 0. -1.
          1   -1    0    0  501    0 -0.00000000000E+00 -0.00000000000E+00 -0.51574807218E+03  0.51574807218E+03  0.00000000000E+00 0. -1.
         25    2    1    2    0    0 -0.66337012566E+02  0.42751640250E+02  0.23263016251E+02  0.14964682992E+03  0.12499881520E+03 0.  0.
          2    1    1    2  501    0  0.52750688807E+02 -0.63747067452E+02 -0.44666309764E+03  0.45426231031E+03  0.00000000000E+00 0. -1.
          1    1    1    2  502    0  0.13586323759E+02  0.20995427202E+02  0.72591002114E+02  0.76777924852E+02  0.00000000000E+00 0. -1.
         22    1    3    3    0    0 -0.41709430905E+02 -0.26013435226E+01 -0.46725985959E+02  0.62687808850E+02  0.00000000000E+00 0. -1.
         22    1    3    3    0    0 -0.24627581660E+02  0.45352983772E+02  0.69989002210E+02  0.86959021073E+02  0.00000000000E+00 0. -1.
</event>
<event>
 7    1  0.7029100E-006  0.6019495E+02  0.7818608E-02  0.1504516E+00
          2   -1    0    0  502    0  0.00000000000E+00  0.00000000000E+00  0.13052817134E+04  0.13052817134E+04  0.00000000000E+00 0. -1.
          1   -1    0    0  501    0 -0.00000000000E+00 -0.00000000000E+00 -0.29199700407E+03  0.29199700407E+03  0.00000000000E+00 0. -1.
         25    2    1    2    0    0  0.44677544380E+01  0.63884069467E+02  0.69161236975E+03  0.70573000183E+03  0.12500412127E+03 0.  0.
          2    1    1    2  501    0  0.21675056433E+02 -0.56167757359E+02 -0.28144674313E+03  0.28781399246E+03  0.00000000000E+00 0. -1.
          1    1    1    2  502    0 -0.26142810871E+02 -0.77163121084E+01  0.60311908271E+03  0.60373472317E+03  0.00000000000E+00 0. -1.
         22    1    3    3    0    0 -0.42622386217E+02 -0.91850130159E+01  0.37059785582E+03  0.37315385970E+03  0.00000000000E+00 0.  1.
         22    1    3    3    0    0  0.47090140655E+02  0.73069082483E+02  0.32101451393E+03  0.33257614213E+03  0.00000000000E+00 0.  1.
</event>
<event>
 7    1  0.7029100E-006  0.7700366E+02  0.7818608E-02  0.1354457E+00
          2   -1    0    0  502    0  0.00000000000E+00  0.00000000000E+00  0.20026134576E+03  0.20026134576E+03  0.00000000000E+00 0. -1.
          1   -1    0    0  501    0 -0.00000000000E+00 -0.00000000000E+00 -0.34796823052E+03  0.34796823052E+03  0.00000000000E+00 0. -1.
         25    2    1    2    0    0 -0.70477987000E+01 -0.76117815982E+02 -0.10730385179E+03  0.18160763551E+03  0.12499449304E+03 0.  0.
          2    1    1    2  501    0 -0.58456369974E+02  0.32188282390E+02 -0.18788004381E+03  0.19937939607E+03  0.00000000000E+00 0. -1.
          1    1    1    2  502    0  0.65504168674E+02  0.43929533592E+02  0.14747701084E+03  0.16724254471E+03  0.00000000000E+00 0. -1.
         22    1    3    3    0    0  0.29111434411E+02 -0.77350297831E+02 -0.17071307608E+02  0.84391787109E+02  0.00000000000E+00 0.  1.
         22    1    3    3    0    0 -0.36159233111E+02  0.12324818493E+01 -0.90232544178E+02  0.97215848397E+02  0.00000000000E+00 0.  1.
</event>
<event>
 7    1  0.7029100E-006  0.5339497E+02  0.7818608E-02  0.1480066E+00
          2   -1    0    0  502    0  0.00000000000E+00  0.00000000000E+00  0.42357617734E+02  0.42357617734E+02  0.00000000000E+00 0. -1.
          1   -1    0    0  501    0 -0.00000000000E+00 -0.00000000000E+00 -0.18751096181E+04  0.18751096181E+04  0.00000000000E+00 0. -1.
         25    2    1    2    0    0 -0.20549977245E+02  0.16135105927E+02 -0.23670352712E+03  0.26894844370E+03  0.12498824908E+03 0.  0.
          2    1    1    2  501    0 -0.35807644580E+02 -0.66295970593E+01 -0.15906985378E+04  0.15911153249E+04  0.00000000000E+00 0. -1.
          1    1    1    2  502    0  0.56357621826E+02 -0.95055088682E+01 -0.53499353989E+01  0.57403467190E+02  0.00000000000E+00 0. -1.
         22    1    3    3    0    0  0.44657986667E+02  0.13936872181E+02 -0.39485792493E+02  0.61218461171E+02  0.00000000000E+00 0.  1.
         22    1    3    3    0    0 -0.65207963912E+02  0.21982337463E+01 -0.19721773463E+03  0.20772998253E+03  0.00000000000E+00 0.  1.
</event>
<event>
 7    1  0.7029100E-006  0.8022270E+02  0.7818608E-02  0.1478757E+00
          2   -1    0    0  502    0  0.00000000000E+00  0.00000000000E+00  0.75461047117E+03  0.75461047117E+03  0.00000000000E+00 0. -1.
          1   -1    0    0  501    0 -0.00000000000E+00 -0.00000000000E+00 -0.97553731023E+02  0.97553731023E+02  0.00000000000E+00 0. -1.
         25    2    1    2    0    0 -0.27154588616E+02  0.85997428362E+02  0.15890444246E+03  0.22137872856E+03  0.12499996103E+03 0.  0.
          2    1    1    2  501    0  0.36475934727E+01 -0.79223987912E+02 -0.42229449501E+02  0.89850273255E+02  0.00000000000E+00 0. -1.
          1    1    1    2  502    0  0.23506995143E+02 -0.67734404501E+01  0.54038174719E+03  0.54093520038E+03  0.00000000000E+00 0. -1.
         22    1    3    3    0    0 -0.76151117889E+02  0.50323153650E+02  0.11350361252E+03  0.14565192276E+03  0.00000000000E+00 0. -1.
         22    1    3    3    0    0  0.48996529273E+02  0.35674274713E+02  0.45400829946E+02  0.75726805801E+02  0.00000000000E+00 0. -1.
</event>
<event>
 7    1  0.7029100E-006  0.9562723E+02  0.7818608E-02  0.1333401E+00
          2   -1    0    0  502    0  0.00000000000E+00  0.00000000000E+00  0.11907285314E+04  0.11907285314E+04  0.00000000000E+00 0. -1.
          1   -1    0    0  501    0 -0.00000000000E+00 -0.00000000000E+00 -0.29033522577E+03  0.29033522577E+03  0.00000000000E+00 0. -1.
         25    2    1    2    0    0  0.15477663771E+03  0.35915340156E+01 -0.13287735599E+03  0.23927310219E+03  0.12500607587E+03 0.  0.
          2    1    1    2  501    0 -0.61200663112E+02 -0.20107212242E+02 -0.92112252643E+02  0.11240323944E+03  0.00000000000E+00 0. -1.
          1    1    1    2  502    0 -0.93575974593E+02  0.16515678226E+02  0.11253829143E+04  0.11293874156E+04  0.00000000000E+00 0. -1.
         22    1    3    3    0    0  0.24194865293E+02  0.50846270135E+02 -0.60591851534E+02  0.82717030686E+02  0.00000000000E+00 0. -1.
         22    1    3    3    0    0  0.13058177241E+03 -0.47254736119E+02 -0.72285504453E+02  0.15655607151E+03  0.00000000000E+00 0. -1.
</event>
<event>
 7    1  0.7029100E-006  0.8896284E+02  0.7818608E-02  0.1351310E+00
          2   -1    0    0  502    0  0.00000000000E+00  0.00000000000E+00  0.21658444585E+03  0.21658444585E+03  0.00000000000E+00 0. -1.
          1   -1    0    0  501    0 -0.00000000000E+00 -0.00000000000E+00 -0.10392332371E+04  0.10392332371E+04  0.00000000000E+00 0. -1.
         25    2    1    2    0    0  0.14708853842E+03  0.86713173319E+01  0.11618107390E+03  0.22546216151E+03  0.12499965786E+03 0.  0.
          2    1    1    2  501    0 -0.88269648661E+02 -0.92731118533E+00 -0.96245743791E+03  0.96649713428E+03  0.00000000000E+00 0. -1.
          1    1    1    2  502    0 -0.58818889755E+02 -0.77440061466E+01  0.23627572722E+02  0.63858387201E+02  0.00000000000E+00 0. -1.
         22    1    3    3    0    0  0.42869438266E+02  0.61507118813E+02  0.58831786150E+02  0.95300018172E+02  0.00000000000E+00 0. -1.
         22    1    3    3    0    0  0.10421910015E+03 -0.52835801481E+02  0.57349287747E+02  0.13016214334E+03  0.00000000000E+00 0. -1.
</event>
<event>
 7    1  0.7029100E-006  0.7984844E+02  0.7818608E-02  0.1408719E+00
          2   -1    0    0  502    0  0.00000000000E+00  0.00000000000E+00  0.11221352223E+04  0.11221352223E+04  0.00000000000E+00 0. -1.
          1   -1    0    0  501    0 -0.00000000000E+00 -0.00000000000E+00 -0.82188908413E+03  0.82188908413E+03  0.00000000000E+00 0. -1.
         25    2    1    2    0    0  0.90491877072E+02 -0.79517930931E+02 -0.39114169221E+03  0.42793595968E+03  0.12500192416E+03 0.  0.
          2    1    1    2  501    0 -0.34605520675E+02  0.22685953217E+02 -0.40986817998E+03  0.41195159848E+03  0.00000000000E+00 0. -1.
          1    1    1    2  502    0 -0.55886356397E+02  0.56831977715E+02  0.11012560103E+04  0.11041367482E+04  0.00000000000E+00 0. -1.
         22    1    3    3    0    0  0.71709668433E+02 -0.90396367995E+02 -0.16839298274E+03  0.20413225255E+03  0.00000000000E+00 0. -1.
         22    1    3    3    0    0  0.18782208638E+02  0.10878437063E+02 -0.22274870947E+03  0.22380370713E+03  0.00000000000E+00 0. -1.
</event>
<event>
 7    1  0.7029100E-006  0.4031396E+03  0.7818608E-02  0.1224263E+00
          2   -1    0    0  502    0  0.00000000000E+00  0.00000000000E+00  0.19373037851E+04  0.19373037851E+04  0.00000000000E+00 0. -1.
          1   -1    0    0  501    0 -0.00000000000E+00 -0.00000000000E+00 -0.49835626796E+03  0.49835626796E+03  0.00000000000E+00 0. -1.
         25    2    1    2    0    0  0.40617993483E+03 -0.85270780654E+02  0.93782537827E+03  0.10331469294E+04  0.12499156846E+03 0.  0.
          2    1    1    2  501    0 -0.38326745894E+03  0.12205401271E+03 -0.36029696289E+03  0.54000465607E+03  0.00000000000E+00 0. -1.
          1    1    1    2  502    0 -0.22912475889E+02 -0.36783232052E+02  0.86141910173E+03  0.86250846751E+03  0.00000000000E+00 0. -1.
         22    1    3    3    0    0  0.40702303013E+03 -0.85487373392E+02  0.94155293733E+03  0.10293190817E+04  0.00000000000E+00 0.  1.
         22    1    3    3    0    0 -0.84309529930E+00  0.21659273861E+00 -0.37275590595E+01  0.38278477817E+01  0.00000000000E+00 0.  1.
</event>
<event>
 7    1  0.7029100E-006  0.6215420E+02  0.7818608E-02  0.1421066E+00
          2   -1    0    0  502    0  0.00000000000E+00  0.00000000000E+00  0.17040172870E+03  0.17040172870E+03  0.00000000000E+00 0. -1.
          1   -1    0    0  501    0 -0.00000000000E+00 -0.00000000000E+00 -0.93372429897E+03  0.93372429897E+03  0.00000000000E+00 0. -1.
         25    2    1    2    0    0 -0.19595324979E+02  0.24923339686E+02 -0.32351664775E+02  0.13295378802E+03  0.12499971965E+03 0.  0.
          2    1    1    2  501    0 -0.11249286476E+02 -0.62103307123E+02 -0.84498872749E+03  0.84734250264E+03  0.00000000000E+00 0. -1.
          1    1    1    2  502    0  0.30844611455E+02  0.37179967437E+02  0.11401782200E+03  0.12382973701E+03  0.00000000000E+00 0. -1.
         22    1    3    3    0    0  0.32362397919E+02 -0.51471842748E+01  0.31400864291E+02  0.45385378518E+02  0.00000000000E+00 0. -1.
         22    1    3    3    0    0 -0.51957722898E+02  0.30070523961E+02 -0.63752529065E+02  0.87568409499E+02  0.00000000000E+00 0. -1.
</event>
<event>
 7    1  0.7029100E-006  0.5934665E+02  0.7818608E-02  0.1502737E+00
          2   -1    0    0  502    0  0.00000000000E+00  0.00000000000E+00  0.87218702481E+03  0.87218702481E+03  0.00000000000E+00 0. -1.
          1   -1    0    0  501    0 -0.00000000000E+00 -0.00000000000E+00 -0.17254740152E+03  0.17254740152E+03  0.00000000000E+00 0. -1.
         25    2    1    2    0    0 -0.39005240089E+02 -0.45308469003E+02  0.19236757192E+03  0.23707426170E+03  0.12499862686E+03 0.  0.
          2    1    1    2  501    0  0.55122322591E+02  0.22429578838E+02 -0.14398675912E+03  0.15580033137E+03  0.00000000000E+00 0. -1.
          1    1    1    2  502    0 -0.16117082503E+02  0.22878890165E+02  0.65125881050E+03  0.65185983326E+03  0.00000000000E+00 0. -1.
         22    1    3    3    0    0  0.45892141412E+02 -0.15324708676E+02  0.72385959881E+02  0.87067000220E+02  0.00000000000E+00 0. -1.
         22    1    3    3    0    0 -0.84897381501E+02 -0.29983760327E+02  0.11998161204E+03  0.15000726148E+03  0.00000000000E+00 0. -1.
</event>
<event>
 7    1  0.7029100E-006  0.1387722E+03  0.7818608E-02  0.1273370E+00
          2   -1    0    0  502    0  0.00000000000E+00  0.00000000000E+00  0.21603144367E+04  0.21603144367E+04  0.00000000000E+00 0. -1.
          1   -1    0    0  501    0 -0.00000000000E+00 -0.00000000000E+00 -0.27834540951E+03  0.27834540951E+03  0.00000000000E+00 0. -1.
         25    2    1    2    0    0 -0.21381741884E+01 -0.17255344735E+03  0.61033345962E+02  0.22165125183E+03  0.12499977655E+03 0.  0.
          2    1    1    2  501    0  0.60736858531E+02  0.47321725077E+02 -0.18808565177E+03  0.20323514472E+03  0.00000000000E+00 0. -1.
          1    1    1    2  502    0 -0.58598684342E+02  0.12523172227E+03  0.20090213330E+04  0.20137734496E+04  0.00000000000E+00 0. -1.
         22    1    3    3    0    0 -0.31179246632E+02  0.63536799106E+01  0.10015134545E+02  0.33358920679E+02  0.00000000000E+00 0.  1.
         22    1    3    3    0    0  0.29041072444E+02 -0.17890712726E+03  0.51018211417E+02  0.18829233115E+03  0.00000000000E+00 0.  1.
</event>
<event>
 7    1  0.7029100E-006  0.2357856E+03  0.7818608E-02  0.1275101E+00
          2   -1    0    0  502    0  0.00000000000E+00  0.00000000000E+00  0.45185788405E+03  0.45185788405E+03  0.00000000000E+00 0. -1.
          1   -1    0    0  501    0 -0.00000000000E+00 -0.00000000000E+00 -0.10339577020E+04  0.10339577020E+04  0.00000000000E+00 0. -1.
         25    2    1    2    0    0  0.21998053872E+03  0.18652344606E+02 -0.13212510771E+03  0.28604462411E+03  0.12500054207E+03 0.  0.
          2    1    1    2  501    0  0.10946139287E+02  0.43203645202E+02 -0.78606476647E+03  0.78732724455E+03  0.00000000000E+00 0. -1.
          1    1    1    2  502    0 -0.23092667800E+03 -0.61855989808E+02  0.33609005625E+03  0.41244371737E+03  0.00000000000E+00 0. -1.
         22    1    3    3    0    0  0.18308120659E+03  0.16591055256E+02 -0.41902929792E+02  0.18854667021E+03  0.00000000000E+00 0. -1.
         22    1    3    3    0    0  0.36899332125E+02  0.20612893500E+01 -0.90222177922E+02  0.97497953896E+02  0.00000000000E+00 0. -1.
</event>
<event>
 7    1  0.7029100E-006  0.2672967E+03  0.7818608E-02  0.1333969E+00
          2   -1    0    0  502    0  0.00000000000E+00  0.00000000000E+00  0.75437459601E+03  0.75437459601E+03  0.00000000000E+00 0. -1.
          1   -1    0    0  501    0 -0.00000000000E+00 -0.00000000000E+00 -0.12828937510E+04  0.12828937510E+04  0.00000000000E+00 0. -1.
         25    2    1    2    0    0 -0.34051551282E+02  0.27084309353E+03  0.33309597255E+03  0.44843599400E+03  0.12500569719E+03 0.  0.
          2    1    1    2  501    0 -0.18736264547E+02 -0.13222362769E+02 -0.11775498141E+04  0.11777730865E+04  0.00000000000E+00 0. -1.
          1    1    1    2  502    0  0.52787815829E+02 -0.25762073076E+03  0.31593468658E+03  0.41105926654E+03  0.00000000000E+00 0. -1.
         22    1    3    3    0    0 -0.70816764756E+02  0.10789320406E+03  0.10898983981E+03  0.16892229821E+03  0.00000000000E+00 0. -1.
         22    1    3    3    0    0  0.36765213473E+02  0.16294988948E+03  0.22410613274E+03  0.27951369579E+03  0.00000000000E+00 0. -1.
</event>
<event>
 7    1  0.7029100E-006  0.5448622E+02  0.7818608E-02  0.1487776E+00
          2   -1    0    0  502    0  0.00000000000E+00  0.00000000000E+00  0.19976580342E+04  0.19976580342E+04  0.00000000000E+00 0. -1.
          1   -1    0    0  501    0 -0.00000000000E+00 -0.00000000000E+00 -0.15612313047E+03  0.15612313047E+03  0.00000000000E+00 0. -1.
         25    2    1    2    0    0 -0.26245541758E+02 -0.74730169831E+02  0.79095478994E+01  0.14819111504E+03  0.12499847553E+03 0.  0.
          2    1    1    2  501    0  0.94543261375E+00  0.52308881133E+02 -0.77860678042E+02  0.93805106861E+02  0.00000000000E+00 0. -1.
          1    1    1    2  502    0  0.25300109144E+02  0.22421288698E+02  0.19114860339E+04  0.19117849428E+04  0.00000000000E+00 0. -1.
         22    1    3    3    0    0  0.50157708734E+02 -0.25240981235E+02 -0.44413904373E+01  0.56326093670E+02  0.00000000000E+00 0. -1.
         22    1    3    3    0    0 -0.76403250491E+02 -0.49489188595E+02  0.12350938337E+02  0.91865021370E+02  0.00000000000E+00 0. -1.
</event>
<event>
 7    1  0.7029100E-006  0.9066241E+02  0.7818608E-02  0.1403053E+00
          2   -1    0    0  502    0  0.00000000000E+00  0.00000000000E+00  0.14398623814E+03  0.14398623814E+03  0.00000000000E+00 0. -1.
          1   -1    0    0  501    0 -0.00000000000E+00 -0.00000000000E+00 -0.13539197975E+04  0.13539197975E+04  0.00000000000E+00 0. -1.
         25    2    1    2    0    0  0.24009562880E+01 -0.54241945811E+02  0.89958183899E+01  0.13658232907E+03  0.12500341831E+03 0.  0.
          2    1    1    2  501    0  0.67056217031E+01  0.91238195538E+02 -0.12832815361E+04  0.12865383300E+04  0.00000000000E+00 0. -1.
          1    1    1    2  502    0 -0.91065779911E+01 -0.36996249727E+02  0.64352158372E+02  0.74785376537E+02  0.00000000000E+00 0. -1.
         22    1    3    3    0    0  0.60568432167E+02 -0.68981730865E+01 -0.66361166364E+00  0.60963596905E+02  0.00000000000E+00 0.  1.
         22    1    3    3    0    0 -0.58167475879E+02 -0.47343772724E+02  0.96594300536E+01  0.75618732169E+02  0.00000000000E+00 0.  1.
</event>
<event>
 7    1  0.7029100E-006  0.5845370E+02  0.7818608E-02  0.1422407E+00
          2   -1    0    0  502    0  0.00000000000E+00  0.00000000000E+00  0.38626560229E+02  0.38626560229E+02  0.00000000000E+00 0. -1.
          1   -1    0    0  501    0 -0.00000000000E+00 -0.00000000000E+00 -0.11676154547E+04  0.11676154547E+04  0.00000000000E+00 0. -1.
         25    2    1    2    0    0 -0.10027132196E+03  0.63176882337E+01 -0.47074269278E+03  0.49731065239E+03  0.12499980395E+03 0.  0.
          2    1    1    2  501    0  0.46268356874E+02 -0.21073851313E+02 -0.65042023737E+03  0.65240428665E+03  0.00000000000E+00 0. -1.
          1    1    1    2  502    0  0.54002965088E+02  0.14756163079E+02 -0.78259642847E+01  0.56527075849E+02  0.00000000000E+00 0. -1.
         22    1    3    3    0    0 -0.15742879144E+01 -0.38324960478E+02 -0.50993319309E+02  0.63809087066E+02  0.00000000000E+00 0.  1.
         22    1    3    3    0    0 -0.98697034047E+02  0.44642648711E+02 -0.41974937347E+03  0.43350156533E+03  0.00000000000E+00 0.  1.
</event>
<event>
 7    1  0.7029100E-006  0.3589399E+02  0.7818608E-02  0.1542536E+00
          2   -1    0    0  502    0  0.00000000000E+00  0.00000000000E+00  0.32073982066E+03  0.32073982066E+03  0.00000000000E+00 0. -1.
          1   -1    0    0  501    0 -0.00000000000E+00 -0.00000000000E+00 -0.47693739894E+03  0.47693739894E+03  0.00000000000E+00 0. -1.
         25    2    1    2    0    0 -0.16233543400E+02 -0.68100049435E+02  0.78794697120E+02  0.16351088545E+03  0.12500424273E+03 0.  0.
          2    1    1    2  501    0  0.18686838443E+01  0.35644819387E+02 -0.43225999648E+03  0.43373119520E+03  0.00000000000E+00 0. -1.
          1    1    1    2  502    0  0.14364859556E+02  0.32455230048E+02  0.19726772109E+03  0.20043513896E+03  0.00000000000E+00 0. -1.
         22    1    3    3    0    0 -0.39945087568E+02 -0.63597924206E+02 -0.60067254949E+01  0.75341799390E+02  0.00000000000E+00 0.  1.
         22    1    3    3    0    0  0.23711544167E+02 -0.45021252291E+01  0.84801422615E+02  0.88169086055E+02  0.00000000000E+00 0.  1.
</event>
<event>
 7    1  0.7029100E-006  0.6147015E+02  0.7818608E-02  0.1415871E+00
          2   -1    0    0  502    0  0.00000000000E+00  0.00000000000E+00  0.13478526733E+03  0.13478526733E+03  0.00000000000E+00 0. -1.
          1   -1    0    0  501    0 -0.00000000000E+00 -0.00000000000E+00 -0.49256922879E+03  0.49256922879E+03  0.00000000000E+00 0. -1.
         25    2    1    2    0    0  0.71420557872E+02 -0.68087253678E+02 -0.11248187007E+03  0.19497201665E+03  0.12500058393E+03 0.  0.
          2    1    1    2  501    0 -0.56278649066E+02  0.19552468235E+02 -0.32905531138E+03  0.33440541757E+03  0.00000000000E+00 0. -1.
          1    1    1    2  502    0 -0.15141908806E+02  0.48534785443E+02  0.83753219984E+02  0.97977061897E+02  0.00000000000E+00 0. -1.
         22    1    3    3    0    0 -0.21710325567E+02  0.21122099907E+02 -0.21578624242E+02  0.37190299338E+02  0.00000000000E+00 0.  1.
         22    1    3    3    0    0  0.93130883439E+02 -0.89209353585E+02 -0.90903245824E+02  0.15778171731E+03  0.00000000000E+00 0.  1.
</event>
<event>
 7    1  0.7029100E-006  0.1388034E+03  0.7818608E-02  0.1264763E+00
          2   -1    0    0  502    0  0.00000000000E+00  0.00000000000E+00  0.89074768019E+02  0.89074768019E+02  0.00000000000E+00 0. -1.
          1   -1    0    0  501    0 -0.00000000000E+00 -0.00000000000E+00 -0.21185313104E+04  0.21185313104E+04  0.00000000000E+00 0. -1.
         25    2    1    2    0    0  0.11060031982E+03  0.74800512079E+02 -0.97514411437E+03  0.99214936127E+03  0.12500705543E+03 0.  0.
          2    1    1    2  501    0 -0.61327986616E+02  0.56916247004E+02 -0.10706190746E+04  0.10738835058E+04  0.00000000000E+00 0. -1.
          1    1    1    2  502    0 -0.49272333201E+02 -0.13171675908E+03  0.16306646623E+02  0.14157321133E+03  0.00000000000E+00 0. -1.
         22    1    3    3    0    0 -0.11210025203E+02  0.16751717498E+02 -0.43288066711E+03  0.43334969328E+03  0.00000000000E+00 0.  1.
         22    1    3    3    0    0  0.12181034502E+03  0.58048794582E+02 -0.54226344726E+03  0.55879966799E+03  0.00000000000E+00 0.  1.
</event>
<event>
 7    1  0.7029100E-006  0.5152976E+02  0.7818608E-02  0.1499068E+00
          2   -1    0    0  502    0  0.00000000000E+00  0.00000000000E+00  0.39226519911E+03  0.39226519911E+03  0.00000000000E+00 0. -1.
          1   -1    0    0  501    0 -0.00000000000E+00 -0.00000000000E+00 -0.26158449273E+04  0.26158449273E+04  0.00000000000E+00 0. -1.
         25    2    1    2    0    0  0.56805611892E+02 -0.54394738312E+02 -0.10162220352E+04  0.10268965950E+04  0.12499490759E+03 0.  0.
          2    1    1    2  501    0 -0.26013793574E+02  0.42379602919E+02 -0.15931910996E+04  0.15939669470E+04  0.00000000000E+00 0. -1.
          1    1    1    2  502    0 -0.30791818318E+02  0.12015135393E+02  0.38583340657E+03  0.38724658447E+03  0.00000000000E+00 0. -1.
         22    1    3    3    0    0 -0.63754067442E+01 -0.78435186439E+02 -0.61590301747E+03  0.62091001861E+03  0.00000000000E+00 0. -1.
         22    1    3    3    0    0  0.63181018637E+02  0.24040448127E+02 -0.40031901769E+03  0.40598657636E+03  0.00000000000E+00 0. -1.
</event>
<event>
 7    1  0.7029100E-006  0.1785444E+03  0.7818608E-02  0.1273231E+00
          2   -1    0    0  502    0  0.00000000000E+00  0.00000000000E+00  0.39347607233E+03  0.39347607233E+03  0.00000000000E+00 0. -1.
          1   -1    0    0  501    0 -0.00000000000E+00 -0.00000000000E+00 -0.12235943175E+04  0.12235943175E+04  0.00000000000E+00 0. -1.
         25    2    1    2    0    0  0.17391865126E+03  0.12133378516E+03  0.18023096257E+03  0.30508509904E+03  0.12499653240E+03 0.  0.
          2    1    1    2  501    0 -0.57910935837E+02 -0.15401637860E+02 -0.11192379234E+04  0.11208409415E+04  0.00000000000E+00 0. -1.
          1    1    1    2  502    0 -0.11600771542E+03 -0.10593214730E+03  0.10888871567E+03  0.19114434930E+03  0.00000000000E+00 0. -1.
         22    1    3    3    0    0  0.16604018741E+03  0.14211138107E+03  0.17955857551E+03  0.28285379704E+03  0.00000000000E+00 0.  1.
         22    1    3    3    0    0  0.78784638549E+01 -0.20777595904E+02  0.67238705420E+00  0.22231302000E+02  0.00000000000E+00 0.  1.
</event>
<event>
 7    1  0.7029100E-006  0.2144342E+03  0.7818608E-02  0.1245399E+00
          2   -1    0    0  502    0  0.00000000000E+00  0.00000000000E+00  0.23349298219E+04  0.23349298219E+04  0.00000000000E+00 0. -1.
          1   -1    0    0  501    0 -0.00000000000E+00 -0.00000000000E+00 -0.18178040729E+03  0.18178040729E+03  0.00000000000E+00 0. -1.
         25    2    1    2    0    0 -0.52044397378E+01  0.16835645778E+03  0.25982452752E+03  0.33391830388E+03  0.12498666128E+03 0.  0.
          2    1    1    2  501    0  0.36738086585E+02 -0.22589492287E+03 -0.53360461370E+02  0.23500115324E+03  0.00000000000E+00 0. -1.
          1    1    1    2  502    0 -0.31533646847E+02  0.57538465094E+02  0.19466853484E+04  0.19477907721E+04  0.00000000000E+00 0. -1.
         22    1    3    3    0    0  0.32880080908E+02  0.18607314125E+02  0.82330725152E+01  0.38666721383E+02  0.00000000000E+00 0. -1.
         22    1    3    3    0    0 -0.38084520646E+02  0.14974914365E+03  0.25159145500E+03  0.29525158250E+03  0.00000000000E+00 0. -1.
</event>
<event>
 7    1  0.7029100E-006  0.8737147E+02  0.7818608E-02  0.1423025E+00
          2   -1    0    0  502    0  0.00000000000E+00  0.00000000000E+00  0.22102489814E+04  0.22102489814E+04  0.00000000000E+00 0. -1.
          1   -1    0    0  501    0 -0.00000000000E+00 -0.00000000000E+00 -0.82668590451E+03  0.82668590451E+03  0.00000000000E+00 0. -1.
         25    2    1    2    0    0 -0.52040470440E+02 -0.41945457185E+02  0.40184106574E+03  0.42610885408E+03  0.12499952588E+03 0.  0.
          2    1    1    2  501    0  0.82901207773E+02  0.28028832300E+02 -0.81204139455E+03  0.81674319841E+03  0.00000000000E+00 0. -1.
          1    1    1    2  502    0 -0.30860737333E+02  0.13916624885E+02  0.17937634057E+04  0.17940828334E+04  0.00000000000E+00 0. -1.
         22    1    3    3    0    0 -0.80427239410E+02 -0.55824311314E+02  0.21021233880E+03  0.23189247930E+03  0.00000000000E+00 0. -1.
         22    1    3    3    0    0  0.28386768970E+02  0.13878854129E+02  0.19162872695E+03  0.19421637479E+03  0.00000000000E+00 0. -1.
</event>
<event>
 7    1  0.7029100E-006  0.7604421E+02  0.7818608E-02  0.1456088E+00
          2   -1    0    0  502    0  0.00000000000E+00  0.00000000000E+00  0.38972165583E+03  0.38972165583E+03  0.00000000000E+00 0. -1.
          1   -1    0    0  501    0 -0.00000000000E+00 -0.00000000000E+00 -0.31632905517E+03  0.31632905517E+03  0.00000000000E+00 0. -1.
         25    2    1    2    0    0 -0.92109873011E+02 -0.27427067251E+02 -0.10364510434E+03  0.18868845550E+03  0.12499821142E+03 0.  0.
          2    1    1    2  501    0  0.72627976441E+02  0.41219531327E+01 -0.16167679381E+03  0.17728846301E+03  0.00000000000E+00 0. -1.
          1    1    1    2  502    0  0.19481896570E+02  0.23305114118E+02  0.33871449881E+03  0.34007379249E+03  0.00000000000E+00 0. -1.
         22    1    3    3    0    0 -0.11088832722E+03 -0.35200112962E+02 -0.41853781268E+02  0.12364064086E+03  0.00000000000E+00 0.  1.
         22    1    3    3    0    0  0.18778454206E+02  0.77730457111E+01 -0.61791323072E+02  0.65047814636E+02  0.00000000000E+00 0.  1.
</event>
<event>
 7    1  0.7029100E-006  0.1682502E+03  0.7818608E-02  0.1341720E+00
          2   -1    0    0  502    0  0.00000000000E+00  0.00000000000E+00  0.67974892040E+03  0.67974892040E+03  0.00000000000E+00 0. -1.
          1   -1    0    0  501    0 -0.00000000000E+00 -0.00000000000E+00 -0.20688544274E+04  0.20688544274E+04  0.00000000000E+00 0. -1.
         25    2    1    2    0    0 -0.12836690645E+03 -0.13739928398E+03  0.39916093629E+03  0.45859682358E+03  0.12499987053E+03 0.  0.
          2    1    1    2  501    0  0.13240620741E+03  0.10358115333E+03 -0.20344975759E+04  0.20414310778E+04  0.00000000000E+00 0. -1.
          1    1    1    2  502    0 -0.40393009620E+01  0.33818130650E+02  0.24623113259E+03  0.24857544644E+03  0.00000000000E+00 0. -1.
         22    1    3    3    0    0 -0.81393944291E+02 -0.14406854821E+03  0.36302465484E+03  0.39895816920E+03  0.00000000000E+00 0. -1.
         22    1    3    3    0    0 -0.46972962159E+02  0.66692642299E+01  0.36136281443E+02  0.59638654377E+02  0.00000000000E+00 0. -1.
</event>
<event>
 7    1  0.7029100E-006  0.4808045E+02  0.7818608E-02  0.1483973E+00
          2   -1    0    0  502    0  0.00000000000E+00  0.00000000000E+00  0.79776744146E+03  0.79776744146E+03  0.00000000000E+00 0. -1.
          1   -1    0    0  501    0 -0.00000000000E+00 -0.00000000000E+00 -0.35679500384E+03  0.35679500384E+03  0.00000000000E+00 0. -1.
         25    2    1    2    0    0 -0.34872493237E+02 -0.65613342176E+01 -0.14833696564E+02  0.13078450162E+03  0.12500162167E+03 0.  0.
          2    1    1    2  501    0 -0.70231404762E+00  0.39337476621E+02 -0.28182723784E+03  0.28456022614E+03  0.00000000000E+00 0. -1.
          1    1    1    2  502    0  0.35574807285E+02 -0.32776142403E+02  0.73763337201E+03  0.73921771754E+03  0.00000000000E+00 0. -1.
         22    1    3    3    0    0 -0.32257659418E+02 -0.21595503298E+02  0.50497975236E+02  0.63694331433E+02  0.00000000000E+00 0.  1.
         22    1    3    3    0    0 -0.26148338195E+01  0.15034169081E+02 -0.65331671800E+02  0.67090170189E+02  0.00000000000E+00 0.  1.
</event>
<event>
 7    1  0.7029100E-006  0.5112346E+02  0.7818608E-02  0.1451238E+00
          2   -1    0    0  502    0  0.00000000000E+00  0.00000000000E+00  0.78726912468E+03  0.78726912468E+03  0.00000000000E+00 0. -1.
          1   -1    0    0  501    0 -0.00000000000E+00 -0.00000000000E+00 -0.13219673943E+03  0.13219673943E+03  0.00000000000E+00 0. -1.
         25    2    1    2    0    0 -0.10232980800E+02  0.33211119034E+02  0.43120370251E+03  0.45029910646E+03  0.12499983958E+03 0.  0.
          2    1    1    2  501    0 -0.36473190554E+02 -0.36438898448E+02 -0.11555221442E+03  0.12653221410E+03  0.00000000000E+00 0. -1.
          1    1    1    2  502    0  0.46706171354E+02  0.32277794131E+01  0.33942089716E+03  0.34263454354E+03  0.00000000000E+00 0. -1.
         22    1    3    3    0    0 -0.11447683458E+02  0.19156341207E+02  0.37697371524E+01  0.22632405599E+02  0.00000000000E+00 0.  1.
         22    1    3    3    0    0  0.12147026576E+01  0.14054777827E+02  0.42743396536E+03  0.42766670086E+03  0.00000000000E+00 0.  1.
</event>
<event>
 7    1  0.7029100E-006  0.2210772E+03  0.7818608E-02  0.1248549E+00
          2   -1    0    0  502    0  0.00000000000E+00  0.00000000000E+00  0.88055814781E+03  0.88055814781E+03  0.00000000000E+00 0. -1.
          1   -1    0    0  501    0 -0.00000000000E+00 -0.00000000000E+00 -0.31443509844E+03  0.31443509844E+03  0.00000000000E+00 0. -1.
         25    2    1    2    0    0  0.14087455578E+03 -0.93700826445E+02  0.28988547185E+03  0.35816720273E+03  0.12499869193E+03 0.  0.
          2    1    1    2  501    0 -0.20020344894E+03  0.11049454606E+03 -0.23147765282E+03  0.32538034580E+03  0.00000000000E+00 0. -1.
          1    1    1    2  502    0  0.59328893168E+02 -0.16793719610E+02  0.50771523034E+03  0.51144569771E+03  0.00000000000E+00 0. -1.
         22    1    3    3    0    0  0.44086102110E+02 -0.10120813392E+03  0.12449334444E+03  0.16638889260E+03  0.00000000000E+00 0. -1.
         22    1    3    3    0    0  0.96788453666E+02  0.75073074795E+01  0.16539212741E+03  0.19177831013E+03  0.00000000000E+00 0. -1.
</event>
<event>
 7    1  0.7029100E-006  0.4069131E+02  0.7818608E-02  0.1555612E+00
          2   -1    0    0  502    0  0.00000000000E+00  0.00000000000E+00  0.50045825833E+03  0.50045825833E+03  0.00000000000E+00 0. -1.
          1   -1    0    0  501    0 -0.00000000000E+00 -0.00000000000E+00 -0.23870399270E+03  0.23870399270E+03  0.00000000000E+00 0. -1.
         25    2    1    2    0    0 -0.28123741922E+02  0.45653781144E+00 -0.84218450357E+02  0.15332793427E+03  0.12500221902E+03 0.  0.
          2    1    1    2  501    0  0.31483481795E+02 -0.29042356529E+02 -0.11564379729E+03  0.12332135237E+03  0.00000000000E+00 0. -1.
          1    1    1    2  502    0 -0.33597398726E+01  0.28585818717E+02  0.46161651328E+03  0.46251296438E+03  0.00000000000E+00 0. -1.
         22    1    3    3    0    0 -0.17196611941E+02 -0.31538180462E+02  0.21820267843E+02  0.42029803447E+02  0.00000000000E+00 0. -1.
         22    1    3    3    0    0 -0.10927129982E+02  0.31994718273E+02 -0.10603871820E+03  0.11129813082E+03  0.00000000000E+00 0. -1.
</event>
<event>
 7    1  0.7029100E-006  0.6719775E+02  0.7818608E-02  0.1425565E+00
          2   -1    0    0  502    0  0.00000000000E+00  0.00000000000E+00  0.10678778470E+03  0.10678778470E+03  0.00000000000E+00 0. -1.
          1   -1    0    0  501    0 -0.00000000000E+00 -0.00000000000E+00 -0.56947293525E+03  0.56947293525E+03  0.00000000000E+00 0. -1.
         25    2    1    2    0    0  0.69626276301E+02  0.32251400556E+02 -0.89326351914E+02  0.17169471975E+03  0.12494762284E+03 0.  0.
          2    1    1    2  501    0 -0.34807005493E+02  0.25537571822E+02 -0.42021270275E+03  0.42242444385E+03  0.00000000000E+00 0. -1.
          1    1    1    2  502    0 -0.34819270808E+02 -0.57788972378E+02  0.46853904127E+02  0.82141556353E+02  0.00000000000E+00 0. -1.
         22    1    3    3    0    0  0.37031280800E+02 -0.36919872728E+02 -0.78707239291E+02  0.94494562154E+02  0.00000000000E+00 0. -1.
         22    1    3    3    0    0  0.32594995502E+02  0.69171273283E+02 -0.10619112624E+02  0.77200157592E+02  0.00000000000E+00 0. -1.
</event>
<event>
 7    1  0.7029100E-006  0.1105438E+03  0.7818608E-02  0.1327446E+00
          2   -1    0    0  502    0  0.00000000000E+00  0.00000000000E+00  0.82841180764E+03  0.82841180764E+03  0.00000000000E+00 0. -1.
          1   -1    0    0  501    0 -0.00000000000E+00 -0.00000000000E+00 -0.23987917699E+04  0.23987917699E+04  0.00000000000E+00 0. -1.
         25    2    1    2    0    0 -0.11039022378E+02  0.93176346489E+02 -0.16909111280E+03  0.23026258873E+03  0.12500145511E+03 0.  0.
          2    1    1    2  501    0 -0.58373860309E+02 -0.63798828144E+01 -0.21948498748E+04  0.21956352574E+04  0.00000000000E+00 0. -1.
          1    1    1    2  502    0  0.69412882688E+02 -0.86796463674E+02  0.79356102532E+03  0.80130573147E+03  0.00000000000E+00 0. -1.
         22    1    3    3    0    0  0.65014838490E+01 -0.14169450592E+02  0.11550171519E+02  0.19402295855E+02  0.00000000000E+00 0. -1.
         22    1    3    3    0    0 -0.17540506227E+02  0.10734579708E+03 -0.18064128432E+03  0.21086029288E+03  0.00000000000E+00 0. -1.
</event>
<event>
 7    1  0.7029100E-006  0.7163099E+02  0.7818608E-02  0.1433622E+00
          2   -1    0    0  502    0  0.00000000000E+00  0.00000000000E+00  0.23614043327E+03  0.23614043327E+03  0.00000000000E+00 0. -1.
          1   -1    0    0  501    0 -0.00000000000E+00 -0.00000000000E+00 -0.28940946673E+03  0.28940946673E+03  0.00000000000E+00 0. -1.
         25    2    1    2    0    0 -0.90492875152E+02  0.10751509492E+02 -0.12803769864E+03  0.20079639056E+03  0.12498393009E+03 0.  0.
          2    1    1    2  501    0  0.28889514793E+02  0.24836510993E+02 -0.11549883291E+03  0.12162005076E+03  0.00000000000E+00 0. -1.
          1    1    1    2  502    0  0.61603360359E+02 -0.35588020485E+02  0.19026749808E+03  0.20313345868E+03  0.00000000000E+00 0. -1.
         22    1    3    3    0    0 -0.10795402394E+01 -0.96485024138E+01  0.22509683059E+02  0.24514176253E+02  0.00000000000E+00 0. -1.
         22    1    3    3    0    0 -0.89413334913E+02  0.20400011905E+02 -0.15054738170E+03  0.17628221431E+03  0.00000000000E+00 0. -1.
</event>
<event>
 7    1  0.7029100E-006  0.1702474E+03  0.7818608E-02  0.1219820E+00
          2   -1    0    0  502    0  0.00000000000E+00  0.00000000000E+00  0.17027809271E+04  0.17027809271E+04  0.00000000000E+00 0. -1.
          1   -1    0    0  501    0 -0.00000000000E+00 -0.00000000000E+00 -0.49361182152E+03  0.49361182152E+03  0.00000000000E+00 0. -1.
         25    2    1    2    0    0  0.21482825256E+03  0.57310169904E+02  0.13001428633E+03  0.28629573456E+03  0.12500359717E+03 0.  0.
          2    1    1    2  501    0 -0.91085840904E+02  0.57092834674E+02 -0.40366374554E+03  0.41773273950E+03  0.00000000000E+00 0. -1.
          1    1    1    2  502    0 -0.12374241165E+03 -0.11440300458E+03  0.14828185648E+04  0.14923642745E+04  0.00000000000E+00 0. -1.
         22    1    3    3    0    0  0.23090613861E+02  0.58758487713E+02  0.27411765355E+02  0.68826893048E+02  0.00000000000E+00 0.  1.
         22    1    3    3    0    0  0.19173763870E+03 -0.14483178088E+01  0.10260252097E+03  0.21746884151E+03  0.00000000000E+00 0.  1.
</event>
<event>
 7    1  0.7029100E-006  0.8475534E+02  0.7818608E-02  0.1348276E+00
          2   -1    0    0  502    0  0.00000000000E+00  0.00000000000E+00  0.15187006325E+04  0.15187006325E+04  0.00000000000E+00 0. -1.
          1   -1    0    0  501    0 -0.00000000000E+00 -0.00000000000E+00 -0.22944515567E+03  0.22944515567E+03  0.00000000000E+00 0. -1.
         25    2    1    2    0    0 -0.12685162976E+01  0.11234838617E+03  0.21461000898E+03  0.27259085341E+03  0.12499819358E+03 0.  0.
          2    1    1    2  501    0 -0.47045938485E+02 -0.43249728701E+02 -0.19392625871E+03  0.20418436076E+03  0.00000000000E+00 0. -1.
          1    1    1    2  502    0  0.48314454782E+02 -0.69098657470E+02  0.12685717265E+04  0.12713705740E+04  0.00000000000E+00 0. -1.
         22    1    3    3    0    0 -0.11434133916E+02 -0.25808859751E+02  0.24602401228E+02  0.37444823490E+02  0.00000000000E+00 0. -1.
         22    1    3    3    0    0  0.10165617619E+02  0.13815724592E+03  0.19000760775E+03  0.23514602992E+03  0.00000000000E+00 0. -1.
</event>
<event>
 7    1  0.7029100E-006  0.9339877E+02  0.7818608E-02  0.1314325E+00
          2   -1    0    0  502    0  0.00000000000E+00  0.00000000000E+00  0.24785845530E+03  0.24785845530E+03  0.00000000000E+00 0. -1.
          1   -1    0    0  501    0 -0.00000000000E+00 -0.00000000000E+00 -0.86706069728E+03  0.86706069728E+03  0.00000000000E+00 0. -1.
         25    2    1    2    0    0  0.15224657813E+01  0.18440344218E+02  0.75003880689E+02  0.14694645205E+03  0.12500125382E+03 0.  0.
          2    1    1    2  501    0 -0.39483697283E+02 -0.86730480673E+02 -0.81694026983E+03  0.82247950923E+03  0.00000000000E+00 0. -1.
          1    1    1    2  502    0  0.37961231502E+02  0.68290136455E+02  0.12273414716E+03  0.14549319129E+03  0.00000000000E+00 0. -1.
         22    1    3    3    0    0  0.25618443058E+02  0.44653549970E+02 -0.12067873537E+02  0.52876060002E+02  0.00000000000E+00 0.  1.
         22    1    3    3    0    0 -0.24095977276E+02 -0.26213205751E+02  0.87071754227E+02  0.94070392052E+02  0.00000000000E+00 0.  1.
</event>
<event>
 7    1  0.7029100E-006  0.7116879E+02  0.7818608E-02  0.1367526E+00
          2   -1    0    0  502    0  0.00000000000E+00  0.00000000000E+00  0.35923745355E+04  0.35923745355E+04  0.00000000000E+00 0. -1.
          1   -1    0    0  501    0 -0.00000000000E+00 -0.00000000000E+00 -0.17888676263E+03  0.17888676263E+03  0.00000000000E+00 0. -1.
         25    2    1    2    0    0  0.49659556299E+01  0.38639865963E+02  0.62025374214E+03  0.63392204450E+03  0.12499901561E+03 0.  0.
          2    1    1    2  501    0 -0.67867874193E+02 -0.23472604965E+02 -0.16418993154E+03  0.17920754769E+03  0.00000000000E+00 0. -1.
          1    1    1    2  502    0  0.62901918563E+02 -0.15167260998E+02  0.29574239623E+04  0.29581317059E+04  0.00000000000E+00 0. -1.
         22    1    3    3    0    0 -0.27507002315E+02 -0.36047029800E+02  0.15127607521E+03  0.15792553456E+03  0.00000000000E+00 0. -1.
         22    1    3    3    0    0  0.32472957945E+02  0.74686895763E+02  0.46897766693E+03  0.47599650994E+03  0.00000000000E+00 0. -1.
</event>
<event>
 7    1  0.7029100E-006  0.3689340E+02  0.7818608E-02  0.1587935E+00
          2   -1    0    0  502    0  0.00000000000E+00  0.00000000000E+00  0.24196638686E+02  0.24196638686E+02  0.00000000000E+00 0. -1.
          1   -1    0    0  501    0 -0.00000000000E+00 -0.00000000000E+00 -0.64859747974E+03  0.64859747974E+03  0.00000000000E+00 0. -1.
         25    2    1    2    0    0  0.52852592136E+02 -0.13959155925E+02 -0.20778904516E+03  0.24857212379E+03  0.12499423550E+03 0.  0.
          2    1    1    2  501    0 -0.25844180124E+02 -0.22930705437E+01 -0.34506791480E+03  0.34604197093E+03  0.00000000000E+00 0. -1.
          1    1    1    2  502    0 -0.27008412012E+02  0.16252226469E+02 -0.71543881097E+02  0.78180023709E+02  0.00000000000E+00 0. -1.
         22    1    3    3    0    0 -0.18915709762E+01 -0.62352166229E+02 -0.11061770521E+03  0.12699467461E+03  0.00000000000E+00 0. -1.
         22    1    3    3    0    0  0.54744163112E+02  0.48393010304E+02 -0.97171339949E+02  0.12157744918E+03  0.00000000000E+00 0. -1.
</event>
<event>
 7    1  0.7029100E-006  0.1439883E+03  0.7818608E-02  0.1302188E+00
          2   -1    0    0  502    0  0.00000000000E+00  0.00000000000E+00  0.23119345105E+04  0.23119345105E+04  0.00000000000E+00 0. -1.
          1   -1    0    0  501    0 -0.00000000000E+00 -0.00000000000E+00 -0.33254515424E+04  0.33254515424E+04  0.00000000000E+00 0. -1.
         25    2    1    2    0    0 -0.86462045899E+02 -0.41866547989E+02 -0.41718294478E+03  0.44597621355E+03  0.12499872164E+03 0.  0.
          2    1    1    2  501    0  0.12624748598E+03  0.82122123232E+02 -0.28915633353E+04  0.28954828600E+04  0.00000000000E+00 0. -1.
          1    1    1    2  502    0 -0.39785440085E+02 -0.40255575242E+02  0.22952292482E+04  0.22959269793E+04  0.00000000000E+00 0. -1.
         22    1    3    3    0    0  0.13346732221E+02  0.21841920193E+02 -0.16976658028E+03  0.17168545809E+03  0.00000000000E+00 0. -1.
         22    1    3    3    0    0 -0.99808778120E+02 -0.63708468182E+02 -0.24741636449E+03  0.27429075545E+03  0.00000000000E+00 0. -1.
</event>
<event>
 7    1  0.7029100E-006  0.3731311E+02  0.7818608E-02  0.1537736E+00
          2   -1    0    0  502    0  0.00000000000E+00  0.00000000000E+00  0.53694165503E+02  0.53694165503E+02  0.00000000000E+00 0. -1.
          1   -1    0    0  501    0 -0.00000000000E+00 -0.00000000000E+00 -0.97916940601E+03  0.97916940601E+03  0.00000000000E+00 0. -1.
         25    2    1    2    0    0 -0.80335637314E+01 -0.70258023282E+02 -0.33249656715E+03  0.36218504968E+03  0.12499326008E+03 0.  0.
          2    1    1    2  501    0 -0.20156114150E+01  0.35167765655E+02 -0.62264604792E+03  0.62364167229E+03  0.00000000000E+00 0. -1.
          1    1    1    2  502    0  0.10049175146E+02  0.35090257627E+02  0.29667374559E+02  0.47036849540E+02  0.00000000000E+00 0. -1.
         22    1    3    3    0    0  0.26816918702E+02  0.17292834641E+02 -0.18086483627E+03  0.18365804708E+03  0.00000000000E+00 0. -1.
         22    1    3    3    0    0 -0.34850482433E+02 -0.87550857922E+02 -0.15163173088E+03  0.17852700260E+03  0.00000000000E+00 0. -1.
</event>
<event>
 7    1  0.7029100E-006  0.5087639E+02  0.7818608E-02  0.1482382E+00
          2   -1    0    0  502    0  0.00000000000E+00  0.00000000000E+00  0.23885006585E+04  0.23885006585E+04  0.00000000000E+00 0. -1.
          1   -1    0    0  501    0 -0.00000000000E+00 -0.00000000000E+00 -0.10881968871E+04  0.10881968871E+04  0.00000000000E+00 0. -1.
         25    2    1    2    0    0  0.57735563668E+02  0.56459184795E+02  0.23498032938E+02  0.15065940446E+03  0.12500025497E+03 0.  0.
          2    1    1    2  501    0 -0.46306022718E+02 -0.20638402203E+02 -0.10238353797E+04  0.10250897893E+04  0.00000000000E+00 0. -1.
          1    1    1    2  502    0 -0.11429540950E+02 -0.35820782592E+02  0.23006411182E+04  0.23009483518E+04  0.00000000000E+00 0. -1.
         22    1    3    3    0    0 -0.17315574748E+02  0.70242692190E+02  0.14969363257E+02  0.73877918023E+02  0.00000000000E+00 0. -1.
         22    1    3    3    0    0  0.75051138416E+02 -0.13783507396E+02  0.85286696806E+01  0.76781486442E+02  0.00000000000E+00 0. -1.
</event>
<event>
 7    1  0.7029100E-006  0.7044372E+02  0.7818608E-02  0.1415162E+00
          2   -1    0    0  502    0  0.00000000000E+00  0.00000000000E+00  0.23137416208E+03  0.23137416208E+03  0.00000000000E+00 0. -1.
          1   -1    0    0  501    0 -0.00000000000E+00 -0.00000000000E+00 -0.51412001540E+03  0.51412001540E+03  0.00000000000E+00 0. -1.
         25    2    1    2    0    0 -0.78950995667E+02 -0.23231799677E+02 -0.25851790317E+02  0.15187659903E+03  0.12500084015E+03 0.  0.
          2    1    1    2  501    0  0.46045044781E+02  0.53351675833E+02 -0.41930779689E+03  0.42518887097E+03  0.00000000000E+00 0. -1.
          1    1    1    2  502    0  0.32905950885E+02 -0.30119876157E+02  0.16241373390E+03  0.16842870747E+03  0.00000000000E+00 0. -1.
         22    1    3    3    0    0 -0.53156610053E+02 -0.47268893280E+02  0.36722113006E+02  0.80053026476E+02  0.00000000000E+00 0.  1.
         22    1    3    3    0    0 -0.25794385613E+02  0.24037093603E+02 -0.62573903322E+02  0.71823572558E+02  0.00000000000E+00 0.  1.
</event>
<event>
 7    1  0.7029100E-006  0.8557622E+02  0.7818608E-02  0.1418192E+00
          2   -1    0    0  502    0  0.00000000000E+00  0.00000000000E+00  0.94114503808E+03  0.94114503808E+03  0.00000000000E+00 0. -1.
          1   -1    0    0  501    0 -0.00000000000E+00 -0.00000000000E+00 -0.12398167764E+03  0.12398167764E+03  0.00000000000E+00 0. -1.
         25    2    1    2    0    0  0.13347431233E+02 -0.85147423301E+02  0.48473316387E+02  0.15938372960E+03  0.12500109298E+03 0.  0.
          2    1    1    2  501    0  0.22506497026E+02  0.84023819904E+02 -0.40363566142E+02  0.95894536817E+02  0.00000000000E+00 0. -1.
          1    1    1    2  502    0 -0.35853928259E+02  0.11236033977E+01  0.80905361020E+03  0.80984844930E+03  0.00000000000E+00 0. -1.
         22    1    3    3    0    0 -0.36206186309E+02 -0.74743751592E+02 -0.81179800866E+01  0.83447096592E+02  0.00000000000E+00 0. -1.
         22    1    3    3    0    0  0.49553617541E+02 -0.10403671710E+02  0.56591296474E+02  0.75936633011E+02  0.00000000000E+00 0. -1.
</event>
<event>
 7    1  0.7029100E-006  0.3892607E+02  0.7818608E-02  0.1528938E+00
          2   -1    0    0  502    0  0.00000000000E+00  0.00000000000E+00  0.13147987929E+04  0.13147987929E+04  0.00000000000E+00 0. -1.
          1   -1    0    0  501    0 -0.00000000000E+00 -0.00000000000E+00 -0.24267845886E+03  0.24267845886E+03  0.00000000000E+00 0. -1.
         25    2    1    2    0    0  0.35493688387E+02  0.65543533586E+02 -0.18769086242E+02  0.14677519819E+03  0.12503968768E+03 0.  0.
          2    1    1    2  501    0 -0.18015911807E+02 -0.30906858438E+02 -0.15760034335E+03  0.16160963832E+03  0.00000000000E+00 0. -1.
          1    1    1    2  502    0 -0.17477776580E+02 -0.34636675148E+02  0.12484897636E+04  0.12490924152E+04  0.00000000000E+00 0. -1.
         22    1    3    3    0    0 -0.19458898250E+02 -0.27164899652E+02  0.10631169069E+02  0.35065684793E+02  0.00000000000E+00 0.  1.
         22    1    3    3    0    0  0.54952586636E+02  0.92708433238E+02 -0.29400255311E+02  0.11170951340E+03  0.00000000000E+00 0.  1.
</event>
<event>
 7    1  0.7029100E-006  0.1625501E+03  0.7818608E-02  0.1327972E+00
          2   -1    0    0  502    0  0.00000000000E+00  0.00000000000E+00  0.43232098637E+03  0.43232098637E+03  0.00000000000E+00 0. -1.
          1   -1    0    0  501    0 -0.00000000000E+00 -0.00000000000E+00 -0.14347791481E+04  0.14347791481E+04  0.00000000000E+00 0. -1.
         25    2    1    2    0    0 -0.17643801383E+03 -0.23651824802E+02 -0.83850335598E+02  0.23312367262E+03  0.12500394560E+03 0.  0.
          2    1    1    2  501    0  0.16121842472E+03 -0.13068134084E+02 -0.12700426145E+04  0.12803009018E+04  0.00000000000E+00 0. -1.
          1    1    1    2  502    0  0.15219589108E+02  0.36719958887E+02  0.35143478837E+03  0.35367556001E+03  0.00000000000E+00 0. -1.
         22    1    3    3    0    0 -0.63501631338E+02 -0.22759857890E+02  0.29035598919E+02  0.73440685715E+02  0.00000000000E+00 0. -1.
         22    1    3    3    0    0 -0.11293638249E+03 -0.89196691253E+00 -0.11288593452E+03  0.15968298690E+03  0.00000000000E+00 0. -1.
</event>
<event>
 7    1  0.7029100E-006  0.7078192E+02  0.7818608E-02  0.1399684E+00
          2   -1    0    0  502    0  0.00000000000E+00  0.00000000000E+00  0.65214706215E+03  0.65214706215E+03  0.00000000000E+00 0. -1.
          1   -1    0    0  501    0 -0.00000000000E+00 -0.00000000000E+00 -0.39592529277E+03  0.39592529277E+03  0.00000000000E+00 0. -1.
         25    2    1    2    0    0 -0.21390355318E+02  0.62954202284E+01 -0.29149421104E+02  0.13027538368E+03  0.12499922890E+03 0.  0.
          2    1    1    2  501    0 -0.49934490387E+02  0.42916185409E+01 -0.31204539515E+03  0.31604461703E+03  0.00000000000E+00 0. -1.
          1    1    1    2  502    0  0.71324845704E+02 -0.10587038769E+02  0.59741658563E+03  0.60175235420E+03  0.00000000000E+00 0. -1.
         22    1    3    3    0    0 -0.34142203855E+02 -0.39344051453E+02  0.25452145496E+02  0.57978066363E+02  0.00000000000E+00 0.  1.
         22    1    3    3    0    0  0.12751848537E+02  0.45639471682E+02 -0.54601566600E+02  0.72297317320E+02  0.00000000000E+00 0.  1.
</event>
<event>
 7    1  0.7029100E-006  0.5186205E+02  0.7818608E-02  0.1559768E+00
          2   -1    0    0  502    0  0.00000000000E+00  0.00000000000E+00  0.16116506709E+03  0.16116506709E+03  0.00000000000E+00 0. -1.
          1   -1    0    0  501    0 -0.00000000000E+00 -0.00000000000E+00 -0.10756002702E+04  0.10756002702E+04  0.00000000000E+00 0. -1.
         25    2    1    2    0    0 -0.69600661999E+02 -0.23759235837E+02 -0.53235763827E+03  0.55175981996E+03  0.12500196182E+03 0.  0.
          2    1    1    2  501    0  0.20063882093E+02  0.90100906387E+01 -0.52889697201E+03  0.52935408575E+03  0.00000000000E+00 0. -1.
          1    1    1    2  502    0  0.49536779906E+02  0.14749145198E+02  0.14681940715E+03  0.15565143161E+03  0.00000000000E+00 0. -1.
         22    1    3    3    0    0 -0.43736770024E+01  0.42263395075E+02 -0.86832586865E+02  0.96670687157E+02  0.00000000000E+00 0. -1.
         22    1    3    3    0    0 -0.65226984997E+02 -0.66022630912E+02 -0.44552505141E+03  0.45508913280E+03  0.00000000000E+00 0. -1.
</event>
<event>
 7    1  0.7029100E-006  0.1300693E+03  0.7818608E-02  0.1249932E+00
          2   -1    0    0  502    0  0.00000000000E+00  0.00000000000E+00  0.31502482102E+02  0.31502482102E+02  0.00000000000E+00 0. -1.
          1   -1    0    0  501    0 -0.00000000000E+00 -0.00000000000E+00 -0.18587263100E+04  0.18587263100E+04  0.00000000000E+00 0. -1.
         25    2    1    2    0    0 -0.65367442661E+02 -0.35649263934E+02 -0.38575613773E+03  0.41228252993E+03  0.12500125644E+03 0.  0.
          2    1    1    2  501    0  0.15288404762E+03 -0.19348817995E+02 -0.12576838546E+04  0.12670898101E+04  0.00000000000E+00 0. -1.
          1    1    1    2  502    0 -0.87516604956E+02  0.54998081930E+02 -0.18378383558E+03  0.21085645207E+03  0.00000000000E+00 0. -1.
         22    1    3    3    0    0 -0.93135904552E+02 -0.57979096721E+02 -0.29915690321E+03  0.31863886315E+03  0.00000000000E+00 0. -1.
         22    1    3    3    0    0  0.27768461891E+02  0.22329832787E+02 -0.86599234529E+02  0.93643666786E+02  0.00000000000E+00 0. -1.
</event>
<event>
 7    1  0.7029100E-006  0.6110099E+02  0.7818608E-02  0.1520570E+00
          2   -1    0    0  502    0  0.00000000000E+00  0.00000000000E+00  0.91092112955E+03  0.91092112955E+03  0.00000000000E+00 0. -1.
          1   -1    0    0  501    0 -0.00000000000E+00 -0.00000000000E+00 -0.20914329799E+02  0.20914329799E+02  0.00000000000E+00 0. -1.
         25    2    1    2    0    0  0.15387783291E+01 -0.68484736949E+02  0.53230851364E+03  0.55106111338E+03  0.12499387967E+03 0.  0.
          2    1    1    2  501    0 -0.21025941946E+02  0.11765645127E+02  0.71495819043E+01  0.25132392671E+02  0.00000000000E+00 0. -1.
          1    1    1    2  502    0  0.19487163617E+02  0.56719091822E+02  0.35054870421E+03  0.35564195330E+03  0.00000000000E+00 0. -1.
         22    1    3    3    0    0  0.36047772677E+02 -0.87876554017E+02  0.28013054263E+03  0.29579528660E+03  0.00000000000E+00 0.  1.
         22    1    3    3    0    0 -0.34508994348E+02  0.19391817068E+02  0.25217797101E+03  0.25526582678E+03  0.00000000000E+00 0.  1.
</event>
<event>
 7    1  0.7029100E-006  0.1148744E+03  0.7818608E-02  0.1256388E+00
          2   -1    0    0  502    0  0.00000000000E+00  0.00000000000E+00  0.16425623111E+04  0.16425623111E+04  0.00000000000E+00 0. -1.
          1   -1    0    0  501    0 -0.00000000000E+00 -0.00000000000E+00 -0.45991270779E+03  0.45991270779E+03  0.00000000000E+00 0. -1.
         25    2    1    2    0    0 -0.14685788138E+02  0.42176442346E+02  0.11746500021E+03  0.17725080874E+03  0.12500119304E+03 0.  0.
          2    1    1    2  501    0  0.11989800761E+03 -0.10898938099E+02 -0.41952748131E+03  0.43646033801E+03  0.00000000000E+00 0. -1.
          1    1    1    2  502    0 -0.10521221947E+03 -0.31277504248E+02  0.14847120844E+04  0.14887638721E+04  0.00000000000E+00 0. -1.
         22    1    3    3    0    0 -0.57136147723E+02  0.36549494099E+00  0.15581898345E+02  0.59223884702E+02  0.00000000000E+00 0.  1.
         22    1    3    3    0    0  0.42450359584E+02  0.41810947405E+02  0.10188310186E+03  0.11802692404E+03  0.00000000000E+00 0.  1.
</event>
<event>
 7    1  0.7029100E-006  0.9920729E+02  0.7818608E-02  0.1295047E+00
          2   -1    0    0  502    0  0.00000000000E+00  0.00000000000E+00  0.10031104481E+04  0.10031104481E+04  0.00000000000E+00 0. -1.
          1   -1    0    0  501    0 -0.00000000000E+00 -0.00000000000E+00 -0.66723231521E+03  0.66723231521E+03  0.00000000000E+00 0. -1.
         25    2    1    2    0    0 -0.14606736207E+03  0.99559956697E+02 -0.20184252789E+03  0.29599461791E+03  0.12499819410E+03 0.  0.
          2    1    1    2  501    0  0.66692456203E+02 -0.62151857933E+02 -0.41129876015E+03  0.42128067516E+03  0.00000000000E+00 0. -1.
          1    1    1    2  502    0  0.79374905870E+02 -0.37408098764E+02  0.94901942091E+03  0.95306747023E+03  0.00000000000E+00 0. -1.
         22    1    3    3    0    0 -0.13860019914E+03  0.24802570656E+02 -0.14167198053E+03  0.19974016316E+03  0.00000000000E+00 0.  1.
         22    1    3    3    0    0 -0.74671629363E+01  0.74757386041E+02 -0.60170547359E+02  0.96254454752E+02  0.00000000000E+00 0.  1.
</event>
<event>
 7    1  0.7029100E-006  0.1085565E+03  0.7818608E-02  0.1318669E+00
          2   -1    0    0  502    0  0.00000000000E+00  0.00000000000E+00  0.72516855624E+03  0.72516855624E+03  0.00000000000E+00 0. -1.
          1   -1    0    0  501    0 -0.00000000000E+00 -0.00000000000E+00 -0.74500646918E+02  0.74500646918E+02  0.00000000000E+00 0. -1.
         25    2    1    2    0    0 -0.73653841228E+02  0.32360487934E+02  0.17129677325E+03  0.22680375355E+03  0.12500107436E+03 0.  0.
          2    1    1    2  501    0  0.77263309318E+02 -0.96909629994E+02  0.42181032439E+02  0.13092110162E+03  0.00000000000E+00 0. -1.
          1    1    1    2  502    0 -0.36094680899E+01  0.64549142061E+02  0.43719010363E+03  0.44194434798E+03  0.00000000000E+00 0. -1.
         22    1    3    3    0    0 -0.23298872314E+02  0.74378278076E+02  0.12194702330E+03  0.14472747559E+03  0.00000000000E+00 0.  1.
         22    1    3    3    0    0 -0.50354968915E+02 -0.42017790142E+02  0.49349749953E+02  0.82076277957E+02  0.00000000000E+00 0.  1.
</event>
<event>
 7    1  0.7029100E-006  0.6241742E+02  0.7818608E-02  0.1491156E+00
          2   -1    0    0  502    0  0.00000000000E+00  0.00000000000E+00  0.28428748990E+03  0.28428748990E+03  0.00000000000E+00 0. -1.
          1   -1    0    0  501    0 -0.00000000000E+00 -0.00000000000E+00 -0.25037244781E+03  0.25037244781E+03  0.00000000000E+00 0. -1.
         25    2    1    2    0    0  0.48945387423E+02 -0.41131830191E+01 -0.42988689052E+02  0.14101898771E+03  0.12500303310E+03 0.  0.
          2    1    1    2  501    0  0.10019319717E+02  0.27025040235E+02 -0.15274401408E+03  0.15543961337E+03  0.00000000000E+00 0. -1.
          1    1    1    2  502    0 -0.58964707139E+02 -0.22911857216E+02  0.22964774522E+03  0.23820133664E+03  0.00000000000E+00 0. -1.
         22    1    3    3    0    0  0.90819939164E+02 -0.96117863840E+00 -0.38975701694E+02  0.98834662627E+02  0.00000000000E+00 0.  1.
         22    1    3    3    0    0 -0.41874551741E+02 -0.31520043807E+01 -0.40129873580E+01  0.42184325082E+02  0.00000000000E+00 0.  1.
</event>
<event>
 7    1  0.7029100E-006  0.1669000E+03  0.7818608E-02  0.1234146E+00
          2   -1    0    0  502    0  0.00000000000E+00  0.00000000000E+00  0.73464724969E+03  0.73464724969E+03  0.00000000000E+00 0. -1.
          1   -1    0    0  501    0 -0.00000000000E+00 -0.00000000000E+00 -0.57519092999E+03  0.57519092999E+03  0.00000000000E+00 0. -1.
         25    2    1    2    0    0  0.24786719200E+02  0.23283300027E+03 -0.16217119837E+03  0.31104593355E+03  0.12499795091E+03 0.  0.
          2    1    1    2  501    0  0.44205057261E+02 -0.83533482029E+02 -0.32142963501E+03  0.33503572940E+03  0.00000000000E+00 0. -1.
          1    1    1    2  502    0 -0.68991776461E+02 -0.14929951824E+03  0.64305715309E+03  0.66375651673E+03  0.00000000000E+00 0. -1.
         22    1    3    3    0    0 -0.48512735623E+02  0.10544968519E+03 -0.51078518394E+02  0.12681536447E+03  0.00000000000E+00 0. -1.
         22    1    3    3    0    0  0.73299454823E+02  0.12738331509E+03 -0.11109267998E+03  0.18423056908E+03  0.00000000000E+00 0. -1.
</event>
<event>
 7    1  0.7029100E-006  0.6216350E+02  0.7818608E-02  0.1424157E+00
          2   -1    0    0  502    0  0.00000000000E+00  0.00000000000E+00  0.19442918363E+02  0.19442918363E+02  0.00000000000E+00 0. -1.
          1   -1    0    0  501    0 -0.00000000000E+00 -0.00000000000E+00 -0.18413427489E+04  0.18413427489E+04  0.00000000000E+00 0. -1.
         25    2    1    2    0    0  0.41445411079E+02  0.42049232780E+02 -0.95120270924E+03  0.96119587490E+03  0.12500022310E+03 0.  0.
          2    1    1    2  501    0 -0.41930992754E+02  0.21608304344E+02 -0.81083394932E+03  0.81220491278E+03  0.00000000000E+00 0. -1.
          1    1    1    2  502    0  0.48558167508E+00 -0.63657537124E+02 -0.59863171989E+02  0.87384879600E+02  0.00000000000E+00 0. -1.
         22    1    3    3    0    0  0.47278833841E+02  0.82727055900E+02 -0.58715547208E+03  0.59483661816E+03  0.00000000000E+00 0.  1.
         22    1    3    3    0    0 -0.58334227617E+01 -0.40677823121E+02 -0.36404723716E+03  0.36635925674E+03  0.00000000000E+00 0.  1.
</event>
<event>
 7    1  0.7029100E-006  0.5618721E+02  0.7818608E-02  0.1472231E+00
          2   -1    0    0  502    0  0.00000000000E+00  0.00000000000E+00  0.30581066638E+04  0.30581066638E+04  0.00000000000E+00 0. -1.
          1   -1    0    0  501    0 -0.00000000000E+00 -0.00000000000E+00 -0.95666858660E+02  0.95666858660E+02  0.00000000000E+00 0. -1.
         25    2    1    2    0    0  0.42870694901E+02  0.70570896601E+02  0.14741792928E+04  0.14817718297E+04  0.12500008060E+03 0.  0.
          2    1    1    2  501    0 -0.15793249303E+01 -0.36552669573E+02 -0.87756005941E+02  0.95077381637E+02  0.00000000000E+00 0. -1.
          1    1    1    2  502    0 -0.41291369970E+02 -0.34018227028E+02  0.15760165183E+04  0.15769243111E+04  0.00000000000E+00 0. -1.
         22    1    3    3    0    0  0.22643114104E+02  0.95845313113E+02  0.13449024349E+04  0.13485034647E+04  0.00000000000E+00 0. -1.
         22    1    3    3    0    0  0.20227580796E+02 -0.25274416512E+02  0.12927685785E+03  0.13326836508E+03  0.00000000000E+00 0. -1.
</event>
<event>
 7    1  0.7029100E-006  0.1665900E+03  0.7818608E-02  0.1272274E+00
          2   -1    0    0  502    0  0.00000000000E+00  0.00000000000E+00  0.19821298562E+04  0.19821298562E+04  0.00000000000E+00 0. -1.
          1   -1    0    0  501    0 -0.00000000000E+00 -0.00000000000E+00 -0.18627019526E+04  0.18627019526E+04  0.00000000000E+00 0. -1.
         25    2    1    2    0    0 -0.13813262700E+03 -0.16509548723E+03 -0.69290232994E+03  0.73625773082E+03  0.12499865922E+03 0.  0.
          2    1    1    2  501    0  0.82915472113E+02  0.13114651791E+03 -0.11423401304E+04  0.11528292841E+04  0.00000000000E+00 0. -1.
          1    1    1    2  502    0  0.55217154892E+02  0.33948969316E+02  0.19546703641E+04  0.19557447939E+04  0.00000000000E+00 0. -1.
         22    1    3    3    0    0 -0.10970942518E+03 -0.57057700856E+02 -0.48182450146E+03  0.49744003599E+03  0.00000000000E+00 0. -1.
         22    1    3    3    0    0 -0.28423201820E+02 -0.10803778637E+03 -0.21107782848E+03  0.23881769482E+03  0.00000000000E+00 0. -1.
</event>
<event>
 7    1  0.7029100E-006  0.6530765E+02  0.7818608E-02  0.1513395E+00
          2   -1    0    0  502    0  0.00000000000E+00  0.00000000000E+00  0.19193040381E+03  0.19193040381E+03  0.00000000000E+00 0. -1.
          1   -1    0    0  501    0 -0.00000000000E+00 -0.00000000000E+00 -0.27814435756E+03  0.27814435756E+03  0.00000000000E+00 0. -1.
         25    2    1    2    0    0  0.22349695644E+02 -0.74477713511E+02  0.12263361469E+02  0.14772396741E+03  0.12500216721E+03 0.  0.
          2    1    1    2  501    0 -0.21179620370E+02  0.10533794445E+02 -0.20052673654E+03  0.20191708500E+03  0.00000000000E+00 0. -1.
          1    1    1    2  502    0 -0.11700752742E+01  0.63943919066E+02  0.10204942133E+03  0.12043370897E+03  0.00000000000E+00 0. -1.
         22    1    3    3    0    0 -0.17675427811E+02 -0.60541760038E+02 -0.44279174566E+02  0.77060825047E+02  0.00000000000E+00 0. -1.
         22    1    3    3    0    0  0.40025123455E+02 -0.13935953473E+02  0.56542536034E+02  0.70663142359E+02  0.00000000000E+00 0. -1.
</event>
<event>
 7    1  0.7029100E-006  0.8132899E+02  0.7818608E-02  0.1356408E+00
          2   -1    0    0  502    0  0.00000000000E+00  0.00000000000E+00  0.25452181129E+04  0.25452181129E+04  0.00000000000E+00 0. -1.
          1   -1    0    0  501    0 -0.00000000000E+00 -0.00000000000E+00 -0.18485250424E+02  0.18485250424E+02  0.00000000000E+00 0. -1.
         25    2    1    2    0    0  0.40233268916E+02  0.44977805825E+02  0.36509979122E+03  0.39059463207E+03  0.12499836043E+03 0.  0.
          2    1    1    2  501    0 -0.82483396197E+02 -0.90556535970E+02  0.73613223092E+03  0.74625374924E+03  0.00000000000E+00 0. -1.
          1    1    1    2  502    0  0.42250127281E+02  0.45578730145E+02  0.14255008404E+04  0.14268549820E+04  0.00000000000E+00 0. -1.
         22    1    3    3    0    0  0.73678823202E+02  0.48420307796E+02  0.15933432513E+03  0.18210030851E+03  0.00000000000E+00 0. -1.
         22    1    3    3    0    0 -0.33445554286E+02 -0.34425019711E+01  0.20576546609E+03  0.20849432356E+03  0.00000000000E+00 0. -1.
</event>
<event>
 7    1  0.7029100E-006  0.1375326E+03  0.7818608E-02  0.1345406E+00
          2   -1    0    0  502    0  0.00000000000E+00  0.00000000000E+00  0.21024082151E+04  0.21024082151E+04  0.00000000000E+00 0. -1.
          1   -1    0    0  501    0 -0.00000000000E+00 -0.00000000000E+00 -0.13437944894E+03  0.13437944894E+03  0.00000000000E+00 0. -1.
         25    2    1    2    0    0 -0.11847415087E+03 -0.21319248516E+02  0.34602059480E+03  0.38709894330E+03  0.12499882040E+03 0.  0.
          2    1    1    2  501    0  0.13940444368E+03 -0.13192805550E+02 -0.70448893273E+02  0.15675042456E+03  0.00000000000E+00 0. -1.
          1    1    1    2  502    0 -0.20930292812E+02  0.34512054066E+02  0.16924570646E+04  0.16929382961E+04  0.00000000000E+00 0. -1.
         22    1    3    3    0    0 -0.61787581222E+02 -0.65397452792E+02  0.25954593722E+03  0.27469733445E+03  0.00000000000E+00 0. -1.
         22    1    3    3    0    0 -0.56686569644E+02  0.44078204276E+02  0.86474657579E+02  0.11240160886E+03  0.00000000000E+00 0. -1.
</event>
<event>
 7    1  0.7029100E-006  0.1480653E+03  0.7818608E-02  0.1293900E+00
          2   -1    0    0  502    0  0.00000000000E+00  0.00000000000E+00  0.10652368863E+04  0.10652368863E+04  0.00000000000E+00 0. -1.
          1   -1    0    0  501    0 -0.00000000000E+00 -0.00000000000E+00 -0.45855549950E+03  0.45855549950E+03  0.00000000000E+00 0. -1.
         25    2    1    2    0    0 -0.31546602007E+02 -0.20321229063E+03  0.44547178545E+03  0.50632008057E+03  0.12499795675E+03 0.  0.
          2    1    1    2  501    0  0.27630734191E+02  0.14391742994E+03 -0.41401536060E+03  0.43918606868E+03  0.00000000000E+00 0. -1.
          1    1    1    2  502    0  0.39158678152E+01  0.59294860690E+02  0.57522496192E+03  0.57828623651E+03  0.00000000000E+00 0. -1.
         22    1    3    3    0    0 -0.64599661789E+02 -0.89207535095E+02  0.13690663723E+03  0.17571149063E+03  0.00000000000E+00 0.  1.
         22    1    3    3    0    0  0.33053059782E+02 -0.11400475554E+03  0.30856514822E+03  0.33060858994E+03  0.00000000000E+00 0.  1.
</event>
<event>
 7    1  0.7029100E-006  0.4998724E+02  0.7818608E-02  0.1506296E+00
          2   -1    0    0  502    0  0.00000000000E+00  0.00000000000E+00  0.29663306490E+03  0.29663306490E+03  0.00000000000E+00 0. -1.
          1   -1    0    0  501    0 -0.00000000000E+00 -0.00000000000E+00 -0.10906771560E+03  0.10906771560E+03  0.00000000000E+00 0. -1.
         25    2    1    2    0    0  0.58979370924E+02  0.54062337651E+01  0.35948589151E+02  0.14292014177E+03  0.12500428914E+03 0.  0.
          2    1    1    2  501    0 -0.39079439443E+02 -0.31010311640E+02 -0.42767080272E+02  0.65710464693E+02  0.00000000000E+00 0. -1.
          1    1    1    2  502    0 -0.19899931481E+02  0.25604077875E+02  0.19438384042E+03  0.19707017404E+03  0.00000000000E+00 0. -1.
         22    1    3    3    0    0 -0.35131828569E+02  0.68067650037E+01  0.33114288701E+02  0.48755856515E+02  0.00000000000E+00 0.  1.
         22    1    3    3    0    0  0.94111199493E+02 -0.14005312386E+01  0.28343004503E+01  0.94164285251E+02  0.00000000000E+00 0.  1.
</event>
<event>
 7    1  0.7029100E-006  0.1052443E+03  0.7818608E-02  0.1373510E+00
          2   -1    0    0  502    0  0.00000000000E+00  0.00000000000E+00  0.28876106442E+04  0.28876106442E+04  0.00000000000E+00 0. -1.
          1   -1    0    0  501    0 -0.00000000000E+00 -0.00000000000E+00 -0.19964506716E+03  0.19964506716E+03  0.00000000000E+00 0. -1.
         25    2    1    2    0    0  0.11225526196E+02 -0.98981334821E+02  0.12748915473E+04  0.12848722989E+04  0.12500020032E+03 0.  0.
          2    1    1    2  501    0 -0.41163366456E+02 -0.62939225162E+01 -0.19054072221E+03  0.19503795276E+03  0.00000000000E+00 0. -1.
          1    1    1    2  502    0  0.29937840260E+02  0.10527525734E+03  0.16036147520E+04  0.16073454597E+04  0.00000000000E+00 0. -1.
         22    1    3    3    0    0  0.21025537446E+00 -0.12267150699E+03  0.11828695604E+04  0.11892134963E+04  0.00000000000E+00 0. -1.
         22    1    3    3    0    0  0.11015270821E+02  0.23690172165E+02  0.92021986931E+02  0.95658802665E+02  0.00000000000E+00 0. -1.
</event>
<event>
 7    1  0.7029100E-006  0.5259195E+03  0.7818608E-02  0.1177673E+00
          2   -1    0    0  502    0  0.00000000000E+00  0.00000000000E+00  0.18075456260E+04  0.18075456260E+04  0.00000000000E+00 0. -1.
          1   -1    0    0  501    0 -0.00000000000E+00 -0.00000000000E+00 -0.14314700724E+04  0.14314700724E+04  0.00000000000E+00 0. -1.
         25    2    1    2    0    0  0.22240634520E+03  0.52495375887E+03  0.50381868559E+02  0.58583747757E+03  0.12500474435E+03 0.  0.
          2    1    1    2  501    0 -0.37104665024E+02 -0.40679287224E+02 -0.11179166262E+04  0.11192717023E+04  0.00000000000E+00 0. -1.
          1    1    1    2  502    0 -0.18530168018E+03 -0.48427447164E+03  0.14436103113E+04  0.15339065185E+04  0.00000000000E+00 0. -1.
         22    1    3    3    0    0  0.74378972114E+02  0.23648957217E+03  0.79396604696E+02  0.26031398363E+03  0.00000000000E+00 0. -1.
         22    1    3    3    0    0  0.14802737309E+03  0.28846418670E+03 -0.29014736137E+02  0.32552349393E+03  0.00000000000E+00 0. -1.
</event>
<event>
 7    1  0.7029100E-006  0.2915469E+03  0.7818608E-02  0.1151864E+00
          2   -1    0    0  502    0  0.00000000000E+00  0.00000000000E+00  0.16506153645E+04  0.16506153645E+04  0.00000000000E+00 0. -1.
          1   -1    0    0  501    0 -0.00000000000E+00 -0.00000000000E+00 -0.22886568279E+03  0.22886568279E+03  0.00000000000E+00 0. -1.
         25    2    1    2    0    0 -0.20743513775E+03 -0.24439560794E+03 -0.28698884539E+02  0.34526278748E+03  0.12499686753E+03 0.  0.
          2    1    1    2  501    0  0.20931828378E+03  0.11061634692E+03  0.33184043825E+03  0.40763733463E+03  0.00000000000E+00 0. -1.
          1    1    1    2  502    0 -0.18831460243E+01  0.13377926102E+03  0.11186081280E+04  0.11265809251E+04  0.00000000000E+00 0. -1.
         22    1    3    3    0    0 -0.21944954848E+03 -0.20431111709E+03 -0.38463851144E+02  0.30229225055E+03  0.00000000000E+00 0.  1.
         22    1    3    3    0    0  0.12014410730E+02 -0.40084490846E+02  0.97649666055E+01  0.42970536934E+02  0.00000000000E+00 0.  1.
</event>
<event>
 7    1  0.7029100E-006  0.4125164E+02  0.7818608E-02  0.1572620E+00
          2   -1    0    0  502    0  0.00000000000E+00  0.00000000000E+00  0.16033174839E+04  0.16033174839E+04  0.00000000000E+00 0. -1.
          1   -1    0    0  501    0 -0.00000000000E+00 -0.00000000000E+00 -0.40350805066E+02  0.40350805066E+02  0.00000000000E+00 0. -1.
         25    2    1    2    0    0  0.37113743044E+02  0.26479138587E+02  0.31914176249E+03  0.34576643256E+03  0.12499754646E+03 0.  0.
          2    1    1    2  501    0 -0.22423486668E+02  0.12152790705E+02 -0.20610147625E+02  0.32791481537E+02  0.00000000000E+00 0. -1.
          1    1    1    2  502    0 -0.14690256376E+02 -0.38631929292E+02  0.12644350640E+04  0.12651103749E+04  0.00000000000E+00 0. -1.
         22    1    3    3    0    0  0.55866769531E+02 -0.15496144532E+02  0.63344284690E+02  0.85870395574E+02  0.00000000000E+00 0.  1.
         22    1    3    3    0    0 -0.18753026486E+02  0.41975283119E+02  0.25579747780E+03  0.25989603699E+03  0.00000000000E+00 0.  1.
</event>
<event>
 7    1  0.7029100E-006  0.7672156E+02  0.7818608E-02  0.1372579E+00
          2   -1    0    0  502    0  0.00000000000E+00  0.00000000000E+00  0.55978590252E+03  0.55978590252E+03  0.00000000000E+00 0. -1.
          1   -1    0    0  501    0 -0.00000000000E+00 -0.00000000000E+00 -0.31233977786E+03  0.31233977786E+03  0.00000000000E+00 0. -1.
         25    2    1    2    0    0  0.32531317355E+02  0.74961539807E+02 -0.18247172975E+03  0.23579189993E+03  0.12499747540E+03 0.  0.
          2    1    1    2  501    0 -0.73806972368E+02 -0.34839004196E+02 -0.85214847722E+02  0.11799489674E+03  0.00000000000E+00 0. -1.
          1    1    1    2  502    0  0.41275655013E+02 -0.40122535611E+02  0.51513270213E+03  0.51833888371E+03  0.00000000000E+00 0. -1.
         22    1    3    3    0    0  0.77978383891E+02  0.40747972067E+02 -0.81666663448E+02  0.12004361499E+03  0.00000000000E+00 0.  1.
         22    1    3    3    0    0 -0.45447066537E+02  0.34213567741E+02 -0.10080506630E+03  0.11574828494E+03  0.00000000000E+00 0.  1.
</event>
<event>
 7    1  0.7029100E-006  0.1664711E+03  0.7818608E-02  0.1255526E+00
          2   -1    0    0  502    0  0.00000000000E+00  0.00000000000E+00  0.84002902473E+03  0.84002902473E+03  0.00000000000E+00 0. -1.
          1   -1    0    0  501    0 -0.00000000000E+00 -0.00000000000E+00 -0.51294670123E+03  0.51294670123E+03  0.00000000000E+00 0. -1.
         25    2    1    2    0    0  0.10063190302E+03 -0.45009137210E+02  0.99480705342E+02  0.19409842630E+03  0.12500074408E+03 0.  0.
          2    1    1    2  501    0 -0.17224601846E+03  0.18419452781E+02 -0.44729694643E+03  0.47966918330E+03  0.00000000000E+00 0. -1.
          1    1    1    2  502    0  0.71614115440E+02  0.26589684429E+02  0.67489856458E+03  0.67920811636E+03  0.00000000000E+00 0. -1.
         22    1    3    3    0    0  0.74933306834E+02  0.33535120601E+02  0.34852351606E+02  0.89186833105E+02  0.00000000000E+00 0. -1.
         22    1    3    3    0    0  0.25698596184E+02 -0.78544257811E+02  0.64628353736E+02  0.10491159320E+03  0.00000000000E+00 0. -1.
</event>
<event>
 7    1  0.7029100E-006  0.1149112E+03  0.7818608E-02  0.1390462E+00
          2   -1    0    0  502    0  0.00000000000E+00  0.00000000000E+00  0.21845250664E+04  0.21845250664E+04  0.00000000000E+00 0. -1.
          1   -1    0    0  501    0 -0.00000000000E+00 -0.00000000000E+00 -0.25266060987E+02  0.25266060987E+02  0.00000000000E+00 0. -1.
         25    2    1    2    0    0 -0.15551555810E+02 -0.13279304922E+02  0.15642182347E+04  0.15693382636E+04  0.12500283579E+03 0.  0.
          2    1    1    2  501    0  0.62731037992E+02 -0.96277771468E+02  0.24412927323E+03  0.26982159746E+03  0.00000000000E+00 0. -1.
          1    1    1    2  502    0 -0.47179482183E+02  0.10955707639E+03  0.35091149744E+03  0.37063126631E+03  0.00000000000E+00 0. -1.
         22    1    3    3    0    0 -0.38268136538E+02  0.47883079159E+02  0.72313888309E+03  0.72573210194E+03  0.00000000000E+00 0. -1.
         22    1    3    3    0    0  0.22716580728E+02 -0.61162384080E+02  0.84107935162E+03  0.84360616166E+03  0.00000000000E+00 0. -1.
</event>
<event>
 7    1  0.7029100E-006  0.5582266E+02  0.7818608E-02  0.1546881E+00
          2   -1    0    0  502    0  0.00000000000E+00  0.00000000000E+00  0.30227903200E+03  0.30227903200E+03  0.00000000000E+00 0. -1.
          1   -1    0    0  501    0 -0.00000000000E+00 -0.00000000000E+00 -0.65927980940E+03  0.65927980940E+03  0.00000000000E+00 0. -1.
         25    2    1    2    0    0 -0.48481227226E+01  0.41737342057E+02  0.33780514883E+02  0.13613028371E+03  0.12499928376E+03 0.  0.
          2    1    1    2  501    0 -0.13327105085E+02 -0.54465704551E+02 -0.60624135038E+03  0.60882895760E+03  0.00000000000E+00 0. -1.
          1    1    1    2  502    0  0.18175227808E+02  0.12728362493E+02  0.21546005810E+03  0.21659960008E+03  0.00000000000E+00 0. -1.
         22    1    3    3    0    0 -0.34363820328E+01  0.85970978098E+02  0.32130831719E+02  0.91843389220E+02  0.00000000000E+00 0. -1.
         22    1    3    3    0    0 -0.14117406898E+01 -0.44233636040E+02  0.16496831647E+01  0.44286894491E+02  0.00000000000E+00 0. -1.
</event>
<event>
 7    1  0.7029100E-006  0.1597724E+03  0.7818608E-02  0.1324314E+00
          2   -1    0    0  502    0  0.00000000000E+00  0.00000000000E+00  0.25367684477E+03  0.25367684477E+03  0.00000000000E+00 0. -1.
          1   -1    0    0  501    0 -0.00000000000E+00 -0.00000000000E+00 -0.18065554790E+03  0.18065554790E+03  0.00000000000E+00 0. -1.
         25    2    1    2    0    0  0.11350040180E+03  0.94137903725E+02 -0.19067225830E+02  0.19425235399E+03  0.12500452714E+03 0.  0.
          2    1    1    2  501    0 -0.14125334635E+02  0.39309712454E+02 -0.12442985832E+02  0.43584475082E+02  0.00000000000E+00 0. -1.
          1    1    1    2  502    0 -0.99375067160E+02 -0.13344761618E+03  0.10453150854E+03  0.19649556360E+03  0.00000000000E+00 0. -1.
         22    1    3    3    0    0  0.72743522693E+01  0.36511344823E+02 -0.56566102668E+02  0.67717933170E+02  0.00000000000E+00 0. -1.
         22    1    3    3    0    0  0.10622604953E+03  0.57626558902E+02  0.37498876838E+02  0.12653442082E+03  0.00000000000E+00 0. -1.
</event>
<event>
 7    1  0.7029100E-006  0.3007052E+02  0.7818608E-02  0.1609949E+00
          2   -1    0    0  502    0  0.00000000000E+00  0.00000000000E+00  0.71140412199E+01  0.71140412199E+01  0.00000000000E+00 0. -1.
          1   -1    0    0  501    0 -0.00000000000E+00 -0.00000000000E+00 -0.23428573474E+04  0.23428573474E+04  0.00000000000E+00 0. -1.
         25    2    1    2    0    0  0.41328816785E+02 -0.19172969876E+02 -0.15726021415E+04  0.15782200025E+04  0.12500082839E+03 0.  0.
          2    1    1    2  501    0 -0.28679330983E+02 -0.56706302166E+01 -0.71866929603E+03  0.71926366315E+03  0.00000000000E+00 0. -1.
          1    1    1    2  502    0 -0.12649485801E+02  0.24843600093E+02 -0.44471868626E+02  0.52487722905E+02  0.00000000000E+00 0. -1.
         22    1    3    3    0    0  0.76704546144E+02  0.17991255355E+02 -0.78342253888E+03  0.78737421033E+03  0.00000000000E+00 0. -1.
         22    1    3    3    0    0 -0.35375729359E+02 -0.37164225231E+02 -0.78917960262E+03  0.79084579221E+03  0.00000000000E+00 0. -1.
</event>
<event>
 7    1  0.7029100E-006  0.6212961E+02  0.7818608E-02  0.1482586E+00
          2   -1    0    0  502    0  0.00000000000E+00  0.00000000000E+00  0.33983109614E+03  0.33983109614E+03  0.00000000000E+00 0. -1.
          1   -1    0    0  501    0 -0.00000000000E+00 -0.00000000000E+00 -0.71630242808E+03  0.71630242808E+03  0.00000000000E+00 0. -1.
         25    2    1    2    0    0  0.47945317085E+02  0.14567828104E+02 -0.10096681243E+03  0.16831691641E+03  0.12500124836E+03 0.  0.
          2    1    1    2  501    0 -0.44080109652E+02 -0.45069406407E+02 -0.57917387237E+03  0.58259478361E+03  0.00000000000E+00 0. -1.
          1    1    1    2  502    0 -0.38652074331E+01  0.30501578303E+02  0.30366935286E+03  0.30522182421E+03  0.00000000000E+00 0. -1.
         22    1    3    3    0    0 -0.63414927577E+01  0.56496080852E+02 -0.76881581869E+02  0.95617986345E+02  0.00000000000E+00 0. -1.
         22    1    3    3    0    0  0.54286809843E+02 -0.41928252748E+02 -0.24085230558E+02  0.72698930064E+02  0.00000000000E+00 0. -1.
</event>
<event>
 7    1  0.7029100E-006  0.3968617E+02  0.7818608E-02  0.1574454E+00
          2   -1    0    0  502    0  0.00000000000E+00  0.00000000000E+00  0.14988644630E+03  0.14988644630E+03  0.00000000000E+00 0. -1.
          1   -1    0    0  501    0 -0.00000000000E+00 -0.00000000000E+00 -0.21458242689E+04  0.21458242689E+04  0.00000000000E+00 0. -1.
         25    2    1    2    0    0 -0.33546373710E+02  0.14506597538E+01 -0.11736003477E+03  0.17471405190E+03  0.12499663422E+03 0.  0.
          2    1    1    2  501    0  0.31222828289E+02  0.24656202898E+02 -0.19981699952E+04  0.19985660167E+04  0.00000000000E+00 0. -1.
          1    1    1    2  502    0  0.23235454212E+01 -0.26106862652E+02  0.11959220743E+03  0.12243064657E+03  0.00000000000E+00 0. -1.
         22    1    3    3    0    0  0.17856817027E+02 -0.40194866677E+02 -0.95328549318E+02  0.10498583493E+03  0.00000000000E+00 0. -1.
         22    1    3    3    0    0 -0.51403190737E+02  0.41645526431E+02 -0.22031485455E+02  0.69728216965E+02  0.00000000000E+00 0. -1.
</event>
<event>
 7    1  0.7029100E-006  0.9217201E+02  0.7818608E-02  0.1372744E+00
          2   -1    0    0  502    0  0.00000000000E+00  0.00000000000E+00  0.18552493593E+03  0.18552493593E+03  0.00000000000E+00 0. -1.
          1   -1    0    0  501    0 -0.00000000000E+00 -0.00000000000E+00 -0.15603201481E+04  0.15603201481E+04  0.00000000000E+00 0. -1.
         25    2    1    2    0    0 -0.12976048740E+03 -0.78789400680E+00 -0.18962291626E+03  0.26157258079E+03  0.12499983914E+03 0.  0.
          2    1    1    2  501    0  0.87914576866E+02 -0.22415864966E+02 -0.13293088404E+04  0.13324013798E+04  0.00000000000E+00 0. -1.
          1    1    1    2  502    0  0.41845910530E+02  0.23203758973E+02  0.14413654451E+03  0.15187112339E+03  0.00000000000E+00 0. -1.
         22    1    3    3    0    0 -0.88091541125E+02  0.59904104287E+02 -0.11433612215E+03  0.15627338275E+03  0.00000000000E+00 0. -1.
         22    1    3    3    0    0 -0.41668946272E+02 -0.60691998294E+02 -0.75286794111E+02  0.10529919804E+03  0.00000000000E+00 0. -1.
</event>
<event>
 7    1  0.7029100E-006  0.1290747E+03  0.7818608E-02  0.1251786E+00
          2   -1    0    0  502    0  0.00000000000E+00  0.00000000000E+00  0.16369074454E+04  0.16369074454E+04  0.00000000000E+00 0. -1.
          1   -1    0    0  501    0 -0.00000000000E+00 -0.00000000000E+00 -0.43721903809E+03  0.43721903809E+03  0.00000000000E+00 0. -1.
         25    2    1    2    0    0  0.33288360235E+02  0.40645748331E+02 -0.37598168597E+02  0.14070853675E+03  0.12500031299E+03 0.  0.
          2    1    1    2  501    0 -0.10221550930E+03 -0.11617316244E+03 -0.32911795836E+03  0.36367959047E+03  0.00000000000E+00 0. -1.
          1    1    1    2  502    0  0.68927149066E+02  0.75527414112E+02  0.15664045343E+04  0.15697383563E+04  0.00000000000E+00 0. -1.
         22    1    3    3    0    0 -0.11982485568E+02  0.27396684559E+02 -0.74850595543E+02  0.80602543002E+02  0.00000000000E+00 0.  1.
         22    1    3    3    0    0  0.45270845803E+02  0.13249063773E+02  0.37252426946E+02  0.60105993744E+02  0.00000000000E+00 0.  1.
</event>
<event>
 7    1  0.7029100E-006  0.3829488E+02  0.7818608E-02  0.1554471E+00
          2   -1    0    0  502    0  0.00000000000E+00  0.00000000000E+00  0.16866740778E+03  0.16866740778E+03  0.00000000000E+00 0. -1.
          1   -1    0    0  501    0 -0.00000000000E+00 -0.00000000000E+00 -0.47444962053E+03  0.47444962053E+03  0.00000000000E+00 0. -1.
         25    2    1    2    0    0  0.38761406796E+02  0.37933503802E+02 -0.18917675246E+03  0.23314062176E+03  0.12500123389E+03 0.  0.
          2    1    1    2  501    0 -0.79692534432E+01 -0.36970866449E+02 -0.26029154855E+03  0.26302479772E+03  0.00000000000E+00 0. -1.
          1    1    1    2  502    0 -0.30792153352E+02 -0.96263735277E+00  0.14368608826E+03  0.14695160883E+03  0.00000000000E+00 0. -1.
         22    1    3    3    0    0 -0.21786478822E+02  0.65994488088E+02 -0.98858806975E+02  0.12084281871E+03  0.00000000000E+00 0.  1.
         22    1    3    3    0    0  0.60547885618E+02 -0.28060984286E+02 -0.90317945488E+02  0.11229780305E+03  0.00000000000E+00 0.  1.
</event>
<event>
 7    1  0.7029100E-006  0.6529051E+02  0.7818608E-02  0.1507007E+00
          2   -1    0    0  502    0  0.00000000000E+00  0.00000000000E+00  0.55109092930E+03  0.55109092930E+03  0.00000000000E+00 0. -1.
          1   -1    0    0  501    0 -0.00000000000E+00 -0.00000000000E+00 -0.81450221352E+03  0.81450221352E+03  0.00000000000E+00 0. -1.
         25    2    1    2    0    0  0.10684391032E+02 -0.71037680525E+02  0.18679979041E+02  0.14539240555E+03  0.12501800553E+03 0.  0.
          2    1    1    2  501    0 -0.31219139856E+02  0.57298111910E+02 -0.74940196444E+03  0.75223733796E+03  0.00000000000E+00 0. -1.
          1    1    1    2  502    0  0.20534748823E+02  0.13739568615E+02  0.46731070118E+03  0.46796339931E+03  0.00000000000E+00 0. -1.
         22    1    3    3    0    0  0.12592661761E+02 -0.81018277376E+02  0.60793392781E+02  0.10207043159E+03  0.00000000000E+00 0. -1.
         22    1    3    3    0    0 -0.19082707292E+01  0.99805968509E+01 -0.42113413740E+02  0.43321973957E+02  0.00000000000E+00 0. -1.
</event>
<event>
 7    1  0.7029100E-006  0.9733535E+02  0.7818608E-02  0.1381955E+00
          2   -1    0    0  502    0  0.00000000000E+00  0.00000000000E+00  0.50168379052E+03  0.50168379052E+03  0.00000000000E+00 0. -1.
          1   -1    0    0  501    0 -0.00000000000E+00 -0.00000000000E+00 -0.13833779785E+03  0.13833779785E+03  0.00000000000E+00 0. -1.
         25    2    1    2    0    0 -0.48968710612E+02  0.40707946105E+02  0.37095300551E+02  0.14510613177E+03  0.12499862662E+03 0.  0.
          2    1    1    2  501    0 -0.12322983824E+02  0.40171360967E+02 -0.72313467114E+02  0.83635110440E+02  0.00000000000E+00 0. -1.
          1    1    1    2  502    0  0.61291694437E+02 -0.80879307072E+02  0.39856415923E+03  0.41128034617E+03  0.00000000000E+00 0. -1.
         22    1    3    3    0    0  0.25275859081E+02  0.50395562888E+02 -0.91286654383E+01  0.57113171368E+02  0.00000000000E+00 0. -1.
         22    1    3    3    0    0 -0.74244569693E+02 -0.96876167822E+01  0.46223965989E+02  0.87992960398E+02  0.00000000000E+00 0. -1.
</event>
<event>
 7    1  0.7029100E-006  0.1167582E+03  0.7818608E-02  0.1354327E+00
          2   -1    0    0  502    0  0.00000000000E+00  0.00000000000E+00  0.10086410952E+04  0.10086410952E+04  0.00000000000E+00 0. -1.
          1   -1    0    0  501    0 -0.00000000000E+00 -0.00000000000E+00 -0.68029030224E+03  0.68029030224E+03  0.00000000000E+00 0. -1.
         25    2    1    2    0    0 -0.17228464308E+02 -0.74256743737E+02  0.15837868627E+02  0.14726373950E+03  0.12499954766E+03 0.  0.
          2    1    1    2  501    0  0.18003367042E+02  0.11830935866E+03 -0.60821994141E+03  0.61988121661E+03  0.00000000000E+00 0. -1.
          1    1    1    2  502    0 -0.77490273446E+00 -0.44052614923E+02  0.92073286576E+03  0.92178644134E+03  0.00000000000E+00 0. -1.
         22    1    3    3    0    0  0.16532992181E+02  0.42251611247E+01  0.51822079689E+02  0.54559323313E+02  0.00000000000E+00 0. -1.
         22    1    3    3    0    0 -0.33761456489E+02 -0.78481904861E+02 -0.35984211063E+02  0.92704416188E+02  0.00000000000E+00 0. -1.
</event>
<event>
 7    1  0.7029100E-006  0.7102833E+02  0.7818608E-02  0.1520387E+00
          2   -1    0    0  502    0  0.00000000000E+00  0.00000000000E+00  0.36825678527E+03  0.36825678527E+03  0.00000000000E+00 0. -1.
          1   -1    0    0  501    0 -0.00000000000E+00 -0.00000000000E+00 -0.70775124540E+03  0.70775124540E+03  0.00000000000E+00 0. -1.
         25    2    1    2    0    0  0.72014483515E+02  0.93362973052E+01 -0.67596043253E+02  0.15958433854E+03  0.12499873504E+03 0.  0.
          2    1    1    2  501    0 -0.70593877105E+01  0.19514173798E+02 -0.59005764903E+03  0.59042244801E+03  0.00000000000E+00 0. -1.
          1    1    1    2  502    0 -0.64955095804E+02 -0.28850471103E+02  0.31815923216E+03  0.32600124411E+03  0.00000000000E+00 0. -1.
         22    1    3    3    0    0 -0.73271222363E+01 -0.26460502751E+02  0.21615629570E+02  0.34943960391E+02  0.00000000000E+00 0. -1.
         22    1    3    3    0    0  0.79341605751E+02  0.35796800056E+02 -0.89211672823E+02  0.12464037815E+03  0.00000000000E+00 0. -1.
</event>
<event>
 7    1  0.7029100E-006  0.1170439E+03  0.7818608E-02  0.1271581E+00
          2   -1    0    0  502    0  0.00000000000E+00  0.00000000000E+00  0.15367689366E+03  0.15367689366E+03  0.00000000000E+00 0. -1.
          1   -1    0    0  501    0 -0.00000000000E+00 -0.00000000000E+00 -0.22072721318E+04  0.22072721318E+04  0.00000000000E+00 0. -1.
         25    2    1    2    0    0  0.35119521969E+02  0.40785889843E+02 -0.22601575573E+03  0.26382786374E+03  0.12500060087E+03 0.  0.
          2    1    1    2  501    0  0.89944438556E+02 -0.23149293500E+02 -0.19313963220E+04  0.19336281040E+04  0.00000000000E+00 0. -1.
          1    1    1    2  502    0 -0.12506396053E+03 -0.17636596344E+02  0.10381683958E+03  0.16349305775E+03  0.00000000000E+00 0. -1.
         22    1    3    3    0    0 -0.35648934041E+02  0.66583005252E+01 -0.15066234733E+03  0.15496555220E+03  0.00000000000E+00 0.  1.
         22    1    3    3    0    0  0.70768456010E+02  0.34127589318E+02 -0.75353408396E+02  0.10886231155E+03  0.00000000000E+00 0.  1.
</event>
<event>
 7    1  0.7029100E-006  0.1861784E+03  0.7818608E-02  0.1362197E+00
          2   -1    0    0  502    0  0.00000000000E+00  0.00000000000E+00  0.30337523123E+03  0.30337523123E+03  0.00000000000E+00 0. -1.
          1   -1    0    0  501    0 -0.00000000000E+00 -0.00000000000E+00 -0.15946460499E+04  0.15946460499E+04  0.00000000000E+00 0. -1.
         25    2    1    2    0    0 -0.11188039561E+03 -0.11564237747E+03  0.21341870825E+03  0.29506256084E+03  0.12499594949E+03 0.  0.
          2    1    1    2  501    0  0.13073349657E+03  0.13334042605E+03 -0.15443577420E+04  0.15556065542E+04  0.00000000000E+00 0. -1.
          1    1    1    2  502    0 -0.18853100952E+02 -0.17698048589E+02  0.39668215095E+02  0.47352166035E+02  0.00000000000E+00 0. -1.
         22    1    3    3    0    0 -0.46273296701E+02 -0.10220360228E+02  0.14657306355E+03  0.15404329492E+03  0.00000000000E+00 0. -1.
         22    1    3    3    0    0 -0.65607098913E+02 -0.10542201724E+03  0.66845644704E+02  0.14101926593E+03  0.00000000000E+00 0. -1.
</event>
<event>
 7    1  0.7029100E-006  0.1407215E+03  0.7818608E-02  0.1262908E+00
          2   -1    0    0  502    0  0.00000000000E+00  0.00000000000E+00  0.38710591697E+03  0.38710591697E+03  0.00000000000E+00 0. -1.
          1   -1    0    0  501    0 -0.00000000000E+00 -0.00000000000E+00 -0.53856462421E+03  0.53856462421E+03  0.00000000000E+00 0. -1.
         25    2    1    2    0    0 -0.83092559088E+02  0.25822888851E+02 -0.89201185976E+02  0.17650446218E+03  0.12500311446E+03 0.  0.
          2    1    1    2  501    0 -0.62293470419E+02 -0.56407829563E+02 -0.38489655096E+03  0.39396405247E+03  0.00000000000E+00 0. -1.
          1    1    1    2  502    0  0.14538602951E+03  0.30584940712E+02  0.32263902970E+03  0.35520202654E+03  0.00000000000E+00 0. -1.
         22    1    3    3    0    0 -0.83397815943E+02  0.36957702223E+02 -0.11594869422E+03  0.14753022452E+03  0.00000000000E+00 0.  1.
         22    1    3    3    0    0  0.30525685457E+00 -0.11134813372E+02  0.26747508240E+02  0.28974237654E+02  0.00000000000E+00 0.  1.
</event>
<event>
 7    1  0.7029100E-006  0.7518600E+02  0.7818608E-02  0.1367202E+00
          2   -1    0    0  502    0  0.00000000000E+00  0.00000000000E+00  0.27130654715E+04  0.27130654715E+04  0.00000000000E+00 0. -1.
          1   -1    0    0  501    0 -0.00000000000E+00 -0.00000000000E+00 -0.29103311950E+03  0.29103311950E+03  0.00000000000E+00 0. -1.
         25    2    1    2    0    0  0.11460851919E+03  0.46118325185E+02  0.50567091768E+03  0.53534351057E+03  0.12501033855E+03 0.  0.
          2    1    1    2  501    0 -0.41099227396E+02 -0.45632549746E+02 -0.27215829946E+03  0.27900110403E+03  0.00000000000E+00 0. -1.
          1    1    1    2  502    0 -0.73509291792E+02 -0.48577543941E+00  0.21885197337E+04  0.21897539763E+04  0.00000000000E+00 0. -1.
         22    1    3    3    0    0  0.99144954016E+02  0.43447485437E+02  0.18539082912E+03  0.21467921516E+03  0.00000000000E+00 0. -1.
         22    1    3    3    0    0  0.15463565172E+02  0.26708397484E+01  0.32028008855E+03  0.32066429542E+03  0.00000000000E+00 0. -1.
</event>
<event>
 7    1  0.7029100E-006  0.8700942E+02  0.7818608E-02  0.1366267E+00
          2   -1    0    0  502    0  0.00000000000E+00  0.00000000000E+00  0.73114585079E+03  0.73114585079E+03  0.00000000000E+00 0. -1.
          1   -1    0    0  501    0 -0.00000000000E+00 -0.00000000000E+00 -0.36209648905E+03  0.36209648905E+03  0.00000000000E+00 0. -1.
         25    2    1    2    0    0  0.37656412907E+02 -0.68672014806E+02  0.33216928964E+03  0.36344917179E+03  0.12500004976E+03 0.  0.
          2    1    1    2  501    0 -0.47234673838E+02 -0.25083533484E+02 -0.33853293667E+03  0.34273145066E+03  0.00000000000E+00 0. -1.
          1    1    1    2  502    0  0.95782609305E+01  0.93755548290E+02  0.37541300876E+03  0.38706171739E+03  0.00000000000E+00 0. -1.
         22    1    3    3    0    0  0.37480023292E+02 -0.10462418279E+03  0.23868414011E+03  0.26328898669E+03  0.00000000000E+00 0.  1.
         22    1    3    3    0    0  0.17638961470E+00  0.35952167986E+02  0.93485149532E+02  0.10016018510E+03  0.00000000000E+00 0.  1.
</event>
<event>
 7    1  0.7029100E-006  0.5612569E+02  0.7818608E-02  0.1463421E+00
          2   -1    0    0  502    0  0.00000000000E+00  0.00000000000E+00  0.10087729399E+04  0.10087729399E+04  0.00000000000E+00 0. -1.
          1   -1    0    0  501    0 -0.00000000000E+00 -0.00000000000E+00 -0.63634213900E+02  0.63634213900E+02  0.00000000000E+00 0. -1.
         25    2    1    2    0    0 -0.45059966967E+02 -0.55724374162E+02  0.75116054613E+03  0.76485406227E+03  0.12499585596E+03 0.  0.
          2    1    1    2  501    0  0.53219160749E+02  0.17566896139E+02 -0.40947624289E+02  0.69408809568E+02  0.00000000000E+00 0. -1.
          1    1    1    2  502    0 -0.81591937818E+01  0.38157478022E+02  0.23492580416E+03  0.23814428196E+03  0.00000000000E+00 0. -1.
         22    1    3    3    0    0  0.27360132930E+01 -0.48299052774E+02  0.92200287530E+02  0.10412097430E+03  0.00000000000E+00 0. -1.
         22    1    3    3    0    0 -0.47795980260E+02 -0.74253213872E+01  0.65896025860E+03  0.66073308798E+03  0.00000000000E+00 0. -1.
</event>
<event>
 7    1  0.7029100E-006  0.4977767E+03  0.7818608E-02  0.1197020E+00
          2   -1    0    0  502    0  0.00000000000E+00  0.00000000000E+00  0.93832940698E+03  0.93832940698E+03  0.00000000000E+00 0. -1.
          1   -1    0    0  501    0 -0.00000000000E+00 -0.00000000000E+00 -0.23888842259E+04  0.23888842259E+04  0.00000000000E+00 0. -1.
         25    2    1    2    0    0 -0.48810526356E+03  0.22895903158E+03  0.19109646743E+03  0.58550132243E+03  0.12499980899E+03 0.  0.
          2    1    1    2  501    0  0.44150026021E+03 -0.22342981491E+03 -0.21626849382E+04  0.22185692470E+04  0.00000000000E+00 0. -1.
          1    1    1    2  502    0  0.46605003350E+02 -0.55292166753E+01  0.52103365179E+03  0.52314306348E+03  0.00000000000E+00 0. -1.
         22    1    3    3    0    0 -0.37848093172E+02  0.63092982801E+02  0.23437414019E+02  0.77217323259E+02  0.00000000000E+00 0.  1.
         22    1    3    3    0    0 -0.45025717039E+03  0.16586604878E+03  0.16765905342E+03  0.50828399917E+03  0.00000000000E+00 0.  1.
</event>
<event>
 7    1  0.7029100E-006  0.5985489E+02  0.7818608E-02  0.1436197E+00
          2   -1    0    0  502    0  0.00000000000E+00  0.00000000000E+00  0.32998334398E+04  0.32998334398E+04  0.00000000000E+00 0. -1.
          1   -1    0    0  501    0 -0.00000000000E+00 -0.00000000000E+00 -0.11633723007E+04  0.11633723007E+04  0.00000000000E+00 0. -1.
         25    2    1    2    0    0  0.28085969685E+02 -0.54409675487E+02  0.13962604711E+04  0.14031811783E+04  0.12499952585E+03 0.  0.
          2    1    1    2  501    0 -0.56473832407E+02  0.19857614605E+02 -0.11588761696E+04  0.11604213007E+04  0.00000000000E+00 0. -1.
          1    1    1    2  502    0  0.28387862722E+02  0.34552060882E+02  0.18990768376E+04  0.18996032614E+04  0.00000000000E+00 0. -1.
         22    1    3    3    0    0 -0.15553226131E+01  0.37993966894E+02  0.25737891428E+03  0.26017276196E+03  0.00000000000E+00 0. -1.
         22    1    3    3    0    0  0.29641292298E+02 -0.92403642381E+02  0.11388815569E+04  0.11430084164E+04  0.00000000000E+00 0. -1.
</event>
<event>
 7    1  0.7029100E-006  0.1472798E+03  0.7818608E-02  0.1230687E+00
          2   -1    0    0  502    0  0.00000000000E+00  0.00000000000E+00  0.21589083391E+03  0.21589083391E+03  0.00000000000E+00 0. -1.
          1   -1    0    0  501    0 -0.00000000000E+00 -0.00000000000E+00 -0.45005714215E+03  0.45005714215E+03  0.00000000000E+00 0. -1.
         25    2    1    2    0    0 -0.11821546593E+03  0.20157864873E+03 -0.15899196971E+03  0.30905203248E+03  0.12500345730E+03 0.  0.
          2    1    1    2  501    0  0.73879897248E+02 -0.99842105508E+02 -0.17026391968E+03  0.21075219476E+03  0.00000000000E+00 0. -1.
          1    1    1    2  502    0  0.44335568682E+02 -0.10173654322E+03  0.95089581156E+02  0.14614374883E+03  0.00000000000E+00 0. -1.
         22    1    3    3    0    0 -0.21069649262E+02  0.88855463206E+02 -0.46412478622E-01  0.91319360575E+02  0.00000000000E+00 0. -1.
         22    1    3    3    0    0 -0.97145816668E+02  0.11272318552E+03 -0.15894555723E+03  0.21773267190E+03  0.00000000000E+00 0. -1.
</event>
<event>
 7    1  0.7029100E-006  0.5264555E+02  0.7818608E-02  0.1444783E+00
          2   -1    0    0  502    0  0.00000000000E+00  0.00000000000E+00  0.45437920550E+03  0.45437920550E+03  0.00000000000E+00 0. -1.
          1   -1    0    0  501    0 -0.00000000000E+00 -0.00000000000E+00 -0.17536157340E+03  0.17536157340E+03  0.00000000000E+00 0. -1.
         25    2    1    2    0    0 -0.37118541622E+01 -0.77804695348E+01  0.88492078205E+02  0.15339761981E+03  0.12500267314E+03 0.  0.
          2    1    1    2  501    0 -0.50355477846E+01 -0.47417804983E+02 -0.13649341484E+03  0.14458304626E+03  0.00000000000E+00 0. -1.
          1    1    1    2  502    0  0.87474019468E+01  0.55198274517E+02  0.32701896874E+03  0.33176011283E+03  0.00000000000E+00 0. -1.
         22    1    3    3    0    0  0.43496376522E+02 -0.63972691993E+01 -0.91743970438E+01  0.44911350290E+02  0.00000000000E+00 0.  1.
         22    1    3    3    0    0 -0.47208230684E+02 -0.13832003356E+01  0.97666475248E+02  0.10848626952E+03  0.00000000000E+00 0.  1.
</event>
<event>
 7    1  0.7029100E-006  0.1043334E+03  0.7818608E-02  0.1382328E+00
          2   -1    0    0  502    0  0.00000000000E+00  0.00000000000E+00  0.40364711570E+03  0.40364711570E+03  0.00000000000E+00 0. -1.
          1   -1    0    0  501    0 -0.00000000000E+00 -0.00000000000E+00 -0.81204483409E+03  0.81204483409E+03  0.00000000000E+00 0. -1.
         25    2    1    2    0    0  0.37813574574E+02  0.12301609646E+03  0.63878671914E+02  0.19044499985E+03  0.12500394727E+03 0.  0.
          2    1    1    2  501    0  0.14444177435E+02 -0.36314745894E+02 -0.73896164225E+03  0.73999439440E+03  0.00000000000E+00 0. -1.
          1    1    1    2  502    0 -0.52257752009E+02 -0.86701350570E+02  0.26668525194E+03  0.28525255554E+03  0.00000000000E+00 0. -1.
         22    1    3    3    0    0 -0.35282950249E+01 -0.24948529885E+02  0.37893524839E+01  0.25480133466E+02  0.00000000000E+00 0.  1.
         22    1    3    3    0    0  0.41341869599E+02  0.14796462635E+03  0.60089319431E+02  0.16496486639E+03  0.00000000000E+00 0.  1.
</event>
<event>
 7    1  0.7029100E-006  0.8511505E+02  0.7818608E-02  0.1387080E+00
          2   -1    0    0  502    0  0.00000000000E+00  0.00000000000E+00  0.21630987535E+04  0.21630987535E+04  0.00000000000E+00 0. -1.
          1   -1    0    0  501    0 -0.00000000000E+00 -0.00000000000E+00 -0.12202194446E+04  0.12202194446E+04  0.00000000000E+00 0. -1.
         25    2    1    2    0    0  0.88545363425E+01  0.12853689050E+03  0.20828405073E+03  0.27496776206E+03  0.12499955740E+03 0.  0.
          2    1    1    2  501    0  0.52406467319E+01 -0.45799161731E+02 -0.11855129091E+04  0.11864088188E+04  0.00000000000E+00 0. -1.
          1    1    1    2  502    0 -0.14095183074E+02 -0.82737728766E+02  0.19201081673E+04  0.19219416172E+04  0.00000000000E+00 0. -1.
         22    1    3    3    0    0  0.49240637628E+02  0.79624804078E+02  0.18510761264E+03  0.20743572035E+03  0.00000000000E+00 0. -1.
         22    1    3    3    0    0 -0.40386101286E+02  0.48912086419E+02  0.23176438087E+02  0.67532041709E+02  0.00000000000E+00 0. -1.
</event>
<event>
 7    1  0.7029100E-006  0.1782515E+03  0.7818608E-02  0.1257397E+00
          2   -1    0    0  502    0  0.00000000000E+00  0.00000000000E+00  0.11363723065E+04  0.11363723065E+04  0.00000000000E+00 0. -1.
          1   -1    0    0  501    0 -0.00000000000E+00 -0.00000000000E+00 -0.27913856579E+03  0.27913856579E+03  0.00000000000E+00 0. -1.
         25    2    1    2    0    0 -0.13991147870E+03 -0.18010211998E+02 -0.10156882192E+02  0.18875738059E+03  0.12500638729E+03 0.  0.
          2    1    1    2  501    0  0.19349192533E+03  0.63110592241E+02 -0.12040853010E+03  0.23647470508E+03  0.00000000000E+00 0. -1.
          1    1    1    2  502    0 -0.53580446626E+02 -0.45100380244E+02  0.98779915297E+03  0.99027878658E+03  0.00000000000E+00 0. -1.
         22    1    3    3    0    0 -0.73151373279E+02 -0.16922569991E+01  0.56935548607E+02  0.92712695147E+02  0.00000000000E+00 0.  1.
         22    1    3    3    0    0 -0.66760105425E+02 -0.16317954998E+02 -0.67092430799E+02  0.96044685445E+02  0.00000000000E+00 0.  1.
</event>
<event>
 7    1  0.7029100E-006  0.3514734E+02  0.7818608E-02  0.1623986E+00
          2   -1    0    0  502    0  0.00000000000E+00  0.00000000000E+00  0.11466772797E+04  0.11466772797E+04  0.00000000000E+00 0. -1.
          1   -1    0    0  501    0 -0.00000000000E+00 -0.00000000000E+00 -0.61612480218E+02  0.61612480218E+02  0.00000000000E+00 0. -1.
         25    2    1    2    0    0 -0.47419171687E+02  0.31207162772E+02  0.38689537975E+03  0.41052578245E+03  0.12498367225E+03 0.  0.
          2    1    1    2  501    0  0.28801841368E+02 -0.19561022203E+02 -0.43529272952E+02  0.55740266053E+02  0.00000000000E+00 0. -1.
          1    1    1    2  502    0  0.18617330319E+02 -0.11646140568E+02  0.74169869270E+03  0.74202371144E+03  0.00000000000E+00 0. -1.
         22    1    3    3    0    0 -0.35838056231E+02  0.79588976046E+02  0.25785285663E+03  0.27222576487E+03  0.00000000000E+00 0.  1.
         22    1    3    3    0    0 -0.11581115457E+02 -0.48381813274E+02  0.12904252312E+03  0.13830001758E+03  0.00000000000E+00 0.  1.
</event>
<event>
 7    1  0.7029100E-006  0.3442018E+02  0.7818608E-02  0.1638015E+00
          2   -1    0    0  502    0  0.00000000000E+00  0.00000000000E+00  0.33906282364E+03  0.33906282364E+03  0.00000000000E+00 0. -1.
          1   -1    0    0  501    0 -0.00000000000E+00 -0.00000000000E+00 -0.19674021028E+03  0.19674021028E+03  0.00000000000E+00 0. -1.
         25    2    1    2    0    0  0.17453223539E+02  0.67133360665E+01  0.18842892704E+03  0.22688807799E+03  0.12499222174E+03 0.  0.
          2    1    1    2  501    0 -0.34126036583E+02  0.55149760464E+01 -0.17499582773E+03  0.17837752397E+03  0.00000000000E+00 0. -1.
          1    1    1    2  502    0  0.16672813044E+02 -0.12228312113E+02  0.12888951404E+03  0.13053743196E+03  0.00000000000E+00 0. -1.
         22    1    3    3    0    0  0.15137020964E+02  0.26829318610E+02 -0.60200640601E+01  0.31387623548E+02  0.00000000000E+00 0. -1.
         22    1    3    3    0    0  0.23162025753E+01 -0.20115982543E+02  0.19444899110E+03  0.19550045445E+03  0.00000000000E+00 0. -1.
</event>
<event>
 7    1  0.7029100E-006  0.8337510E+02  0.7818608E-02  0.1353890E+00
          2   -1    0    0  502    0  0.00000000000E+00  0.00000000000E+00  0.18373090735E+03  0.18373090735E+03  0.00000000000E+00 0. -1.
          1   -1    0    0  501    0 -0.00000000000E+00 -0.00000000000E+00 -0.33645724709E+03  0.33645724709E+03  0.00000000000E+00 0. -1.
         25    2    1    2    0    0  0.98388622620E+02 -0.35081964966E+02 -0.14954703388E+03  0.22113561144E+03  0.12500231190E+03 0.  0.
          2    1    1    2  501    0 -0.51824391600E+02 -0.33904625578E+02 -0.13192983944E+03  0.14574214811E+03  0.00000000000E+00 0. -1.
          1    1    1    2  502    0 -0.46564231021E+02  0.68986590544E+02  0.12875053357E+03  0.15331039489E+03  0.00000000000E+00 0. -1.
         22    1    3    3    0    0  0.87579237697E+02 -0.75080457902E+02 -0.13416506564E+03  0.17693915020E+03  0.00000000000E+00 0. -1.
         22    1    3    3    0    0  0.10809384923E+02  0.39998492936E+02 -0.15381968234E+02  0.44196461242E+02  0.00000000000E+00 0. -1.
</event>
<event>
 7    1  0.7029100E-006  0.5859897E+02  0.7818608E-02  0.1480446E+00
          2   -1    0    0  502    0  0.00000000000E+00  0.00000000000E+00  0.95441852952E+02  0.95441852952E+02  0.00000000000E+00 0. -1.
          1   -1    0    0  501    0 -0.00000000000E+00 -0.00000000000E+00 -0.22642620595E+04  0.22642620595E+04  0.00000000000E+00 0. -1.
         25    2    1    2    0    0 -0.28048925279E+02  0.57815631529E+02 -0.10391807301E+04  0.10486418647E+04  0.12499512396E+03 0.  0.
          2    1    1    2  501    0  0.33088070421E+02  0.59663161084E+00 -0.12106275492E+04  0.12110797823E+04  0.00000000000E+00 0. -1.
          1    1    1    2  502    0 -0.50391451426E+01 -0.58412263140E+02  0.80988072769E+02  0.99982265426E+02  0.00000000000E+00 0. -1.
         22    1    3    3    0    0  0.47036484293E+02  0.26594189863E+01 -0.38021226223E+03  0.38311991297E+03  0.00000000000E+00 0.  1.
         22    1    3    3    0    0 -0.75085409571E+02  0.55156212542E+02 -0.65896846792E+03  0.66552195172E+03  0.00000000000E+00 0.  1.
</event>
<event>
 7    1  0.7029100E-006  0.8870874E+02  0.7818608E-02  0.1491198E+00
          2   -1    0    0  502    0  0.00000000000E+00  0.00000000000E+00  0.26525628402E+03  0.26525628402E+03  0.00000000000E+00 0. -1.
          1   -1    0    0  501    0 -0.00000000000E+00 -0.00000000000E+00 -0.16351194934E+03  0.16351194934E+03  0.00000000000E+00 0. -1.
         25    2    1    2    0    0  0.10348103237E+02 -0.87802659919E+02  0.52229508372E+02  0.16178565702E+03  0.12502114599E+03 0.  0.
          2    1    1    2  501    0 -0.20256156642E+02 -0.85647391818E+00 -0.95005776815E+02  0.97144958993E+02  0.00000000000E+00 0. -1.
          1    1    1    2  502    0  0.99080534050E+01  0.88659133837E+02  0.14452060313E+03  0.16983761734E+03  0.00000000000E+00 0. -1.
         22    1    3    3    0    0 -0.31257010932E+02 -0.55365877556E+02  0.79983565286E+02  0.10217510385E+03  0.00000000000E+00 0. -1.
         22    1    3    3    0    0  0.41605114168E+02 -0.32436782363E+02 -0.27754056913E+02  0.59610553178E+02  0.00000000000E+00 0. -1.
</event>
<event>
 7    1  0.7029100E-006  0.1481524E+03  0.7818608E-02  0.1291335E+00
          2   -1    0    0  502    0  0.00000000000E+00  0.00000000000E+00  0.18455366043E+04  0.18455366043E+04  0.00000000000E+00 0. -1.
          1   -1    0    0  501    0 -0.00000000000E+00 -0.00000000000E+00 -0.28538998041E+03  0.28538998041E+03  0.00000000000E+00 0. -1.
         25    2    1    2    0    0 -0.99804720718E+02  0.62268772770E+02  0.27601149402E+03  0.32503162736E+03  0.12499932644E+03 0.  0.
          2    1    1    2  501    0  0.14869717919E+03 -0.26083281981E+02 -0.23838098235E+03  0.28216428095E+03  0.00000000000E+00 0. -1.
          1    1    1    2  502    0 -0.48892458475E+02 -0.36185490789E+02  0.15225161123E+04  0.15237306764E+04  0.00000000000E+00 0. -1.
         22    1    3    3    0    0 -0.34006487055E+02  0.43309649505E+02  0.24272847419E+03  0.24889612107E+03  0.00000000000E+00 0.  1.
         22    1    3    3    0    0 -0.65798233664E+02  0.18959123264E+02  0.33283019834E+02  0.76135506286E+02  0.00000000000E+00 0.  1.
</event>
<event>
 7    1  0.7029100E-006  0.2215278E+02  0.7818608E-02  0.1717785E+00
          2   -1    0    0  502    0  0.00000000000E+00  0.00000000000E+00  0.25426903054E+04  0.25426903054E+04  0.00000000000E+00 0. -1.
          1   -1    0    0  501    0 -0.00000000000E+00 -0.00000000000E+00 -0.50449046928E+01  0.50449046928E+01  0.00000000000E+00 0. -1.
         25    2    1    2    0    0 -0.15698452214E+02 -0.12577913016E+02  0.20803325554E+04  0.20841817510E+04  0.12500153975E+03 0.  0.
          2    1    1    2  501    0  0.17485520005E+02 -0.11239614185E+02  0.36044952845E+02  0.41609025012E+02  0.00000000000E+00 0. -1.
          1    1    1    2  502    0 -0.17870677907E+01  0.23817527201E+02  0.42126789249E+03  0.42194443408E+03  0.00000000000E+00 0. -1.
         22    1    3    3    0    0 -0.60451827726E+02  0.17348498127E+02  0.70619846573E+03  0.70899341807E+03  0.00000000000E+00 0. -1.
         22    1    3    3    0    0  0.44753375512E+02 -0.29926411144E+02  0.13741340897E+04  0.13751883330E+04  0.00000000000E+00 0. -1.
</event>
<event>
 7    1  0.7029100E-006  0.1311347E+03  0.7818608E-02  0.1297121E+00
          2   -1    0    0  502    0  0.00000000000E+00  0.00000000000E+00  0.14666399814E+04  0.14666399814E+04  0.00000000000E+00 0. -1.
          1   -1    0    0  501    0 -0.00000000000E+00 -0.00000000000E+00 -0.93190367077E+02  0.93190367077E+02  0.00000000000E+00 0. -1.
         25    2    1    2    0    0  0.97601848854E+02  0.26412085652E+02  0.16660484473E+02  0.16163417603E+03  0.12499726377E+03 0.  0.
          2    1    1    2  501    0 -0.10034509626E+01  0.65111508106E+02  0.43795569156E+02  0.78476539676E+02  0.00000000000E+00 0. -1.
          1    1    1    2  502    0 -0.96598397891E+02 -0.91523593759E+02  0.13129935607E+04  0.13197196328E+04  0.00000000000E+00 0. -1.
         22    1    3    3    0    0  0.67047583230E+01 -0.32328683893E+01 -0.46470390431E+02  0.47062749696E+02  0.00000000000E+00 0.  1.
         22    1    3    3    0    0  0.90897090531E+02  0.29644954041E+02  0.63130874903E+02  0.11457142634E+03  0.00000000000E+00 0.  1.
</event>
<event>
 7    1  0.7029100E-006  0.7295552E+02  0.7818608E-02  0.1453134E+00
          2   -1    0    0  502    0  0.00000000000E+00  0.00000000000E+00  0.50133580036E+03  0.50133580036E+03  0.00000000000E+00 0. -1.
          1   -1    0    0  501    0 -0.00000000000E+00 -0.00000000000E+00 -0.60439625887E+02  0.60439625887E+02  0.00000000000E+00 0. -1.
         25    2    1    2    0    0 -0.91710900611E+02 -0.28113357172E+02  0.12589718024E+03  0.20168389404E+03  0.12500017192E+03 0.  0.
          2    1    1    2  501    0  0.31159027893E+02 -0.87100577416E+01 -0.46451250342E+01  0.32685276681E+02  0.00000000000E+00 0. -1.
          1    1    1    2  502    0  0.60551872718E+02  0.36823414914E+02  0.31964411926E+03  0.32740625552E+03  0.00000000000E+00 0. -1.
         22    1    3    3    0    0 -0.97595015281E+02  0.12247090367E+02  0.12729979689E+03  0.16087267176E+03  0.00000000000E+00 0. -1.
         22    1    3    3    0    0  0.58841146696E+01 -0.40360447540E+02 -0.14026166452E+01  0.40811222286E+02  0.00000000000E+00 0. -1.
</event>
<event>
 7    1  0.7029100E-006  0.1133389E+03  0.7818608E-02  0.1393506E+00
          2   -1    0    0  502    0  0.00000000000E+00  0.00000000000E+00  0.13829406512E+04  0.13829406512E+04  0.00000000000E+00 0. -1.
          1   -1    0    0  501    0 -0.00000000000E+00 -0.00000000000E+00 -0.76377088177E+03  0.76377088177E+03  0.00000000000E+00 0. -1.
         25    2    1    2    0    0  0.44841303908E+02 -0.67254474768E+02 -0.40434142272E+03  0.43087129834E+03  0.12499673072E+03 0.  0.
          2    1    1    2  501    0  0.14637287715E+02 -0.29439082809E+02 -0.34302493126E+03  0.34459688514E+03  0.00000000000E+00 0. -1.
          1    1    1    2  502    0 -0.59478591623E+02  0.96693557577E+02  0.13665361234E+04  0.13712433495E+04  0.00000000000E+00 0. -1.
         22    1    3    3    0    0  0.28647901594E+02  0.19918889546E+02 -0.29516046988E+02  0.45701875851E+02  0.00000000000E+00 0.  1.
         22    1    3    3    0    0  0.16193402314E+02 -0.87173364315E+02 -0.37482537574E+03  0.38516942249E+03  0.00000000000E+00 0.  1.
</event>
<event>
 7    1  0.7029100E-006  0.6946468E+02  0.7818608E-02  0.1506250E+00
          2   -1    0    0  502    0  0.00000000000E+00  0.00000000000E+00  0.12843572068E+03  0.12843572068E+03  0.00000000000E+00 0. -1.
          1   -1    0    0  501    0 -0.00000000000E+00 -0.00000000000E+00 -0.17736388040E+04  0.17736388040E+04  0.00000000000E+00 0. -1.
         25    2    1    2    0    0  0.40579953644E+02  0.25094503874E+02 -0.26953020271E+03  0.30091379068E+03  0.12500444986E+03 0.  0.
          2    1    1    2  501    0  0.22644477637E+02  0.56664508189E+01 -0.14773537037E+04  0.14775381033E+04  0.00000000000E+00 0. -1.
          1    1    1    2  502    0 -0.63224431281E+02 -0.30760954693E+02  0.10168082304E+03  0.12362263069E+03  0.00000000000E+00 0. -1.
         22    1    3    3    0    0  0.74713349952E+02  0.40476793271E+02 -0.12178876063E+03  0.14850238271E+03  0.00000000000E+00 0.  1.
         22    1    3    3    0    0 -0.34133396307E+02 -0.15382289397E+02 -0.14774144209E+03  0.15241140797E+03  0.00000000000E+00 0.  1.
</event>
<event>
 7    1  0.7029100E-006  0.8108808E+02  0.7818608E-02  0.1410466E+00
          2   -1    0    0  502    0  0.00000000000E+00  0.00000000000E+00  0.64613012734E+03  0.64613012734E+03  0.00000000000E+00 0. -1.
          1   -1    0    0  501    0 -0.00000000000E+00 -0.00000000000E+00 -0.74762028531E+02  0.74762028531E+02  0.00000000000E+00 0. -1.
         25    2    1    2    0    0 -0.52828908651E+01 -0.90593529241E+02  0.17129441558E+03  0.23065539681E+03  0.12500015517E+03 0.  0.
          2    1    1    2  501    0  0.36834316291E+02  0.16087303622E+02 -0.31548204015E+02  0.51096549502E+02  0.00000000000E+00 0. -1.
          1    1    1    2  502    0 -0.31551425426E+02  0.74506225619E+02  0.43162188725E+03  0.43914020957E+03  0.00000000000E+00 0. -1.
         22    1    3    3    0    0  0.55770764495E+02 -0.20687819649E+02  0.48619099963E+02  0.76825652847E+02  0.00000000000E+00 0. -1.
         22    1    3    3    0    0 -0.61053655360E+02 -0.69905709591E+02  0.12267531561E+03  0.15382974396E+03  0.00000000000E+00 0. -1.
</event>
<event>
 7    1  0.7029100E-006  0.1562420E+03  0.7818608E-02  0.1271182E+00
          2   -1    0    0  502    0  0.00000000000E+00  0.00000000000E+00  0.26776333557E+03  0.26776333557E+03  0.00000000000E+00 0. -1.
          1   -1    0    0  501    0 -0.00000000000E+00 -0.00000000000E+00 -0.28761954243E+03  0.28761954243E+03  0.00000000000E+00 0. -1.
         25    2    1    2    0    0  0.48329123108E+02  0.83408715813E+02 -0.19355766014E+03  0.24976145192E+03  0.12499398807E+03 0.  0.
          2    1    1    2  501    0  0.22500571524E+02  0.66119458533E+02  0.60988225415E+01  0.70108873561E+02  0.00000000000E+00 0. -1.
          1    1    1    2  502    0 -0.70829694632E+02 -0.14952817435E+03  0.16760263074E+03  0.23551255252E+03  0.00000000000E+00 0. -1.
         22    1    3    3    0    0 -0.15646271894E+02  0.32239448814E+02  0.38390235943E+01  0.36040615785E+02  0.00000000000E+00 0.  1.
         22    1    3    3    0    0  0.63975395002E+02  0.51169266999E+02 -0.19739668373E+03  0.21372083614E+03  0.00000000000E+00 0.  1.
</event>
<event>
 7    1  0.7029100E-006  0.1707924E+03  0.7818608E-02  0.1203745E+00
          2   -1    0    0  502    0  0.00000000000E+00  0.00000000000E+00  0.17524097353E+04  0.17524097353E+04  0.00000000000E+00 0. -1.
          1   -1    0    0  501    0 -0.00000000000E+00 -0.00000000000E+00 -0.14071586183E+04  0.14071586183E+04  0.00000000000E+00 0. -1.
         25    2    1    2    0    0 -0.25849574503E+03  0.76350475762E+02  0.25720869789E+03  0.39297660889E+03  0.12499942208E+03 0.  0.
          2    1    1    2  501    0  0.16888523684E+03  0.13864417712E+02 -0.13310604679E+04  0.13418034187E+04  0.00000000000E+00 0. -1.
          1    1    1    2  502    0  0.89610508185E+02 -0.90214893474E+02  0.14191028869E+04  0.14247883260E+04  0.00000000000E+00 0. -1.
         22    1    3    3    0    0 -0.22824150949E+03  0.31177668101E+02  0.15638609430E+03  0.27842924439E+03  0.00000000000E+00 0. -1.
         22    1    3    3    0    0 -0.30254235541E+02  0.45172807660E+02  0.10082260359E+03  0.11454736451E+03  0.00000000000E+00 0. -1.
</event>
<event>
 7    1  0.7029100E-006  0.6007733E+02  0.7818608E-02  0.1445429E+00
          2   -1    0    0  502    0  0.00000000000E+00  0.00000000000E+00  0.26874458923E+04  0.26874458923E+04  0.00000000000E+00 0. -1.
          1   -1    0    0  501    0 -0.00000000000E+00 -0.00000000000E+00 -0.49942280710E+02  0.49942280710E+02  0.00000000000E+00 0. -1.
         25    2    1    2    0    0  0.73669752310E+02  0.51446104185E+02  0.19842023492E+03  0.25114387878E+03  0.12501489585E+03 0.  0.
          2    1    1    2  501    0 -0.15292706394E+02 -0.38672022224E+02 -0.45916680733E+01  0.41838685297E+02  0.00000000000E+00 0. -1.
          1    1    1    2  502    0 -0.58377045916E+02 -0.12774081961E+02  0.24436750447E+04  0.24444056089E+04  0.00000000000E+00 0. -1.
         22    1    3    3    0    0 -0.17322607316E+02 -0.13870169507E+02  0.98743224554E+02  0.10120611998E+03  0.00000000000E+00 0.  1.
         22    1    3    3    0    0  0.90992359626E+02  0.65316273692E+02  0.99677010366E+02  0.14993775880E+03  0.00000000000E+00 0.  1.
</event>
<event>
 7    1  0.7029100E-006  0.8614986E+02  0.7818608E-02  0.1335093E+00
          2   -1    0    0  502    0  0.00000000000E+00  0.00000000000E+00  0.52917002262E+03  0.52917002262E+03  0.00000000000E+00 0. -1.
          1   -1    0    0  501    0 -0.00000000000E+00 -0.00000000000E+00 -0.37682997083E+03  0.37682997083E+03  0.00000000000E+00 0. -1.
         25    2    1    2    0    0 -0.76438229490E+01 -0.33993842010E+02 -0.79400004602E+02  0.15213034880E+03  0.12500109188E+03 0.  0.
          2    1    1    2  501    0 -0.20177610826E+02  0.98724063608E+02 -0.24867545473E+03  0.26831522227E+03  0.00000000000E+00 0. -1.
          1    1    1    2  502    0  0.27821433775E+02 -0.64730221598E+02  0.48041551112E+03  0.48555442238E+03  0.00000000000E+00 0. -1.
         22    1    3    3    0    0  0.20036812317E+02 -0.31760063453E+01  0.29395023980E+02  0.35715939004E+02  0.00000000000E+00 0.  1.
         22    1    3    3    0    0 -0.27680635266E+02 -0.30817835665E+02 -0.10879502858E+03  0.11641440980E+03  0.00000000000E+00 0.  1.
</event>
<event>
 7    1  0.7029100E-006  0.1507055E+03  0.7818608E-02  0.1233006E+00
          2   -1    0    0  502    0  0.00000000000E+00  0.00000000000E+00  0.35603529104E+03  0.35603529104E+03  0.00000000000E+00 0. -1.
          1   -1    0    0  501    0 -0.00000000000E+00 -0.00000000000E+00 -0.17777010204E+04  0.17777010204E+04  0.00000000000E+00 0. -1.
         25    2    1    2    0    0  0.18694386028E+03  0.13068923732E+03 -0.58156805963E+03  0.63708692652E+03  0.12502263925E+03 0.  0.
          2    1    1    2  501    0 -0.82424773430E+02 -0.11366328727E+03 -0.11554718052E+04  0.11639709097E+04  0.00000000000E+00 0. -1.
          1    1    1    2  502    0 -0.10451908685E+03 -0.17025950049E+02  0.31537413548E+03  0.33267847514E+03  0.00000000000E+00 0. -1.
         22    1    3    3    0    0  0.12490724339E+03  0.14674611539E+03 -0.47685948735E+03  0.51432597884E+03  0.00000000000E+00 0. -1.
         22    1    3    3    0    0  0.62036616889E+02 -0.16056878073E+02 -0.10470857227E+03  0.12276094768E+03  0.00000000000E+00 0. -1.
</event>
<event>
 7    1  0.7029100E-006  0.4859982E+02  0.7818608E-02  0.1469619E+00
          2   -1    0    0  502    0  0.00000000000E+00  0.00000000000E+00  0.11593427300E+03  0.11593427300E+03  0.00000000000E+00 0. -1.
          1   -1    0    0  501    0 -0.00000000000E+00 -0.00000000000E+00 -0.17647420213E+04  0.17647420213E+04  0.00000000000E+00 0. -1.
         25    2    1    2    0    0 -0.37028504373E+02  0.62244338506E+02 -0.10936184134E+03  0.18119345996E+03  0.12500235909E+03 0.  0.
          2    1    1    2  501    0  0.44280801020E+02 -0.19762471906E+02 -0.16132708008E+04  0.16139993871E+04  0.00000000000E+00 0. -1.
          1    1    1    2  502    0 -0.72522966472E+01 -0.42481866600E+02  0.73824893890E+02  0.85483447253E+02  0.00000000000E+00 0. -1.
         22    1    3    3    0    0  0.13487318361E+02  0.79946311768E+02 -0.96695283130E+02  0.12618755209E+03  0.00000000000E+00 0. -1.
         22    1    3    3    0    0 -0.50515822734E+02 -0.17701973262E+02 -0.12666558214E+02  0.55005907872E+02  0.00000000000E+00 0. -1.
</event>
<event>
 7    1  0.1661116E-005  0.9024897E+02  0.7818608E-02  0.1341187E+00
          2   -1    0    0  502    0  0.00000000000E+00  0.00000000000E+00  0.21719409369E+04  0.21719409369E+04  0.00000000000E+00 0. -1.
          1   -1    0    0  501    0 -0.00000000000E+00 -0.00000000000E+00 -0.12348838024E+04  0.12348838024E+04  0.00000000000E+00 0. -1.
         25    2    1    2    0    0 -0.10437900278E+03 -0.59346006395E+02 -0.58084247631E+03  0.60615204154E+03  0.12500156193E+03 0.  0.
          2    1    1    2  501    0  0.42583563466E+02  0.75164210522E+02 -0.63800373474E+03  0.64382589569E+03  0.00000000000E+00 0. -1.
          1    1    1    2  502    0  0.61795439312E+02 -0.15818204127E+02  0.21559033455E+04  0.21568468020E+04  0.00000000000E+00 0. -1.
         22    1    3    3    0    0  0.18420235863E+02 -0.28773288593E+02 -0.50851906351E+02  0.61262742391E+02  0.00000000000E+00 0.  1.
         22    1    3    3    0    0 -0.12279923864E+03 -0.30572717802E+02 -0.52999056996E+03  0.54488929915E+03  0.00000000000E+00 0.  1.
</event>
<event>
 7    1  0.7029100E-006  0.9374614E+02  0.7818608E-02  0.1321530E+00
          2   -1    0    0  502    0  0.00000000000E+00  0.00000000000E+00  0.71002342909E+03  0.71002342909E+03  0.00000000000E+00 0. -1.
          1   -1    0    0  501    0 -0.00000000000E+00 -0.00000000000E+00 -0.13021017551E+04  0.13021017551E+04  0.00000000000E+00 0. -1.
         25    2    1    2    0    0 -0.35369971350E+02  0.51043660470E+02 -0.26450235349E+02  0.14205981974E+03  0.12499954914E+03 0.  0.
          2    1    1    2  501    0  0.59852092580E+02  0.41748828913E+02 -0.12132142444E+04  0.12154069445E+04  0.00000000000E+00 0. -1.
          1    1    1    2  502    0 -0.24482121230E+02 -0.92792489383E+02  0.64758615377E+03  0.65465842002E+03  0.00000000000E+00 0. -1.
         22    1    3    3    0    0 -0.43876920709E+02  0.42537979735E+01 -0.66568505801E+02  0.79841373565E+02  0.00000000000E+00 0.  1.
         22    1    3    3    0    0  0.85069493587E+01  0.46789862497E+02  0.40118270452E+02  0.62218446171E+02  0.00000000000E+00 0.  1.
</event>
<event>
 7    1  0.7029100E-006  0.7986266E+02  0.7818608E-02  0.1352751E+00
          2   -1    0    0  502    0  0.00000000000E+00  0.00000000000E+00  0.17239038235E+03  0.17239038235E+03  0.00000000000E+00 0. -1.
          1   -1    0    0  501    0 -0.00000000000E+00 -0.00000000000E+00 -0.31546871344E+04  0.31546871344E+04  0.00000000000E+00 0. -1.
         25    2    1    2    0    0  0.93850681228E+02  0.80571036559E+02 -0.11987929945E+01  0.17585379855E+03  0.12499391610E+03 0.  0.
          2    1    1    2  501    0 -0.63907504588E+02 -0.13325610492E+02 -0.30498207653E+04  0.30505193724E+04  0.00000000000E+00 0. -1.
          1    1    1    2  502    0 -0.29943176640E+02 -0.67245426067E+02  0.68722806271E+02  0.10070434576E+03  0.00000000000E+00 0. -1.
         22    1    3    3    0    0  0.10299866694E+03  0.84942030285E+02 -0.37086485237E+02  0.13856147115E+03  0.00000000000E+00 0. -1.
         22    1    3    3    0    0 -0.91479857068E+01 -0.43709937262E+01  0.35887692243E+02  0.37292327404E+02  0.00000000000E+00 0. -1.
</event>
<event>
 7    1  0.7029100E-006  0.5661816E+02  0.7818608E-02  0.1422149E+00
          2   -1    0    0  502    0  0.00000000000E+00  0.00000000000E+00  0.29999526064E+04  0.29999526064E+04  0.00000000000E+00 0. -1.
          1   -1    0    0  501    0 -0.00000000000E+00 -0.00000000000E+00 -0.36293705109E+04  0.36293705109E+04  0.00000000000E+00 0. -1.
         25    2    1    2    0    0  0.90096684892E+02  0.61627483467E+02 -0.12017736851E+04  0.12131746357E+04  0.12496938534E+03 0.  0.
          2    1    1    2  501    0 -0.44254855676E+02 -0.28418664563E+02 -0.24213432242E+04  0.24219143507E+04  0.00000000000E+00 0. -1.
          1    1    1    2  502    0 -0.45841829216E+02 -0.33208818903E+02  0.29936990048E+04  0.29942341309E+04  0.00000000000E+00 0. -1.
         22    1    3    3    0    0  0.95689037861E+02  0.14813753600E+02 -0.10447031880E+04  0.10491809140E+04  0.00000000000E+00 0.  1.
         22    1    3    3    0    0 -0.55923529690E+01  0.46813729866E+02 -0.15707049705E+03  0.16399372171E+03  0.00000000000E+00 0.  1.
</event>
<event>
 7    1  0.7029100E-006  0.6815927E+02  0.7818608E-02  0.1492589E+00
          2   -1    0    0  502    0  0.00000000000E+00  0.00000000000E+00  0.35171084398E+03  0.35171084398E+03  0.00000000000E+00 0. -1.
          1   -1    0    0  501    0 -0.00000000000E+00 -0.00000000000E+00 -0.14571446454E+04  0.14571446454E+04  0.00000000000E+00 0. -1.
         25    2    1    2    0    0  0.59402230915E+02  0.69924648875E+01  0.72698614643E+02  0.15648800405E+03  0.12500354890E+03 0.  0.
          2    1    1    2  501    0 -0.65734906613E+02  0.18361745855E+02 -0.14137041154E+04  0.14153506836E+04  0.00000000000E+00 0. -1.
          1    1    1    2  502    0  0.63326756982E+01 -0.25354210743E+02  0.23557169933E+03  0.23701680174E+03  0.00000000000E+00 0. -1.
         22    1    3    3    0    0  0.97004295760E+01  0.62866542854E+02  0.29395420915E+02  0.70074184370E+02  0.00000000000E+00 0.  1.
         22    1    3    3    0    0  0.49701801339E+02 -0.55874077966E+02  0.43303193728E+02  0.86413819681E+02  0.00000000000E+00 0.  1.
</event>
<event>
 7    1  0.7029100E-006  0.1002373E+03  0.7818608E-02  0.1350637E+00
          2   -1    0    0  502    0  0.00000000000E+00  0.00000000000E+00  0.67641639367E+03  0.67641639367E+03  0.00000000000E+00 0. -1.
          1   -1    0    0  501    0 -0.00000000000E+00 -0.00000000000E+00 -0.46656058921E+03  0.46656058921E+03  0.00000000000E+00 0. -1.
         25    2    1    2    0    0 -0.66989914233E+02 -0.31367772891E+01  0.48668460370E+02  0.14997225650E+03  0.12500228279E+03 0.  0.
          2    1    1    2  501    0 -0.23891746301E+02 -0.47260957110E+02 -0.40951153818E+03  0.41292143746E+03  0.00000000000E+00 0. -1.
          1    1    1    2  502    0  0.90881660534E+02  0.50397734399E+02  0.57069888228E+03  0.58008328892E+03  0.00000000000E+00 0. -1.
         22    1    3    3    0    0 -0.17769983303E+02  0.53782650600E+02 -0.60028916166E+01  0.56959463831E+02  0.00000000000E+00 0.  1.
         22    1    3    3    0    0 -0.49219930929E+02 -0.56919427889E+02  0.54671351986E+02  0.93012792668E+02  0.00000000000E+00 0.  1.
</event>
<event>
 7    1  0.7029100E-006  0.1388006E+03  0.7818608E-02  0.1315138E+00
          2   -1    0    0  502    0  0.00000000000E+00  0.00000000000E+00  0.35524648973E+04  0.35524648973E+04  0.00000000000E+00 0. -1.
          1   -1    0    0  501    0 -0.00000000000E+00 -0.00000000000E+00 -0.52453809184E+03  0.52453809184E+03  0.00000000000E+00 0. -1.
         25    2    1    2    0    0 -0.12236727678E+03 -0.11399036265E+03  0.21222197418E+04  0.21324654910E+04  0.12499953860E+03 0.  0.
          2    1    1    2  501    0  0.70464784759E+02  0.11947475768E+03 -0.50966548664E+03  0.52820300254E+03  0.00000000000E+00 0. -1.
          1    1    1    2  502    0  0.51902492025E+02 -0.54843950314E+01  0.14153725503E+04  0.14163344956E+04  0.00000000000E+00 0. -1.
         22    1    3    3    0    0  0.10630781573E+02 -0.64697811698E+02  0.79012624925E+03  0.79284192000E+03  0.00000000000E+00 0.  1.
         22    1    3    3    0    0 -0.13299805836E+03 -0.49292550948E+02  0.13320934925E+04  0.13396235710E+04  0.00000000000E+00 0.  1.
</event>
<event>
 7    1  0.7029100E-006  0.1190540E+03  0.7818608E-02  0.1346098E+00
          2   -1    0    0  502    0  0.00000000000E+00  0.00000000000E+00  0.10095197790E+03  0.10095197790E+03  0.00000000000E+00 0. -1.
          1   -1    0    0  501    0 -0.00000000000E+00 -0.00000000000E+00 -0.85373164225E+03  0.85373164225E+03  0.00000000000E+00 0. -1.
         25    2    1    2    0    0 -0.32278925010E+02  0.83274939169E+02 -0.15713335772E+03  0.21975790768E+03  0.12500400549E+03 0.  0.
          2    1    1    2  501    0 -0.39600549141E+02  0.24088536769E+02 -0.60369484075E+03  0.60547165239E+03  0.00000000000E+00 0. -1.
          1    1    1    2  502    0  0.71879474151E+02 -0.10736347594E+03  0.80485341195E+01  0.12945406008E+03  0.00000000000E+00 0. -1.
         22    1    3    3    0    0 -0.64126313597E+02  0.14694842900E+02 -0.11681406620E+03  0.13406583668E+03  0.00000000000E+00 0.  1.
         22    1    3    3    0    0  0.31847388587E+02  0.68580096269E+02 -0.40319291517E+02  0.85692071001E+02  0.00000000000E+00 0.  1.
</event>
<event>
 7    1  0.7029100E-006  0.1102346E+03  0.7818608E-02  0.1370004E+00
          2   -1    0    0  502    0  0.00000000000E+00  0.00000000000E+00  0.36241383570E+03  0.36241383570E+03  0.00000000000E+00 0. -1.
          1   -1    0    0  501    0 -0.00000000000E+00 -0.00000000000E+00 -0.15875651551E+03  0.15875651551E+03  0.00000000000E+00 0. -1.
         25    2    1    2    0    0  0.14211183276E+03 -0.18251245437E+02  0.10290905288E+03  0.21620341449E+03  0.12499904921E+03 0.  0.
          2    1    1    2  501    0 -0.40094416628E+02  0.82008631617E+01 -0.84138219092E+02  0.93563114064E+02  0.00000000000E+00 0. -1.
          1    1    1    2  502    0 -0.10201741613E+03  0.10050382275E+02  0.18488648640E+03  0.21140382265E+03  0.00000000000E+00 0. -1.
         22    1    3    3    0    0  0.72723310049E+02  0.41122466252E+01 -0.17986665159E+02  0.75027398464E+02  0.00000000000E+00 0. -1.
         22    1    3    3    0    0  0.69388522708E+02 -0.22363492062E+02  0.12089571804E+03  0.14117601603E+03  0.00000000000E+00 0. -1.
</event>
<event>
 7    1  0.7029100E-006  0.6010184E+02  0.7818608E-02  0.1508451E+00
          2   -1    0    0  502    0  0.00000000000E+00  0.00000000000E+00  0.44836356652E+03  0.44836356652E+03  0.00000000000E+00 0. -1.
          1   -1    0    0  501    0 -0.00000000000E+00 -0.00000000000E+00 -0.63311649341E+03  0.63311649341E+03  0.00000000000E+00 0. -1.
         25    2    1    2    0    0 -0.64541908147E+02  0.46472347355E+02  0.19993149804E+03  0.24884449625E+03  0.12500256969E+03 0.  0.
          2    1    1    2  501    0  0.11788258236E+02 -0.23820868438E+02 -0.60468426807E+03  0.60526809007E+03  0.00000000000E+00 0. -1.
          1    1    1    2  502    0  0.52753649911E+02 -0.22651478917E+02  0.21999984314E+03  0.22736747362E+03  0.00000000000E+00 0. -1.
         22    1    3    3    0    0 -0.79022575420E+01  0.38908380012E+02 -0.12326350419E+01  0.39721871791E+02  0.00000000000E+00 0. -1.
         22    1    3    3    0    0 -0.56639650605E+02  0.75639673429E+01  0.20116413308E+03  0.20912262446E+03  0.00000000000E+00 0. -1.
</event>
<event>
 7    1  0.7029100E-006  0.4167569E+02  0.7818608E-02  0.1515567E+00
          2   -1    0    0  502    0  0.00000000000E+00  0.00000000000E+00  0.36044636066E+03  0.36044636066E+03  0.00000000000E+00 0. -1.
          1   -1    0    0  501    0 -0.00000000000E+00 -0.00000000000E+00 -0.31417707248E+03  0.31417707248E+03  0.00000000000E+00 0. -1.
         25    2    1    2    0    0  0.47214629751E+01 -0.71092237976E+02 -0.17234967449E+03  0.22451015809E+03  0.12499600905E+03 0.  0.
          2    1    1    2  501    0 -0.13944278324E+02  0.35746521845E+02 -0.11153198193E+03  0.11794761428E+03  0.00000000000E+00 0. -1.
          1    1    1    2  502    0  0.92228153485E+01  0.35345716131E+02  0.33015094459E+03  0.33216566076E+03  0.00000000000E+00 0. -1.
         22    1    3    3    0    0  0.13196721401E+02  0.11433257439E+02 -0.13036973879E+03  0.13153380411E+03  0.00000000000E+00 0.  1.
         22    1    3    3    0    0 -0.84752584262E+01 -0.82525495415E+02 -0.41979935698E+02  0.92976353984E+02  0.00000000000E+00 0.  1.
</event>
<event>
 7    1  0.7029100E-006  0.7990073E+02  0.7818608E-02  0.1353936E+00
          2   -1    0    0  502    0  0.00000000000E+00  0.00000000000E+00  0.30800668421E+04  0.30800668421E+04  0.00000000000E+00 0. -1.
          1   -1    0    0  501    0 -0.00000000000E+00 -0.00000000000E+00 -0.61420969389E+03  0.61420969389E+03  0.00000000000E+00 0. -1.
         25    2    1    2    0    0 -0.14041000775E+03 -0.16038711696E+02  0.16647947921E+04  0.16754520647E+04  0.12500284304E+03 0.  0.
          2    1    1    2  501    0  0.79600313782E+02 -0.57571633119E+01 -0.60552140291E+03  0.61075815530E+03  0.00000000000E+00 0. -1.
          1    1    1    2  502    0  0.60809693963E+02  0.21795875008E+02  0.14065837590E+04  0.14080663160E+04  0.00000000000E+00 0. -1.
         22    1    3    3    0    0 -0.74242727109E+02  0.28702753611E+02  0.38367877338E+03  0.39184848059E+03  0.00000000000E+00 0.  1.
         22    1    3    3    0    0 -0.66167280636E+02 -0.44741465307E+02  0.12811160187E+04  0.12836035841E+04  0.00000000000E+00 0.  1.
</event>
<event>
 7    1  0.7029100E-006  0.3984973E+02  0.7818608E-02  0.1536845E+00
          2   -1    0    0  502    0  0.00000000000E+00  0.00000000000E+00  0.72029942669E+03  0.72029942669E+03  0.00000000000E+00 0. -1.
          1   -1    0    0  501    0 -0.00000000000E+00 -0.00000000000E+00 -0.30890843831E+02  0.30890843831E+02  0.00000000000E+00 0. -1.
         25    2    1    2    0    0 -0.21891270119E+02 -0.54418819050E+02  0.23331668495E+03  0.27111404531E+03  0.12500205805E+03 0.  0.
          2    1    1    2  501    0  0.29213217529E+02  0.15723386594E+02  0.13632371991E+02  0.35867513582E+02  0.00000000000E+00 0. -1.
          1    1    1    2  502    0 -0.73219474102E+01  0.38695432455E+02  0.44245952592E+03  0.44420871162E+03  0.00000000000E+00 0. -1.
         22    1    3    3    0    0  0.39861154714E+02 -0.40045609915E+02  0.44456776809E+02  0.71895532078E+02  0.00000000000E+00 0.  1.
         22    1    3    3    0    0 -0.61752424833E+02 -0.14373209135E+02  0.18885990814E+03  0.19921851323E+03  0.00000000000E+00 0.  1.
</event>
<event>
 7    1  0.7029100E-006  0.6897258E+02  0.7818608E-02  0.1400832E+00
          2   -1    0    0  502    0  0.00000000000E+00  0.00000000000E+00  0.14562706832E+04  0.14562706832E+04  0.00000000000E+00 0. -1.
          1   -1    0    0  501    0 -0.00000000000E+00 -0.00000000000E+00 -0.65631381875E+02  0.65631381875E+02  0.00000000000E+00 0. -1.
         25    2    1    2    0    0 -0.11034813971E+03  0.37865271978E+02  0.25615835895E+03  0.30798270177E+03  0.12500299585E+03 0.  0.
          2    1    1    2  501    0  0.44352401543E+02 -0.25112237995E+02 -0.21980704260E+02  0.55505958055E+02  0.00000000000E+00 0. -1.
          1    1    1    2  502    0  0.65995738163E+02 -0.12753033983E+02  0.11564616467E+04  0.11584134053E+04  0.00000000000E+00 0. -1.
         22    1    3    3    0    0  0.16637179562E+02 -0.80135004001E+01  0.53990658010E-01  0.18466587325E+02  0.00000000000E+00 0. -1.
         22    1    3    3    0    0 -0.12698531927E+03  0.45878772378E+02  0.25610436830E+03  0.28951611445E+03  0.00000000000E+00 0. -1.
</event>
<event>
 7    1  0.7029100E-006  0.7919574E+02  0.7818608E-02  0.1448563E+00
          2   -1    0    0  502    0  0.00000000000E+00  0.00000000000E+00  0.10002062025E+04  0.10002062025E+04  0.00000000000E+00 0. -1.
          1   -1    0    0  501    0 -0.00000000000E+00 -0.00000000000E+00 -0.22621455156E+03  0.22621455156E+03  0.00000000000E+00 0. -1.
         25    2    1    2    0    0 -0.10595015263E+03 -0.24034009500E+02  0.84961785399E+02  0.18613916564E+03  0.12500486212E+03 0.  0.
          2    1    1    2  501    0  0.28941940117E+02  0.10605112833E+02 -0.17249007205E+03  0.17522251360E+03  0.00000000000E+00 0. -1.
          1    1    1    2  502    0  0.77008212511E+02  0.13428896667E+02  0.86151993760E+03  0.86505907483E+03  0.00000000000E+00 0. -1.
         22    1    3    3    0    0 -0.20164918859E+02 -0.55997173204E+02  0.72418129833E+02  0.93737361217E+02  0.00000000000E+00 0. -1.
         22    1    3    3    0    0 -0.85785233768E+02  0.31963163704E+02  0.12543655566E+02  0.92401804428E+02  0.00000000000E+00 0. -1.
</event>
<event>
 7    1  0.7029100E-006  0.7691918E+02  0.7818608E-02  0.1432563E+00
          2   -1    0    0  502    0  0.00000000000E+00  0.00000000000E+00  0.35308580555E+03  0.35308580555E+03  0.00000000000E+00 0. -1.
          1   -1    0    0  501    0 -0.00000000000E+00 -0.00000000000E+00 -0.23068182294E+03  0.23068182294E+03  0.00000000000E+00 0. -1.
         25    2    1    2    0    0 -0.23402785545E+02 -0.39289846794E+02  0.11541496354E+03  0.17617209445E+03  0.12499844248E+03 0.  0.
          2    1    1    2  501    0  0.54800014489E+02  0.56413857236E+02 -0.19091803595E+03  0.20648307758E+03  0.00000000000E+00 0. -1.
          1    1    1    2  502    0 -0.31397228944E+02 -0.17124010442E+02  0.19790705501E+03  0.20111245645E+03  0.00000000000E+00 0. -1.
         22    1    3    3    0    0 -0.63657532418E+02  0.12788373011E+02  0.73804991864E+02  0.98300563284E+02  0.00000000000E+00 0.  1.
         22    1    3    3    0    0  0.40254746873E+02 -0.52078219806E+02  0.41609971678E+02  0.77871531171E+02  0.00000000000E+00 0.  1.
</event>
<event>
 7    1  0.7029100E-006  0.4438904E+02  0.7818608E-02  0.1491520E+00
          2   -1    0    0  502    0  0.00000000000E+00  0.00000000000E+00  0.15257335835E+04  0.15257335835E+04  0.00000000000E+00 0. -1.
          1   -1    0    0  501    0 -0.00000000000E+00 -0.00000000000E+00 -0.26291310994E+03  0.26291310994E+03  0.00000000000E+00 0. -1.
         25    2    1    2    0    0 -0.64623237066E+02 -0.51290489431E+02  0.25530228853E+03  0.29599206148E+03  0.12500065942E+03 0.  0.
          2    1    1    2  501    0  0.25898612154E+02  0.31041213473E+02 -0.24049878181E+03  0.24387283386E+03  0.00000000000E+00 0. -1.
          1    1    1    2  502    0  0.38724624912E+02  0.20249275958E+02  0.12480169669E+04  0.12487817981E+04  0.00000000000E+00 0. -1.
         22    1    3    3    0    0 -0.56991933000E+02  0.67768044350E+01  0.22054017505E+03  0.22788588003E+03  0.00000000000E+00 0. -1.
         22    1    3    3    0    0 -0.76313040657E+01 -0.58067293865E+02  0.34762113482E+02  0.68106181455E+02  0.00000000000E+00 0. -1.
</event>
<event>
 7    1  0.7029100E-006  0.5428510E+02  0.7818608E-02  0.1547593E+00
          2   -1    0    0  502    0  0.00000000000E+00  0.00000000000E+00  0.14781935883E+04  0.14781935883E+04  0.00000000000E+00 0. -1.
          1   -1    0    0  501    0 -0.00000000000E+00 -0.00000000000E+00 -0.86121172580E+01  0.86121172580E+01  0.00000000000E+00 0. -1.
         25    2    1    2    0    0 -0.77507242967E+01 -0.39653562729E+02  0.73899263769E+03  0.75057820313E+03  0.12500016682E+03 0.  0.
          2    1    1    2  501    0  0.21103562735E+02  0.58026956841E+02  0.38758079175E+03  0.39246828944E+03  0.00000000000E+00 0. -1.
          1    1    1    2  502    0 -0.13352838439E+02 -0.18373394112E+02  0.34300804165E+03  0.34375921302E+03  0.00000000000E+00 0. -1.
         22    1    3    3    0    0 -0.12027814132E+02 -0.54745926443E+02  0.73067686597E+03  0.73282362628E+03  0.00000000000E+00 0.  1.
         22    1    3    3    0    0  0.42770898354E+01  0.15092363714E+02  0.83157717134E+01  0.17754576850E+02  0.00000000000E+00 0.  1.
</event>
<event>
 7    1  0.7029100E-006  0.1344960E+03  0.7818608E-02  0.1262977E+00
          2   -1    0    0  502    0  0.00000000000E+00  0.00000000000E+00  0.18181376151E+04  0.18181376151E+04  0.00000000000E+00 0. -1.
          1   -1    0    0  501    0 -0.00000000000E+00 -0.00000000000E+00 -0.66286605748E+03  0.66286605748E+03  0.00000000000E+00 0. -1.
         25    2    1    2    0    0  0.44431811443E+02  0.13961533266E+03  0.14096264069E+04  0.14227222015E+04  0.12500091473E+03 0.  0.
          2    1    1    2  501    0  0.42617394977E+02 -0.12764818499E+03 -0.64448156339E+03  0.65838194616E+03  0.00000000000E+00 0. -1.
          1    1    1    2  502    0 -0.87049206420E+02 -0.11967147676E+02  0.39012671411E+03  0.39989952491E+03  0.00000000000E+00 0. -1.
         22    1    3    3    0    0 -0.25343465632E+02  0.36615434665E+02  0.75918810055E+03  0.76049296730E+03  0.00000000000E+00 0. -1.
         22    1    3    3    0    0  0.69775277075E+02  0.10299989800E+03  0.65043830635E+03  0.66222923421E+03  0.00000000000E+00 0. -1.
</event>
<event>
 7    1  0.7029100E-006  0.1944290E+03  0.7818608E-02  0.1213994E+00
          2   -1    0    0  502    0  0.00000000000E+00  0.00000000000E+00  0.13409606774E+04  0.13409606774E+04  0.00000000000E+00 0. -1.
          1   -1    0    0  501    0 -0.00000000000E+00 -0.00000000000E+00 -0.77520028084E+03  0.77520028084E+03  0.00000000000E+00 0. -1.
         25    2    1    2    0    0  0.10337060244E+03  0.22418780190E+03  0.40010241917E+03  0.48646893337E+03  0.12499770132E+03 0.  0.
          2    1    1    2  501    0 -0.92243904507E+02 -0.38870235709E+02 -0.71891336128E+03  0.72584864412E+03  0.00000000000E+00 0. -1.
          1    1    1    2  502    0 -0.11126697936E+02 -0.18531756619E+03  0.88457133868E+03  0.90384338077E+03  0.00000000000E+00 0. -1.
         22    1    3    3    0    0  0.41874880666E+02  0.18577993173E+03  0.21252973081E+03  0.28537094305E+03  0.00000000000E+00 0. -1.
         22    1    3    3    0    0  0.61495721777E+02  0.38407870177E+02  0.18757268837E+03  0.20109799032E+03  0.00000000000E+00 0. -1.
</event>
<event>
 7    1  0.8248837E-006  0.7640390E+02  0.7818608E-02  0.1341586E+00
          2   -1    0    0  502    0  0.00000000000E+00  0.00000000000E+00  0.82751926293E+03  0.82751926293E+03  0.00000000000E+00 0. -1.
          1   -1    0    0  501    0 -0.00000000000E+00 -0.00000000000E+00 -0.23251507309E+04  0.23251507309E+04  0.00000000000E+00 0. -1.
         25    2    1    2    0    0  0.38282339172E+01  0.10064479901E+01 -0.30590411246E+03  0.33048161881E+03  0.12500042418E+03 0.  0.
          2    1    1    2  501    0 -0.54130748367E+02 -0.58514825262E+02 -0.20043737497E+04  0.20059581878E+04  0.00000000000E+00 0. -1.
          1    1    1    2  502    0  0.50302514450E+02  0.57508377272E+02  0.81264639422E+03  0.81623018718E+03  0.00000000000E+00 0. -1.
         22    1    3    3    0    0  0.39570028571E+02  0.50338524156E+02 -0.16382616109E+03  0.17589418761E+03  0.00000000000E+00 0.  1.
         22    1    3    3    0    0 -0.35741794654E+02 -0.49332076166E+02 -0.14207795136E+03  0.15458743121E+03  0.00000000000E+00 0.  1.
</event>
<event>
 7    1  0.7029100E-006  0.6732595E+02  0.7818608E-02  0.1385083E+00
          2   -1    0    0  502    0  0.00000000000E+00  0.00000000000E+00  0.81816711243E+03  0.81816711243E+03  0.00000000000E+00 0. -1.
          1   -1    0    0  501    0 -0.00000000000E+00 -0.00000000000E+00 -0.43603783275E+03  0.43603783275E+03  0.00000000000E+00 0. -1.
         25    2    1    2    0    0 -0.72428039588E+02 -0.94955907966E+02  0.72567766465E+02  0.18749548802E+03  0.12500412762E+03 0.  0.
          2    1    1    2  501    0  0.23154873111E+02  0.62094052702E+02 -0.37438411739E+03  0.38020426994E+03  0.00000000000E+00 0. -1.
          1    1    1    2  502    0  0.49273166476E+02  0.32861855264E+02  0.68394563060E+03  0.68650518722E+03  0.00000000000E+00 0. -1.
         22    1    3    3    0    0  0.17132420067E+02  0.65921451305E+01 -0.17107336754E+02  0.25092571920E+02  0.00000000000E+00 0.  1.
         22    1    3    3    0    0 -0.89560459655E+02 -0.10154805310E+03  0.89675103218E+02  0.16240291610E+03  0.00000000000E+00 0.  1.
</event>
<event>
 7    1  0.7029100E-006  0.2048962E+03  0.7818608E-02  0.1165005E+00
          2   -1    0    0  502    0  0.00000000000E+00  0.00000000000E+00  0.12399702274E+04  0.12399702274E+04  0.00000000000E+00 0. -1.
          1   -1    0    0  501    0 -0.00000000000E+00 -0.00000000000E+00 -0.32784252650E+04  0.32784252650E+04  0.00000000000E+00 0. -1.
         25    2    1    2    0    0 -0.25004956079E+03 -0.11544021621E+03 -0.78203710012E+03  0.83848568209E+03  0.12499994695E+03 0.  0.
          2    1    1    2  501    0  0.15048745407E+03 -0.63416774981E+02 -0.24567887065E+04  0.24622101676E+04  0.00000000000E+00 0. -1.
          1    1    1    2  502    0  0.99562106716E+02  0.17885699119E+03  0.12003707691E+04  0.12176996426E+04  0.00000000000E+00 0. -1.
         22    1    3    3    0    0 -0.18278623468E+03 -0.45083420380E+02 -0.37042701721E+03  0.41552316117E+03  0.00000000000E+00 0. -1.
         22    1    3    3    0    0 -0.67263326109E+02 -0.70356795832E+02 -0.41161008291E+03  0.42296252093E+03  0.00000000000E+00 0. -1.
</event>
<event>
 7    1  0.7029100E-006  0.2580562E+03  0.7818608E-02  0.1115904E+00
          2   -1    0    0  502    0  0.00000000000E+00  0.00000000000E+00  0.10957009804E+04  0.10957009804E+04  0.00000000000E+00 0. -1.
          1   -1    0    0  501    0 -0.00000000000E+00 -0.00000000000E+00 -0.70033332315E+03  0.70033332315E+03  0.00000000000E+00 0. -1.
         25    2    1    2    0    0 -0.14471379874E+02  0.38038991354E+02 -0.50698056113E+02  0.14089563954E+03  0.12499961060E+03 0.  0.
          2    1    1    2  501    0  0.18923404295E+03  0.17545217706E+03 -0.55750555427E+03  0.61433332360E+03  0.00000000000E+00 0. -1.
          1    1    1    2  502    0 -0.17476266307E+03 -0.21349116842E+03  0.10035712676E+04  0.10408053404E+04  0.00000000000E+00 0. -1.
         22    1    3    3    0    0 -0.61708160790E+02  0.10913111161E+02 -0.58670260230E+02  0.85844001181E+02  0.00000000000E+00 0.  1.
         22    1    3    3    0    0  0.47236780917E+02  0.27125880194E+02  0.79722041166E+01  0.55051638360E+02  0.00000000000E+00 0.  1.
</event>
<event>
 7    1  0.7029100E-006  0.5698580E+02  0.7818608E-02  0.1535784E+00
          2   -1    0    0  502    0  0.00000000000E+00  0.00000000000E+00  0.63511208985E+03  0.63511208985E+03  0.00000000000E+00 0. -1.
          1   -1    0    0  501    0 -0.00000000000E+00 -0.00000000000E+00 -0.54119077547E+02  0.54119077547E+02  0.00000000000E+00 0. -1.
         25    2    1    2    0    0  0.16766261957E+02  0.42827823485E+02  0.13554547687E+03  0.19003256621E+03  0.12499787965E+03 0.  0.
          2    1    1    2  501    0  0.23338587579E+02 -0.10256850438E+01 -0.19638293964E+02  0.30518916918E+02  0.00000000000E+00 0. -1.
          1    1    1    2  502    0 -0.40104849536E+02 -0.41802138442E+02  0.46508582940E+03  0.46867968426E+03  0.00000000000E+00 0. -1.
         22    1    3    3    0    0  0.35658810049E+01 -0.78931900365E+01  0.13731908142E+03  0.13759196226E+03  0.00000000000E+00 0. -1.
         22    1    3    3    0    0  0.13200380952E+02  0.50721013522E+02 -0.17736045527E+01  0.52440603954E+02  0.00000000000E+00 0. -1.
</event>
<event>
 7    1  0.7029100E-006  0.2531445E+03  0.7818608E-02  0.1149437E+00
          2   -1    0    0  502    0  0.00000000000E+00  0.00000000000E+00  0.11620493616E+03  0.11620493616E+03  0.00000000000E+00 0. -1.
          1   -1    0    0  501    0 -0.00000000000E+00 -0.00000000000E+00 -0.15652828540E+04  0.15652828540E+04  0.00000000000E+00 0. -1.
         25    2    1    2    0    0  0.24445508207E+03 -0.14464345696E+03 -0.38661028330E+03  0.49575447275E+03  0.12499987724E+03 0.  0.
          2    1    1    2  501    0 -0.25439560947E+03 -0.13623703568E+02 -0.96840758157E+03  0.10013570669E+04  0.00000000000E+00 0. -1.
          1    1    1    2  502    0  0.99405274055E+01  0.15826716053E+03 -0.94060052995E+02  0.18437625052E+03  0.00000000000E+00 0. -1.
         22    1    3    3    0    0  0.63462472198E+02 -0.10848655300E+03 -0.16203010355E+03  0.20506236128E+03  0.00000000000E+00 0.  1.
         22    1    3    3    0    0  0.18099260987E+03 -0.36156903955E+02 -0.22458017976E+03  0.29069211147E+03  0.00000000000E+00 0.  1.
</event>
<event>
 7    1  0.7029100E-006  0.4743381E+02  0.7818608E-02  0.1474803E+00
          2   -1    0    0  502    0  0.00000000000E+00  0.00000000000E+00  0.50415660585E+03  0.50415660585E+03  0.00000000000E+00 0. -1.
          1   -1    0    0  501    0 -0.00000000000E+00 -0.00000000000E+00 -0.29707330331E+03  0.29707330331E+03  0.00000000000E+00 0. -1.
         25    2    1    2    0    0  0.16530870276E+02  0.51946473836E+01  0.31520348066E+03  0.33952812209E+03  0.12500342969E+03 0.  0.
          2    1    1    2  501    0 -0.43573173404E+01  0.47233255866E+02 -0.27876414126E+03  0.28277095524E+03  0.00000000000E+00 0. -1.
          1    1    1    2  502    0 -0.12173552936E+02 -0.52427903250E+02  0.17064396313E+03  0.17893083184E+03  0.00000000000E+00 0. -1.
         22    1    3    3    0    0 -0.53399851260E+02  0.46156422331E+01  0.17205628361E+03  0.18021157843E+03  0.00000000000E+00 0. -1.
         22    1    3    3    0    0  0.69930721536E+02  0.57900515056E+00  0.14314719705E+03  0.15931654366E+03  0.00000000000E+00 0. -1.
</event>
<event>
 7    1  0.7029100E-006  0.5430439E+02  0.7818608E-02  0.1426704E+00
          2   -1    0    0  502    0  0.00000000000E+00  0.00000000000E+00  0.17574164921E+04  0.17574164921E+04  0.00000000000E+00 0. -1.
          1   -1    0    0  501    0 -0.00000000000E+00 -0.00000000000E+00 -0.41196109248E+03  0.41196109248E+03  0.00000000000E+00 0. -1.
         25    2    1    2    0    0  0.48756029426E+01  0.27938660225E+00  0.34176509290E+03  0.36394098425E+03  0.12500324689E+03 0.  0.
          2    1    1    2  501    0  0.43912049024E+02 -0.29603331071E+02 -0.39854411628E+03  0.40204730802E+03  0.00000000000E+00 0. -1.
          1    1    1    2  502    0 -0.48787651967E+02  0.29323944469E+02  0.14022344230E+04  0.14033892923E+04  0.00000000000E+00 0. -1.
         22    1    3    3    0    0 -0.46669885112E+02  0.38846625715E+02  0.16598742379E+03  0.17674547621E+03  0.00000000000E+00 0.  1.
         22    1    3    3    0    0  0.51545488054E+02 -0.38567239113E+02  0.17577766911E+03  0.18719550804E+03  0.00000000000E+00 0.  1.
</event>
<event>
 7    1  0.7029100E-006  0.7484443E+02  0.7818608E-02  0.1348561E+00
          2   -1    0    0  502    0  0.00000000000E+00  0.00000000000E+00  0.93318182245E+02  0.93318182245E+02  0.00000000000E+00 0. -1.
          1   -1    0    0  501    0 -0.00000000000E+00 -0.00000000000E+00 -0.10689348564E+04  0.10689348564E+04  0.00000000000E+00 0. -1.
         25    2    1    2    0    0  0.52238477650E+01  0.35956609364E+01 -0.36515193613E+03  0.38600570051E+03  0.12499698798E+03 0.  0.
          2    1    1    2  501    0  0.68423738431E+02  0.23017772257E+02 -0.67248798416E+03  0.67635176843E+03  0.00000000000E+00 0. -1.
          1    1    1    2  502    0 -0.73647586195E+02 -0.26613433193E+02  0.62023246154E+02  0.99895569683E+02  0.00000000000E+00 0. -1.
         22    1    3    3    0    0  0.45688606702E+02  0.41895115289E+02 -0.12565804446E+03  0.14011635738E+03  0.00000000000E+00 0. -1.
         22    1    3    3    0    0 -0.40464758937E+02 -0.38299454353E+02 -0.23949389166E+03  0.24588934313E+03  0.00000000000E+00 0. -1.
</event>
<event>
 7    1  0.7029100E-006  0.6656440E+02  0.7818608E-02  0.1386996E+00
          2   -1    0    0  502    0  0.00000000000E+00  0.00000000000E+00  0.93130329882E+03  0.93130329882E+03  0.00000000000E+00 0. -1.
          1   -1    0    0  501    0 -0.00000000000E+00 -0.00000000000E+00 -0.59567974872E+02  0.59567974872E+02  0.00000000000E+00 0. -1.
         25    2    1    2    0    0  0.92320192330E+02  0.79816742318E+02  0.38578090239E+03  0.42349244228E+03  0.12500085500E+03 0.  0.
          2    1    1    2  501    0 -0.47139367105E+02 -0.41897156396E+02 -0.13464570859E+02  0.64488652596E+02  0.00000000000E+00 0. -1.
          1    1    1    2  502    0 -0.45180825225E+02 -0.37919585921E+02  0.49941899242E+03  0.50289017883E+03  0.00000000000E+00 0. -1.
         22    1    3    3    0    0 -0.77764274234E+01  0.66937888527E+02  0.21289497689E+03  0.22330567599E+03  0.00000000000E+00 0. -1.
         22    1    3    3    0    0  0.10009661975E+03  0.12878853791E+02  0.17288592549E+03  0.20018676628E+03  0.00000000000E+00 0. -1.
</event>
<event>
 7    1  0.7029100E-006  0.9958757E+02  0.7818608E-02  0.1446669E+00
          2   -1    0    0  502    0  0.00000000000E+00  0.00000000000E+00  0.13028557248E+04  0.13028557248E+04  0.00000000000E+00 0. -1.
          1   -1    0    0  501    0 -0.00000000000E+00 -0.00000000000E+00 -0.30094001684E+02  0.30094001684E+02  0.00000000000E+00 0. -1.
         25    2    1    2    0    0 -0.79842509268E+02 -0.25346174060E+02  0.34706230148E+03  0.37827807927E+03  0.12499923726E+03 0.  0.
          2    1    1    2  501    0  0.10390870546E+03  0.31569390857E+02  0.19226015865E+03  0.22081126356E+03  0.00000000000E+00 0. -1.
          1    1    1    2  502    0 -0.24066196191E+02 -0.62232167972E+01  0.73343926302E+03  0.73386038370E+03  0.00000000000E+00 0. -1.
         22    1    3    3    0    0  0.97770715702E+01 -0.54980472909E+02  0.11887242667E+03  0.13133581900E+03  0.00000000000E+00 0.  1.
         22    1    3    3    0    0 -0.89619580838E+02  0.29634298849E+02  0.22818987481E+03  0.24694226027E+03  0.00000000000E+00 0.  1.
</event>
<event>
 7    1  0.7029100E-006  0.6369853E+02  0.7818608E-02  0.1477193E+00
          2   -1    0    0  502    0  0.00000000000E+00  0.00000000000E+00  0.22372250270E+04  0.22372250270E+04  0.00000000000E+00 0. -1.
          1   -1    0    0  501    0 -0.00000000000E+00 -0.00000000000E+00 -0.89259820123E+02  0.89259820123E+02  0.00000000000E+00 0. -1.
         25    2    1    2    0    0 -0.30552514163E+02 -0.12453635533E+02  0.91007982590E+02  0.15810503825E+03  0.12500480416E+03 0.  0.
          2    1    1    2  501    0 -0.28966620307E+02 -0.11464267616E+02 -0.50829887764E+02  0.59616876923E+02  0.00000000000E+00 0. -1.
          1    1    1    2  502    0  0.59519134470E+02  0.23917903149E+02  0.21077871121E+04  0.21087629320E+04  0.00000000000E+00 0. -1.
         22    1    3    3    0    0 -0.14328163241E+02 -0.25167356863E+02  0.11948861207E+03  0.12294803996E+03  0.00000000000E+00 0.  1.
         22    1    3    3    0    0 -0.16224350922E+02  0.12713721330E+02 -0.28480629485E+02  0.35156998290E+02  0.00000000000E+00 0.  1.
</event>
<event>
 7    1  0.7029100E-006  0.9036720E+02  0.7818608E-02  0.1325858E+00
          2   -1    0    0  502    0  0.00000000000E+00  0.00000000000E+00  0.28118248489E+03  0.28118248489E+03  0.00000000000E+00 0. -1.
          1   -1    0    0  501    0 -0.00000000000E+00 -0.00000000000E+00 -0.10174089681E+04  0.10174089681E+04  0.00000000000E+00 0. -1.
         25    2    1    2    0    0 -0.24554857779E+02 -0.27070043658E+02 -0.28961622529E+03  0.31755097216E+03  0.12500133464E+03 0.  0.
          2    1    1    2  501    0  0.40970332316E+02  0.98044638727E+02 -0.70480264952E+03  0.71276791039E+03  0.00000000000E+00 0. -1.
          1    1    1    2  502    0 -0.16415474537E+02 -0.70974595069E+02  0.25819239162E+03  0.26827257042E+03  0.00000000000E+00 0. -1.
         22    1    3    3    0    0  0.30629555865E+02 -0.36722522192E+02 -0.23317064253E+03  0.23802365820E+03  0.00000000000E+00 0. -1.
         22    1    3    3    0    0 -0.55184413644E+02  0.96524785339E+01 -0.56445582760E+02  0.79527313951E+02  0.00000000000E+00 0. -1.
</event>
<event>
 7    1  0.7029100E-006  0.6428657E+02  0.7818608E-02  0.1417299E+00
          2   -1    0    0  502    0  0.00000000000E+00  0.00000000000E+00  0.17348066543E+03  0.17348066543E+03  0.00000000000E+00 0. -1.
          1   -1    0    0  501    0 -0.00000000000E+00 -0.00000000000E+00 -0.11175525506E+04  0.11175525506E+04  0.00000000000E+00 0. -1.
         25    2    1    2    0    0  0.34009778659E+02 -0.10032552053E+03 -0.74662726848E+01  0.16402013767E+03  0.12499994087E+03 0.  0.
          2    1    1    2  501    0 -0.53875801144E+01  0.47778236924E+02 -0.10217858058E+04  0.10229164281E+04  0.00000000000E+00 0. -1.
          1    1    1    2  502    0 -0.28622198545E+02  0.52547283608E+02  0.85180193309E+02  0.10409665026E+03  0.00000000000E+00 0. -1.
         22    1    3    3    0    0 -0.36566252245E+02 -0.21679594466E+02 -0.34725896833E+02  0.54890650664E+02  0.00000000000E+00 0.  1.
         22    1    3    3    0    0  0.70576030904E+02 -0.78645926065E+02  0.27259624148E+02  0.10912948700E+03  0.00000000000E+00 0.  1.
</event>
<event>
 7    1  0.7029100E-006  0.6977146E+02  0.7818608E-02  0.1377706E+00
          2   -1    0    0  502    0  0.00000000000E+00  0.00000000000E+00  0.30537357428E+02  0.30537357428E+02  0.00000000000E+00 0. -1.
          1   -1    0    0  501    0 -0.00000000000E+00 -0.00000000000E+00 -0.17414345445E+04  0.17414345445E+04  0.00000000000E+00 0. -1.
         25    2    1    2    0    0  0.20130301911E+02 -0.64282757017E+02 -0.53549188845E+03  0.55399413004E+03  0.12498172510E+03 0.  0.
          2    1    1    2  501    0 -0.67834269231E+02  0.26770523377E+02 -0.11498006698E+04  0.11521109883E+04  0.00000000000E+00 0. -1.
          1    1    1    2  502    0  0.47703967320E+02  0.37512233640E+02 -0.25604628842E+02  0.65866783654E+02  0.00000000000E+00 0. -1.
         22    1    3    3    0    0 -0.49672641917E+02 -0.50459139426E+02 -0.26318958851E+03  0.27254771253E+03  0.00000000000E+00 0. -1.
         22    1    3    3    0    0  0.69802943828E+02 -0.13823617591E+02 -0.27230229995E+03  0.28144641751E+03  0.00000000000E+00 0. -1.
</event>
<event>
 7    1  0.7029100E-006  0.9045917E+02  0.7818608E-02  0.1416018E+00
          2   -1    0    0  502    0  0.00000000000E+00  0.00000000000E+00  0.28466870020E+03  0.28466870020E+03  0.00000000000E+00 0. -1.
          1   -1    0    0  501    0 -0.00000000000E+00 -0.00000000000E+00 -0.14142642346E+04  0.14142642346E+04  0.00000000000E+00 0. -1.
         25    2    1    2    0    0  0.32163833441E+01  0.11979113220E+03 -0.34929103653E+03  0.38985561503E+03  0.12499164729E+03 0.  0.
          2    1    1    2  501    0 -0.13427129807E+02 -0.86826602242E+02 -0.10417076207E+04  0.10454060999E+04  0.00000000000E+00 0. -1.
          1    1    1    2  502    0  0.10210746463E+02 -0.32964529959E+02  0.26140312282E+03  0.26367121989E+03  0.00000000000E+00 0. -1.
         22    1    3    3    0    0  0.31748072963E+02  0.31497636976E+01 -0.17696962922E+03  0.17982244247E+03  0.00000000000E+00 0. -1.
         22    1    3    3    0    0 -0.28531689619E+02  0.11664136850E+03 -0.17232140731E+03  0.21003317256E+03  0.00000000000E+00 0. -1.
</event>
<event>
 7    1  0.7029100E-006  0.9703175E+02  0.7818608E-02  0.1348199E+00
          2   -1    0    0  502    0  0.00000000000E+00  0.00000000000E+00  0.70698894041E+03  0.70698894041E+03  0.00000000000E+00 0. -1.
          1   -1    0    0  501    0 -0.00000000000E+00 -0.00000000000E+00 -0.15386808977E+03  0.15386808977E+03  0.00000000000E+00 0. -1.
         25    2    1    2    0    0 -0.75301374298E+02 -0.10676846828E+03 -0.17993943057E+02  0.18170183199E+03  0.12498788329E+03 0.  0.
          2    1    1    2  501    0  0.54331186452E+02  0.12965423039E+02 -0.34703342582E+02  0.65759425197E+02  0.00000000000E+00 0. -1.
          1    1    1    2  502    0  0.20970187846E+02  0.93803045244E+02  0.60581813628E+03  0.61339577299E+03  0.00000000000E+00 0. -1.
         22    1    3    3    0    0 -0.63124598488E+02 -0.88452621905E+02 -0.67225646466E+02  0.12778054938E+03  0.00000000000E+00 0.  1.
         22    1    3    3    0    0 -0.12176775810E+02 -0.18315846377E+02  0.49231703410E+02  0.53921282610E+02  0.00000000000E+00 0.  1.
</event>
<event>
 7    1  0.7029100E-006  0.3922365E+02  0.7818608E-02  0.1527032E+00
          2   -1    0    0  502    0  0.00000000000E+00  0.00000000000E+00  0.24957627352E+04  0.24957627352E+04  0.00000000000E+00 0. -1.
          1   -1    0    0  501    0 -0.00000000000E+00 -0.00000000000E+00 -0.12067952113E+02  0.12067952113E+02  0.00000000000E+00 0. -1.
         25    2    1    2    0    0  0.73263980450E+02 -0.59233765311E+01  0.88981191367E+03  0.90155050383E+03  0.12500148807E+03 0.  0.
          2    1    1    2  501    0 -0.35948460853E+02 -0.59090201716E+00  0.48194806230E+02  0.60128032983E+02  0.00000000000E+00 0. -1.
          1    1    1    2  502    0 -0.37315519597E+02  0.65142785483E+01  0.15456880632E+04  0.15461521505E+04  0.00000000000E+00 0. -1.
         22    1    3    3    0    0 -0.12754893173E+00 -0.40137315793E+02  0.10239070350E+03  0.10997670913E+03  0.00000000000E+00 0. -1.
         22    1    3    3    0    0  0.73391529382E+02  0.34213939262E+02  0.78742121017E+03  0.79157379470E+03  0.00000000000E+00 0. -1.
</event>
<event>
 7    1  0.7029100E-006  0.4803171E+02  0.7818608E-02  0.1483072E+00
          2   -1    0    0  502    0  0.00000000000E+00  0.00000000000E+00  0.24273860830E+02  0.24273860830E+02  0.00000000000E+00 0. -1.
          1   -1    0    0  501    0 -0.00000000000E+00 -0.00000000000E+00 -0.58164822829E+03  0.58164822829E+03  0.00000000000E+00 0. -1.
         25    2    1    2    0    0 -0.46964479788E+02  0.22020733330E+02 -0.29808791415E+03  0.32737101316E+03  0.12499920255E+03 0.  0.
          2    1    1    2  501    0  0.30319887532E+02  0.25525603367E+02 -0.18222210864E+03  0.18648256992E+03  0.00000000000E+00 0. -1.
          1    1    1    2  502    0  0.16644592256E+02 -0.47546336698E+02 -0.77064344669E+02  0.92068506037E+02  0.00000000000E+00 0. -1.
         22    1    3    3    0    0 -0.16053754374E+02 -0.31059129314E+02 -0.15605249292E+02  0.38287287037E+02  0.00000000000E+00 0. -1.
         22    1    3    3    0    0 -0.30910725414E+02  0.53079862644E+02 -0.28248266486E+03  0.28908372613E+03  0.00000000000E+00 0. -1.
</event>
<event>
 7    1  0.7029100E-006  0.8905126E+02  0.7818608E-02  0.1354596E+00
          2   -1    0    0  502    0  0.00000000000E+00  0.00000000000E+00  0.26195018925E+04  0.26195018925E+04  0.00000000000E+00 0. -1.
          1   -1    0    0  501    0 -0.00000000000E+00 -0.00000000000E+00 -0.22839564255E+04  0.22839564255E+04  0.00000000000E+00 0. -1.
         25    2    1    2    0    0 -0.52773238608E+01 -0.38151054120E+02  0.64090447327E+03  0.65411557252E+03  0.12500114115E+03 0.  0.
          2    1    1    2  501    0  0.51247270136E+02  0.72917733687E+02 -0.22760573991E+04  0.22778016952E+04  0.00000000000E+00 0. -1.
          1    1    1    2  502    0 -0.45969946275E+02 -0.34766679567E+02  0.19706983928E+04  0.19715410503E+04  0.00000000000E+00 0. -1.
         22    1    3    3    0    0  0.36841437182E+02  0.15829750515E+02  0.84693059349E+02  0.93705852522E+02  0.00000000000E+00 0.  1.
         22    1    3    3    0    0 -0.42118761043E+02 -0.53980804635E+02  0.55621141392E+03  0.56040972000E+03  0.00000000000E+00 0.  1.
</event>
<event>
 7    1  0.7029100E-006  0.2439619E+03  0.7818608E-02  0.1167670E+00
          2   -1    0    0  502    0  0.00000000000E+00  0.00000000000E+00  0.82584958456E+02  0.82584958456E+02  0.00000000000E+00 0. -1.
          1   -1    0    0  501    0 -0.00000000000E+00 -0.00000000000E+00 -0.25867659965E+04  0.25867659965E+04  0.00000000000E+00 0. -1.
         25    2    1    2    0    0  0.10905371611E+03 -0.14537737244E+03 -0.61425620159E+03  0.65265893053E+03  0.12500281992E+03 0.  0.
          2    1    1    2  501    0  0.13299657639E+03  0.18906903473E+01 -0.16243041328E+04  0.16297409549E+04  0.00000000000E+00 0. -1.
          1    1    1    2  502    0 -0.24205029251E+03  0.14348668209E+03 -0.26562070361E+03  0.38695106955E+03  0.00000000000E+00 0. -1.
         22    1    3    3    0    0  0.11033073909E+03 -0.66738956658E+02 -0.48042673912E+03  0.49743020815E+03  0.00000000000E+00 0.  1.
         22    1    3    3    0    0 -0.12770229746E+01 -0.78638415780E+02 -0.13382946248E+03  0.15522872238E+03  0.00000000000E+00 0.  1.
</event>
<event>
 7    1  0.7029100E-006  0.1116214E+03  0.7818608E-02  0.1322533E+00
          2   -1    0    0  502    0  0.00000000000E+00  0.00000000000E+00  0.24312257580E+04  0.24312257580E+04  0.00000000000E+00 0. -1.
          1   -1    0    0  501    0 -0.00000000000E+00 -0.00000000000E+00 -0.20648563348E+02  0.20648563348E+02  0.00000000000E+00 0. -1.
         25    2    1    2    0    0 -0.12066541563E+03 -0.34108171910E+02  0.51971662140E+03  0.54904864320E+03  0.12500214447E+03 0.  0.
          2    1    1    2  501    0  0.11976549792E+02  0.59550786219E+02  0.21974307145E+03  0.22798410325E+03  0.00000000000E+00 0. -1.
          1    1    1    2  502    0  0.10868886584E+03 -0.25442614309E+02  0.16711175018E+04  0.16748415749E+04  0.00000000000E+00 0. -1.
         22    1    3    3    0    0 -0.57197095563E+02 -0.60796661421E+02  0.41778499978E+03  0.42604230755E+03  0.00000000000E+00 0.  1.
         22    1    3    3    0    0 -0.63468320068E+02  0.26688489511E+02  0.10193162163E+03  0.12300633566E+03  0.00000000000E+00 0.  1.
</event>
<event>
 7    1  0.7029100E-006  0.1584871E+03  0.7818608E-02  0.1225983E+00
          2   -1    0    0  502    0  0.00000000000E+00  0.00000000000E+00  0.33049612305E+03  0.33049612305E+03  0.00000000000E+00 0. -1.
          1   -1    0    0  501    0 -0.00000000000E+00 -0.00000000000E+00 -0.33896965761E+03  0.33896965761E+03  0.00000000000E+00 0. -1.
         25    2    1    2    0    0 -0.14497622611E+01  0.88055875498E+02  0.73828829540E+02  0.16979975190E+03  0.12500128261E+03 0.  0.
          2    1    1    2  501    0 -0.81837298919E+02 -0.15724385692E+03 -0.24611236670E+03  0.30330557376E+03  0.00000000000E+00 0. -1.
          1    1    1    2  502    0  0.83287061180E+02  0.69187981422E+02  0.16381000260E+03  0.19636045499E+03  0.00000000000E+00 0. -1.
         22    1    3    3    0    0 -0.57595730751E+02  0.70489069132E+02  0.28032551740E+02  0.95246002672E+02  0.00000000000E+00 0. -1.
         22    1    3    3    0    0  0.56145968490E+02  0.17566806366E+02  0.45796277799E+02  0.74553749227E+02  0.00000000000E+00 0. -1.
</event>
<event>
 7    1  0.7029100E-006  0.6205880E+02  0.7818608E-02  0.1428181E+00
          2   -1    0    0  502    0  0.00000000000E+00  0.00000000000E+00  0.16260122387E+04  0.16260122387E+04  0.00000000000E+00 0. -1.
          1   -1    0    0  501    0 -0.00000000000E+00 -0.00000000000E+00 -0.49939329706E+03  0.49939329706E+03  0.00000000000E+00 0. -1.
         25    2    1    2    0    0 -0.11431751743E+02 -0.39297088453E+02  0.25554415872E+03  0.28740702719E+03  0.12500014447E+03 0.  0.
          2    1    1    2  501    0  0.55782049539E+02  0.27770402615E+02 -0.48106429425E+03  0.48508317588E+03  0.00000000000E+00 0. -1.
          1    1    1    2  502    0 -0.44350297796E+02  0.11526685837E+02  0.13521390772E+04  0.13529153327E+04  0.00000000000E+00 0. -1.
         22    1    3    3    0    0 -0.38729371106E+02 -0.36320291889E+02  0.31603729248E+02  0.61789347719E+02  0.00000000000E+00 0.  1.
         22    1    3    3    0    0  0.27297619362E+02 -0.29767965633E+01  0.22394042947E+03  0.22561767947E+03  0.00000000000E+00 0.  1.
</event>
<event>
 7    1  0.7029100E-006  0.1056107E+03  0.7818608E-02  0.1341019E+00
          2   -1    0    0  502    0  0.00000000000E+00  0.00000000000E+00  0.31224926131E+04  0.31224926131E+04  0.00000000000E+00 0. -1.
          1   -1    0    0  501    0 -0.00000000000E+00 -0.00000000000E+00 -0.12277363768E+04  0.12277363768E+04  0.00000000000E+00 0. -1.
         25    2    1    2    0    0 -0.13498602998E+03 -0.27967387833E+01  0.10354763032E+04  0.10516951553E+04  0.12498990029E+03 0.  0.
          2    1    1    2  501    0  0.98548907812E+02 -0.37851752364E+02 -0.12169830905E+04  0.12215533083E+04  0.00000000000E+00 0. -1.
          1    1    1    2  502    0  0.36437122172E+02  0.40648491147E+02  0.20762630235E+04  0.20769805263E+04  0.00000000000E+00 0. -1.
         22    1    3    3    0    0 -0.37964025307E+02 -0.20436334575E+02  0.71713923333E+03  0.71843412430E+03  0.00000000000E+00 0. -1.
         22    1    3    3    0    0 -0.97022004677E+02  0.17639595792E+02  0.31833706988E+03  0.33326103101E+03  0.00000000000E+00 0. -1.
</event>
<event>
 7    1  0.7029100E-006  0.8488831E+02  0.7818608E-02  0.1356399E+00
          2   -1    0    0  502    0  0.00000000000E+00  0.00000000000E+00  0.27638533330E+03  0.27638533330E+03  0.00000000000E+00 0. -1.
          1   -1    0    0  501    0 -0.00000000000E+00 -0.00000000000E+00 -0.44019648200E+03  0.44019648200E+03  0.00000000000E+00 0. -1.
         25    2    1    2    0    0  0.17469036673E+02  0.38348632333E+02  0.11734684810E+03  0.17655407375E+03  0.12500109341E+03 0.  0.
          2    1    1    2  501    0 -0.77006844794E+02 -0.39444442558E+02 -0.39885117254E+03  0.40812764673E+03  0.00000000000E+00 0. -1.
          1    1    1    2  502    0  0.59537808121E+02  0.10958102257E+01  0.11769317574E+03  0.13190009482E+03  0.00000000000E+00 0. -1.
         22    1    3    3    0    0  0.57594201636E+01  0.12285177688E+02 -0.26566963231E+02  0.29831192513E+02  0.00000000000E+00 0.  1.
         22    1    3    3    0    0  0.11709616509E+02  0.26063454644E+02  0.14391381133E+03  0.14672288123E+03  0.00000000000E+00 0.  1.
</event>
<event>
 7    1  0.7029100E-006  0.5232993E+02  0.7818608E-02  0.1453926E+00
          2   -1    0    0  502    0  0.00000000000E+00  0.00000000000E+00  0.39212644088E+04  0.39212644088E+04  0.00000000000E+00 0. -1.
          1   -1    0    0  501    0 -0.00000000000E+00 -0.00000000000E+00 -0.16410960336E+03  0.16410960336E+03  0.00000000000E+00 0. -1.
         25    2    1    2    0    0 -0.51536730482E+02 -0.64850549526E+02  0.16778778664E+03  0.22503090450E+03  0.12499815307E+03 0.  0.
          2    1    1    2  501    0  0.42799681863E+02  0.13387022435E+02 -0.13158925378E+03  0.13902070654E+03  0.00000000000E+00 0. -1.
          1    1    1    2  502    0  0.87370486189E+01  0.51463527092E+02  0.37209562726E+04  0.37213224012E+04  0.00000000000E+00 0. -1.
         22    1    3    3    0    0 -0.91406830133E+01 -0.62021973642E+02  0.17128448945E+03  0.18239696716E+03  0.00000000000E+00 0.  1.
         22    1    3    3    0    0 -0.42396047468E+02 -0.28285758840E+01 -0.34967028140E+01  0.42633937339E+02  0.00000000000E+00 0.  1.
</event>
<event>
 7    1  0.7029100E-006  0.1339358E+03  0.7818608E-02  0.1357040E+00
          2   -1    0    0  502    0  0.00000000000E+00  0.00000000000E+00  0.93311292063E+03  0.93311292063E+03  0.00000000000E+00 0. -1.
          1   -1    0    0  501    0 -0.00000000000E+00 -0.00000000000E+00 -0.37539653957E+03  0.37539653957E+03  0.00000000000E+00 0. -1.
         25    2    1    2    0    0 -0.80769737280E+02  0.13368211635E+03  0.15863319994E+03  0.25530960443E+03  0.12499537310E+03 0.  0.
          2    1    1    2  501    0 -0.80300246613E+01 -0.36668674855E+02 -0.31999713129E+03  0.32219130504E+03  0.00000000000E+00 0. -1.
          1    1    1    2  502    0  0.88799761941E+02 -0.97013441498E+02  0.71908031240E+03  0.73100855072E+03  0.00000000000E+00 0. -1.
         22    1    3    3    0    0 -0.31392484345E+02  0.50552381096E+02 -0.10561487250E+02  0.60436547889E+02  0.00000000000E+00 0. -1.
         22    1    3    3    0    0 -0.49377252934E+02  0.83129735257E+02  0.16919468719E+03  0.19487305654E+03  0.00000000000E+00 0. -1.
</event>
<event>
 7    1  0.7029100E-006  0.1511682E+03  0.7818608E-02  0.1284333E+00
          2   -1    0    0  502    0  0.00000000000E+00  0.00000000000E+00  0.97175606534E+02  0.97175606534E+02  0.00000000000E+00 0. -1.
          1   -1    0    0  501    0 -0.00000000000E+00 -0.00000000000E+00 -0.93011110654E+03  0.93011110654E+03  0.00000000000E+00 0. -1.
         25    2    1    2    0    0  0.10930350910E+03 -0.57938772433E+01 -0.21938340912E+03  0.27520035331E+03  0.12500131259E+03 0.  0.
          2    1    1    2  501    0  0.56637185746E+02 -0.29081749643E+02 -0.57458367324E+03  0.57810026511E+03  0.00000000000E+00 0. -1.
          1    1    1    2  502    0 -0.16594069485E+03  0.34875626887E+02 -0.38968417645E+02  0.17398609465E+03  0.00000000000E+00 0. -1.
         22    1    3    3    0    0  0.32074581303E+01  0.47147336572E+02 -0.70452435444E+02  0.84833394330E+02  0.00000000000E+00 0.  1.
         22    1    3    3    0    0  0.10609605097E+03 -0.52941213815E+02 -0.14893097368E+03  0.19036695898E+03  0.00000000000E+00 0.  1.
</event>
<event>
 7    1  0.7029100E-006  0.4857387E+02  0.7818608E-02  0.1531793E+00
          2   -1    0    0  502    0  0.00000000000E+00  0.00000000000E+00  0.93314743558E+03  0.93314743558E+03  0.00000000000E+00 0. -1.
          1   -1    0    0  501    0 -0.00000000000E+00 -0.00000000000E+00 -0.15119800938E+04  0.15119800938E+04  0.00000000000E+00 0. -1.
         25    2    1    2    0    0  0.19354244287E+02 -0.30864478572E+02 -0.42355041605E+03  0.44312187032E+03  0.12503933067E+03 0.  0.
          2    1    1    2  501    0 -0.45362928925E+02  0.20137069652E+02 -0.10778584737E+04  0.10790005497E+04  0.00000000000E+00 0. -1.
          1    1    1    2  502    0  0.26008684638E+02  0.10727408919E+02  0.92257623152E+03  0.92300510938E+03  0.00000000000E+00 0. -1.
         22    1    3    3    0    0  0.71383234087E+02 -0.31848382941E+02 -0.25923263989E+03  0.27076086717E+03  0.00000000000E+00 0.  1.
         22    1    3    3    0    0 -0.52028989800E+02  0.98390436960E+00 -0.16431777616E+03  0.17236100316E+03  0.00000000000E+00 0.  1.
</event>
<event>
 7    1  0.7029100E-006  0.1012226E+03  0.7818608E-02  0.1329380E+00
          2   -1    0    0  502    0  0.00000000000E+00  0.00000000000E+00  0.11706919189E+04  0.11706919189E+04  0.00000000000E+00 0. -1.
          1   -1    0    0  501    0 -0.00000000000E+00 -0.00000000000E+00 -0.95098433842E+02  0.95098433842E+02  0.00000000000E+00 0. -1.
         25    2    1    2    0    0  0.87699409765E+02  0.13110894476E+03  0.19908197732E+03  0.28309017562E+03  0.12500268786E+03 0.  0.
          2    1    1    2  501    0 -0.46750527041E+02 -0.42296459488E+02 -0.30777179380E+02  0.70155805422E+02  0.00000000000E+00 0. -1.
          1    1    1    2  502    0 -0.40948882724E+02 -0.88812485269E+02  0.90728868709E+03  0.91254437167E+03  0.00000000000E+00 0. -1.
         22    1    3    3    0    0  0.51710848727E+02 -0.11732957687E+02  0.65141982843E+02  0.83994952830E+02  0.00000000000E+00 0. -1.
         22    1    3    3    0    0  0.35988561038E+02  0.14284190244E+03  0.13393999448E+03  0.19909522279E+03  0.00000000000E+00 0. -1.
</event>
<event>
 7    1  0.7029100E-006  0.8756653E+02  0.7818608E-02  0.1316541E+00
          2   -1    0    0  502    0  0.00000000000E+00  0.00000000000E+00  0.73456794231E+03  0.73456794231E+03  0.00000000000E+00 0. -1.
          1   -1    0    0  501    0 -0.00000000000E+00 -0.00000000000E+00 -0.41286972383E+03  0.41286972383E+03  0.00000000000E+00 0. -1.
         25    2    1    2    0    0 -0.46595121878E+00 -0.18792460567E+02 -0.33797522802E+02  0.13084072412E+03  0.12499459530E+03 0.  0.
          2    1    1    2  501    0  0.87666785871E+02  0.26786907088E+02 -0.32132000749E+03  0.33414001699E+03  0.00000000000E+00 0. -1.
          1    1    1    2  502    0 -0.87200834652E+02 -0.79944465212E+01  0.67681574877E+03  0.68245692503E+03  0.00000000000E+00 0. -1.
         22    1    3    3    0    0  0.23880962199E+02  0.18242262977E+02 -0.68335693074E+02  0.74651506763E+02  0.00000000000E+00 0.  1.
         22    1    3    3    0    0 -0.24346913418E+02 -0.37034723544E+02  0.34538170272E+02  0.56189217352E+02  0.00000000000E+00 0.  1.
</event>
<event>
 7    1  0.7029100E-006  0.1467537E+03  0.7818608E-02  0.1284855E+00
          2   -1    0    0  502    0  0.00000000000E+00  0.00000000000E+00  0.11910820397E+04  0.11910820397E+04  0.00000000000E+00 0. -1.
          1   -1    0    0  501    0 -0.00000000000E+00 -0.00000000000E+00 -0.76770466607E+02  0.76770466607E+02  0.00000000000E+00 0. -1.
         25    2    1    2    0    0 -0.72971619735E+02 -0.13469728355E+03  0.54683101094E+03  0.58147907888E+03  0.12500219668E+03 0.  0.
          2    1    1    2  501    0  0.89719250585E+01  0.14746071537E+03  0.37538176552E+02  0.15242792630E+03  0.00000000000E+00 0. -1.
          1    1    1    2  502    0  0.63999694677E+02 -0.12763431823E+02  0.52994238560E+03  0.53394550112E+03  0.00000000000E+00 0. -1.
         22    1    3    3    0    0 -0.55730968567E+02 -0.12733632505E+03  0.54522512080E+03  0.56266412085E+03  0.00000000000E+00 0. -1.
         22    1    3    3    0    0 -0.17240651168E+02 -0.73609585025E+01  0.16058901339E+01  0.18814958036E+02  0.00000000000E+00 0. -1.
</event>
<event>
 7    1  0.7029100E-006  0.4474936E+02  0.7818608E-02  0.1525858E+00
          2   -1    0    0  502    0  0.00000000000E+00  0.00000000000E+00  0.28866921066E+02  0.28866921066E+02  0.00000000000E+00 0. -1.
          1   -1    0    0  501    0 -0.00000000000E+00 -0.00000000000E+00 -0.44605377821E+03  0.44605377821E+03  0.00000000000E+00 0. -1.
         25    2    1    2    0    0  0.13031719747E+02  0.31116354311E+02 -0.25553039700E+03  0.28646410934E+03  0.12501139518E+03 0.  0.
          2    1    1    2  501    0 -0.28166362676E+02  0.14675174721E+02 -0.12185506557E+03  0.12592601695E+03  0.00000000000E+00 0. -1.
          1    1    1    2  502    0  0.15134642929E+02 -0.45791529032E+02 -0.39801394575E+02  0.62530572985E+02  0.00000000000E+00 0. -1.
         22    1    3    3    0    0 -0.87111176628E+01 -0.25039413158E+02 -0.28002585854E+01  0.26658905274E+02  0.00000000000E+00 0.  1.
         22    1    3    3    0    0  0.21742837410E+02  0.56155767470E+02 -0.25273013841E+03  0.25980520407E+03  0.00000000000E+00 0.  1.
</event>
<event>
 7    1  0.7029100E-006  0.9397653E+02  0.7818608E-02  0.1403664E+00
          2   -1    0    0  502    0  0.00000000000E+00  0.00000000000E+00  0.13190075189E+04  0.13190075189E+04  0.00000000000E+00 0. -1.
          1   -1    0    0  501    0 -0.00000000000E+00 -0.00000000000E+00 -0.13220435283E+03  0.13220435283E+03  0.00000000000E+00 0. -1.
         25    2    1    2    0    0 -0.67604177005E+02 -0.74013685627E+02  0.78422070867E+03  0.80042100155E+03  0.12499323747E+03 0.  0.
          2    1    1    2  501    0  0.84336795514E+02  0.41484520490E+02 -0.10555708778E+03  0.14133633396E+03  0.00000000000E+00 0. -1.
          1    1    1    2  502    0 -0.16732618509E+02  0.32529165137E+02  0.50813954517E+03  0.50945453622E+03  0.00000000000E+00 0. -1.
         22    1    3    3    0    0 -0.82016671883E+02 -0.13600485856E+02  0.27126395772E+03  0.28371789235E+03  0.00000000000E+00 0.  1.
         22    1    3    3    0    0  0.14412494878E+02 -0.60413199771E+02  0.51295675095E+03  0.51670310920E+03  0.00000000000E+00 0.  1.
</event>
<event>
 7    1  0.7029100E-006  0.1004469E+03  0.7818608E-02  0.1455174E+00
          2   -1    0    0  502    0  0.00000000000E+00  0.00000000000E+00  0.10935053879E+04  0.10935053879E+04  0.00000000000E+00 0. -1.
          1   -1    0    0  501    0 -0.00000000000E+00 -0.00000000000E+00 -0.85018143039E+03  0.85018143039E+03  0.00000000000E+00 0. -1.
         25    2    1    2    0    0 -0.11127791407E+03  0.35854531420E+01  0.27387876496E+03  0.32098317180E+03  0.12499995621E+03 0.  0.
          2    1    1    2  501    0  0.97819528031E+02 -0.22421753171E+02 -0.82341372962E+03  0.82950682047E+03  0.00000000000E+00 0. -1.
          1    1    1    2  502    0  0.13458386039E+02  0.18836300028E+02  0.79285892216E+03  0.79319682602E+03  0.00000000000E+00 0. -1.
         22    1    3    3    0    0 -0.89547489193E+02  0.54953122759E+02  0.21818021530E+03  0.24215946165E+03  0.00000000000E+00 0. -1.
         22    1    3    3    0    0 -0.21730424877E+02 -0.51367669617E+02  0.55698549660E+02  0.78823710147E+02  0.00000000000E+00 0. -1.
</event>
<event>
 7    1  0.7029100E-006  0.8516406E+02  0.7818608E-02  0.1360261E+00
          2   -1    0    0  502    0  0.00000000000E+00  0.00000000000E+00  0.56770782917E+03  0.56770782917E+03  0.00000000000E+00 0. -1.
          1   -1    0    0  501    0 -0.00000000000E+00 -0.00000000000E+00 -0.33210314742E+03  0.33210314742E+03  0.00000000000E+00 0. -1.
         25    2    1    2    0    0 -0.52180600833E+02 -0.19850464899E+02  0.15599708791E+03  0.20754937806E+03  0.12499918734E+03 0.  0.
          2    1    1    2  501    0  0.41116207750E+02  0.76229743133E+02 -0.29798805254E+03  0.31031982814E+03  0.00000000000E+00 0. -1.
          1    1    1    2  502    0  0.11064393083E+02 -0.56379278233E+02  0.37759564638E+03  0.38194177040E+03  0.00000000000E+00 0. -1.
         22    1    3    3    0    0  0.80154648482E+00 -0.43815820956E+02  0.14077709384E+03  0.14744035673E+03  0.00000000000E+00 0. -1.
         22    1    3    3    0    0 -0.52982147318E+02  0.23965356056E+02  0.15219994067E+02  0.60109021325E+02  0.00000000000E+00 0. -1.
</event>
<event>
 7    1  0.7029100E-006  0.1101304E+03  0.7818608E-02  0.1336183E+00
          2   -1    0    0  502    0  0.00000000000E+00  0.00000000000E+00  0.73428126378E+03  0.73428126378E+03  0.00000000000E+00 0. -1.
          1   -1    0    0  501    0 -0.00000000000E+00 -0.00000000000E+00 -0.45332733672E+04  0.45332733672E+04  0.00000000000E+00 0. -1.
         25    2    1    2    0    0  0.83569706523E+02 -0.14146284620E+03 -0.93968622064E+03  0.96209651458E+03  0.12499550958E+03 0.  0.
          2    1    1    2  501    0 -0.30844952428E+02  0.45044257531E+02 -0.35779971932E+04  0.35784136585E+04  0.00000000000E+00 0. -1.
          1    1    1    2  502    0 -0.52724754095E+02  0.96418588668E+02  0.71869131051E+03  0.72704445788E+03  0.00000000000E+00 0. -1.
         22    1    3    3    0    0  0.88324829621E+02 -0.15993248901E+03 -0.89586220196E+03  0.91430233592E+03  0.00000000000E+00 0.  1.
         22    1    3    3    0    0 -0.47551230978E+01  0.18469642808E+02 -0.43824018673E+02  0.47794178660E+02  0.00000000000E+00 0.  1.
</event>
<event>
 7    1  0.7029100E-006  0.8145366E+02  0.7818608E-02  0.1345001E+00
          2   -1    0    0  502    0  0.00000000000E+00  0.00000000000E+00  0.11035905843E+04  0.11035905843E+04  0.00000000000E+00 0. -1.
          1   -1    0    0  501    0 -0.00000000000E+00 -0.00000000000E+00 -0.86950965785E+03  0.86950965785E+03  0.00000000000E+00 0. -1.
         25    2    1    2    0    0  0.10774237975E+03 -0.25970915089E+02  0.14118732415E+03  0.21872706209E+03  0.12499903345E+03 0.  0.
          2    1    1    2  501    0 -0.74129552065E+02 -0.33588181119E+02 -0.82747483426E+03  0.83146735218E+03  0.00000000000E+00 0. -1.
          1    1    1    2  502    0 -0.33612827690E+02  0.59559096208E+02  0.92036843654E+03  0.92290582786E+03  0.00000000000E+00 0. -1.
         22    1    3    3    0    0  0.15632405995E+02 -0.63015585034E+02  0.76009229843E+02  0.99963688886E+02  0.00000000000E+00 0.  1.
         22    1    3    3    0    0  0.92109973760E+02  0.37044669945E+02  0.65178094304E+02  0.11876337320E+03  0.00000000000E+00 0.  1.
</event>
<event>
 7    1  0.7029100E-006  0.1121826E+03  0.7818608E-02  0.1324388E+00
          2   -1    0    0  502    0  0.00000000000E+00  0.00000000000E+00  0.81387247548E+03  0.81387247548E+03  0.00000000000E+00 0. -1.
          1   -1    0    0  501    0 -0.00000000000E+00 -0.00000000000E+00 -0.84522026761E+03  0.84522026761E+03  0.00000000000E+00 0. -1.
         25    2    1    2    0    0 -0.29764538141E+02  0.72632926404E+02 -0.20559274553E+03  0.25309120103E+03  0.12500123718E+03 0.  0.
          2    1    1    2  501    0 -0.30139790571E+01 -0.12223162855E+03 -0.60867174230E+03  0.62083085053E+03  0.00000000000E+00 0. -1.
          1    1    1    2  502    0  0.32778517198E+02  0.49598702147E+02  0.78291669570E+03  0.78517069154E+03  0.00000000000E+00 0. -1.
         22    1    3    3    0    0 -0.32253189873E+02 -0.14769435445E+02 -0.70782058563E+01  0.36173270221E+02  0.00000000000E+00 0.  1.
         22    1    3    3    0    0  0.24886517324E+01  0.87402361850E+02 -0.19851453967E+03  0.21691793081E+03  0.00000000000E+00 0.  1.
</event>
<event>
 7    1  0.7029100E-006  0.1280109E+03  0.7818608E-02  0.1299075E+00
          2   -1    0    0  502    0  0.00000000000E+00  0.00000000000E+00  0.47481149434E+03  0.47481149434E+03  0.00000000000E+00 0. -1.
          1   -1    0    0  501    0 -0.00000000000E+00 -0.00000000000E+00 -0.21147360250E+03  0.21147360250E+03  0.00000000000E+00 0. -1.
         25    2    1    2    0    0 -0.10789189153E+02 -0.15009770432E+03  0.47807129917E+02  0.20138785072E+03  0.12500326917E+03 0.  0.
          2    1    1    2  501    0 -0.51764715391E+02  0.40156234665E+02 -0.11424376840E+03  0.13169566265E+03  0.00000000000E+00 0. -1.
          1    1    1    2  502    0  0.62553904544E+02  0.10994146965E+03  0.32977453032E+03  0.35320158348E+03  0.00000000000E+00 0. -1.
         22    1    3    3    0    0 -0.15536795360E+02  0.17868017918E+02 -0.69179764396E+01  0.24668126649E+02  0.00000000000E+00 0. -1.
         22    1    3    3    0    0  0.47476062070E+01 -0.16796572224E+03  0.54725106357E+02  0.17671972407E+03  0.00000000000E+00 0. -1.
</event>
<event>
 7    1  0.7029100E-006  0.7397581E+02  0.7818608E-02  0.1397650E+00
          2   -1    0    0  502    0  0.00000000000E+00  0.00000000000E+00  0.21698414577E+04  0.21698414577E+04  0.00000000000E+00 0. -1.
          1   -1    0    0  501    0 -0.00000000000E+00 -0.00000000000E+00 -0.32743592429E+03  0.32743592429E+03  0.00000000000E+00 0. -1.
         25    2    1    2    0    0  0.67845470355E+02 -0.10100073193E+03  0.56071864263E+03  0.58722606241E+03  0.12499958594E+03 0.  0.
          2    1    1    2  501    0 -0.35655760607E+02  0.64409787902E+02 -0.30949126438E+03  0.31812701358E+03  0.00000000000E+00 0. -1.
          1    1    1    2  502    0 -0.32189709747E+02  0.36590944025E+02  0.15911781551E+04  0.15919243060E+04  0.00000000000E+00 0. -1.
         22    1    3    3    0    0  0.50109406530E+02  0.84275946624E+01  0.29445511996E+03  0.29880728680E+03  0.00000000000E+00 0. -1.
         22    1    3    3    0    0  0.17736063824E+02 -0.10942832659E+03  0.26626352267E+03  0.28841877561E+03  0.00000000000E+00 0. -1.
</event>
<event>
 7    1  0.7029100E-006  0.6838922E+02  0.7818608E-02  0.1441717E+00
          2   -1    0    0  502    0  0.00000000000E+00  0.00000000000E+00  0.27324797627E+03  0.27324797627E+03  0.00000000000E+00 0. -1.
          1   -1    0    0  501    0 -0.00000000000E+00 -0.00000000000E+00 -0.59493189578E+03  0.59493189578E+03  0.00000000000E+00 0. -1.
         25    2    1    2    0    0  0.36453713431E+02  0.15828592739E+02  0.85052119187E+02  0.15632764349E+03  0.12500020628E+03 0.  0.
          2    1    1    2  501    0 -0.44785298872E+02 -0.52446876259E+02 -0.55481520203E+03  0.55908524057E+03  0.00000000000E+00 0. -1.
          1    1    1    2  502    0  0.83315854410E+01  0.36618283520E+02  0.14807916334E+03  0.15276698799E+03  0.00000000000E+00 0. -1.
         22    1    3    3    0    0  0.66732356057E+02 -0.78553838780E+01  0.48247707015E+01  0.67366110272E+02  0.00000000000E+00 0. -1.
         22    1    3    3    0    0 -0.30278642626E+02  0.23683976617E+02  0.80227348486E+02  0.88961533219E+02  0.00000000000E+00 0. -1.
</event>
<event>
 7    1  0.7029100E-006  0.1210332E+03  0.7818608E-02  0.1395316E+00
          2   -1    0    0  502    0  0.00000000000E+00  0.00000000000E+00  0.12036813989E+04  0.12036813989E+04  0.00000000000E+00 0. -1.
          1   -1    0    0  501    0 -0.00000000000E+00 -0.00000000000E+00 -0.25497713377E+03  0.25497713377E+03  0.00000000000E+00 0. -1.
         25    2    1    2    0    0  0.12377804352E+03 -0.19565413241E+01 -0.20982573223E+03  0.27381889107E+03  0.12500046036E+03 0.  0.
          2    1    1    2  501    0 -0.69042714033E+01 -0.29549480102E+02  0.13134699283E+02  0.33066010693E+02  0.00000000000E+00 0. -1.
          1    1    1    2  502    0 -0.11687377211E+03  0.31506021426E+02  0.11453952981E+04  0.11517736309E+04  0.00000000000E+00 0. -1.
         22    1    3    3    0    0  0.10083068108E+03 -0.50776917810E+01 -0.50620743937E+02  0.11293834122E+03  0.00000000000E+00 0. -1.
         22    1    3    3    0    0  0.22947362439E+02  0.31211504569E+01 -0.15920498829E+03  0.16088054985E+03  0.00000000000E+00 0. -1.
</event>
<event>
 7    1  0.7029100E-006  0.5512310E+02  0.7818608E-02  0.1449103E+00
          2   -1    0    0  502    0  0.00000000000E+00  0.00000000000E+00  0.31448187453E+02  0.31448187453E+02  0.00000000000E+00 0. -1.
          1   -1    0    0  501    0 -0.00000000000E+00 -0.00000000000E+00 -0.19843965498E+04  0.19843965498E+04  0.00000000000E+00 0. -1.
         25    2    1    2    0    0  0.28094919194E+02 -0.58655291994E+00 -0.34398249840E+03  0.36706751221E+03  0.12499972313E+03 0.  0.
          2    1    1    2  501    0  0.13516532667E+02 -0.41986803194E+02 -0.15833569308E+04  0.15839711988E+04  0.00000000000E+00 0. -1.
          1    1    1    2  502    0 -0.41611451860E+02  0.42573356113E+02 -0.25608933084E+02  0.64806026189E+02  0.00000000000E+00 0. -1.
         22    1    3    3    0    0  0.60107255575E+02 -0.43502590274E+02 -0.21359819108E+03  0.22611843084E+03  0.00000000000E+00 0.  1.
         22    1    3    3    0    0 -0.32012336381E+02  0.42916037354E+02 -0.13038430733E+03  0.14094908137E+03  0.00000000000E+00 0.  1.
</event>
<event>
 7    1  0.7029100E-006  0.6193259E+02  0.7818608E-02  0.1516774E+00
          2   -1    0    0  502    0  0.00000000000E+00  0.00000000000E+00  0.27543599749E+03  0.27543599749E+03  0.00000000000E+00 0. -1.
          1   -1    0    0  501    0 -0.00000000000E+00 -0.00000000000E+00 -0.39239521086E+03  0.39239521086E+03  0.00000000000E+00 0. -1.
         25    2    1    2    0    0  0.38419207996E+02 -0.62640892108E+02 -0.11974057057E+03  0.18804888869E+03  0.12499865355E+03 0.  0.
          2    1    1    2  501    0  0.87081764464E+01  0.22774517084E+02 -0.23390839654E+03  0.23517578306E+03  0.00000000000E+00 0. -1.
          1    1    1    2  502    0 -0.47127384443E+02  0.39866375024E+02  0.23668975375E+03  0.24460653661E+03  0.00000000000E+00 0. -1.
         22    1    3    3    0    0  0.60302574014E+02 -0.11622766552E+02 -0.11739262937E+03  0.13248591836E+03  0.00000000000E+00 0.  1.
         22    1    3    3    0    0 -0.21883366018E+02 -0.51018125556E+02 -0.23479412075E+01  0.55562970326E+02  0.00000000000E+00 0.  1.
</event>
<event>
 7    1  0.7029100E-006  0.1231919E+03  0.7818608E-02  0.1393707E+00
          2   -1    0    0  502    0  0.00000000000E+00  0.00000000000E+00  0.18934534903E+04  0.18934534903E+04  0.00000000000E+00 0. -1.
          1   -1    0    0  501    0 -0.00000000000E+00 -0.00000000000E+00 -0.91859542683E+03  0.91859542683E+03  0.00000000000E+00 0. -1.
         25    2    1    2    0    0 -0.63537404385E+02  0.13631290798E+03  0.38454739731E+03  0.43141572634E+03  0.12499847008E+03 0.  0.
          2    1    1    2  501    0  0.61965935759E+02 -0.10615473657E+03 -0.89078709481E+03  0.89922758719E+03  0.00000000000E+00 0. -1.
          1    1    1    2  502    0  0.15714686263E+01 -0.30158171414E+02  0.14810977609E+04  0.14814056035E+04  0.00000000000E+00 0. -1.
         22    1    3    3    0    0 -0.77761634153E+02  0.15161339507E+03  0.30713648123E+03  0.35123540740E+03  0.00000000000E+00 0.  1.
         22    1    3    3    0    0  0.14224229768E+02 -0.15300487085E+02  0.77410916083E+02  0.80180318946E+02  0.00000000000E+00 0.  1.
</event>
<event>
 7    1  0.7029100E-006  0.1630446E+03  0.7818608E-02  0.1213865E+00
          2   -1    0    0  502    0  0.00000000000E+00  0.00000000000E+00  0.83928029800E+03  0.83928029800E+03  0.00000000000E+00 0. -1.
          1   -1    0    0  501    0 -0.00000000000E+00 -0.00000000000E+00 -0.27180294647E+03  0.27180294647E+03  0.00000000000E+00 0. -1.
         25    2    1    2    0    0  0.61561013040E+02 -0.12680744797E+03  0.47466935368E+03  0.51069110665E+03  0.12499809559E+03 0.  0.
          2    1    1    2  501    0 -0.68430996886E+02 -0.98004312298E+02 -0.19889359975E+03  0.23204807818E+03  0.00000000000E+00 0. -1.
          1    1    1    2  502    0  0.68699838456E+01  0.22481176027E+03  0.29170159760E+03  0.36834405965E+03  0.00000000000E+00 0. -1.
         22    1    3    3    0    0  0.66606159451E+01 -0.13251070000E+03  0.31729314974E+03  0.34391625767E+03  0.00000000000E+00 0. -1.
         22    1    3    3    0    0  0.54900397095E+02  0.57032520285E+01  0.15737620394E+03  0.16677484898E+03  0.00000000000E+00 0. -1.
</event>
<event>
 7    1  0.7029100E-006  0.1169541E+03  0.7818608E-02  0.1349067E+00
          2   -1    0    0  502    0  0.00000000000E+00  0.00000000000E+00  0.20571644566E+04  0.20571644566E+04  0.00000000000E+00 0. -1.
          1   -1    0    0  501    0 -0.00000000000E+00 -0.00000000000E+00 -0.23569086994E+03  0.23569086994E+03  0.00000000000E+00 0. -1.
         25    2    1    2    0    0 -0.32748118561E+02 -0.69175277615E+02  0.10116498297E+03  0.17809345569E+03  0.12500106751E+03 0.  0.
          2    1    1    2  501    0  0.49568321687E+02  0.11198882725E+03 -0.17790932782E+03  0.21598667753E+03  0.00000000000E+00 0. -1.
          1    1    1    2  502    0 -0.16820203125E+02 -0.42813549633E+02  0.18982179315E+04  0.18987751933E+04  0.00000000000E+00 0. -1.
         22    1    3    3    0    0 -0.23243566941E+01  0.34964763578E+02  0.10157436444E+02  0.36484391748E+02  0.00000000000E+00 0. -1.
         22    1    3    3    0    0 -0.30423761867E+02 -0.10414004119E+03  0.91007546522E+02  0.14160906394E+03  0.00000000000E+00 0. -1.
</event>
<event>
 7    1  0.7029100E-006  0.6883673E+02  0.7818608E-02  0.1413517E+00
          2   -1    0    0  502    0  0.00000000000E+00  0.00000000000E+00  0.86227766533E+03  0.86227766533E+03  0.00000000000E+00 0. -1.
          1   -1    0    0  501    0 -0.00000000000E+00 -0.00000000000E+00 -0.15854680060E+04  0.15854680060E+04  0.00000000000E+00 0. -1.
         25    2    1    2    0    0 -0.24753456839E+02  0.12517382211E+02  0.70791753202E+03  0.71939834659E+03  0.12496931802E+03 0.  0.
          2    1    1    2  501    0  0.39756342006E+02 -0.56252706019E+02 -0.15753604620E+04  0.15768657264E+04  0.00000000000E+00 0. -1.
          1    1    1    2  502    0 -0.15002885167E+02  0.43735323808E+02  0.14425258935E+03  0.15148159837E+03  0.00000000000E+00 0. -1.
         22    1    3    3    0    0  0.61980512220E+01 -0.22963053369E+02  0.23748581341E+02  0.33611200137E+02  0.00000000000E+00 0.  1.
         22    1    3    3    0    0 -0.30951508061E+02  0.35480435580E+02  0.68416895068E+03  0.68578714645E+03  0.00000000000E+00 0.  1.
</event>
<event>
 7    1  0.7029100E-006  0.1506852E+03  0.7818608E-02  0.1214729E+00
          2   -1    0    0  502    0  0.00000000000E+00  0.00000000000E+00  0.12958348757E+04  0.12958348757E+04  0.00000000000E+00 0. -1.
          1   -1    0    0  501    0 -0.00000000000E+00 -0.00000000000E+00 -0.16564785292E+04  0.16564785292E+04  0.00000000000E+00 0. -1.
         25    2    1    2    0    0  0.21842490071E+03  0.13785999418E+03  0.25185986925E+03  0.38180514626E+03  0.12500784265E+03 0.  0.
          2    1    1    2  501    0 -0.14619511851E+03 -0.31997944178E+02 -0.15837691607E+04  0.15908242001E+04  0.00000000000E+00 0. -1.
          1    1    1    2  502    0 -0.72229782194E+02 -0.10586205000E+03  0.97126563801E+03  0.97968405858E+03  0.00000000000E+00 0. -1.
         22    1    3    3    0    0  0.10925004605E+02  0.82647525551E+01  0.84000462956E+02  0.85110161774E+02  0.00000000000E+00 0.  1.
         22    1    3    3    0    0  0.20749989610E+03  0.12959524162E+03  0.16785940630E+03  0.29669498448E+03  0.00000000000E+00 0.  1.
</event>
<event>
 7    1  0.7029100E-006  0.4623555E+02  0.7818608E-02  0.1501749E+00
          2   -1    0    0  502    0  0.00000000000E+00  0.00000000000E+00  0.22990356397E+04  0.22990356397E+04  0.00000000000E+00 0. -1.
          1   -1    0    0  501    0 -0.00000000000E+00 -0.00000000000E+00 -0.13757110038E+03  0.13757110038E+03  0.00000000000E+00 0. -1.
         25    2    1    2    0    0 -0.89726019866E+01 -0.56014774214E+01  0.19472138380E+03  0.23162573487E+03  0.12498871793E+03 0.  0.
          2    1    1    2  501    0 -0.30965060126E+02 -0.18684790502E+02 -0.11610559611E+03  0.12160783607E+03  0.00000000000E+00 0. -1.
          1    1    1    2  502    0  0.39937662113E+02  0.24286267924E+02  0.20828487516E+04  0.20833731691E+04  0.00000000000E+00 0. -1.
         22    1    3    3    0    0 -0.40370122071E+02 -0.53924587969E+02  0.11462015840E+03  0.13294881969E+03  0.00000000000E+00 0. -1.
         22    1    3    3    0    0  0.31397520084E+02  0.48323110547E+02  0.80101225396E+02  0.98676915185E+02  0.00000000000E+00 0. -1.
</event>
<event>
 7    1  0.7029100E-006  0.9499880E+02  0.7818608E-02  0.1340160E+00
          2   -1    0    0  502    0  0.00000000000E+00  0.00000000000E+00  0.58484638582E+03  0.58484638582E+03  0.00000000000E+00 0. -1.
          1   -1    0    0  501    0 -0.00000000000E+00 -0.00000000000E+00 -0.97570630716E+03  0.97570630716E+03  0.00000000000E+00 0. -1.
         25    2    1    2    0    0 -0.12970511962E+02 -0.41171462640E+02  0.90567335944E+02  0.16028213504E+03  0.12499838781E+03 0.  0.
          2    1    1    2  501    0 -0.16649471077E+02  0.94656831084E+02 -0.93634405267E+03  0.94126367482E+03  0.00000000000E+00 0. -1.
          1    1    1    2  502    0  0.29619983040E+02 -0.53485368443E+02  0.45491679539E+03  0.45900688313E+03  0.00000000000E+00 0. -1.
         22    1    3    3    0    0  0.45385774469E+02 -0.35151616324E+02  0.83303681346E+02  0.10116821626E+03  0.00000000000E+00 0.  1.
         22    1    3    3    0    0 -0.58356286431E+02 -0.60198463162E+01  0.72636545980E+01  0.59113918783E+02  0.00000000000E+00 0.  1.
</event>
<event>
 7    1  0.7029100E-006  0.1189469E+03  0.7818608E-02  0.1421526E+00
          2   -1    0    0  502    0  0.00000000000E+00  0.00000000000E+00  0.14793879111E+03  0.14793879111E+03  0.00000000000E+00 0. -1.
          1   -1    0    0  501    0 -0.00000000000E+00 -0.00000000000E+00 -0.53481902757E+03  0.53481902757E+03  0.00000000000E+00 0. -1.
         25    2    1    2    0    0  0.84615903628E+02 -0.11390664463E+03  0.34968094032E+02  0.19231134758E+03  0.12500524777E+03 0.  0.
          2    1    1    2  501    0 -0.74147354441E+02  0.91034302174E+02 -0.44255573611E+03  0.45786532290E+03  0.00000000000E+00 0. -1.
          1    1    1    2  502    0 -0.10468549187E+02  0.22872342454E+02  0.20707405619E+02  0.32581148213E+02  0.00000000000E+00 0. -1.
         22    1    3    3    0    0  0.87276048187E+02 -0.61611557762E+02  0.71423270267E+02  0.12850827278E+03  0.00000000000E+00 0.  1.
         22    1    3    3    0    0 -0.26601445585E+01 -0.52295086865E+02 -0.36455176235E+02  0.63803074797E+02  0.00000000000E+00 0.  1.
</event>
<event>
 7    1  0.7029100E-006  0.5396520E+02  0.7818608E-02  0.1531906E+00
          2   -1    0    0  502    0  0.00000000000E+00  0.00000000000E+00  0.13626201764E+03  0.13626201764E+03  0.00000000000E+00 0. -1.
          1   -1    0    0  501    0 -0.00000000000E+00 -0.00000000000E+00 -0.58979841603E+03  0.58979841603E+03  0.00000000000E+00 0. -1.
         25    2    1    2    0    0 -0.58306008967E+02 -0.36482003507E+02 -0.25228625473E+03  0.28983459271E+03  0.12500083819E+03 0.  0.
          2    1    1    2  501    0  0.51174078892E+02  0.12203161051E+02 -0.31516936410E+03  0.31953001668E+03  0.00000000000E+00 0. -1.
          1    1    1    2  502    0  0.71319300743E+01  0.24278842457E+02  0.11391922044E+03  0.11669582427E+03  0.00000000000E+00 0. -1.
         22    1    3    3    0    0 -0.42563622532E+02 -0.14977852208E+02 -0.25855003958E+03  0.26245784611E+03  0.00000000000E+00 0.  1.
         22    1    3    3    0    0 -0.15742386435E+02 -0.21504151300E+02  0.62637848519E+01  0.27376746601E+02  0.00000000000E+00 0.  1.
</event>
<event>
 7    1  0.7029100E-006  0.8911774E+02  0.7818608E-02  0.1440246E+00
          2   -1    0    0  502    0  0.00000000000E+00  0.00000000000E+00  0.14986350412E+03  0.14986350412E+03  0.00000000000E+00 0. -1.
          1   -1    0    0  501    0 -0.00000000000E+00 -0.00000000000E+00 -0.29657535014E+03  0.29657535014E+03  0.00000000000E+00 0. -1.
         25    2    1    2    0    0 -0.40248427902E+02 -0.88818936274E+02  0.60721405785E+02  0.16976594244E+03  0.12499858680E+03 0.  0.
          2    1    1    2  501    0 -0.13621713483E+02  0.25757104838E+02 -0.18961681004E+03  0.19184242017E+03  0.00000000000E+00 0. -1.
          1    1    1    2  502    0  0.53870141384E+02  0.63061831436E+02 -0.17816441769E+02  0.84830491654E+02  0.00000000000E+00 0. -1.
         22    1    3    3    0    0 -0.41864102295E+02 -0.92390495280E+02 -0.72407021128E+01  0.10169087691E+03  0.00000000000E+00 0.  1.
         22    1    3    3    0    0  0.16156743930E+01  0.35715590058E+01  0.67962107897E+02  0.68075065533E+02  0.00000000000E+00 0.  1.
</event>
<event>
 7    1  0.7029100E-006  0.6925100E+02  0.7818608E-02  0.1486618E+00
          2   -1    0    0  502    0  0.00000000000E+00  0.00000000000E+00  0.11163395758E+04  0.11163395758E+04  0.00000000000E+00 0. -1.
          1   -1    0    0  501    0 -0.00000000000E+00 -0.00000000000E+00 -0.28105759119E+03  0.28105759119E+03  0.00000000000E+00 0. -1.
         25    2    1    2    0    0  0.37007840012E+02 -0.22784518647E+02  0.24689256440E+03  0.28012329386E+03  0.12499762756E+03 0.  0.
          2    1    1    2  501    0 -0.62704311433E+02  0.30445248273E+02 -0.25963324448E+03  0.26882738970E+03  0.00000000000E+00 0. -1.
          1    1    1    2  502    0  0.25696471421E+02 -0.76607296264E+01  0.84802266473E+03  0.84844648347E+03  0.00000000000E+00 0. -1.
         22    1    3    3    0    0  0.61261871505E+02 -0.15429948551E+02  0.24682188418E+03  0.25477861512E+03  0.00000000000E+00 0.  1.
         22    1    3    3    0    0 -0.24254031493E+02 -0.73545700958E+01  0.70680224866E-01  0.25344678744E+02  0.00000000000E+00 0.  1.
</event>
<event>
 7    1  0.7029100E-006  0.7614164E+02  0.7818608E-02  0.1425122E+00
          2   -1    0    0  502    0  0.00000000000E+00  0.00000000000E+00  0.11665213568E+04  0.11665213568E+04  0.00000000000E+00 0. -1.
          1   -1    0    0  501    0 -0.00000000000E+00 -0.00000000000E+00 -0.34234118530E+02  0.34234118530E+02  0.00000000000E+00 0. -1.
         25    2    1    2    0    0 -0.64306760904E+02  0.70721533651E+02  0.85357227853E+03  0.86795599841E+03  0.12500034276E+03 0.  0.
          2    1    1    2  501    0  0.26078180361E+02 -0.70646176400E+02  0.29834806245E+02  0.81000428360E+02  0.00000000000E+00 0. -1.
          1    1    1    2  502    0  0.38228580543E+02 -0.75357250740E-01  0.24888015349E+03  0.25179904854E+03  0.00000000000E+00 0. -1.
         22    1    3    3    0    0 -0.26648821700E+02 -0.22882265461E+02  0.74356697243E+02  0.82235492310E+02  0.00000000000E+00 0.  1.
         22    1    3    3    0    0 -0.37657939205E+02  0.93603799112E+02  0.77921558128E+03  0.78572050610E+03  0.00000000000E+00 0.  1.
</event>
<event>
 7    1  0.7029100E-006  0.3987864E+03  0.7818608E-02  0.1193604E+00
          2   -1    0    0  502    0  0.00000000000E+00  0.00000000000E+00  0.74371642111E+03  0.74371642111E+03  0.00000000000E+00 0. -1.
          1   -1    0    0  501    0 -0.00000000000E+00 -0.00000000000E+00 -0.80546988474E+03  0.80546988474E+03  0.00000000000E+00 0. -1.
         25    2    1    2    0    0  0.39654499446E+03 -0.41819365651E+02 -0.39287699049E+03  0.57356267662E+03  0.12500008951E+03 0.  0.
          2    1    1    2  501    0 -0.38834279983E+03  0.10207768186E+03 -0.19473230008E+03  0.44626298525E+03  0.00000000000E+00 0. -1.
          1    1    1    2  502    0 -0.82021946348E+01 -0.60258316207E+02  0.52585582694E+03  0.52936064398E+03  0.00000000000E+00 0. -1.
         22    1    3    3    0    0  0.27706083427E+03  0.26110646371E+02 -0.23498602314E+03  0.36422918995E+03  0.00000000000E+00 0.  1.
         22    1    3    3    0    0  0.11948416019E+03 -0.67930012021E+02 -0.15789096734E+03  0.20933348666E+03  0.00000000000E+00 0.  1.
</event>
<event>
 7    1  0.7029100E-006  0.9379971E+02  0.7818608E-02  0.1298697E+00
          2   -1    0    0  502    0  0.00000000000E+00  0.00000000000E+00  0.47957006188E+04  0.47957006188E+04  0.00000000000E+00 0. -1.
          1   -1    0    0  501    0 -0.00000000000E+00 -0.00000000000E+00 -0.26940390474E+03  0.26940390474E+03  0.00000000000E+00 0. -1.
         25    2    1    2    0    0 -0.92052945749E+02 -0.11177634272E+03  0.24728176655E+03  0.31263632995E+03  0.12500202848E+03 0.  0.
          2    1    1    2  501    0  0.12302411904E+01  0.89712875037E+02 -0.22772337978E+03  0.24476080392E+03  0.00000000000E+00 0. -1.
          1    1    1    2  502    0  0.90822704559E+02  0.22063467685E+02  0.45067383273E+04  0.45077073897E+04  0.00000000000E+00 0. -1.
         22    1    3    3    0    0 -0.11084596780E+03 -0.57663891691E+02  0.20977411484E+03  0.24416619799E+03  0.00000000000E+00 0. -1.
         22    1    3    3    0    0  0.18793022050E+02 -0.54112451031E+02  0.37507651703E+02  0.68470131960E+02  0.00000000000E+00 0. -1.
</event>
<event>
 7    1  0.7029100E-006  0.1816365E+03  0.7818608E-02  0.1227069E+00
          2   -1    0    0  502    0  0.00000000000E+00  0.00000000000E+00  0.51341831693E+03  0.51341831693E+03  0.00000000000E+00 0. -1.
          1   -1    0    0  501    0 -0.00000000000E+00 -0.00000000000E+00 -0.24868110035E+04  0.24868110035E+04  0.00000000000E+00 0. -1.
         25    2    1    2    0    0  0.34792876626E+02  0.87044159707E+02 -0.34763173143E+02  0.16006141822E+03  0.12499579751E+03 0.  0.
          2    1    1    2  501    0 -0.80195794932E+02 -0.16868591300E+03 -0.23808615825E+04  0.23881767476E+04  0.00000000000E+00 0. -1.
          1    1    1    2  502    0  0.45402918306E+02  0.81641753292E+02  0.44223206910E+03  0.45199115457E+03  0.00000000000E+00 0. -1.
         22    1    3    3    0    0  0.39633814721E+01 -0.32396596548E+02 -0.10969637942E+02  0.34432264189E+02  0.00000000000E+00 0.  1.
         22    1    3    3    0    0  0.30829495154E+02  0.11944075626E+03 -0.23793535201E+02  0.12562915404E+03  0.00000000000E+00 0.  1.
</event>
<event>
 7    1  0.7029100E-006  0.1980636E+03  0.7818608E-02  0.1259829E+00
          2   -1    0    0  502    0  0.00000000000E+00  0.00000000000E+00  0.21299041727E+04  0.21299041727E+04  0.00000000000E+00 0. -1.
          1   -1    0    0  501    0 -0.00000000000E+00 -0.00000000000E+00 -0.13369969189E+04  0.13369969189E+04  0.00000000000E+00 0. -1.
         25    2    1    2    0    0 -0.94046305833E+01 -0.25137081471E+03 -0.71713859382E+02  0.28990243511E+03  0.12499924277E+03 0.  0.
          2    1    1    2  501    0  0.26687541927E+02  0.19230967911E+03 -0.11475643129E+04  0.11638724543E+04  0.00000000000E+00 0. -1.
          1    1    1    2  502    0 -0.17282911343E+02  0.59061135599E+02  0.20121854261E+04  0.20131262021E+04  0.00000000000E+00 0. -1.
         22    1    3    3    0    0 -0.62773987334E+01 -0.19193300973E+03 -0.10787311050E+03  0.22025960576E+03  0.00000000000E+00 0. -1.
         22    1    3    3    0    0 -0.31272318499E+01 -0.59437804977E+02  0.36159251116E+02  0.69642829356E+02  0.00000000000E+00 0. -1.
</event>
<event>
 7    1  0.7029100E-006  0.1000592E+03  0.7818608E-02  0.1345529E+00
          2   -1    0    0  502    0  0.00000000000E+00  0.00000000000E+00  0.12098232479E+04  0.12098232479E+04  0.00000000000E+00 0. -1.
          1   -1    0    0  501    0 -0.00000000000E+00 -0.00000000000E+00 -0.19522142439E+03  0.19522142439E+03  0.00000000000E+00 0. -1.
         25    2    1    2    0    0 -0.11345715811E+03 -0.10387021072E+03  0.52398609269E+03  0.56022160471E+03  0.12500109463E+03 0.  0.
          2    1    1    2  501    0  0.69662708056E+02  0.69906522443E+02 -0.16208881427E+03  0.18976985663E+03  0.00000000000E+00 0. -1.
          1    1    1    2  502    0  0.43794450052E+02  0.33963688276E+02  0.65270454510E+03  0.65505321095E+03  0.00000000000E+00 0. -1.
         22    1    3    3    0    0 -0.11008154176E+03 -0.54639426605E+02  0.47518450681E+03  0.49081944571E+03  0.00000000000E+00 0. -1.
         22    1    3    3    0    0 -0.33756163522E+01 -0.49230784114E+02  0.48801585876E+02  0.69402159003E+02  0.00000000000E+00 0. -1.
</event>
<event>
 7    1  0.7029100E-006  0.1200331E+03  0.7818608E-02  0.1357419E+00
          2   -1    0    0  502    0  0.00000000000E+00  0.00000000000E+00  0.33260412419E+03  0.33260412419E+03  0.00000000000E+00 0. -1.
          1   -1    0    0  501    0 -0.00000000000E+00 -0.00000000000E+00 -0.42406677451E+03  0.42406677451E+03  0.00000000000E+00 0. -1.
         25    2    1    2    0    0  0.14369896337E+03 -0.10408218698E+02 -0.80194499905E+02  0.20691128488E+03  0.12499359547E+03 0.  0.
          2    1    1    2  501    0 -0.11046667381E+03  0.35682998663E+02 -0.26673599097E+03  0.29090247729E+03  0.00000000000E+00 0. -1.
          1    1    1    2  502    0 -0.33232289562E+02 -0.25274779965E+02  0.25546784056E+03  0.25885713653E+03  0.00000000000E+00 0. -1.
         22    1    3    3    0    0  0.14698306187E+03  0.98061091608E+00 -0.23332072457E+02  0.14882663632E+03  0.00000000000E+00 0.  1.
         22    1    3    3    0    0 -0.32840985028E+01 -0.11388829614E+02 -0.56862427448E+02  0.58084648559E+02  0.00000000000E+00 0.  1.
</event>
<event>
 7    1  0.7029100E-006  0.1050466E+03  0.7818608E-02  0.1296567E+00
          2   -1    0    0  502    0  0.00000000000E+00  0.00000000000E+00  0.13675791145E+04  0.13675791145E+04  0.00000000000E+00 0. -1.
          1   -1    0    0  501    0 -0.00000000000E+00 -0.00000000000E+00 -0.27785961837E+03  0.27785961837E+03  0.00000000000E+00 0. -1.
         25    2    1    2    0    0 -0.36494951784E+02  0.38137539396E+02  0.34456898384E+03  0.37032228905E+03  0.12499783889E+03 0.  0.
          2    1    1    2  501    0 -0.76594069630E+01 -0.10688944066E+03 -0.25240916249E+03  0.27421598120E+03  0.00000000000E+00 0. -1.
          1    1    1    2  502    0  0.44154358747E+02  0.68751901262E+02  0.99755967481E+03  0.10009004626E+04  0.00000000000E+00 0. -1.
         22    1    3    3    0    0  0.87594769917E+01  0.43348589195E+02  0.30999620986E+03  0.31313492100E+03  0.00000000000E+00 0. -1.
         22    1    3    3    0    0 -0.45254428776E+02 -0.52110497998E+01  0.34572773974E+02  0.57187368047E+02  0.00000000000E+00 0. -1.
</event>
<event>
 7    1  0.7029100E-006  0.2692754E+02  0.7818608E-02  0.1677984E+00
          2   -1    0    0  502    0  0.00000000000E+00  0.00000000000E+00  0.58726339872E+02  0.58726339872E+02  0.00000000000E+00 0. -1.
          1   -1    0    0  501    0 -0.00000000000E+00 -0.00000000000E+00 -0.35935976142E+03  0.35935976142E+03  0.00000000000E+00 0. -1.
         25    2    1    2    0    0 -0.45787008576E+02  0.54698303225E+01 -0.24053587542E+03  0.27497191312E+03  0.12500270574E+03 0.  0.
          2    1    1    2  501    0  0.25137142418E+02 -0.96001549755E+00 -0.97206062427E+02  0.10040824733E+03  0.00000000000E+00 0. -1.
          1    1    1    2  502    0  0.20649866157E+02 -0.45098148250E+01  0.37108516296E+02  0.42705940849E+02  0.00000000000E+00 0. -1.
         22    1    3    3    0    0 -0.62007117986E+01  0.19602949197E+02  0.86208432169E+01  0.22294469758E+02  0.00000000000E+00 0. -1.
         22    1    3    3    0    0 -0.39586296777E+02 -0.14133118875E+02 -0.24915671864E+03  0.25267744336E+03  0.00000000000E+00 0. -1.
</event>
<event>
 7    1  0.7029100E-006  0.1539271E+03  0.7818608E-02  0.1268924E+00
          2   -1    0    0  502    0  0.00000000000E+00  0.00000000000E+00  0.14131072322E+03  0.14131072322E+03  0.00000000000E+00 0. -1.
          1   -1    0    0  501    0 -0.00000000000E+00 -0.00000000000E+00 -0.20299907441E+04  0.20299907441E+04  0.00000000000E+00 0. -1.
         25    2    1    2    0    0  0.88304862473E+02  0.21322961457E+02 -0.35006791496E+02  0.15844242389E+03  0.12500443519E+03 0.  0.
          2    1    1    2  501    0 -0.13973998550E+03 -0.72359053202E+02 -0.19128464599E+04  0.19193083846E+04  0.00000000000E+00 0. -1.
          1    1    1    2  502    0  0.51435123026E+02  0.51036091745E+02  0.59173230562E+02  0.93550658771E+02  0.00000000000E+00 0. -1.
         22    1    3    3    0    0  0.77725881523E+02  0.45184942540E+02  0.24736208990E+02  0.93246296045E+02  0.00000000000E+00 0. -1.
         22    1    3    3    0    0  0.10578980950E+02 -0.23861981083E+02 -0.59743000485E+02  0.65196127846E+02  0.00000000000E+00 0. -1.
</event>
<event>
 7    1  0.7029100E-006  0.1317410E+03  0.7818608E-02  0.1231611E+00
          2   -1    0    0  502    0  0.00000000000E+00  0.00000000000E+00  0.68385022933E+03  0.68385022933E+03  0.00000000000E+00 0. -1.
          1   -1    0    0  501    0 -0.00000000000E+00 -0.00000000000E+00 -0.41846771049E+03  0.41846771049E+03  0.00000000000E+00 0. -1.
         25    2    1    2    0    0 -0.98319122377E+01  0.54975645659E+02  0.13898359125E+03  0.19509238270E+03  0.12500244412E+03 0.  0.
          2    1    1    2  501    0 -0.12873684163E+03  0.27973360430E+02 -0.36601612176E+03  0.38900319366E+03  0.00000000000E+00 0. -1.
          1    1    1    2  502    0  0.13856875386E+03 -0.82949006089E+02  0.49241504935E+03  0.51822236346E+03  0.00000000000E+00 0. -1.
         22    1    3    3    0    0  0.40468239550E+02  0.72515311982E+02  0.93422046547E+02  0.12499531057E+03  0.00000000000E+00 0.  1.
         22    1    3    3    0    0 -0.50300151788E+02 -0.17539666324E+02  0.45561544706E+02  0.70097072126E+02  0.00000000000E+00 0.  1.
</event>
<event>
 7    1  0.7029100E-006  0.4188758E+02  0.7818608E-02  0.1535514E+00
          2   -1    0    0  502    0  0.00000000000E+00  0.00000000000E+00  0.25617833299E+03  0.25617833299E+03  0.00000000000E+00 0. -1.
          1   -1    0    0  501    0 -0.00000000000E+00 -0.00000000000E+00 -0.16549705153E+03  0.16549705153E+03  0.00000000000E+00 0. -1.
         25    2    1    2    0    0  0.65798625389E+02  0.14352203559E+02  0.13903025756E+02  0.14266891987E+03  0.12500272686E+03 0.  0.
          2    1    1    2  501    0 -0.30963104747E+02  0.74114270954E+01 -0.96141063647E+02  0.10127560035E+03  0.00000000000E+00 0. -1.
          1    1    1    2  502    0 -0.34835520643E+02 -0.21763630655E+02  0.17291931935E+03  0.17773086430E+03  0.00000000000E+00 0. -1.
         22    1    3    3    0    0  0.46982653503E+02  0.50280688725E+02 -0.36563029548E+02  0.77925429216E+02  0.00000000000E+00 0. -1.
         22    1    3    3    0    0  0.18815971887E+02 -0.35928485165E+02  0.50466055304E+02  0.64743490655E+02  0.00000000000E+00 0. -1.
</event>
<event>
 7    1  0.7029100E-006  0.3933400E+02  0.7818608E-02  0.1587215E+00
          2   -1    0    0  502    0  0.00000000000E+00  0.00000000000E+00  0.15556208615E+04  0.15556208615E+04  0.00000000000E+00 0. -1.
          1   -1    0    0  501    0 -0.00000000000E+00 -0.00000000000E+00 -0.13644077653E+03  0.13644077653E+03  0.00000000000E+00 0. -1.
         25    2    1    2    0    0 -0.52338095931E+01 -0.38610635353E+02  0.59249824666E+03  0.60679100316E+03  0.12499190091E+03 0.  0.
          2    1    1    2  501    0  0.27389432227E+02  0.28286092905E+02 -0.12613643702E+03  0.13213888449E+03  0.00000000000E+00 0. -1.
          1    1    1    2  502    0 -0.22155622634E+02  0.10324542448E+02  0.95281827535E+03  0.95313175041E+03  0.00000000000E+00 0. -1.
         22    1    3    3    0    0 -0.18530213830E+02  0.43053999053E+02  0.17469964630E+03  0.18087836265E+03  0.00000000000E+00 0. -1.
         22    1    3    3    0    0  0.13296404237E+02 -0.81664634407E+02  0.41779860036E+03  0.42591264050E+03  0.00000000000E+00 0. -1.
</event>
<event>
 7    1  0.7029100E-006  0.6375862E+02  0.7818608E-02  0.1408598E+00
          2   -1    0    0  502    0  0.00000000000E+00  0.00000000000E+00  0.12902657884E+03  0.12902657884E+03  0.00000000000E+00 0. -1.
          1   -1    0    0  501    0 -0.00000000000E+00 -0.00000000000E+00 -0.35119899873E+03  0.35119899873E+03  0.00000000000E+00 0. -1.
         25    2    1    2    0    0 -0.47919720380E+02 -0.20315560441E+02 -0.75378627077E+02  0.15497812994E+03  0.12500904665E+03 0.  0.
          2    1    1    2  501    0  0.20273966839E+02  0.64203816147E+02 -0.22306795765E+03  0.23300746227E+03  0.00000000000E+00 0. -1.
          1    1    1    2  502    0  0.27645753541E+02 -0.43888255707E+02  0.76274164840E+02  0.92239985364E+02  0.00000000000E+00 0. -1.
         22    1    3    3    0    0 -0.41619401602E+02  0.33897178670E+02 -0.84038343702E+02  0.99717784390E+02  0.00000000000E+00 0.  1.
         22    1    3    3    0    0 -0.63003187775E+01 -0.54212739110E+02  0.86597166254E+01  0.55260345553E+02  0.00000000000E+00 0.  1.
</event>
<event>
 7    1  0.7029100E-006  0.3369966E+03  0.7818608E-02  0.1157365E+00
          2   -1    0    0  502    0  0.00000000000E+00  0.00000000000E+00  0.21876654008E+04  0.21876654008E+04  0.00000000000E+00 0. -1.
          1   -1    0    0  501    0 -0.00000000000E+00 -0.00000000000E+00 -0.29651087587E+03  0.29651087587E+03  0.00000000000E+00 0. -1.
         25    2    1    2    0    0 -0.30889242181E+03  0.12848043367E+03  0.24092481764E+03  0.43080448391E+03  0.12500394200E+03 0.  0.
          2    1    1    2  501    0 -0.30113438317E+02 -0.10424119539E+03 -0.17000445184E+03  0.20167934855E+03  0.00000000000E+00 0. -1.
          1    1    1    2  502    0  0.33900586012E+03 -0.24239238278E+02  0.18202341591E+04  0.18516924442E+04  0.00000000000E+00 0. -1.
         22    1    3    3    0    0  0.94690630714E+01  0.58926867816E+01  0.24174635791E+02  0.26623296727E+02  0.00000000000E+00 0. -1.
         22    1    3    3    0    0 -0.31836148488E+03  0.12258774688E+03  0.21675018185E+03  0.40418118718E+03  0.00000000000E+00 0. -1.
</event>
<event>
 7    1  0.7029100E-006  0.8556730E+02  0.7818608E-02  0.1463014E+00
          2   -1    0    0  502    0  0.00000000000E+00  0.00000000000E+00  0.32767244981E+04  0.32767244981E+04  0.00000000000E+00 0. -1.
          1   -1    0    0  501    0 -0.00000000000E+00 -0.00000000000E+00 -0.15391929133E+03  0.15391929133E+03  0.00000000000E+00 0. -1.
         25    2    1    2    0    0  0.42194948550E+01  0.89031537131E+02  0.11306094035E+04  0.11409851869E+04  0.12500061828E+03 0.  0.
          2    1    1    2  501    0 -0.24942157358E+02 -0.60679042763E+01 -0.14676308973E+03  0.14899105739E+03  0.00000000000E+00 0. -1.
          1    1    1    2  502    0  0.20722662503E+02 -0.82963632855E+02  0.21389588930E+04  0.21406675452E+04  0.00000000000E+00 0. -1.
         22    1    3    3    0    0 -0.36882849422E+02  0.27700139220E+02  0.83578777849E+03  0.83705964720E+03  0.00000000000E+00 0. -1.
         22    1    3    3    0    0  0.41102344277E+02  0.61331397911E+02  0.29482162505E+03  0.30392553969E+03  0.00000000000E+00 0. -1.
</event>
<event>
 7    1  0.7029100E-006  0.5758546E+02  0.7818608E-02  0.1505607E+00
          2   -1    0    0  502    0  0.00000000000E+00  0.00000000000E+00  0.35900299479E+03  0.35900299479E+03  0.00000000000E+00 0. -1.
          1   -1    0    0  501    0 -0.00000000000E+00 -0.00000000000E+00 -0.40062997098E+03  0.40062997098E+03  0.00000000000E+00 0. -1.
         25    2    1    2    0    0  0.52593549085E+02 -0.69661251995E+01 -0.16154270941E+02  0.13674892970E+03  0.12499880399E+03 0.  0.
          2    1    1    2  501    0 -0.46616376237E+02  0.34609069004E+02 -0.32089806512E+03  0.32610802257E+03  0.00000000000E+00 0. -1.
          1    1    1    2  502    0 -0.59771728482E+01 -0.27642943805E+02  0.29542535987E+03  0.29677601350E+03  0.00000000000E+00 0. -1.
         22    1    3    3    0    0  0.88682225269E+02 -0.23677281901E+02  0.45714824717E+01  0.91902389571E+02  0.00000000000E+00 0.  1.
         22    1    3    3    0    0 -0.36088676184E+02  0.16711156701E+02 -0.20725753413E+02  0.44846540129E+02  0.00000000000E+00 0.  1.
</event>
<event>
 7    1  0.7029100E-006  0.1379474E+03  0.7818608E-02  0.1381877E+00
          2   -1    0    0  502    0  0.00000000000E+00  0.00000000000E+00  0.38898204186E+03  0.38898204186E+03  0.00000000000E+00 0. -1.
          1   -1    0    0  501    0 -0.00000000000E+00 -0.00000000000E+00 -0.25275809619E+03  0.25275809619E+03  0.00000000000E+00 0. -1.
         25    2    1    2    0    0 -0.14707452044E+03  0.70475485535E+02 -0.17684575966E+02  0.20624386264E+03  0.12500431204E+03 0.  0.
          2    1    1    2  501    0  0.22826268206E+02 -0.18950144625E+02 -0.12359848603E+03  0.12710913520E+03  0.00000000000E+00 0. -1.
          1    1    1    2  502    0  0.12424825223E+03 -0.51525340910E+02  0.27750700767E+03  0.30838714021E+03  0.00000000000E+00 0. -1.
         22    1    3    3    0    0 -0.44081653511E+02  0.24236789315E+02  0.52978211648E+02  0.73056861704E+02  0.00000000000E+00 0.  1.
         22    1    3    3    0    0 -0.10299286693E+03  0.46238696221E+02 -0.70662787614E+02  0.13318700094E+03  0.00000000000E+00 0.  1.
</event>
<event>
 7    1  0.7029100E-006  0.4577566E+02  0.7818608E-02  0.1490774E+00
          2   -1    0    0  502    0  0.00000000000E+00  0.00000000000E+00  0.92241120592E+03  0.92241120592E+03  0.00000000000E+00 0. -1.
          1   -1    0    0  501    0 -0.00000000000E+00 -0.00000000000E+00 -0.19924989545E+03  0.19924989545E+03  0.00000000000E+00 0. -1.
         25    2    1    2    0    0 -0.34724279139E+02 -0.14258901987E+02 -0.13649746897E+03  0.18884449796E+03  0.12498637336E+03 0.  0.
          2    1    1    2  501    0  0.38684683684E+02 -0.31345111234E+02 -0.18759381437E+02  0.53206532888E+02  0.00000000000E+00 0. -1.
          1    1    1    2  502    0 -0.39604045456E+01  0.45604013221E+02  0.87841816088E+03  0.87961007053E+03  0.00000000000E+00 0. -1.
         22    1    3    3    0    0 -0.23511108488E+02  0.32164656686E+02 -0.13532872701E+03  0.14107161911E+03  0.00000000000E+00 0. -1.
         22    1    3    3    0    0 -0.11213170650E+02 -0.46423558673E+02 -0.11687419601E+01  0.47772878850E+02  0.00000000000E+00 0. -1.
</event>
<event>
 7    1  0.7029100E-006  0.3284458E+02  0.7818608E-02  0.1601115E+00
          2   -1    0    0  502    0  0.00000000000E+00  0.00000000000E+00  0.13899794958E+04  0.13899794958E+04  0.00000000000E+00 0. -1.
          1   -1    0    0  501    0 -0.00000000000E+00 -0.00000000000E+00 -0.10514943068E+03  0.10514943068E+03  0.00000000000E+00 0. -1.
         25    2    1    2    0    0  0.53603077746E+02  0.47140584263E+01  0.18400436700E+02  0.13733597792E+03  0.12500832960E+03 0.  0.
          2    1    1    2  501    0 -0.28340222044E+02 -0.13976037896E+02 -0.40062081124E+02  0.51024191956E+02  0.00000000000E+00 0. -1.
          1    1    1    2  502    0 -0.25262855702E+02  0.92619794696E+01  0.13064917095E+04  0.13067687566E+04  0.00000000000E+00 0. -1.
         22    1    3    3    0    0  0.57556697978E+02  0.34565031558E+02 -0.35237807325E+02  0.75823597605E+02  0.00000000000E+00 0. -1.
         22    1    3    3    0    0 -0.39536202312E+01 -0.29850973132E+02  0.53638244025E+02  0.61512380314E+02  0.00000000000E+00 0. -1.
</event>
<event>
 7    1  0.7029100E-006  0.8321370E+02  0.7818608E-02  0.1455957E+00
          2   -1    0    0  502    0  0.00000000000E+00  0.00000000000E+00  0.30673626875E+03  0.30673626875E+03  0.00000000000E+00 0. -1.
          1   -1    0    0  501    0 -0.00000000000E+00 -0.00000000000E+00 -0.16890229487E+03  0.16890229487E+03  0.00000000000E+00 0. -1.
         25    2    1    2    0    0 -0.76208037887E+02  0.50821914005E+02  0.85464224604E+02  0.17694079537E+03  0.12495350894E+03 0.  0.
          2    1    1    2  501    0  0.51950048401E+02 -0.64370483446E+02 -0.10794420201E+03  0.13599381389E+03  0.00000000000E+00 0. -1.
          1    1    1    2  502    0  0.24257989485E+02  0.13548569441E+02  0.16031395128E+03  0.16270395436E+03  0.00000000000E+00 0. -1.
         22    1    3    3    0    0 -0.62100704055E+02  0.68759785583E+02  0.10974046324E+03  0.14362233402E+03  0.00000000000E+00 0. -1.
         22    1    3    3    0    0 -0.14107333831E+02 -0.17937871578E+02 -0.24276238632E+02  0.33318461349E+02  0.00000000000E+00 0. -1.
</event>
<event>
 7    1  0.7029100E-006  0.1692006E+03  0.7818608E-02  0.1331420E+00
          2   -1    0    0  502    0  0.00000000000E+00  0.00000000000E+00  0.88178470577E+03  0.88178470577E+03  0.00000000000E+00 0. -1.
          1   -1    0    0  501    0 -0.00000000000E+00 -0.00000000000E+00 -0.49807539993E+03  0.49807539993E+03  0.00000000000E+00 0. -1.
         25    2    1    2    0    0 -0.12880705709E+03 -0.44390703849E+02  0.24923059656E+02  0.18656962286E+03  0.12500109090E+03 0.  0.
          2    1    1    2  501    0 -0.33672591912E+02 -0.15443302476E+02 -0.40674193284E+03  0.40842543869E+03  0.00000000000E+00 0. -1.
          1    1    1    2  502    0  0.16247964900E+03  0.59834006325E+02  0.76552817903E+03  0.78486504415E+03  0.00000000000E+00 0. -1.
         22    1    3    3    0    0 -0.73415948293E+01 -0.41809490406E+02 -0.31257678922E+02  0.52715984238E+02  0.00000000000E+00 0.  1.
         22    1    3    3    0    0 -0.12146546226E+03 -0.25812134429E+01  0.56180738578E+02  0.13385363862E+03  0.00000000000E+00 0.  1.
</event>
<event>
 7    1  0.7029100E-006  0.4722592E+02  0.7818608E-02  0.1581198E+00
          2   -1    0    0  502    0  0.00000000000E+00  0.00000000000E+00  0.36459819689E+03  0.36459819689E+03  0.00000000000E+00 0. -1.
          1   -1    0    0  501    0 -0.00000000000E+00 -0.00000000000E+00 -0.10494977756E+04  0.10494977756E+04  0.00000000000E+00 0. -1.
         25    2    1    2    0    0 -0.33426064283E+02 -0.27995472286E+02 -0.26200989969E+03  0.29355668513E+03  0.12500116641E+03 0.  0.
          2    1    1    2  501    0  0.19156119611E+02  0.43571825879E+02 -0.77065977171E+03  0.77212819186E+03  0.00000000000E+00 0. -1.
          1    1    1    2  502    0  0.14269944672E+02 -0.15576353593E+02  0.34777009268E+03  0.34841109551E+03  0.00000000000E+00 0. -1.
         22    1    3    3    0    0  0.13344234044E+02  0.41901305957E+02 -0.57186551231E+02  0.72139376659E+02  0.00000000000E+00 0. -1.
         22    1    3    3    0    0 -0.46770298327E+02 -0.69896778243E+02 -0.20482334846E+03  0.22141730847E+03  0.00000000000E+00 0. -1.
</event>
<event>
 7    1  0.7029100E-006  0.5701391E+02  0.7818608E-02  0.1420921E+00
          2   -1    0    0  502    0  0.00000000000E+00  0.00000000000E+00  0.12087318514E+03  0.12087318514E+03  0.00000000000E+00 0. -1.
          1   -1    0    0  501    0 -0.00000000000E+00 -0.00000000000E+00 -0.10206490482E+04  0.10206490482E+04  0.00000000000E+00 0. -1.
         25    2    1    2    0    0 -0.55613156393E+02  0.36108475313E+00 -0.77210317202E+02  0.15709154216E+03  0.12499346379E+03 0.  0.
          2    1    1    2  501    0  0.21622707481E+02  0.48085010735E+02 -0.89179566137E+03  0.89335279222E+03  0.00000000000E+00 0. -1.
          1    1    1    2  502    0  0.33990448912E+02 -0.48446095488E+02  0.69230115509E+02  0.91077898959E+02  0.00000000000E+00 0. -1.
         22    1    3    3    0    0 -0.13438815573E+02  0.47220569924E+02 -0.80136644011E+02  0.93980134610E+02  0.00000000000E+00 0.  1.
         22    1    3    3    0    0 -0.42174340820E+02 -0.46859485171E+02  0.29263268094E+01  0.63111407548E+02  0.00000000000E+00 0.  1.
</event>
<event>
 7    1  0.7029100E-006  0.9784081E+02  0.7818608E-02  0.1299860E+00
          2   -1    0    0  502    0  0.00000000000E+00  0.00000000000E+00  0.86067438143E+03  0.86067438143E+03  0.00000000000E+00 0. -1.
          1   -1    0    0  501    0 -0.00000000000E+00 -0.00000000000E+00 -0.12742055416E+04  0.12742055416E+04  0.00000000000E+00 0. -1.
         25    2    1    2    0    0  0.72417431080E+02  0.76218438725E+01 -0.34092443441E+02  0.14864402860E+03  0.12502150099E+03 0.  0.
          2    1    1    2  501    0 -0.89624608194E+01 -0.84623745605E+02 -0.11781987785E+04  0.11812679060E+04  0.00000000000E+00 0. -1.
          1    1    1    2  502    0 -0.63454970261E+02  0.77001901732E+02  0.79876006178E+03  0.80496798844E+03  0.00000000000E+00 0. -1.
         22    1    3    3    0    0  0.92833031237E+02  0.32616938897E+02  0.42984203562E+01  0.98490166054E+02  0.00000000000E+00 0. -1.
         22    1    3    3    0    0 -0.20415600157E+02 -0.24995095025E+02 -0.38390863798E+02  0.50153862545E+02  0.00000000000E+00 0. -1.
</event>
<event>
 7    1  0.7382517E-006  0.4101170E+02  0.7818608E-02  0.1553807E+00
          2   -1    0    0  502    0  0.00000000000E+00  0.00000000000E+00  0.10806310042E+04  0.10806310042E+04  0.00000000000E+00 0. -1.
          1   -1    0    0  501    0 -0.00000000000E+00 -0.00000000000E+00 -0.14197449050E+04  0.14197449050E+04  0.00000000000E+00 0. -1.
         25    2    1    2    0    0  0.39595722313E+02 -0.92781067188E+01 -0.24786164286E+03  0.28056154509E+03  0.12500192836E+03 0.  0.
          2    1    1    2  501    0 -0.34470360378E+01  0.28682258390E+02 -0.11549572304E+04  0.11553184661E+04  0.00000000000E+00 0. -1.
          1    1    1    2  502    0 -0.36148686276E+02 -0.19404151672E+02  0.10637049724E+04  0.10644958980E+04  0.00000000000E+00 0. -1.
         22    1    3    3    0    0  0.15340080777E+02 -0.42315363613E+02 -0.20365663136E+02  0.49403120458E+02  0.00000000000E+00 0.  1.
         22    1    3    3    0    0  0.24255641536E+02  0.33037256894E+02 -0.22749597972E+03  0.23115842464E+03  0.00000000000E+00 0.  1.
</event>
<event>
 7    1  0.7029100E-006  0.6081646E+02  0.7818608E-02  0.1477776E+00
          2   -1    0    0  502    0  0.00000000000E+00  0.00000000000E+00  0.25875571611E+04  0.25875571611E+04  0.00000000000E+00 0. -1.
          1   -1    0    0  501    0 -0.00000000000E+00 -0.00000000000E+00 -0.55165039716E+02  0.55165039716E+02  0.00000000000E+00 0. -1.
         25    2    1    2    0    0 -0.60560052734E+02 -0.44485225894E+02  0.43109290130E+03  0.45509468720E+03  0.12499451772E+03 0.  0.
          2    1    1    2  501    0  0.29183042370E+02  0.52933550466E+02 -0.21817552055E+02  0.64262090727E+02  0.00000000000E+00 0. -1.
          1    1    1    2  502    0  0.31377010364E+02 -0.84483245728E+01  0.21231167721E+04  0.21233654229E+04  0.00000000000E+00 0. -1.
         22    1    3    3    0    0  0.33409756676E+02 -0.39252265476E+02  0.16356793815E+03  0.17149758767E+03  0.00000000000E+00 0. -1.
         22    1    3    3    0    0 -0.93969809410E+02 -0.52329604182E+01  0.26752496315E+03  0.28359709953E+03  0.00000000000E+00 0. -1.
</event>
<event>
 7    1  0.7029100E-006  0.6719919E+02  0.7818608E-02  0.1504041E+00
          2   -1    0    0  502    0  0.00000000000E+00  0.00000000000E+00  0.14721410550E+04  0.14721410550E+04  0.00000000000E+00 0. -1.
          1   -1    0    0  501    0 -0.00000000000E+00 -0.00000000000E+00 -0.40111416431E+03  0.40111416431E+03  0.00000000000E+00 0. -1.
         25    2    1    2    0    0 -0.15004128786E+02  0.52840184025E+02  0.64112279538E+03  0.65550088506E+03  0.12500305046E+03 0.  0.
          2    1    1    2  501    0  0.39444660436E+02 -0.54489805755E+02 -0.39086930294E+03  0.39661547139E+03  0.00000000000E+00 0. -1.
          1    1    1    2  502    0 -0.24440531650E+02  0.16496217304E+01  0.82077339820E+03  0.82113886282E+03  0.00000000000E+00 0. -1.
         22    1    3    3    0    0 -0.47747049644E+02  0.33879411352E+02  0.58434741463E+03  0.58727293165E+03  0.00000000000E+00 0.  1.
         22    1    3    3    0    0  0.32742920858E+02  0.18960772673E+02  0.56775380748E+02  0.68227953404E+02  0.00000000000E+00 0.  1.
</event>
<event>
 7    1  0.7029100E-006  0.4323938E+02  0.7818608E-02  0.1520724E+00
          2   -1    0    0  502    0  0.00000000000E+00  0.00000000000E+00  0.34823059749E+03  0.34823059749E+03  0.00000000000E+00 0. -1.
          1   -1    0    0  501    0 -0.00000000000E+00 -0.00000000000E+00 -0.95116758250E+02  0.95116758250E+02  0.00000000000E+00 0. -1.
         25    2    1    2    0    0  0.50827515597E+02 -0.51664913491E+02  0.11889513082E+03  0.18711908073E+03  0.12499919444E+03 0.  0.
          2    1    1    2  501    0 -0.15255248849E+02  0.30398830970E+02 -0.53825568646E+02  0.63671056077E+02  0.00000000000E+00 0. -1.
          1    1    1    2  502    0 -0.35572266748E+02  0.21266082521E+02  0.18804427707E+03  0.19255721894E+03  0.00000000000E+00 0. -1.
         22    1    3    3    0    0  0.33881392276E+02  0.37425279913E+02  0.24135261690E+02  0.55956332761E+02  0.00000000000E+00 0. -1.
         22    1    3    3    0    0  0.16946123320E+02 -0.89090193405E+02  0.94759869131E+02  0.13116274797E+03  0.00000000000E+00 0. -1.
</event>
<event>
 7    1  0.1369521E-005  0.5728078E+02  0.7818608E-02  0.1446223E+00
          2   -1    0    0  502    0  0.00000000000E+00  0.00000000000E+00  0.22184297782E+04  0.22184297782E+04  0.00000000000E+00 0. -1.
          1   -1    0    0  501    0 -0.00000000000E+00 -0.00000000000E+00 -0.80320766567E+03  0.80320766567E+03  0.00000000000E+00 0. -1.
         25    2    1    2    0    0 -0.19593240641E+02 -0.68563753664E+02 -0.26305405174E+03  0.29984833757E+03  0.12500683185E+03 0.  0.
          2    1    1    2  501    0 -0.20971595210E+02  0.53246409337E+02 -0.51997281467E+03  0.52311252700E+03  0.00000000000E+00 0. -1.
          1    1    1    2  502    0  0.40564835851E+02  0.15317344327E+02  0.21982489789E+04  0.21986765793E+04  0.00000000000E+00 0. -1.
         22    1    3    3    0    0 -0.47802766025E+02  0.59217618306E+01 -0.38741822164E+02  0.61815050655E+02  0.00000000000E+00 0.  1.
         22    1    3    3    0    0  0.28209525384E+02 -0.74485515495E+02 -0.22431222958E+03  0.23803328691E+03  0.00000000000E+00 0.  1.
</event>
<event>
 7    1  0.7029100E-006  0.8927439E+02  0.7818608E-02  0.1374749E+00
          2   -1    0    0  502    0  0.00000000000E+00  0.00000000000E+00  0.12730767162E+04  0.12730767162E+04  0.00000000000E+00 0. -1.
          1   -1    0    0  501    0 -0.00000000000E+00 -0.00000000000E+00 -0.57624678665E+02  0.57624678665E+02  0.00000000000E+00 0. -1.
         25    2    1    2    0    0 -0.42154278461E+02 -0.28197473779E+02  0.28508073392E+03  0.31540294486E+03  0.12504364059E+03 0.  0.
          2    1    1    2  501    0 -0.48551473398E+02 -0.20091041047E+01 -0.25349621092E+02  0.54807712577E+02  0.00000000000E+00 0. -1.
          1    1    1    2  502    0  0.90705751859E+02  0.30206577884E+02  0.95572092469E+03  0.96049073742E+03  0.00000000000E+00 0. -1.
         22    1    3    3    0    0 -0.41578031656E+02 -0.71978403174E+02  0.23288028279E+03  0.24727080166E+03  0.00000000000E+00 0.  1.
         22    1    3    3    0    0 -0.57624680499E+00  0.43780929395E+02  0.52200451130E+02  0.68132143201E+02  0.00000000000E+00 0.  1.
</event>
<event>
 7    1  0.7910254E-006  0.6404909E+02  0.7818608E-02  0.1417082E+00
          2   -1    0    0  502    0  0.00000000000E+00  0.00000000000E+00  0.65828684251E+03  0.65828684251E+03  0.00000000000E+00 0. -1.
          1   -1    0    0  501    0 -0.00000000000E+00 -0.00000000000E+00 -0.10932969233E+04  0.10932969233E+04  0.00000000000E+00 0. -1.
         25    2    1    2    0    0  0.26003838561E+02  0.96930147301E+02 -0.28844765109E+03  0.32999852409E+03  0.12500130161E+03 0.  0.
          2    1    1    2  501    0 -0.37238045944E+02 -0.49913224095E+02 -0.78191773669E+03  0.78439361864E+03  0.00000000000E+00 0. -1.
          1    1    1    2  502    0  0.11234207383E+02 -0.47016923206E+02  0.63535530696E+03  0.63719162311E+03  0.00000000000E+00 0. -1.
         22    1    3    3    0    0  0.10565651427E+02  0.12649815563E+03 -0.22978773119E+03  0.26251822369E+03  0.00000000000E+00 0. -1.
         22    1    3    3    0    0  0.15438187134E+02 -0.29568008324E+02 -0.58659919907E+02  0.67480300398E+02  0.00000000000E+00 0. -1.
</event>
<event>
 7    1  0.7029100E-006  0.1641064E+03  0.7818608E-02  0.1241523E+00
          2   -1    0    0  502    0  0.00000000000E+00  0.00000000000E+00  0.24189196672E+04  0.24189196672E+04  0.00000000000E+00 0. -1.
          1   -1    0    0  501    0 -0.00000000000E+00 -0.00000000000E+00 -0.42845481186E+03  0.42845481186E+03  0.00000000000E+00 0. -1.
         25    2    1    2    0    0  0.74546463707E+02  0.22097848368E+03  0.12641523433E+02  0.26490277972E+03  0.12500003635E+03 0.  0.
          2    1    1    2  501    0 -0.67347797360E+02 -0.58421902902E+02 -0.29277574760E+03  0.30604980465E+03  0.00000000000E+00 0. -1.
          1    1    1    2  502    0 -0.71986663475E+01 -0.16255658078E+03  0.22705990795E+04  0.22764218947E+04  0.00000000000E+00 0. -1.
         22    1    3    3    0    0  0.66850724242E+02  0.16664961787E+03 -0.45215841310E+02  0.18516367563E+03  0.00000000000E+00 0. -1.
         22    1    3    3    0    0  0.76957394654E+01  0.54328865809E+02  0.57857364743E+02  0.79739104090E+02  0.00000000000E+00 0. -1.
</event>
<event>
 7    1  0.7029100E-006  0.1115592E+03  0.7818608E-02  0.1307635E+00
          2   -1    0    0  502    0  0.00000000000E+00  0.00000000000E+00  0.72126821002E+03  0.72126821002E+03  0.00000000000E+00 0. -1.
          1   -1    0    0  501    0 -0.00000000000E+00 -0.00000000000E+00 -0.19010843934E+04  0.19010843934E+04  0.00000000000E+00 0. -1.
         25    2    1    2    0    0 -0.18000456061E+02 -0.55624468081E+02 -0.89163561313E+02  0.16427296593E+03  0.12496947148E+03 0.  0.
          2    1    1    2  501    0 -0.22124649009E+02  0.11237182945E+03 -0.17707451812E+04  0.17744451034E+04  0.00000000000E+00 0. -1.
          1    1    1    2  502    0  0.40125105069E+02 -0.56747361366E+02  0.68009255919E+03  0.68363453405E+03  0.00000000000E+00 0. -1.
         22    1    3    3    0    0  0.50273118112E+02 -0.24524340517E+02 -0.13128077646E+02  0.57455862235E+02  0.00000000000E+00 0.  1.
         22    1    3    3    0    0 -0.68273574173E+02 -0.31100127563E+02 -0.76035483667E+02  0.10681710369E+03  0.00000000000E+00 0.  1.
</event>
<event>
 7    1  0.7029100E-006  0.3095317E+02  0.7818608E-02  0.1603619E+00
          2   -1    0    0  502    0  0.00000000000E+00  0.00000000000E+00  0.22438043672E+03  0.22438043672E+03  0.00000000000E+00 0. -1.
          1   -1    0    0  501    0 -0.00000000000E+00 -0.00000000000E+00 -0.15745333333E+03  0.15745333333E+03  0.00000000000E+00 0. -1.
         25    2    1    2    0    0 -0.32345881794E+01 -0.81604029839E+01  0.11069353838E+03  0.16720018786E+03  0.12500315454E+03 0.  0.
          2    1    1    2  501    0  0.15509015730E+02 -0.23463321609E+02 -0.12419713804E+03  0.12734200457E+03  0.00000000000E+00 0. -1.
          1    1    1    2  502    0 -0.12274427550E+02  0.31623724593E+02  0.80430703055E+02  0.87291577616E+02  0.00000000000E+00 0. -1.
         22    1    3    3    0    0  0.19451008814E+02  0.17793323026E+02 -0.19327173333E+02  0.32687669192E+02  0.00000000000E+00 0.  1.
         22    1    3    3    0    0 -0.22685596993E+02 -0.25953726010E+02  0.13002071172E+03  0.13451251867E+03  0.00000000000E+00 0.  1.
</event>
<event>
 7    1  0.7029100E-006  0.1096756E+03  0.7818608E-02  0.1342032E+00
          2   -1    0    0  502    0  0.00000000000E+00  0.00000000000E+00  0.34966426679E+04  0.34966426679E+04  0.00000000000E+00 0. -1.
          1   -1    0    0  501    0 -0.00000000000E+00 -0.00000000000E+00 -0.80129270007E+03  0.80129270007E+03  0.00000000000E+00 0. -1.
         25    2    1    2    0    0 -0.13895617099E+03  0.73017951926E+02  0.93473742274E+03  0.95603315881E+03  0.12499965004E+03 0.  0.
          2    1    1    2  501    0  0.46677448074E+02 -0.23160071183E+02 -0.78870675025E+03  0.79042615781E+03  0.00000000000E+00 0. -1.
          1    1    1    2  502    0  0.92278722916E+02 -0.49857880743E+02  0.25493192954E+04  0.25514760514E+04  0.00000000000E+00 0. -1.
         22    1    3    3    0    0 -0.15576057217E+03  0.73397723389E+02  0.90985946827E+03  0.92600908940E+03  0.00000000000E+00 0.  1.
         22    1    3    3    0    0  0.16804401183E+02 -0.37977146294E+00  0.24877954470E+02  0.30024069412E+02  0.00000000000E+00 0.  1.
</event>
<event>
 7    1  0.9875096E-006  0.7183835E+02  0.7818608E-02  0.1378321E+00
          2   -1    0    0  502    0  0.00000000000E+00  0.00000000000E+00  0.83757361039E+03  0.83757361039E+03  0.00000000000E+00 0. -1.
          1   -1    0    0  501    0 -0.00000000000E+00 -0.00000000000E+00 -0.20236698079E+04  0.20236698079E+04  0.00000000000E+00 0. -1.
         25    2    1    2    0    0  0.29882247638E+02 -0.29060900814E+02 -0.10737879852E+04  0.10818460343E+04  0.12503087652E+03 0.  0.
          2    1    1    2  501    0 -0.65408457628E+02 -0.33378161879E+02 -0.94287470422E+03  0.94572991698E+03  0.00000000000E+00 0. -1.
          1    1    1    2  502    0  0.35526209990E+02  0.62439062693E+02  0.83056649188E+03  0.83366746703E+03  0.00000000000E+00 0. -1.
         22    1    3    3    0    0  0.32225283524E+02 -0.41401562447E+02 -0.16867768783E+03  0.17664857951E+03  0.00000000000E+00 0. -1.
         22    1    3    3    0    0 -0.23430358853E+01  0.12340661633E+02 -0.90511029733E+03  0.90519745474E+03  0.00000000000E+00 0. -1.
</event>
<event>
 7    1  0.7029100E-006  0.3529540E+02  0.7818608E-02  0.1572207E+00
          2   -1    0    0  502    0  0.00000000000E+00  0.00000000000E+00  0.44890046576E+03  0.44890046576E+03  0.00000000000E+00 0. -1.
          1   -1    0    0  501    0 -0.00000000000E+00 -0.00000000000E+00 -0.58037686182E+03  0.58037686182E+03  0.00000000000E+00 0. -1.
         25    2    1    2    0    0  0.41649004447E+01  0.56592739719E+01 -0.12849870735E+03  0.17940330852E+03  0.12499702213E+03 0.  0.
          2    1    1    2  501    0 -0.31439449785E+02 -0.17876553941E+02 -0.42512978440E+03  0.42666537681E+03  0.00000000000E+00 0. -1.
          1    1    1    2  502    0  0.27274549340E+02  0.12217279969E+02  0.42215209570E+03  0.42320864225E+03  0.00000000000E+00 0. -1.
         22    1    3    3    0    0 -0.37919820038E+02 -0.32260090148E+02 -0.10841610783E+03  0.11930079046E+03  0.00000000000E+00 0. -1.
         22    1    3    3    0    0  0.42084720483E+02  0.37919364120E+02 -0.20082599519E+02  0.60102518057E+02  0.00000000000E+00 0. -1.
</event>
<event>
 7    1  0.7342305E-006  0.1630854E+03  0.7818608E-02  0.1271193E+00
          2   -1    0    0  502    0  0.00000000000E+00  0.00000000000E+00  0.19098611411E+04  0.19098611411E+04  0.00000000000E+00 0. -1.
          1   -1    0    0  501    0 -0.00000000000E+00 -0.00000000000E+00 -0.77605987061E+03  0.77605987061E+03  0.00000000000E+00 0. -1.
         25    2    1    2    0    0 -0.11498968545E+03  0.72642749866E+02 -0.15720162070E+03  0.24256423745E+03  0.12500185146E+03 0.  0.
          2    1    1    2  501    0 -0.46878222132E+02 -0.47735974722E+02 -0.57062755939E+03  0.57453642402E+03  0.00000000000E+00 0. -1.
          1    1    1    2  502    0  0.16186790758E+03 -0.24906775144E+02  0.18616304505E+04  0.18688203502E+04  0.00000000000E+00 0. -1.
         22    1    3    3    0    0 -0.57135275851E+02 -0.31277770041E+02 -0.65542496209E+02  0.92404315130E+02  0.00000000000E+00 0.  1.
         22    1    3    3    0    0 -0.57854409599E+02  0.10392051991E+03 -0.91659124489E+02  0.15015992232E+03  0.00000000000E+00 0.  1.
</event>
<event>
 7    1  0.7029100E-006  0.5060530E+02  0.7818608E-02  0.1549702E+00
          2   -1    0    0  502    0  0.00000000000E+00  0.00000000000E+00  0.19556873770E+03  0.19556873770E+03  0.00000000000E+00 0. -1.
          1   -1    0    0  501    0 -0.00000000000E+00 -0.00000000000E+00 -0.20424916433E+03  0.20424916433E+03  0.00000000000E+00 0. -1.
         25    2    1    2    0    0  0.32721618835E+02 -0.11014374242E+02  0.22658230047E+02  0.13164688021E+03  0.12500193959E+03 0.  0.
          2    1    1    2  501    0  0.75257588463E+01 -0.22827511210E+02 -0.14286326504E+03  0.14487113174E+03  0.00000000000E+00 0. -1.
          1    1    1    2  502    0 -0.40247377681E+02  0.33841885452E+02  0.11152460836E+03  0.12329989007E+03  0.00000000000E+00 0. -1.
         22    1    3    3    0    0 -0.37968403044E+02  0.19823117496E+02 -0.15563567333E+02  0.45571704435E+02  0.00000000000E+00 0.  1.
         22    1    3    3    0    0  0.70690021880E+02 -0.30837491738E+02  0.38221797380E+02  0.86075175777E+02  0.00000000000E+00 0.  1.
</event>
<event>
 7    1  0.7029100E-006  0.1155205E+03  0.7818608E-02  0.1315497E+00
          2   -1    0    0  502    0  0.00000000000E+00  0.00000000000E+00  0.12929021030E+04  0.12929021030E+04  0.00000000000E+00 0. -1.
          1   -1    0    0  501    0 -0.00000000000E+00 -0.00000000000E+00 -0.54109837832E+03  0.54109837832E+03  0.00000000000E+00 0. -1.
         25    2    1    2    0    0 -0.55558488323E+02  0.61643763668E+01  0.21050851867E+03  0.25112492921E+03  0.12500059391E+03 0.  0.
          2    1    1    2  501    0  0.11334178663E+03 -0.30001775525E+02 -0.51325413098E+03  0.52647532715E+03  0.00000000000E+00 0. -1.
          1    1    1    2  502    0 -0.57783298304E+02  0.23837399158E+02  0.10545493370E+04  0.10564002250E+04  0.00000000000E+00 0. -1.
         22    1    3    3    0    0 -0.86850075237E+02  0.14792899587E+02  0.19730830913E+03  0.21608409080E+03  0.00000000000E+00 0.  1.
         22    1    3    3    0    0  0.31291586914E+02 -0.86285232205E+01  0.13200209543E+02  0.35040838411E+02  0.00000000000E+00 0.  1.
</event>
<event>
 7    1  0.7029100E-006  0.5795989E+02  0.7818608E-02  0.1408222E+00
          2   -1    0    0  502    0  0.00000000000E+00  0.00000000000E+00  0.24447551970E+04  0.24447551970E+04  0.00000000000E+00 0. -1.
          1   -1    0    0  501    0 -0.00000000000E+00 -0.00000000000E+00 -0.95109222508E+02  0.95109222508E+02  0.00000000000E+00 0. -1.
         25    2    1    2    0    0  0.75488617245E+02  0.54027024062E+02  0.59258054318E+03  0.61269362861E+03  0.12499732686E+03 0.  0.
          2    1    1    2  501    0 -0.57671676596E+02  0.35638823697E+00 -0.74777466139E+02  0.94434203211E+02  0.00000000000E+00 0. -1.
          1    1    1    2  502    0 -0.17816940649E+02 -0.54383412299E+02  0.18318428975E+04  0.18327365877E+04  0.00000000000E+00 0. -1.
         22    1    3    3    0    0  0.94056956154E+02  0.76778288696E+02  0.40432987739E+03  0.42216615967E+03  0.00000000000E+00 0.  1.
         22    1    3    3    0    0 -0.18568338909E+02 -0.22751264633E+02  0.18825066579E+03  0.19052746894E+03  0.00000000000E+00 0.  1.
</event>
<event>
 7    1  0.7029100E-006  0.7003216E+02  0.7818608E-02  0.1389384E+00
          2   -1    0    0  502    0  0.00000000000E+00  0.00000000000E+00  0.18858972815E+03  0.18858972815E+03  0.00000000000E+00 0. -1.
          1   -1    0    0  501    0 -0.00000000000E+00 -0.00000000000E+00 -0.48742583862E+03  0.48742583862E+03  0.00000000000E+00 0. -1.
         25    2    1    2    0    0  0.37723947537E+02 -0.45065401934E+02 -0.57126362888E+02  0.14947393991E+03  0.12500020282E+03 0.  0.
          2    1    1    2  501    0 -0.47944207473E+02 -0.26941763284E+02 -0.37268904114E+03  0.37672486913E+03  0.00000000000E+00 0. -1.
          1    1    1    2  502    0  0.10220259936E+02  0.72007165217E+02  0.13097929355E+03  0.14981675773E+03  0.00000000000E+00 0. -1.
         22    1    3    3    0    0  0.10857266538E+02 -0.49507198672E+02 -0.92114427809E+02  0.10513758019E+03  0.00000000000E+00 0. -1.
         22    1    3    3    0    0  0.26866680999E+02  0.44417967385E+01  0.34988064921E+02  0.44336359718E+02  0.00000000000E+00 0. -1.
</event>
<event>
 7    1  0.7029100E-006  0.1250771E+03  0.7818608E-02  0.1351195E+00
          2   -1    0    0  502    0  0.00000000000E+00  0.00000000000E+00  0.26030751778E+04  0.26030751778E+04  0.00000000000E+00 0. -1.
          1   -1    0    0  501    0 -0.00000000000E+00 -0.00000000000E+00 -0.66858997394E+03  0.66858997394E+03  0.00000000000E+00 0. -1.
         25    2    1    2    0    0 -0.39518378652E+02  0.15492145379E+03  0.18952664954E+03  0.27768411022E+03  0.12500302030E+03 0.  0.
          2    1    1    2  501    0  0.49559477212E+02 -0.11389387176E+03 -0.61814463568E+03  0.63050039368E+03  0.00000000000E+00 0. -1.
          1    1    1    2  502    0 -0.10041098560E+02 -0.41027582024E+02  0.23631031900E+04  0.23634806478E+04  0.00000000000E+00 0. -1.
         22    1    3    3    0    0  0.37619681457E+02  0.10331974373E+03  0.10869656644E+03  0.15461291483E+03  0.00000000000E+00 0.  1.
         22    1    3    3    0    0 -0.77138060110E+02  0.51601710060E+02  0.80830083109E+02  0.12307119539E+03  0.00000000000E+00 0.  1.
</event>
<event>
 7    1  0.7029100E-006  0.6429880E+02  0.7818608E-02  0.1387954E+00
          2   -1    0    0  502    0  0.00000000000E+00  0.00000000000E+00  0.38610174707E+03  0.38610174707E+03  0.00000000000E+00 0. -1.
          1   -1    0    0  501    0 -0.00000000000E+00 -0.00000000000E+00 -0.15386965886E+03  0.15386965886E+03  0.00000000000E+00 0. -1.
         25    2    1    2    0    0  0.19431373643E+02  0.57153096399E+02  0.22149169211E+02  0.14056971470E+03  0.12500081714E+03 0.  0.
          2    1    1    2  501    0 -0.60374893109E+02 -0.51369859082E+01 -0.80848278745E+02  0.10103445214E+03  0.00000000000E+00 0. -1.
          1    1    1    2  502    0  0.40943519466E+02 -0.52016110491E+02  0.29093119775E+03  0.29836723909E+03  0.00000000000E+00 0. -1.
         22    1    3    3    0    0  0.28118654426E+02 -0.24100143791E+02 -0.26435955427E+02  0.45500938417E+02  0.00000000000E+00 0. -1.
         22    1    3    3    0    0 -0.86872807830E+01  0.81253240189E+02  0.48585124638E+02  0.95068776287E+02  0.00000000000E+00 0. -1.
</event>
<event>
 7    1  0.7029100E-006  0.8341073E+02  0.7818608E-02  0.1472946E+00
          2   -1    0    0  502    0  0.00000000000E+00  0.00000000000E+00  0.38989669037E+03  0.38989669037E+03  0.00000000000E+00 0. -1.
          1   -1    0    0  501    0 -0.00000000000E+00 -0.00000000000E+00 -0.37252502429E+03  0.37252502429E+03  0.00000000000E+00 0. -1.
         25    2    1    2    0    0  0.20668756366E+02 -0.10130296988E+03 -0.15000573795E+03  0.22094198294E+03  0.12499659680E+03 0.  0.
          2    1    1    2  501    0  0.75371950791E+01  0.23332963056E+02 -0.18136555634E+03  0.18301557721E+03  0.00000000000E+00 0. -1.
          1    1    1    2  502    0 -0.28205951445E+02  0.77970006829E+02  0.34874296037E+03  0.35846415451E+03  0.00000000000E+00 0. -1.
         22    1    3    3    0    0  0.20590898028E+01 -0.40659457852E+02  0.15603599719E+02  0.43599354214E+02  0.00000000000E+00 0.  1.
         22    1    3    3    0    0  0.18609666563E+02 -0.60643512032E+02 -0.16560933767E+03  0.17734262873E+03  0.00000000000E+00 0.  1.
</event>
<event>
 7    1  0.7029100E-006  0.1699548E+03  0.7818608E-02  0.1315503E+00
          2   -1    0    0  502    0  0.00000000000E+00  0.00000000000E+00  0.14332965740E+03  0.14332965740E+03  0.00000000000E+00 0. -1.
          1   -1    0    0  501    0 -0.00000000000E+00 -0.00000000000E+00 -0.93080402560E+03  0.93080402560E+03  0.00000000000E+00 0. -1.
         25    2    1    2    0    0  0.33309869085E+02 -0.15197185287E+03 -0.55277932113E+02  0.20708751527E+03  0.12499839101E+03 0.  0.
          2    1    1    2  501    0  0.37898076916E+02 -0.19200295377E+02 -0.67022476997E+03  0.67156992030E+03  0.00000000000E+00 0. -1.
          1    1    1    2  502    0 -0.71207946001E+02  0.17117214825E+03 -0.61971666125E+02  0.19547624744E+03  0.00000000000E+00 0. -1.
         22    1    3    3    0    0  0.63410312257E+02 -0.96836433560E+02  0.10386193416E+02  0.11621547048E+03  0.00000000000E+00 0.  1.
         22    1    3    3    0    0 -0.30100443173E+02 -0.55135419314E+02 -0.65664125529E+02  0.90872044786E+02  0.00000000000E+00 0.  1.
</event>
<event>
 7    1  0.7029100E-006  0.9072920E+02  0.7818608E-02  0.1327537E+00
          2   -1    0    0  502    0  0.00000000000E+00  0.00000000000E+00  0.10319951007E+04  0.10319951007E+04  0.00000000000E+00 0. -1.
          1   -1    0    0  501    0 -0.00000000000E+00 -0.00000000000E+00 -0.18332136404E+04  0.18332136404E+04  0.00000000000E+00 0. -1.
         25    2    1    2    0    0 -0.10899096784E+02  0.15352235945E+03  0.15792547909E+03  0.25348318660E+03  0.12500145512E+03 0.  0.
          2    1    1    2  501    0 -0.15565774411E+02 -0.69773163445E+02 -0.17823822089E+04  0.17838152725E+04  0.00000000000E+00 0. -1.
          1    1    1    2  502    0  0.26464871195E+02 -0.83749196008E+02  0.82323819022E+03  0.82791028202E+03  0.00000000000E+00 0. -1.
         22    1    3    3    0    0 -0.44033253465E+02  0.16051585637E+02  0.82768531993E+01  0.47592931314E+02  0.00000000000E+00 0.  1.
         22    1    3    3    0    0  0.33134156680E+02  0.13747077382E+03  0.14964862589E+03  0.20589025529E+03  0.00000000000E+00 0.  1.
</event>
<event>
 7    1  0.7029100E-006  0.1158174E+03  0.7818608E-02  0.1403735E+00
          2   -1    0    0  502    0  0.00000000000E+00  0.00000000000E+00  0.29104230082E+04  0.29104230082E+04  0.00000000000E+00 0. -1.
          1   -1    0    0  501    0 -0.00000000000E+00 -0.00000000000E+00 -0.63811664192E+03  0.63811664192E+03  0.00000000000E+00 0. -1.
         25    2    1    2    0    0  0.76872119273E+02 -0.10723422530E+03 -0.49186674480E+02  0.18828237643E+03  0.12498968969E+03 0.  0.
          2    1    1    2  501    0  0.79568938136E+01  0.28578450750E+02 -0.51777968712E+03  0.51862881177E+03  0.00000000000E+00 0. -1.
          1    1    1    2  502    0 -0.84829013087E+02  0.78655774553E+02  0.28392727278E+04  0.28416284619E+04  0.00000000000E+00 0. -1.
         22    1    3    3    0    0  0.10286593945E+03 -0.64782623015E+02 -0.62589365896E+02  0.13673192190E+03  0.00000000000E+00 0.  1.
         22    1    3    3    0    0 -0.25993820178E+02 -0.42451602287E+02  0.13402691416E+02  0.51550454522E+02  0.00000000000E+00 0.  1.
</event>
<event>
 7    1  0.7029100E-006  0.1287540E+03  0.7818608E-02  0.1301395E+00
          2   -1    0    0  502    0  0.00000000000E+00  0.00000000000E+00  0.56254438215E+03  0.56254438215E+03  0.00000000000E+00 0. -1.
          1   -1    0    0  501    0 -0.00000000000E+00 -0.00000000000E+00 -0.32130290857E+03  0.32130290857E+03  0.00000000000E+00 0. -1.
         25    2    1    2    0    0  0.12365724439E+03  0.34557478061E+02  0.47643695110E+02  0.18542551279E+03  0.12500946255E+03 0.  0.
          2    1    1    2  501    0 -0.29747961740E+02  0.56393106432E+02 -0.23855461207E+03  0.24692797861E+03  0.00000000000E+00 0. -1.
          1    1    1    2  502    0 -0.93909282654E+02 -0.90950584493E+02  0.43215239054E+03  0.45149379933E+03  0.00000000000E+00 0. -1.
         22    1    3    3    0    0  0.90425650172E+02  0.31362907075E+02 -0.30497366276E+02  0.10045157788E+03  0.00000000000E+00 0. -1.
         22    1    3    3    0    0  0.33231594222E+02  0.31945709858E+01  0.78141061387E+02  0.84973934904E+02  0.00000000000E+00 0. -1.
</event>
<event>
 7    1  0.7029100E-006  0.1302721E+03  0.7818608E-02  0.1304805E+00
          2   -1    0    0  502    0  0.00000000000E+00  0.00000000000E+00  0.43136661015E+03  0.43136661015E+03  0.00000000000E+00 0. -1.
          1   -1    0    0  501    0 -0.00000000000E+00 -0.00000000000E+00 -0.26049657820E+03  0.26049657820E+03  0.00000000000E+00 0. -1.
         25    2    1    2    0    0 -0.16376650547E+03 -0.62964071802E+02  0.67820388664E+02  0.22584907801E+03  0.12499703303E+03 0.  0.
          2    1    1    2  501    0  0.60901600338E+02 -0.45918045106E+01 -0.16235670657E+03  0.17346408781E+03  0.00000000000E+00 0. -1.
          1    1    1    2  502    0  0.10286490513E+03  0.67555876312E+02  0.26540634986E+03  0.29255002252E+03  0.00000000000E+00 0. -1.
         22    1    3    3    0    0 -0.13137648091E+03  0.38607953437E+01  0.10149361148E+02  0.13182448561E+03  0.00000000000E+00 0.  1.
         22    1    3    3    0    0 -0.32390024567E+02 -0.66824867145E+02  0.57671027516E+02  0.94024592396E+02  0.00000000000E+00 0.  1.
</event>
<event>
 7    1  0.7029100E-006  0.1485296E+03  0.7818608E-02  0.1266827E+00
          2   -1    0    0  502    0  0.00000000000E+00  0.00000000000E+00  0.80474755603E+03  0.80474755603E+03  0.00000000000E+00 0. -1.
          1   -1    0    0  501    0 -0.00000000000E+00 -0.00000000000E+00 -0.18049408016E+04  0.18049408016E+04  0.00000000000E+00 0. -1.
         25    2    1    2    0    0 -0.83398761211E+02  0.26181599114E+02  0.55052723405E+02  0.16216026811E+03  0.12499728275E+03 0.  0.
          2    1    1    2  501    0 -0.54035554053E+02  0.54342534011E+02 -0.17414214907E+04  0.17431069274E+04  0.00000000000E+00 0. -1.
          1    1    1    2  502    0  0.13743431526E+03 -0.80524133125E+02  0.68617552172E+03  0.70442116212E+03  0.00000000000E+00 0. -1.
         22    1    3    3    0    0 -0.18550859055E+02 -0.42199654712E+02  0.49672381245E+02  0.67766442197E+02  0.00000000000E+00 0. -1.
         22    1    3    3    0    0 -0.64847902156E+02  0.68381253826E+02  0.53803421598E+01  0.94393825914E+02  0.00000000000E+00 0. -1.
</event>
<event>
 7    1  0.7029100E-006  0.1206844E+03  0.7818608E-02  0.1287722E+00
          2   -1    0    0  502    0  0.00000000000E+00  0.00000000000E+00  0.25474773766E+04  0.25474773766E+04  0.00000000000E+00 0. -1.
          1   -1    0    0  501    0 -0.00000000000E+00 -0.00000000000E+00 -0.22419346230E+03  0.22419346230E+03  0.00000000000E+00 0. -1.
         25    2    1    2    0    0  0.55445370164E+02  0.14835910405E+02  0.82470647324E+02  0.16037736125E+03  0.12500078808E+03 0.  0.
          2    1    1    2  501    0 -0.12173705191E+03 -0.54481616894E+02 -0.16053147574E+03  0.20870675861E+03  0.00000000000E+00 0. -1.
          1    1    1    2  502    0  0.66291681746E+02  0.39645706489E+02  0.24013447428E+04  0.24025867191E+04  0.00000000000E+00 0. -1.
         22    1    3    3    0    0 -0.30595280361E+02  0.31744113621E+02  0.50517592980E+02  0.67050631096E+02  0.00000000000E+00 0.  1.
         22    1    3    3    0    0  0.86040650525E+02 -0.16908203216E+02  0.31953054344E+02  0.93326730151E+02  0.00000000000E+00 0.  1.
</event>
<event>
 7    1  0.7029100E-006  0.4503808E+02  0.7818608E-02  0.1476565E+00
          2   -1    0    0  502    0  0.00000000000E+00  0.00000000000E+00  0.39749596293E+03  0.39749596293E+03  0.00000000000E+00 0. -1.
          1   -1    0    0  501    0 -0.00000000000E+00 -0.00000000000E+00 -0.39819642272E+03  0.39819642272E+03  0.00000000000E+00 0. -1.
         25    2    1    2    0    0  0.48715001787E+02  0.54416503634E+02 -0.17613388319E+02  0.14584035424E+03  0.12499948084E+03 0.  0.
          2    1    1    2  501    0 -0.56301544547E+01 -0.44297984006E+02 -0.31341116685E+03  0.31657632497E+03  0.00000000000E+00 0. -1.
          1    1    1    2  502    0 -0.43084847332E+02 -0.10118519628E+02  0.33032409538E+03  0.33327570643E+03  0.00000000000E+00 0. -1.
         22    1    3    3    0    0  0.27974033680E+02  0.90520953707E+02  0.10907932854E+02  0.95370711540E+02  0.00000000000E+00 0. -1.
         22    1    3    3    0    0  0.20740968107E+02 -0.36104450073E+02 -0.28521321173E+02  0.50469642703E+02  0.00000000000E+00 0. -1.
</event>
<event>
 7    1  0.7029100E-006  0.9932734E+02  0.7818608E-02  0.1391729E+00
          2   -1    0    0  502    0  0.00000000000E+00  0.00000000000E+00  0.58675087216E+02  0.58675087216E+02  0.00000000000E+00 0. -1.
          1   -1    0    0  501    0 -0.00000000000E+00 -0.00000000000E+00 -0.22564570590E+04  0.22564570590E+04  0.00000000000E+00 0. -1.
         25    2    1    2    0    0  0.30744868057E+02 -0.71813691241E+02 -0.70978452244E+03  0.72492946168E+03  0.12500481170E+03 0.  0.
          2    1    1    2  501    0 -0.67857177970E+02  0.80219200431E+02 -0.15299557041E+04  0.15335593152E+04  0.00000000000E+00 0. -1.
          1    1    1    2  502    0  0.37112309913E+02 -0.84055091897E+01  0.41958254840E+02  0.56643369259E+02  0.00000000000E+00 0. -1.
         22    1    3    3    0    0  0.85347484442E+01 -0.88612394974E+01 -0.56886502491E+03  0.56899804926E+03  0.00000000000E+00 0. -1.
         22    1    3    3    0    0  0.22210119613E+02 -0.62952451744E+02 -0.14091949753E+03  0.15593141242E+03  0.00000000000E+00 0. -1.
</event>
<event>
 7    1  0.7029100E-006  0.2685988E+03  0.7818608E-02  0.1224995E+00
          2   -1    0    0  502    0  0.00000000000E+00  0.00000000000E+00  0.25189430898E+03  0.25189430898E+03  0.00000000000E+00 0. -1.
          1   -1    0    0  501    0 -0.00000000000E+00 -0.00000000000E+00 -0.12066855867E+04  0.12066855867E+04  0.00000000000E+00 0. -1.
         25    2    1    2    0    0 -0.14620409928E+03  0.22229197152E+03 -0.32118958411E+03  0.43540519326E+03  0.12500229647E+03 0.  0.
          2    1    1    2  501    0  0.91165055931E+02 -0.25601399238E+03 -0.79989167061E+03  0.84479637572E+03  0.00000000000E+00 0. -1.
          1    1    1    2  502    0  0.55039043349E+02  0.33722020856E+02  0.16628997701E+03  0.17837832670E+03  0.00000000000E+00 0. -1.
         22    1    3    3    0    0 -0.80671644680E+02  0.12318327138E+03 -0.82515132252E+02  0.16879211964E+03  0.00000000000E+00 0. -1.
         22    1    3    3    0    0 -0.65532454601E+02  0.99108700143E+02 -0.23867445186E+03  0.26661307361E+03  0.00000000000E+00 0. -1.
</event>
<event>
 7    1  0.7029100E-006  0.9061348E+02  0.7818608E-02  0.1305399E+00
          2   -1    0    0  502    0  0.00000000000E+00  0.00000000000E+00  0.12176803802E+04  0.12176803802E+04  0.00000000000E+00 0. -1.
          1   -1    0    0  501    0 -0.00000000000E+00 -0.00000000000E+00 -0.44631279012E+03  0.44631279012E+03  0.00000000000E+00 0. -1.
         25    2    1    2    0    0 -0.42195365245E+02 -0.48859944869E+02 -0.20549255280E+02  0.14217874661E+03  0.12499912414E+03 0.  0.
          2    1    1    2  501    0 -0.34622380928E+02  0.90398731738E+02 -0.35684303831E+03  0.36973990040E+03  0.00000000000E+00 0. -1.
          1    1    1    2  502    0  0.76817746172E+02 -0.41538786869E+02  0.11487598836E+04  0.11520745233E+04  0.00000000000E+00 0. -1.
         22    1    3    3    0    0  0.18900304026E+02 -0.67181906321E+02 -0.32987793269E+02  0.77193422867E+02  0.00000000000E+00 0. -1.
         22    1    3    3    0    0 -0.61095669271E+02  0.18321961452E+02  0.12438537989E+02  0.64985323746E+02  0.00000000000E+00 0. -1.
</event>
<event>
 7    1  0.7029100E-006  0.2102410E+03  0.7818608E-02  0.1211845E+00
          2   -1    0    0  502    0  0.00000000000E+00  0.00000000000E+00  0.16884928379E+04  0.16884928379E+04  0.00000000000E+00 0. -1.
          1   -1    0    0  501    0 -0.00000000000E+00 -0.00000000000E+00 -0.18457666256E+04  0.18457666256E+04  0.00000000000E+00 0. -1.
         25    2    1    2    0    0 -0.26152947999E+03 -0.53228731635E+02 -0.20273002963E+03  0.35770852000E+03  0.12499981438E+03 0.  0.
          2    1    1    2  501    0  0.17980972829E+03  0.10109942053E+03 -0.15573482623E+04  0.15709507444E+04  0.00000000000E+00 0. -1.
          1    1    1    2  502    0  0.81719751708E+02 -0.47870688891E+02  0.16028045042E+04  0.16056001991E+04  0.00000000000E+00 0. -1.
         22    1    3    3    0    0 -0.26518471668E+03 -0.69578091092E+02 -0.17481667330E+03  0.32515367749E+03  0.00000000000E+00 0.  1.
         22    1    3    3    0    0  0.36552366841E+01  0.16349359457E+02 -0.27913356330E+02  0.32554842520E+02  0.00000000000E+00 0.  1.
</event>
<event>
 7    1  0.7029100E-006  0.6383952E+02  0.7818608E-02  0.1385912E+00
          2   -1    0    0  502    0  0.00000000000E+00  0.00000000000E+00  0.25481275007E+04  0.25481275007E+04  0.00000000000E+00 0. -1.
          1   -1    0    0  501    0 -0.00000000000E+00 -0.00000000000E+00 -0.28501166532E+04  0.28501166532E+04  0.00000000000E+00 0. -1.
         25    2    1    2    0    0 -0.46093606692E+02 -0.77196323571E+02 -0.33222645800E+03  0.36617374937E+03  0.12499960952E+03 0.  0.
          2    1    1    2  501    0  0.61461920651E+02  0.17086383323E+02 -0.25001294234E+04  0.25009431512E+04  0.00000000000E+00 0. -1.
          1    1    1    2  502    0 -0.15368313959E+02  0.60109940248E+02  0.25303667288E+04  0.25311272533E+04  0.00000000000E+00 0. -1.
         22    1    3    3    0    0 -0.73360702445E+02 -0.31231728888E+01 -0.18668386590E+03  0.20060511624E+03  0.00000000000E+00 0.  1.
         22    1    3    3    0    0  0.27267095753E+02 -0.74073150683E+02 -0.14554259209E+03  0.16556863313E+03  0.00000000000E+00 0.  1.
</event>
<event>
 7    1  0.7029100E-006  0.2756547E+03  0.7818608E-02  0.1297229E+00
          2   -1    0    0  502    0  0.00000000000E+00  0.00000000000E+00  0.10584061027E+04  0.10584061027E+04  0.00000000000E+00 0. -1.
          1   -1    0    0  501    0 -0.00000000000E+00 -0.00000000000E+00 -0.47588731670E+03  0.47588731670E+03  0.00000000000E+00 0. -1.
         25    2    1    2    0    0  0.10267385543E+03  0.22741589996E+03  0.33229771473E+02  0.28105032402E+03  0.12500061910E+03 0.  0.
          2    1    1    2  501    0  0.16111331121E+02  0.26423037039E+02 -0.32944714037E+03  0.33089752217E+03  0.00000000000E+00 0. -1.
          1    1    1    2  502    0 -0.11878518655E+03 -0.25383893700E+03  0.87873615492E+03  0.92234557323E+03  0.00000000000E+00 0. -1.
         22    1    3    3    0    0 -0.58920723878E+01  0.13295173252E+03  0.33115290898E+02  0.13714044695E+03  0.00000000000E+00 0.  1.
         22    1    3    3    0    0  0.10856592782E+03  0.94464167440E+02  0.11448057428E+00  0.14390987707E+03  0.00000000000E+00 0.  1.
</event>
<event>
 7    1  0.7029100E-006  0.7102494E+02  0.7818608E-02  0.1372430E+00
          2   -1    0    0  502    0  0.00000000000E+00  0.00000000000E+00  0.23354386710E+04  0.23354386710E+04  0.00000000000E+00 0. -1.
          1   -1    0    0  501    0 -0.00000000000E+00 -0.00000000000E+00 -0.57016818234E+03  0.57016818234E+03  0.00000000000E+00 0. -1.
         25    2    1    2    0    0  0.28380822687E+02 -0.21094095901E+02  0.21413971595E+03  0.25046248182E+03  0.12500081950E+03 0.  0.
          2    1    1    2  501    0 -0.65456379141E+02 -0.28918131953E+02 -0.54922445972E+03  0.55386668349E+03  0.00000000000E+00 0. -1.
          1    1    1    2  502    0  0.37075556454E+02  0.50012227854E+02  0.21003552324E+04  0.21012776880E+04  0.00000000000E+00 0. -1.
         22    1    3    3    0    0  0.53263518797E+01  0.34024410277E+02  0.17654506929E+03  0.17987271057E+03  0.00000000000E+00 0.  1.
         22    1    3    3    0    0  0.23054470807E+02 -0.55118506178E+02  0.37594646658E+02  0.70589771248E+02  0.00000000000E+00 0.  1.
</event>
<event>
 7    1  0.7029100E-006  0.1089595E+03  0.7818608E-02  0.1291703E+00
          2   -1    0    0  502    0  0.00000000000E+00  0.00000000000E+00  0.15935055830E+04  0.15935055830E+04  0.00000000000E+00 0. -1.
          1   -1    0    0  501    0 -0.00000000000E+00 -0.00000000000E+00 -0.49168488724E+02  0.49168488724E+02  0.00000000000E+00 0. -1.
         25    2    1    2    0    0 -0.17034534554E+03  0.59355177851E+02  0.54108023679E+03  0.58389491658E+03  0.12499950833E+03 0.  0.
          2    1    1    2  501    0  0.71663608482E+02 -0.40714891944E+02  0.42400052226E+02  0.92688400760E+02  0.00000000000E+00 0. -1.
          1    1    1    2  502    0  0.98681737053E+02 -0.18640285907E+02  0.96085680524E+03  0.96609075436E+03  0.00000000000E+00 0. -1.
         22    1    3    3    0    0 -0.14109051322E+03 -0.23703355890E+01  0.27379260224E+03  0.30801711065E+03  0.00000000000E+00 0. -1.
         22    1    3    3    0    0 -0.29254832314E+02  0.61725513440E+02  0.26728763455E+03  0.27587780593E+03  0.00000000000E+00 0. -1.
</event>
<event>
 7    1  0.7029100E-006  0.1604399E+03  0.7818608E-02  0.1397713E+00
          2   -1    0    0  502    0  0.00000000000E+00  0.00000000000E+00  0.95380781545E+02  0.95380781545E+02  0.00000000000E+00 0. -1.
          1   -1    0    0  501    0 -0.00000000000E+00 -0.00000000000E+00 -0.51853895255E+03  0.51853895255E+03  0.00000000000E+00 0. -1.
         25    2    1    2    0    0  0.10163246285E+03  0.10540074004E+03 -0.14043021573E+03  0.23829185073E+03  0.12499554842E+03 0.  0.
          2    1    1    2  501    0 -0.10800736342E+03 -0.12693647235E+03 -0.30271389261E+03  0.34556353879E+03  0.00000000000E+00 0. -1.
          1    1    1    2  502    0  0.63749005665E+01  0.21535732311E+02  0.19985937336E+02  0.30064344573E+02  0.00000000000E+00 0. -1.
         22    1    3    3    0    0 -0.18003650068E+01  0.72719616941E+01 -0.84986416478E+02  0.85315964080E+02  0.00000000000E+00 0.  1.
         22    1    3    3    0    0  0.10343282786E+03  0.98128778350E+02 -0.55443799255E+02  0.15297588665E+03  0.00000000000E+00 0.  1.
</event>
<event>
 7    1  0.7029100E-006  0.1476376E+03  0.7818608E-02  0.1211605E+00
          2   -1    0    0  502    0  0.00000000000E+00  0.00000000000E+00  0.43380025176E+03  0.43380025176E+03  0.00000000000E+00 0. -1.
          1   -1    0    0  501    0 -0.00000000000E+00 -0.00000000000E+00 -0.19110242200E+04  0.19110242200E+04  0.00000000000E+00 0. -1.
         25    2    1    2    0    0  0.61302984470E+02  0.49798902840E+02  0.46354892398E+02  0.15495580466E+03  0.12499815486E+03 0.  0.
          2    1    1    2  501    0  0.10071999546E+03 -0.10794603185E+03 -0.18313159599E+04  0.18372574692E+04  0.00000000000E+00 0. -1.
          1    1    1    2  502    0 -0.16202297993E+03  0.58147129006E+02  0.30773709924E+03  0.35261119790E+03  0.00000000000E+00 0. -1.
         22    1    3    3    0    0 -0.24197244152E+02  0.36012266131E+02 -0.18087574090E+02  0.47005853602E+02  0.00000000000E+00 0.  1.
         22    1    3    3    0    0  0.85500228622E+02  0.13786636709E+02  0.64442466488E+02  0.10794995106E+03  0.00000000000E+00 0.  1.
</event>
<event>
 7    1  0.7029100E-006  0.8194390E+02  0.7818608E-02  0.1332782E+00
          2   -1    0    0  502    0  0.00000000000E+00  0.00000000000E+00  0.90660391708E+03  0.90660391708E+03  0.00000000000E+00 0. -1.
          1   -1    0    0  501    0 -0.00000000000E+00 -0.00000000000E+00 -0.95264593501E+02  0.95264593501E+02  0.00000000000E+00 0. -1.
         25    2    1    2    0    0  0.12718128242E+03 -0.19277542413E+02  0.33155707064E+03  0.37696452815E+03  0.12500184857E+03 0.  0.
          2    1    1    2  501    0 -0.72901110203E+02 -0.33321495169E+02 -0.46871629960E+02  0.92853883086E+02  0.00000000000E+00 0. -1.
          1    1    1    2  502    0 -0.54280172219E+02  0.52599037581E+02  0.52665388290E+03  0.53205009935E+03  0.00000000000E+00 0. -1.
         22    1    3    3    0    0  0.20520720495E+01  0.15171795396E+02  0.16549844877E+03  0.16620508692E+03  0.00000000000E+00 0. -1.
         22    1    3    3    0    0  0.12512921037E+03 -0.34449337809E+02  0.16605862188E+03  0.21075944122E+03  0.00000000000E+00 0. -1.
</event>
<event>
 7    1  0.7029100E-006  0.8131114E+02  0.7818608E-02  0.1368037E+00
          2   -1    0    0  502    0  0.00000000000E+00  0.00000000000E+00  0.26984011013E+02  0.26984011013E+02  0.00000000000E+00 0. -1.
          1   -1    0    0  501    0 -0.00000000000E+00 -0.00000000000E+00 -0.20497463078E+04  0.20497463078E+04  0.00000000000E+00 0. -1.
         25    2    1    2    0    0 -0.13886960092E+02  0.35732607889E+02 -0.13830432409E+04  0.13892085923E+04  0.12498895873E+03 0.  0.
          2    1    1    2  501    0 -0.54983496850E+02  0.12533888943E+02 -0.58382384481E+03  0.58654118787E+03  0.00000000000E+00 0. -1.
          1    1    1    2  502    0  0.68870456943E+02 -0.48266496832E+02 -0.55895211003E+02  0.10098053857E+03  0.00000000000E+00 0. -1.
         22    1    3    3    0    0  0.45318890152E+02  0.20661454983E+02 -0.27442165544E+03  0.27890489867E+03  0.00000000000E+00 0. -1.
         22    1    3    3    0    0 -0.59205850245E+02  0.15071152906E+02 -0.11086215855E+04  0.11103036937E+04  0.00000000000E+00 0. -1.
</event>
<event>
 7    1  0.7029100E-006  0.3130459E+03  0.7818608E-02  0.1203000E+00
          2   -1    0    0  502    0  0.00000000000E+00  0.00000000000E+00  0.61225867528E+03  0.61225867528E+03  0.00000000000E+00 0. -1.
          1   -1    0    0  501    0 -0.00000000000E+00 -0.00000000000E+00 -0.27115515082E+04  0.27115515082E+04  0.00000000000E+00 0. -1.
         25    2    1    2    0    0 -0.12754258663E+03 -0.33249431835E+03 -0.17001997865E+04  0.17415865768E+04  0.12499962987E+03 0.  0.
          2    1    1    2  501    0 -0.30118572692E+02  0.63116910527E+02 -0.94810965520E+03  0.95068543226E+03  0.00000000000E+00 0. -1.
          1    1    1    2  502    0  0.15766115932E+03  0.26937740782E+03  0.54901660878E+03  0.63153817440E+03  0.00000000000E+00 0. -1.
         22    1    3    3    0    0 -0.12579937824E+03 -0.23881949673E+03 -0.10262118642E+04  0.10611178190E+04  0.00000000000E+00 0. -1.
         22    1    3    3    0    0 -0.17432083879E+01 -0.93674821614E+02 -0.67398792228E+03  0.68046875781E+03  0.00000000000E+00 0. -1.
</event>
<event>
 7    1  0.7029100E-006  0.4768024E+02  0.7818608E-02  0.1467350E+00
          2   -1    0    0  502    0  0.00000000000E+00  0.00000000000E+00  0.20831403051E+03  0.20831403051E+03  0.00000000000E+00 0. -1.
          1   -1    0    0  501    0 -0.00000000000E+00 -0.00000000000E+00 -0.15363053843E+04  0.15363053843E+04  0.00000000000E+00 0. -1.
         25    2    1    2    0    0  0.76401304500E+02 -0.33547881301E+02 -0.10561753855E+03  0.18369288902E+03  0.12500157343E+03 0.  0.
          2    1    1    2  501    0 -0.29375678846E+02  0.33623997758E+02 -0.13880182835E+04  0.13887362093E+04  0.00000000000E+00 0. -1.
          1    1    1    2  502    0 -0.47025625654E+02 -0.76116457709E-01  0.16564446820E+03  0.17219031653E+03  0.00000000000E+00 0. -1.
         22    1    3    3    0    0 -0.75096193915E+01 -0.87391114385E+01  0.24393843404E+02  0.26978251392E+02  0.00000000000E+00 0.  1.
         22    1    3    3    0    0  0.83910923891E+02 -0.24808769862E+02 -0.13001138196E+03  0.15671463763E+03  0.00000000000E+00 0.  1.
</event>
<event>
 7    1  0.7029100E-006  0.1072967E+03  0.7818608E-02  0.1271904E+00
          2   -1    0    0  502    0  0.00000000000E+00  0.00000000000E+00  0.47353108748E+03  0.47353108748E+03  0.00000000000E+00 0. -1.
          1   -1    0    0  501    0 -0.00000000000E+00 -0.00000000000E+00 -0.10830806150E+04  0.10830806150E+04  0.00000000000E+00 0. -1.
         25    2    1    2    0    0 -0.47421539630E+01 -0.72795208883E+02  0.18092500905E+03  0.23169156754E+03  0.12500197242E+03 0.  0.
          2    1    1    2  501    0 -0.96607608207E+02 -0.29453884769E+02 -0.10356701502E+04  0.10405831160E+04  0.00000000000E+00 0. -1.
          1    1    1    2  502    0  0.10134976217E+03  0.10224909365E+03  0.24519561358E+03  0.28433701898E+03  0.00000000000E+00 0. -1.
         22    1    3    3    0    0  0.35091820922E+02 -0.24517863367E+02  0.28110789967E+01  0.42900625693E+02  0.00000000000E+00 0. -1.
         22    1    3    3    0    0 -0.39833974885E+02 -0.48277345516E+02  0.17811393005E+03  0.18879094185E+03  0.00000000000E+00 0. -1.
</event>
<event>
 7    1  0.7029100E-006  0.2859604E+02  0.7818608E-02  0.1626528E+00
          2   -1    0    0  502    0  0.00000000000E+00  0.00000000000E+00  0.34383849625E+03  0.34383849625E+03  0.00000000000E+00 0. -1.
          1   -1    0    0  501    0 -0.00000000000E+00 -0.00000000000E+00 -0.34098119384E+03  0.34098119384E+03  0.00000000000E+00 0. -1.
         25    2    1    2    0    0  0.10904611481E+02  0.10870377915E+02  0.50161756364E+02  0.13557201481E+03  0.12500597478E+03 0.  0.
          2    1    1    2  501    0 -0.20964559556E+02  0.16362730900E+02 -0.29684002937E+03  0.29802894953E+03  0.00000000000E+00 0. -1.
          1    1    1    2  502    0  0.10059948075E+02 -0.27233108815E+02  0.24953557541E+03  0.25121872575E+03  0.00000000000E+00 0. -1.
         22    1    3    3    0    0  0.14573336235E+02 -0.54232061218E+02  0.41428403912E+02  0.69784032871E+02  0.00000000000E+00 0. -1.
         22    1    3    3    0    0 -0.36687247540E+01  0.65102439134E+02  0.87333524515E+01  0.65787981938E+02  0.00000000000E+00 0. -1.
</event>
<event>
 7    1  0.7029100E-006  0.1235074E+03  0.7818608E-02  0.1268564E+00
          2   -1    0    0  502    0  0.00000000000E+00  0.00000000000E+00  0.98544766846E+03  0.98544766846E+03  0.00000000000E+00 0. -1.
          1   -1    0    0  501    0 -0.00000000000E+00 -0.00000000000E+00 -0.38012866654E+03  0.38012866654E+03  0.00000000000E+00 0. -1.
         25    2    1    2    0    0 -0.13030601122E+03 -0.14884557983E+03  0.88929906787E+02  0.25033984325E+03  0.12500738219E+03 0.  0.
          2    1    1    2  501    0  0.28149398317E+02  0.86137174984E+02 -0.28802301368E+03  0.30194247456E+03  0.00000000000E+00 0. -1.
          1    1    1    2  502    0  0.10215661290E+03  0.62708404845E+02  0.80441210880E+03  0.81329401718E+03  0.00000000000E+00 0. -1.
         22    1    3    3    0    0  0.19871203416E+02 -0.49568027387E+02  0.27893233023E+02  0.60248539507E+02  0.00000000000E+00 0. -1.
         22    1    3    3    0    0 -0.15017721463E+03 -0.99277552442E+02  0.61036673765E+02  0.19009130374E+03  0.00000000000E+00 0. -1.
</event>
<event>
 7    1  0.7029100E-006  0.6988808E+02  0.7818608E-02  0.1436325E+00
          2   -1    0    0  502    0  0.00000000000E+00  0.00000000000E+00  0.69962173895E+03  0.69962173895E+03  0.00000000000E+00 0. -1.
          1   -1    0    0  501    0 -0.00000000000E+00 -0.00000000000E+00 -0.15933611360E+04  0.15933611360E+04  0.00000000000E+00 0. -1.
         25    2    1    2    0    0 -0.66731734992E+01 -0.35057044485E+02 -0.20908536369E+03  0.24620156595E+03  0.12499997661E+03 0.  0.
          2    1    1    2  501    0 -0.28238351597E+02 -0.25817840206E+02 -0.13636409440E+04  0.13641776239E+04  0.00000000000E+00 0. -1.
          1    1    1    2  502    0  0.34911525097E+02  0.60874884692E+02  0.67898691062E+03  0.68260368514E+03  0.00000000000E+00 0. -1.
         22    1    3    3    0    0 -0.13135548832E+02  0.39770406307E+02 -0.28611103362E+02  0.50723003623E+02  0.00000000000E+00 0. -1.
         22    1    3    3    0    0  0.64623753331E+01 -0.74827450792E+02 -0.18047426033E+03  0.19547856232E+03  0.00000000000E+00 0. -1.
</event>
<event>
 7    1  0.7029100E-006  0.9458552E+02  0.7818608E-02  0.1457346E+00
          2   -1    0    0  502    0  0.00000000000E+00  0.00000000000E+00  0.15450578122E+04  0.15450578122E+04  0.00000000000E+00 0. -1.
          1   -1    0    0  501    0 -0.00000000000E+00 -0.00000000000E+00 -0.50687023705E+03  0.50687023705E+03  0.00000000000E+00 0. -1.
         25    2    1    2    0    0 -0.43018153431E+02 -0.67947097607E+02 -0.18932029597E+03  0.24069254222E+03  0.12499342309E+03 0.  0.
          2    1    1    2  501    0  0.66399544911E+02  0.74180014567E+02 -0.28327421537E+03  0.30025964634E+03  0.00000000000E+00 0. -1.
          1    1    1    2  502    0 -0.23381391480E+02 -0.62329169596E+01  0.15107820865E+04  0.15109758607E+04  0.00000000000E+00 0. -1.
         22    1    3    3    0    0 -0.73042798034E+02  0.47550944615E+00 -0.80636436038E+02  0.10880124664E+03  0.00000000000E+00 0.  1.
         22    1    3    3    0    0  0.30024644603E+02 -0.68422607054E+02 -0.10868385993E+03  0.13189129557E+03  0.00000000000E+00 0.  1.
</event>
<event>
 7    1  0.7029100E-006  0.9255928E+02  0.7818608E-02  0.1400816E+00
          2   -1    0    0  502    0  0.00000000000E+00  0.00000000000E+00  0.90982550384E+03  0.90982550384E+03  0.00000000000E+00 0. -1.
          1   -1    0    0  501    0 -0.00000000000E+00 -0.00000000000E+00 -0.13399186672E+03  0.13399186672E+03  0.00000000000E+00 0. -1.
         25    2    1    2    0    0 -0.61058423743E+02 -0.27468887550E+02  0.23360917503E+02  0.14371546797E+03  0.12500292946E+03 0.  0.
          2    1    1    2  501    0 -0.68165456570E+01 -0.37368103393E+02 -0.66061364028E+02  0.76203308742E+02  0.00000000000E+00 0. -1.
          1    1    1    2  502    0  0.67874969400E+02  0.64836990943E+02  0.81853408364E+03  0.82389859385E+03  0.00000000000E+00 0. -1.
         22    1    3    3    0    0  0.37504916855E+02 -0.14904791855E+02  0.18056102978E+02  0.44213057611E+02  0.00000000000E+00 0.  1.
         22    1    3    3    0    0 -0.98563340599E+02 -0.12564095695E+02  0.53048145256E+01  0.99502410361E+02  0.00000000000E+00 0.  1.
</event>
<event>
 7    1  0.7029100E-006  0.4990479E+02  0.7818608E-02  0.1511910E+00
          2   -1    0    0  502    0  0.00000000000E+00  0.00000000000E+00  0.18136424280E+04  0.18136424280E+04  0.00000000000E+00 0. -1.
          1   -1    0    0  501    0 -0.00000000000E+00 -0.00000000000E+00 -0.41503516029E+02  0.41503516029E+02  0.00000000000E+00 0. -1.
         25    2    1    2    0    0 -0.55038794708E+02 -0.12739121006E+02  0.79208546269E+03  0.80387578412E+03  0.12500136781E+03 0.  0.
          2    1    1    2  501    0  0.80835724422E+01  0.30204306625E+02 -0.28000387079E+02  0.41972204597E+02  0.00000000000E+00 0. -1.
          1    1    1    2  502    0  0.46955222266E+02 -0.17465185619E+02  0.10080538364E+04  0.10092979553E+04  0.00000000000E+00 0. -1.
         22    1    3    3    0    0 -0.74335018218E+02  0.27995213238E+02  0.64941198002E+03  0.65425174565E+03  0.00000000000E+00 0. -1.
         22    1    3    3    0    0  0.19296223510E+02 -0.40734334244E+02  0.14267348267E+03  0.14962403846E+03  0.00000000000E+00 0. -1.
</event>
<event>
 7    1  0.7029100E-006  0.3840639E+02  0.7818608E-02  0.1572700E+00
          2   -1    0    0  502    0  0.00000000000E+00  0.00000000000E+00  0.22678158054E+02  0.22678158054E+02  0.00000000000E+00 0. -1.
          1   -1    0    0  501    0 -0.00000000000E+00 -0.00000000000E+00 -0.60204012086E+03  0.60204012086E+03  0.00000000000E+00 0. -1.
         25    2    1    2    0    0 -0.40597549198E+02 -0.45947935145E+01 -0.48547523410E+03  0.50297217316E+03  0.12500212368E+03 0.  0.
          2    1    1    2  501    0  0.28146523400E+02  0.28980892050E+02 -0.82944107565E+02  0.92259654580E+02  0.00000000000E+00 0. -1.
          1    1    1    2  502    0  0.12451025798E+02 -0.24386098535E+02 -0.10942621139E+02  0.29486451169E+02  0.00000000000E+00 0. -1.
         22    1    3    3    0    0  0.17935860026E+01  0.53829947006E+02 -0.13926900166E+03  0.14932091270E+03  0.00000000000E+00 0.  1.
         22    1    3    3    0    0 -0.42391135200E+02 -0.58424740521E+02 -0.34620623244E+03  0.35365126046E+03  0.00000000000E+00 0.  1.
</event>
<event>
 7    1  0.7029100E-006  0.8377653E+02  0.7818608E-02  0.1390996E+00
          2   -1    0    0  502    0  0.00000000000E+00  0.00000000000E+00  0.44113969212E+03  0.44113969212E+03  0.00000000000E+00 0. -1.
          1   -1    0    0  501    0 -0.00000000000E+00 -0.00000000000E+00 -0.12690497958E+04  0.12690497958E+04  0.00000000000E+00 0. -1.
         25    2    1    2    0    0  0.68683244597E+02  0.84768502622E+02  0.27088560019E+03  0.31765868365E+03  0.12499977514E+03 0.  0.
          2    1    1    2  501    0 -0.43051736587E+02 -0.14353922244E+02 -0.12356612812E+04  0.12364943546E+04  0.00000000000E+00 0. -1.
          1    1    1    2  502    0 -0.25631508010E+02 -0.70414580378E+02  0.13686557739E+03  0.15603644961E+03  0.00000000000E+00 0. -1.
         22    1    3    3    0    0  0.15422501607E+02  0.72078501561E+02  0.24728540864E+03  0.25803727884E+03  0.00000000000E+00 0. -1.
         22    1    3    3    0    0  0.53260742991E+02  0.12690001060E+02  0.23600191545E+02  0.59621404812E+02  0.00000000000E+00 0. -1.
</event>
<event>
 7    1  0.7029100E-006  0.1561158E+03  0.7818608E-02  0.1334067E+00
          2   -1    0    0  502    0  0.00000000000E+00  0.00000000000E+00  0.11879967380E+04  0.11879967380E+04  0.00000000000E+00 0. -1.
          1   -1    0    0  501    0 -0.00000000000E+00 -0.00000000000E+00 -0.73266852994E+03  0.73266852994E+03  0.00000000000E+00 0. -1.
         25    2    1    2    0    0  0.33715307051E+02 -0.12815665425E+03  0.16468388156E+03  0.24556301906E+03  0.12497826020E+03 0.  0.
          2    1    1    2  501    0  0.35676290199E+02 -0.16315640245E+02 -0.68513035613E+03  0.68625257937E+03  0.00000000000E+00 0. -1.
          1    1    1    2  502    0 -0.69391597250E+02  0.14447229450E+03  0.97577468267E+03  0.98884966956E+03  0.00000000000E+00 0. -1.
         22    1    3    3    0    0 -0.37981920596E+02 -0.79101084705E+02  0.11766767258E+03  0.14678313617E+03  0.00000000000E+00 0. -1.
         22    1    3    3    0    0  0.71697227646E+02 -0.49055569549E+02  0.47016208988E+02  0.98779882889E+02  0.00000000000E+00 0. -1.
</event>
<event>
 7    1  0.7029100E-006  0.9371260E+02  0.7818608E-02  0.1300541E+00
          2   -1    0    0  502    0  0.00000000000E+00  0.00000000000E+00  0.14635018334E+04  0.14635018334E+04  0.00000000000E+00 0. -1.
          1   -1    0    0  501    0 -0.00000000000E+00 -0.00000000000E+00 -0.12557030659E+03  0.12557030659E+03  0.00000000000E+00 0. -1.
         25    2    1    2    0    0 -0.52380085357E+01 -0.41155450595E+02  0.23183212021E+03  0.26663103549E+03  0.12499907710E+03 0.  0.
          2    1    1    2  501    0  0.93450248300E+02  0.37442758805E+02 -0.82750573764E+02  0.13031717674E+03  0.00000000000E+00 0. -1.
          1    1    1    2  502    0 -0.88212239765E+02  0.37126917900E+01  0.11888499804E+04  0.11921239278E+04  0.00000000000E+00 0. -1.
         22    1    3    3    0    0 -0.35081050235E+02 -0.29250502215E+02  0.15964372076E+02  0.48385257477E+02  0.00000000000E+00 0. -1.
         22    1    3    3    0    0  0.29843041699E+02 -0.11904948380E+02  0.21586774814E+03  0.21824577801E+03  0.00000000000E+00 0. -1.
</event>
<event>
 7    1  0.7029100E-006  0.1132559E+03  0.7818608E-02  0.1289862E+00
          2   -1    0    0  502    0  0.00000000000E+00  0.00000000000E+00  0.60192174445E+03  0.60192174445E+03  0.00000000000E+00 0. -1.
          1   -1    0    0  501    0 -0.00000000000E+00 -0.00000000000E+00 -0.18478134914E+04  0.18478134914E+04  0.00000000000E+00 0. -1.
         25    2    1    2    0    0  0.10839888291E+03 -0.21651574670E+02 -0.28462816371E+03  0.32993442831E+03  0.12499770761E+03 0.  0.
          2    1    1    2  501    0 -0.40556111823E+02 -0.69736863084E+02 -0.15338710777E+04  0.15359910518E+04  0.00000000000E+00 0. -1.
          1    1    1    2  502    0 -0.67842771088E+02  0.91388437754E+02  0.57260749447E+03  0.58380975571E+03  0.00000000000E+00 0. -1.
         22    1    3    3    0    0 -0.17746901202E+02  0.25631807552E+02 -0.40581373865E+02  0.51174114213E+02  0.00000000000E+00 0.  1.
         22    1    3    3    0    0  0.12614578411E+03 -0.47283382222E+02 -0.24404678985E+03  0.27876031410E+03  0.00000000000E+00 0.  1.
</event>
<event>
 7    1  0.7029100E-006  0.2462865E+02  0.7818608E-02  0.1703248E+00
          2   -1    0    0  502    0  0.00000000000E+00  0.00000000000E+00  0.95928033734E+03  0.95928033734E+03  0.00000000000E+00 0. -1.
          1   -1    0    0  501    0 -0.00000000000E+00 -0.00000000000E+00 -0.36651422162E+03  0.36651422162E+03  0.00000000000E+00 0. -1.
         25    2    1    2    0    0 -0.30648658314E+02 -0.26086999494E+02  0.33278503751E+02  0.13549538808E+03  0.12502667547E+03 0.  0.
          2    1    1    2  501    0  0.10886808426E+02  0.22013622564E+02 -0.31481115171E+03  0.31576760983E+03  0.00000000000E+00 0. -1.
          1    1    1    2  502    0  0.19761849888E+02  0.40733769302E+01  0.87429876368E+03  0.87453156105E+03  0.00000000000E+00 0. -1.
         22    1    3    3    0    0  0.17172877888E+02  0.43052930992E+02  0.41994777740E+01  0.46541360267E+02  0.00000000000E+00 0. -1.
         22    1    3    3    0    0 -0.47821536202E+02 -0.69139930486E+02  0.29079025977E+02  0.88954027813E+02  0.00000000000E+00 0. -1.
</event>
<event>
 7    1  0.7029100E-006  0.7297487E+02  0.7818608E-02  0.1487598E+00
          2   -1    0    0  502    0  0.00000000000E+00  0.00000000000E+00  0.59335138960E+03  0.59335138960E+03  0.00000000000E+00 0. -1.
          1   -1    0    0  501    0 -0.00000000000E+00 -0.00000000000E+00 -0.22553643482E+04  0.22553643482E+04  0.00000000000E+00 0. -1.
         25    2    1    2    0    0 -0.76830181483E+01 -0.60180758592E+02 -0.86700516414E+03  0.87806815950E+03  0.12499994245E+03 0.  0.
          2    1    1    2  501    0  0.31399843690E+02  0.68909337173E+02 -0.13815186485E+04  0.13835925062E+04  0.00000000000E+00 0. -1.
          1    1    1    2  502    0 -0.23716825541E+02 -0.87285785808E+01  0.58651085401E+03  0.58705507217E+03  0.00000000000E+00 0. -1.
         22    1    3    3    0    0  0.36530297473E+01 -0.46690400580E+02 -0.95534928668E+02  0.10639671390E+03  0.00000000000E+00 0. -1.
         22    1    3    3    0    0 -0.11336047896E+02 -0.13490358012E+02 -0.77147023547E+03  0.77167144560E+03  0.00000000000E+00 0. -1.
</event>
<event>
 7    1  0.7029100E-006  0.3468603E+02  0.7818608E-02  0.1590012E+00
          2   -1    0    0  502    0  0.00000000000E+00  0.00000000000E+00  0.26346606844E+04  0.26346606844E+04  0.00000000000E+00 0. -1.
          1   -1    0    0  501    0 -0.00000000000E+00 -0.00000000000E+00 -0.82957145140E+01  0.82957145140E+01  0.00000000000E+00 0. -1.
         25    2    1    2    0    0  0.55978448110E+02 -0.22310669956E+02  0.12026516517E+04  0.12106305443E+04  0.12499586716E+03 0.  0.
          2    1    1    2  501    0 -0.29740609020E+02  0.14955502685E+02  0.62268227667E+02  0.70608094878E+02  0.00000000000E+00 0. -1.
          1    1    1    2  502    0 -0.26237839090E+02  0.73551672718E+01  0.13614450905E+04  0.13617177597E+04  0.00000000000E+00 0. -1.
         22    1    3    3    0    0  0.66642422120E+02 -0.56990870032E+02  0.10529427991E+04  0.10565877672E+04  0.00000000000E+00 0.  1.
         22    1    3    3    0    0 -0.10663974010E+02  0.34680200076E+02  0.14970885259E+03  0.15404277706E+03  0.00000000000E+00 0.  1.
</event>
<event>
 7    1  0.7029100E-006  0.1454654E+03  0.7818608E-02  0.1284327E+00
          2   -1    0    0  502    0  0.00000000000E+00  0.00000000000E+00  0.50019319890E+02  0.50019319890E+02  0.00000000000E+00 0. -1.
          1   -1    0    0  501    0 -0.00000000000E+00 -0.00000000000E+00 -0.12524435810E+04  0.12524435810E+04  0.00000000000E+00 0. -1.
         25    2    1    2    0    0 -0.45461445031E+02 -0.89919402305E+02 -0.34352418827E+03  0.37919174449E+03  0.12500107706E+03 0.  0.
          2    1    1    2  501    0  0.62181330493E+02  0.15393908937E+03 -0.83739906971E+03  0.85369840286E+03  0.00000000000E+00 0. -1.
          1    1    1    2  502    0 -0.16719885461E+02 -0.64019687067E+02 -0.21501003157E+02  0.69572753566E+02  0.00000000000E+00 0. -1.
         22    1    3    3    0    0 -0.51892703027E+02 -0.11613659633E+03 -0.31599065030E+03  0.34063272408E+03  0.00000000000E+00 0. -1.
         22    1    3    3    0    0  0.64312579955E+01  0.26217194026E+02 -0.27533537970E+02  0.38559020412E+02  0.00000000000E+00 0. -1.
</event>
<event>
 7    1  0.7029100E-006  0.1402771E+03  0.7818608E-02  0.1377519E+00
          2   -1    0    0  502    0  0.00000000000E+00  0.00000000000E+00  0.29436920508E+03  0.29436920508E+03  0.00000000000E+00 0. -1.
          1   -1    0    0  501    0 -0.00000000000E+00 -0.00000000000E+00 -0.63371460382E+03  0.63371460382E+03  0.00000000000E+00 0. -1.
         25    2    1    2    0    0 -0.61504086934E+02  0.13786059548E+03 -0.90611138999E+02  0.21592642920E+03  0.12500219127E+03 0.  0.
          2    1    1    2  501    0  0.79761080690E+02 -0.11376545690E+03 -0.46934836331E+03  0.48948165984E+03  0.00000000000E+00 0. -1.
          1    1    1    2  502    0 -0.18256993755E+02 -0.24095138579E+02  0.22061410357E+03  0.22267571986E+03  0.00000000000E+00 0. -1.
         22    1    3    3    0    0 -0.49403913099E+02  0.15124326908E+03 -0.42710364070E+02  0.16474054835E+03  0.00000000000E+00 0. -1.
         22    1    3    3    0    0 -0.12100173836E+02 -0.13382673603E+02 -0.47900774929E+02  0.51185880850E+02  0.00000000000E+00 0. -1.
</event>
<event>
 7    1  0.7029100E-006  0.9349985E+02  0.7818608E-02  0.1451808E+00
          2   -1    0    0  502    0  0.00000000000E+00  0.00000000000E+00  0.25608153840E+03  0.25608153840E+03  0.00000000000E+00 0. -1.
          1   -1    0    0  501    0 -0.00000000000E+00 -0.00000000000E+00 -0.54774923315E+03  0.54774923315E+03  0.00000000000E+00 0. -1.
         25    2    1    2    0    0  0.77365884105E+01  0.95007539597E+02 -0.15599676611E+03  0.22146737723E+03  0.12500608289E+03 0.  0.
          2    1    1    2  501    0  0.17581528439E+02 -0.92038921625E+02 -0.35214241000E+03  0.36439614454E+03  0.00000000000E+00 0. -1.
          1    1    1    2  502    0 -0.25318116849E+02 -0.29686179722E+01  0.21647148136E+03  0.21796724978E+03  0.00000000000E+00 0. -1.
         22    1    3    3    0    0  0.46710980606E+02  0.45795478552E+02 -0.14979414824E+02  0.67108303759E+02  0.00000000000E+00 0.  1.
         22    1    3    3    0    0 -0.38974392195E+02  0.49212061046E+02 -0.14101735129E+03  0.15435907348E+03  0.00000000000E+00 0.  1.
</event>
<event>
 7    1  0.7029100E-006  0.7825934E+02  0.7818608E-02  0.1463645E+00
          2   -1    0    0  502    0  0.00000000000E+00  0.00000000000E+00  0.20279915592E+04  0.20279915592E+04  0.00000000000E+00 0. -1.
          1   -1    0    0  501    0 -0.00000000000E+00 -0.00000000000E+00 -0.50348360148E+03  0.50348360148E+03  0.00000000000E+00 0. -1.
         25    2    1    2    0    0 -0.74397759762E+02 -0.60672056128E+01  0.18064613353E+04  0.18123185961E+04  0.12499720024E+03 0.  0.
          2    1    1    2  501    0  0.75158918751E+02 -0.21861349549E+02 -0.49658403387E+03  0.50271511253E+03  0.00000000000E+00 0. -1.
          1    1    1    2  502    0 -0.76115898894E+00  0.27928555161E+02  0.21463065628E+03  0.21644145206E+03  0.00000000000E+00 0. -1.
         22    1    3    3    0    0 -0.19390861451E+02 -0.35894706149E+02  0.17638554834E+03  0.18104225225E+03  0.00000000000E+00 0.  1.
         22    1    3    3    0    0 -0.55006898311E+02  0.29827500536E+02  0.16300757870E+04  0.16312763438E+04  0.00000000000E+00 0.  1.
</event>
<event>
 7    1  0.7029100E-006  0.7037937E+02  0.7818608E-02  0.1432777E+00
          2   -1    0    0  502    0  0.00000000000E+00  0.00000000000E+00  0.49632475209E+03  0.49632475209E+03  0.00000000000E+00 0. -1.
          1   -1    0    0  501    0 -0.00000000000E+00 -0.00000000000E+00 -0.54178782730E+03  0.54178782730E+03  0.00000000000E+00 0. -1.
         25    2    1    2    0    0  0.36618759143E+02 -0.30244726037E+02  0.14855917815E+03  0.19987433190E+03  0.12499696861E+03 0.  0.
          2    1    1    2  501    0 -0.64217213150E+01 -0.38491534547E+02 -0.51100145637E+03  0.51248934150E+03  0.00000000000E+00 0. -1.
          1    1    1    2  502    0 -0.30197037828E+02  0.68736260584E+02  0.31697920301E+03  0.32574890599E+03  0.00000000000E+00 0. -1.
         22    1    3    3    0    0  0.65098401139E+02 -0.34926534111E+02  0.15372377554E+03  0.17055399081E+03  0.00000000000E+00 0.  1.
         22    1    3    3    0    0 -0.28479641996E+02  0.46818080744E+01 -0.51645973860E+01  0.29320341083E+02  0.00000000000E+00 0.  1.
</event>
<event>
 7    1  0.7029100E-006  0.2342566E+02  0.7818608E-02  0.1714247E+00
          2   -1    0    0  502    0  0.00000000000E+00  0.00000000000E+00  0.21092357249E+04  0.21092357249E+04  0.00000000000E+00 0. -1.
          1   -1    0    0  501    0 -0.00000000000E+00 -0.00000000000E+00 -0.43067540650E+02  0.43067540650E+02  0.00000000000E+00 0. -1.
         25    2    1    2    0    0  0.25093034040E+02 -0.20691617074E+02  0.83196143470E+03  0.84192913364E+03  0.12500813524E+03 0.  0.
          2    1    1    2  501    0 -0.51855287630E+01  0.22834150197E+02 -0.34397978770E+02  0.41611405494E+02  0.00000000000E+00 0. -1.
          1    1    1    2  502    0 -0.19907505277E+02 -0.21425331230E+01  0.12686047283E+04  0.12687627264E+04  0.00000000000E+00 0. -1.
         22    1    3    3    0    0  0.25904555476E+02  0.50499664154E+02  0.31261126186E+03  0.31772167556E+03  0.00000000000E+00 0. -1.
         22    1    3    3    0    0 -0.81152143631E+00 -0.71191281228E+02  0.51935017283E+03  0.52420745808E+03  0.00000000000E+00 0. -1.
</event>
<event>
 7    1  0.7029100E-006  0.1448987E+03  0.7818608E-02  0.1279525E+00
          2   -1    0    0  502    0  0.00000000000E+00  0.00000000000E+00  0.81138275622E+03  0.81138275622E+03  0.00000000000E+00 0. -1.
          1   -1    0    0  501    0 -0.00000000000E+00 -0.00000000000E+00 -0.19222518929E+03  0.19222518929E+03  0.00000000000E+00 0. -1.
         25    2    1    2    0    0  0.11635877353E+03  0.89576422723E+02  0.12334164317E+03  0.22891448520E+03  0.12500152363E+03 0.  0.
          2    1    1    2  501    0 -0.54204772450E+02  0.43533296801E+02 -0.12158374465E+03  0.14005681794E+03  0.00000000000E+00 0. -1.
          1    1    1    2  502    0 -0.62154001079E+02 -0.13310971952E+03  0.61739966842E+03  0.63463664238E+03  0.00000000000E+00 0. -1.
         22    1    3    3    0    0  0.36240248577E+02  0.68809798619E+02  0.12373731865E+03  0.14614741883E+03  0.00000000000E+00 0.  1.
         22    1    3    3    0    0  0.80118524951E+02  0.20766624104E+02 -0.39567548157E+00  0.82767066374E+02  0.00000000000E+00 0.  1.
</event>
<event>
 7    1  0.7029100E-006  0.7565303E+02  0.7818608E-02  0.1442423E+00
          2   -1    0    0  502    0  0.00000000000E+00  0.00000000000E+00  0.43602096507E+03  0.43602096507E+03  0.00000000000E+00 0. -1.
          1   -1    0    0  501    0 -0.00000000000E+00 -0.00000000000E+00 -0.24831723607E+03  0.24831723607E+03  0.00000000000E+00 0. -1.
         25    2    1    2    0    0 -0.16386844261E+02 -0.84973809791E+02 -0.88131093078E+02  0.17572996270E+03  0.12499941283E+03 0.  0.
          2    1    1    2  501    0 -0.15012887545E+02  0.72544888096E+02 -0.10377211442E+03  0.12750215415E+03  0.00000000000E+00 0. -1.
          1    1    1    2  502    0  0.31399731806E+02  0.12428921695E+02  0.37960693649E+03  0.38110608429E+03  0.00000000000E+00 0. -1.
         22    1    3    3    0    0  0.33950598665E+02 -0.29661600188E+02  0.15726291636E+02  0.47746936279E+02  0.00000000000E+00 0. -1.
         22    1    3    3    0    0 -0.50337442926E+02 -0.55312209603E+02 -0.10385738471E+03  0.12798302642E+03  0.00000000000E+00 0. -1.
</event>
<event>
 7    1  0.7029100E-006  0.1010031E+03  0.7818608E-02  0.1288880E+00
          2   -1    0    0  502    0  0.00000000000E+00  0.00000000000E+00  0.37258296866E+04  0.37258296866E+04  0.00000000000E+00 0. -1.
          1   -1    0    0  501    0 -0.00000000000E+00 -0.00000000000E+00 -0.11491303739E+04  0.11491303739E+04  0.00000000000E+00 0. -1.
         25    2    1    2    0    0  0.43857804014E+02 -0.66889883058E+02  0.12997044205E+04  0.13081493811E+04  0.12500183623E+03 0.  0.
          2    1    1    2  501    0 -0.80197882596E+02 -0.43626597779E+02 -0.11416875123E+04  0.11453319851E+04  0.00000000000E+00 0. -1.
          1    1    1    2  502    0  0.36340078583E+02  0.11051648084E+03  0.24186824044E+04  0.24214786944E+04  0.00000000000E+00 0. -1.
         22    1    3    3    0    0 -0.91090915998E+01 -0.42747742532E+02  0.13307994289E+03  0.14007361008E+03  0.00000000000E+00 0.  1.
         22    1    3    3    0    0  0.52966895613E+02 -0.24142140526E+02  0.11666244776E+04  0.11680757710E+04  0.00000000000E+00 0.  1.
</event>
<event>
 7    1  0.7029100E-006  0.6609548E+02  0.7818608E-02  0.1433462E+00
          2   -1    0    0  502    0  0.00000000000E+00  0.00000000000E+00  0.10452143032E+03  0.10452143032E+03  0.00000000000E+00 0. -1.
          1   -1    0    0  501    0 -0.00000000000E+00 -0.00000000000E+00 -0.10209112398E+04  0.10209112398E+04  0.00000000000E+00 0. -1.
         25    2    1    2    0    0 -0.89014161057E+01  0.77464165102E+02 -0.48771681904E+03  0.50948213038E+03  0.12499765404E+03 0.  0.
          2    1    1    2  501    0  0.37312396462E+02 -0.17794728323E+02 -0.50970900041E+03  0.51138256950E+03  0.00000000000E+00 0. -1.
          1    1    1    2  502    0 -0.28410980357E+02 -0.59669436779E+02  0.81036009962E+02  0.10456797024E+03  0.00000000000E+00 0. -1.
         22    1    3    3    0    0  0.17086719433E+02 -0.31007773654E+02 -0.10253520505E+03  0.10847537178E+03  0.00000000000E+00 0.  1.
         22    1    3    3    0    0 -0.25988135539E+02  0.10847193876E+03 -0.38518161399E+03  0.40100675860E+03  0.00000000000E+00 0.  1.
</event>
<event>
 7    1  0.7029100E-006  0.7562346E+02  0.7818608E-02  0.1389758E+00
          2   -1    0    0  502    0  0.00000000000E+00  0.00000000000E+00  0.83951980098E+03  0.83951980098E+03  0.00000000000E+00 0. -1.
          1   -1    0    0  501    0 -0.00000000000E+00 -0.00000000000E+00 -0.35527595753E+03  0.35527595753E+03  0.00000000000E+00 0. -1.
         25    2    1    2    0    0  0.95507278157E+01  0.30355451034E+02 -0.57002563228E+02  0.14100926402E+03  0.12498660134E+03 0.  0.
          2    1    1    2  501    0 -0.26616750466E+02 -0.78178266491E+02 -0.24878035215E+03  0.26212965566E+03  0.00000000000E+00 0. -1.
          1    1    1    2  502    0  0.17066022650E+02  0.47822815457E+02  0.79002675883E+03  0.79165683884E+03  0.00000000000E+00 0. -1.
         22    1    3    3    0    0  0.63519404756E+02  0.34103985032E+02 -0.17976310000E+02  0.74303057116E+02  0.00000000000E+00 0. -1.
         22    1    3    3    0    0 -0.53968676940E+02 -0.37485339977E+01 -0.39026253229E+02  0.66706206899E+02  0.00000000000E+00 0. -1.
</event>
<event>
 7    1  0.7029100E-006  0.9224460E+02  0.7818608E-02  0.1433127E+00
          2   -1    0    0  502    0  0.00000000000E+00  0.00000000000E+00  0.50600084242E+03  0.50600084242E+03  0.00000000000E+00 0. -1.
          1   -1    0    0  501    0 -0.00000000000E+00 -0.00000000000E+00 -0.59062098769E+02  0.59062098769E+02  0.00000000000E+00 0. -1.
         25    2    1    2    0    0 -0.26400489450E+02  0.75872818274E+02  0.19397588818E+03  0.24434617998E+03  0.12499896032E+03 0.  0.
          2    1    1    2  501    0  0.20953470523E+02  0.21041414600E+02 -0.16732895918E+02  0.34084877308E+02  0.00000000000E+00 0. -1.
          1    1    1    2  502    0  0.54470189267E+01 -0.96914232873E+02  0.26969575139E+03  0.28663188390E+03  0.00000000000E+00 0. -1.
         22    1    3    3    0    0  0.91793316724E+01 -0.21047023725E+02 -0.17820332364E+01  0.23030696474E+02  0.00000000000E+00 0.  1.
         22    1    3    3    0    0 -0.35579821122E+02  0.96919841999E+02  0.19575792141E+03  0.22131548351E+03  0.00000000000E+00 0.  1.
</event>
<event>
 7    1  0.7029100E-006  0.8622281E+02  0.7818608E-02  0.1467690E+00
          2   -1    0    0  502    0  0.00000000000E+00  0.00000000000E+00  0.33089120998E+04  0.33089120998E+04  0.00000000000E+00 0. -1.
          1   -1    0    0  501    0 -0.00000000000E+00 -0.00000000000E+00 -0.16869461805E+04  0.16869461805E+04  0.00000000000E+00 0. -1.
         25    2    1    2    0    0  0.52095974776E+02  0.33751317497E+02 -0.23046961554E+03  0.26943389372E+03  0.12500094949E+03 0.  0.
          2    1    1    2  501    0  0.17250355143E+02  0.17580311539E+02 -0.14363230860E+04  0.14365342493E+04  0.00000000000E+00 0. -1.
          1    1    1    2  502    0 -0.69346329919E+02 -0.51331629037E+02  0.32887586208E+04  0.32898901373E+04  0.00000000000E+00 0. -1.
         22    1    3    3    0    0  0.69042930495E+02  0.42586227604E+02 -0.68020827579E+02  0.10586475342E+03  0.00000000000E+00 0. -1.
         22    1    3    3    0    0 -0.16946955719E+02 -0.88349101069E+01 -0.16244878797E+03  0.16356914029E+03  0.00000000000E+00 0. -1.
</event>
<event>
 7    1  0.7029100E-006  0.1228916E+03  0.7818608E-02  0.1385016E+00
          2   -1    0    0  502    0  0.00000000000E+00  0.00000000000E+00  0.19856363365E+04  0.19856363365E+04  0.00000000000E+00 0. -1.
          1   -1    0    0  501    0 -0.00000000000E+00 -0.00000000000E+00 -0.31055083494E+03  0.31055083494E+03  0.00000000000E+00 0. -1.
         25    2    1    2    0    0 -0.67955419651E+02 -0.85462237748E+02  0.13606985089E+04  0.13707836274E+04  0.12500235055E+03 0.  0.
          2    1    1    2  501    0  0.49929407270E+02  0.11246236219E+03 -0.29266714454E+03  0.31748194612E+03  0.00000000000E+00 0. -1.
          1    1    1    2  502    0  0.18026012381E+02 -0.27000124445E+02  0.60705413720E+03  0.60792159801E+03  0.00000000000E+00 0. -1.
         22    1    3    3    0    0  0.17015571960E+01  0.27058850990E+02  0.11882072541E+03  0.12187469590E+03  0.00000000000E+00 0. -1.
         22    1    3    3    0    0 -0.69656976847E+02 -0.11252108874E+03  0.12418777835E+04  0.12489089315E+04  0.00000000000E+00 0. -1.
</event>
<event>
 7    1  0.7029100E-006  0.1291841E+03  0.7818608E-02  0.1261306E+00
          2   -1    0    0  502    0  0.00000000000E+00  0.00000000000E+00  0.96884635531E+03  0.96884635531E+03  0.00000000000E+00 0. -1.
          1   -1    0    0  501    0 -0.00000000000E+00 -0.00000000000E+00 -0.21890339702E+03  0.21890339702E+03  0.00000000000E+00 0. -1.
         25    2    1    2    0    0  0.68007386376E+02  0.16707451878E+03  0.18439420485E+03  0.28664466317E+03  0.12500016284E+03 0.  0.
          2    1    1    2  501    0 -0.82882617619E+02 -0.42162720353E+02 -0.14896253468E+03  0.17560484056E+03  0.00000000000E+00 0. -1.
          1    1    1    2  502    0  0.14875231243E+02 -0.12491179843E+03  0.71451128812E+03  0.72550024861E+03  0.00000000000E+00 0. -1.
         22    1    3    3    0    0  0.69720069706E+02  0.11416913304E+03  0.51059440480E+02  0.14318709970E+03  0.00000000000E+00 0.  1.
         22    1    3    3    0    0 -0.17126833300E+01  0.52905385739E+02  0.13333476437E+03  0.14345756346E+03  0.00000000000E+00 0.  1.
</event>
<event>
 7    1  0.7029100E-006  0.1043723E+03  0.7818608E-02  0.1319747E+00
          2   -1    0    0  502    0  0.00000000000E+00  0.00000000000E+00  0.70829838486E+03  0.70829838486E+03  0.00000000000E+00 0. -1.
          1   -1    0    0  501    0 -0.00000000000E+00 -0.00000000000E+00 -0.42763217415E+03  0.42763217415E+03  0.00000000000E+00 0. -1.
         25    2    1    2    0    0 -0.25750578722E+02 -0.40139710641E+02  0.57314448866E+01  0.13390589914E+03  0.12499460664E+03 0.  0.
          2    1    1    2  501    0  0.34044308954E+02  0.10621735620E+03 -0.35318761991E+03  0.37038174441E+03  0.00000000000E+00 0. -1.
          1    1    1    2  502    0 -0.82937302318E+01 -0.66077645561E+02  0.62812238573E+03  0.63164291547E+03  0.00000000000E+00 0. -1.
         22    1    3    3    0    0 -0.45273068297E+01  0.44830911332E+02 -0.63186178413E+01  0.45499802741E+02  0.00000000000E+00 0. -1.
         22    1    3    3    0    0 -0.21223271892E+02 -0.84970621974E+02  0.12050062728E+02  0.88406096397E+02  0.00000000000E+00 0. -1.
</event>
<event>
 7    1  0.7029100E-006  0.1031138E+03  0.7818608E-02  0.1386026E+00
          2   -1    0    0  502    0  0.00000000000E+00  0.00000000000E+00  0.32284012127E+03  0.32284012127E+03  0.00000000000E+00 0. -1.
          1   -1    0    0  501    0 -0.00000000000E+00 -0.00000000000E+00 -0.39890861719E+03  0.39890861719E+03  0.00000000000E+00 0. -1.
         25    2    1    2    0    0  0.10611160366E+03 -0.68698521492E+02 -0.24706987139E+03  0.30437877981E+03  0.12499504376E+03 0.  0.
          2    1    1    2  501    0 -0.85111558430E+01  0.37421004671E+02 -0.11093363005E+03  0.11738416265E+03  0.00000000000E+00 0. -1.
          1    1    1    2  502    0 -0.97600447820E+02  0.31277516821E+02  0.28193500551E+03  0.29998579601E+03  0.00000000000E+00 0. -1.
         22    1    3    3    0    0  0.21844705965E+02 -0.61093735424E+02 -0.30155516216E+02  0.71547123247E+02  0.00000000000E+00 0. -1.
         22    1    3    3    0    0  0.84266897697E+02 -0.76047860683E+01 -0.21691435517E+03  0.23283165656E+03  0.00000000000E+00 0. -1.
</event>
<event>
 7    1  0.7029100E-006  0.6272331E+02  0.7818608E-02  0.1421199E+00
          2   -1    0    0  502    0  0.00000000000E+00  0.00000000000E+00  0.54183147919E+03  0.54183147919E+03  0.00000000000E+00 0. -1.
          1   -1    0    0  501    0 -0.00000000000E+00 -0.00000000000E+00 -0.21132968784E+04  0.21132968784E+04  0.00000000000E+00 0. -1.
         25    2    1    2    0    0  0.34553321119E+02 -0.59115886363E+02 -0.55450490347E+02  0.15293461502E+03  0.12500247825E+03 0.  0.
          2    1    1    2  501    0 -0.60017406949E+02  0.18637441548E+02 -0.20074519534E+04  0.20084354081E+04  0.00000000000E+00 0. -1.
          1    1    1    2  502    0  0.25464085830E+02  0.40478444816E+02  0.49143704451E+03  0.49375833449E+03  0.00000000000E+00 0. -1.
         22    1    3    3    0    0  0.68342048989E+02 -0.70636635660E+02 -0.15742977705E+02  0.99538993889E+02  0.00000000000E+00 0. -1.
         22    1    3    3    0    0 -0.33788727870E+02  0.11520749296E+02 -0.39707512641E+02  0.53395621127E+02  0.00000000000E+00 0. -1.
</event>
<event>
 7    1  0.7029100E-006  0.9783318E+02  0.7818608E-02  0.1351109E+00
          2   -1    0    0  502    0  0.00000000000E+00  0.00000000000E+00  0.21587772288E+04  0.21587772288E+04  0.00000000000E+00 0. -1.
          1   -1    0    0  501    0 -0.00000000000E+00 -0.00000000000E+00 -0.14504968752E+04  0.14504968752E+04  0.00000000000E+00 0. -1.
         25    2    1    2    0    0  0.33656053060E+02 -0.11511855592E+03  0.17223637864E+03  0.24428405890E+03  0.12499727789E+03 0.  0.
          2    1    1    2  501    0  0.32297998955E+02  0.43326345914E+02 -0.14127379692E+04  0.14137711635E+04  0.00000000000E+00 0. -1.
          1    1    1    2  502    0 -0.65954052015E+02  0.71792210001E+02  0.19487819442E+04  0.19512188817E+04  0.00000000000E+00 0. -1.
         22    1    3    3    0    0 -0.25559953744E+02 -0.82395044608E+02  0.15005232879E+03  0.17308366759E+03  0.00000000000E+00 0.  1.
         22    1    3    3    0    0  0.59216006805E+02 -0.32723511307E+02  0.22184049850E+02  0.71200391305E+02  0.00000000000E+00 0.  1.
</event>
<event>
 7    1  0.7029100E-006  0.1045063E+03  0.7818608E-02  0.1347041E+00
          2   -1    0    0  502    0  0.00000000000E+00  0.00000000000E+00  0.42091142155E+03  0.42091142155E+03  0.00000000000E+00 0. -1.
          1   -1    0    0  501    0 -0.00000000000E+00 -0.00000000000E+00 -0.81934160249E+02  0.81934160249E+02  0.00000000000E+00 0. -1.
         25    2    1    2    0    0  0.60357259531E+02 -0.10407869028E+03  0.83239546541E+02  0.19242870305E+03  0.12499844439E+03 0.  0.
          2    1    1    2  501    0 -0.80015573454E+02  0.55529164341E+02  0.76983894889E+02  0.12414709082E+03  0.00000000000E+00 0. -1.
          1    1    1    2  502    0  0.19658313923E+02  0.48549525943E+02  0.17875381987E+03  0.18626978793E+03  0.00000000000E+00 0. -1.
         22    1    3    3    0    0  0.97126781271E+01 -0.37155425227E+02  0.99755792231E+02  0.10689284272E+03  0.00000000000E+00 0. -1.
         22    1    3    3    0    0  0.50644581403E+02 -0.66923265056E+02 -0.16516245690E+02  0.85535860333E+02  0.00000000000E+00 0. -1.
</event>
<event>
 7    1  0.7029100E-006  0.9351203E+02  0.7818608E-02  0.1349208E+00
          2   -1    0    0  502    0  0.00000000000E+00  0.00000000000E+00  0.95486330706E+02  0.95486330706E+02  0.00000000000E+00 0. -1.
          1   -1    0    0  501    0 -0.00000000000E+00 -0.00000000000E+00 -0.72514052672E+03  0.72514052672E+03  0.00000000000E+00 0. -1.
         25    2    1    2    0    0 -0.23806041750E+02 -0.39649840503E+02 -0.11977969993E+03  0.17919342081E+03  0.12499707225E+03 0.  0.
          2    1    1    2  501    0  0.28098624041E+02  0.96950819399E+02 -0.55764572346E+03  0.56670781444E+03  0.00000000000E+00 0. -1.
          1    1    1    2  502    0 -0.42925822909E+01 -0.57300978896E+02  0.47771227370E+02  0.74725622176E+02  0.00000000000E+00 0. -1.
         22    1    3    3    0    0 -0.66734027610E+02 -0.47303900072E+02 -0.46970954945E+02  0.94325818372E+02  0.00000000000E+00 0. -1.
         22    1    3    3    0    0  0.42927985860E+02  0.76540595689E+01 -0.72808744981E+02  0.84867602439E+02  0.00000000000E+00 0. -1.
</event>
<event>
 7    1  0.7029100E-006  0.9843650E+02  0.7818608E-02  0.1465267E+00
          2   -1    0    0  502    0  0.00000000000E+00  0.00000000000E+00  0.21562361207E+04  0.21562361207E+04  0.00000000000E+00 0. -1.
          1   -1    0    0  501    0 -0.00000000000E+00 -0.00000000000E+00 -0.85866883997E+02  0.85866883997E+02  0.00000000000E+00 0. -1.
         25    2    1    2    0    0 -0.17242751604E+01  0.81958043245E+02  0.62109362938E+03  0.63882830556E+03  0.12499685416E+03 0.  0.
          2    1    1    2  501    0  0.16837681438E+02 -0.97881111106E+02 -0.44858457846E+02  0.10897935891E+03  0.00000000000E+00 0. -1.
          1    1    1    2  502    0 -0.15113406278E+02  0.15923067862E+02  0.14941340652E+04  0.14942953402E+04  0.00000000000E+00 0. -1.
         22    1    3    3    0    0  0.11512756638E+02 -0.30511564705E+02  0.88232448547E+02  0.94066275162E+02  0.00000000000E+00 0. -1.
         22    1    3    3    0    0 -0.13237031799E+02  0.11246960795E+03  0.53286118083E+03  0.54476203040E+03  0.00000000000E+00 0. -1.
</event>
<event>
 7    1  0.7029100E-006  0.8929859E+02  0.7818608E-02  0.1337322E+00
          2   -1    0    0  502    0  0.00000000000E+00  0.00000000000E+00  0.55100137408E+03  0.55100137408E+03  0.00000000000E+00 0. -1.
          1   -1    0    0  501    0 -0.00000000000E+00 -0.00000000000E+00 -0.18256054450E+04  0.18256054450E+04  0.00000000000E+00 0. -1.
         25    2    1    2    0    0 -0.63047929461E+02 -0.17277388788E+02 -0.11348011996E+03  0.18104029307E+03  0.12499720204E+03 0.  0.
          2    1    1    2  501    0 -0.13696584283E+02  0.65242185110E+02 -0.16737177846E+04  0.16750448835E+04  0.00000000000E+00 0. -1.
          1    1    1    2  502    0  0.76744513744E+02 -0.47964796322E+02  0.51259383364E+03  0.52052164255E+03  0.00000000000E+00 0. -1.
         22    1    3    3    0    0 -0.83392947616E+02  0.28006494966E+02 -0.52643620736E+02  0.10251877036E+03  0.00000000000E+00 0.  1.
         22    1    3    3    0    0  0.20345018155E+02 -0.45283883755E+02 -0.60836499220E+02  0.78521522712E+02  0.00000000000E+00 0.  1.
</event>
<event>
 7    1  0.7029100E-006  0.6876406E+02  0.7818608E-02  0.1432991E+00
          2   -1    0    0  502    0  0.00000000000E+00  0.00000000000E+00  0.10864777859E+04  0.10864777859E+04  0.00000000000E+00 0. -1.
          1   -1    0    0  501    0 -0.00000000000E+00 -0.00000000000E+00 -0.44846000574E+03  0.44846000574E+03  0.00000000000E+00 0. -1.
         25    2    1    2    0    0 -0.75125024130E+02  0.66847093493E+02 -0.30478336904E+03  0.34442835397E+03  0.12500274323E+03 0.  0.
          2    1    1    2  501    0  0.38966296460E+02 -0.84684353656E+01 -0.11950698360E+03  0.12598414895E+03  0.00000000000E+00 0. -1.
          1    1    1    2  502    0  0.36158727670E+02 -0.58378658128E+02  0.10623081328E+04  0.10645252887E+04  0.00000000000E+00 0. -1.
         22    1    3    3    0    0 -0.67771413440E+02  0.15527883268E+01 -0.24954061386E+03  0.25858440323E+03  0.00000000000E+00 0.  1.
         22    1    3    3    0    0 -0.73536106899E+01  0.65294305166E+02 -0.55242755182E+02  0.85843950733E+02  0.00000000000E+00 0.  1.
</event>
<event>
 7    1  0.7029100E-006  0.1054649E+03  0.7818608E-02  0.1428380E+00
          2   -1    0    0  502    0  0.00000000000E+00  0.00000000000E+00  0.14397933771E+04  0.14397933771E+04  0.00000000000E+00 0. -1.
          1   -1    0    0  501    0 -0.00000000000E+00 -0.00000000000E+00 -0.19733205193E+03  0.19733205193E+03  0.00000000000E+00 0. -1.
         25    2    1    2    0    0 -0.13675928162E+02  0.77684370115E+02  0.11483891563E+04  0.11578619066E+04  0.12499859257E+03 0.  0.
          2    1    1    2  501    0  0.18623061135E+02 -0.10414918599E+03 -0.17734896282E+03  0.20651035316E+03  0.00000000000E+00 0. -1.
          1    1    1    2  502    0 -0.49471329736E+01  0.26464815878E+02  0.27142113167E+03  0.27275316922E+03  0.00000000000E+00 0. -1.
         22    1    3    3    0    0 -0.15739423959E+02  0.44341383723E+02  0.11948479300E+03  0.12841535553E+03  0.00000000000E+00 0.  1.
         22    1    3    3    0    0  0.20634957975E+01  0.33342986392E+02  0.10289043633E+04  0.10294465511E+04  0.00000000000E+00 0.  1.
</event>
<event>
 7    1  0.7029100E-006  0.1333413E+03  0.7818608E-02  0.1365544E+00
          2   -1    0    0  502    0  0.00000000000E+00  0.00000000000E+00  0.31349350379E+04  0.31349350379E+04  0.00000000000E+00 0. -1.
          1   -1    0    0  501    0 -0.00000000000E+00 -0.00000000000E+00 -0.32426894207E+02  0.32426894207E+02  0.00000000000E+00 0. -1.
         25    2    1    2    0    0 -0.15062508050E+03 -0.14155279350E+02  0.42353681248E+03  0.46679316287E+03  0.12499655419E+03 0.  0.
          2    1    1    2  501    0  0.11739488266E+03  0.25487513400E+02  0.32753104195E+03  0.34886638596E+03  0.00000000000E+00 0. -1.
          1    1    1    2  502    0  0.33230197841E+02 -0.11332234051E+02  0.23514402893E+04  0.23517023833E+04  0.00000000000E+00 0. -1.
         22    1    3    3    0    0 -0.24627191134E+01 -0.29331155496E+02  0.17363353716E+02  0.34174079657E+02  0.00000000000E+00 0. -1.
         22    1    3    3    0    0 -0.14816236138E+03  0.15175876146E+02  0.40617345877E+03  0.43261908321E+03  0.00000000000E+00 0. -1.
</event>
<event>
 7    1  0.7029100E-006  0.5178830E+02  0.7818608E-02  0.1441615E+00
          2   -1    0    0  502    0  0.00000000000E+00  0.00000000000E+00  0.56022756547E+03  0.56022756547E+03  0.00000000000E+00 0. -1.
          1   -1    0    0  501    0 -0.00000000000E+00 -0.00000000000E+00 -0.76290965255E+03  0.76290965255E+03  0.00000000000E+00 0. -1.
         25    2    1    2    0    0  0.56663307188E+02  0.38594110450E+02 -0.36013915826E+01  0.14261967543E+03  0.12500866392E+03 0.  0.
          2    1    1    2  501    0 -0.86397539815E+01 -0.51118989237E+02 -0.68756585545E+03  0.68951765894E+03  0.00000000000E+00 0. -1.
          1    1    1    2  502    0 -0.48023553207E+02  0.12524878787E+02  0.48848515995E+03  0.49099988365E+03  0.00000000000E+00 0. -1.
         22    1    3    3    0    0  0.91818257772E+02  0.48719855417E+02  0.79718331859E+01  0.10424858223E+03  0.00000000000E+00 0. -1.
         22    1    3    3    0    0 -0.35154950584E+02 -0.10125744967E+02 -0.11573224769E+02  0.38371093198E+02  0.00000000000E+00 0. -1.
</event>
<event>
 7    1  0.7029100E-006  0.5607027E+02  0.7818608E-02  0.1489965E+00
          2   -1    0    0  502    0  0.00000000000E+00  0.00000000000E+00  0.65229941431E+03  0.65229941431E+03  0.00000000000E+00 0. -1.
          1   -1    0    0  501    0 -0.00000000000E+00 -0.00000000000E+00 -0.76457544298E+03  0.76457544298E+03  0.00000000000E+00 0. -1.
         25    2    1    2    0    0  0.75366301768E+02  0.61152819838E+01 -0.16457431215E+03  0.22006172746E+03  0.12499993422E+03 0.  0.
          2    1    1    2  501    0 -0.49289470243E+02 -0.25264135346E+02 -0.57049638054E+03  0.57317872310E+03  0.00000000000E+00 0. -1.
          1    1    1    2  502    0 -0.26076831526E+02  0.19148853362E+02  0.62279466402E+03  0.62363440673E+03  0.00000000000E+00 0. -1.
         22    1    3    3    0    0  0.93781052114E+02  0.38453730132E+02 -0.14786229325E+03  0.17926748970E+03  0.00000000000E+00 0. -1.
         22    1    3    3    0    0 -0.18414750345E+02 -0.32338448148E+02 -0.16712018903E+02  0.40794237764E+02  0.00000000000E+00 0. -1.
</event>
<event>
 7    1  0.7029100E-006  0.1172308E+03  0.7818608E-02  0.1307368E+00
          2   -1    0    0  502    0  0.00000000000E+00  0.00000000000E+00  0.12460316800E+04  0.12460316800E+04  0.00000000000E+00 0. -1.
          1   -1    0    0  501    0 -0.00000000000E+00 -0.00000000000E+00 -0.68831087469E+03  0.68831087469E+03  0.00000000000E+00 0. -1.
         25    2    1    2    0    0  0.41054669482E+02  0.42478006336E+02  0.14404510126E+03  0.19966024598E+03  0.12500142287E+03 0.  0.
          2    1    1    2  501    0 -0.49952875516E+02 -0.10817747793E+03 -0.65409295682E+03  0.66485731752E+03  0.00000000000E+00 0. -1.
          1    1    1    2  502    0  0.88982060339E+01  0.65699471596E+02  0.10677686609E+04  0.10698249912E+04  0.00000000000E+00 0. -1.
         22    1    3    3    0    0  0.19906849486E+02 -0.30295473984E+02  0.11138988838E+03  0.11714011112E+03  0.00000000000E+00 0. -1.
         22    1    3    3    0    0  0.21147819996E+02  0.72773480320E+02  0.32655212874E+02  0.82520134854E+02  0.00000000000E+00 0. -1.
</event>
<event>
 7    1  0.7029100E-006  0.9666466E+02  0.7818608E-02  0.1401298E+00
          2   -1    0    0  502    0  0.00000000000E+00  0.00000000000E+00  0.31950552451E+04  0.31950552451E+04  0.00000000000E+00 0. -1.
          1   -1    0    0  501    0 -0.00000000000E+00 -0.00000000000E+00 -0.36537624920E+03  0.36537624920E+03  0.00000000000E+00 0. -1.
         25    2    1    2    0    0  0.99818313475E+02 -0.18640961487E+02  0.10143624211E+04  0.10270676766E+04  0.12500283919E+03 0.  0.
          2    1    1    2  501    0 -0.95117806640E+02 -0.17286188945E+02 -0.35236139960E+03  0.36538303929E+03  0.00000000000E+00 0. -1.
          1    1    1    2  502    0 -0.47005068356E+01  0.35927150432E+02  0.21676779744E+04  0.21679807784E+04  0.00000000000E+00 0. -1.
         22    1    3    3    0    0  0.35159760623E+01 -0.31464464974E+02  0.62381267444E+03  0.62461558373E+03  0.00000000000E+00 0. -1.
         22    1    3    3    0    0  0.96302337413E+02  0.12823503488E+02  0.39054974668E+03  0.40245209288E+03  0.00000000000E+00 0. -1.
</event>
<event>
 7    1  0.7029100E-006  0.9326861E+02  0.7818608E-02  0.1346359E+00
          2   -1    0    0  502    0  0.00000000000E+00  0.00000000000E+00  0.42298499703E+03  0.42298499703E+03  0.00000000000E+00 0. -1.
          1   -1    0    0  501    0 -0.00000000000E+00 -0.00000000000E+00 -0.14650552525E+03  0.14650552525E+03  0.00000000000E+00 0. -1.
         25    2    1    2    0    0 -0.76910056250E+02  0.12037604010E+03  0.20853079607E+03  0.28198601401E+03  0.12500188562E+03 0.  0.
          2    1    1    2  501    0  0.63972513231E+02 -0.62777475328E+02 -0.85020535242E+02  0.12353940776E+03  0.00000000000E+00 0. -1.
          1    1    1    2  502    0  0.12937543019E+02 -0.57598564772E+02  0.15296921096E+03  0.16396510051E+03  0.00000000000E+00 0. -1.
         22    1    3    3    0    0  0.20608411751E+02  0.75935929247E+02  0.60591003423E+02  0.99308819756E+02  0.00000000000E+00 0. -1.
         22    1    3    3    0    0 -0.97518468001E+02  0.44440110853E+02  0.14793979265E+03  0.18267719426E+03  0.00000000000E+00 0. -1.
</event>
<event>
 7    1  0.7029100E-006  0.8955409E+02  0.7818608E-02  0.1441936E+00
          2   -1    0    0  502    0  0.00000000000E+00  0.00000000000E+00  0.13045205401E+04  0.13045205401E+04  0.00000000000E+00 0. -1.
          1   -1    0    0  501    0 -0.00000000000E+00 -0.00000000000E+00 -0.10585490178E+04  0.10585490178E+04  0.00000000000E+00 0. -1.
         25    2    1    2    0    0 -0.55394373216E+02  0.53561586059E+02 -0.14620960197E+03  0.20722301582E+03  0.12500700178E+03 0.  0.
          2    1    1    2  501    0  0.13023432691E+02  0.25498571804E+02 -0.88002076338E+03  0.88048641724E+03  0.00000000000E+00 0. -1.
          1    1    1    2  502    0  0.42370940525E+02 -0.79060157864E+02  0.12722018876E+04  0.12753601248E+04  0.00000000000E+00 0. -1.
         22    1    3    3    0    0 -0.46354030116E+02 -0.18775713516E+02 -0.11957027453E+03  0.12960815591E+03  0.00000000000E+00 0. -1.
         22    1    3    3    0    0 -0.90403431003E+01  0.72337299576E+02 -0.26639327440E+02  0.77614859915E+02  0.00000000000E+00 0. -1.
</event>
<event>
 7    1  0.7029100E-006  0.5237803E+02  0.7818608E-02  0.1482071E+00
          2   -1    0    0  502    0  0.00000000000E+00  0.00000000000E+00  0.10519089374E+04  0.10519089374E+04  0.00000000000E+00 0. -1.
          1   -1    0    0  501    0 -0.00000000000E+00 -0.00000000000E+00 -0.67046091806E+03  0.67046091806E+03  0.00000000000E+00 0. -1.
         25    2    1    2    0    0  0.79470660459E+02  0.16369446638E+02  0.63578938697E+03  0.65302111873E+03  0.12499956911E+03 0.  0.
          2    1    1    2  501    0 -0.36312570042E+02  0.45939821279E+01 -0.65992384861E+03  0.66093811615E+03  0.00000000000E+00 0. -1.
          1    1    1    2  502    0 -0.43158090417E+02 -0.20963428766E+02  0.40558248099E+03  0.40841062058E+03  0.00000000000E+00 0. -1.
         22    1    3    3    0    0  0.82865587356E+02  0.61850448819E+02  0.44535450467E+03  0.45720107001E+03  0.00000000000E+00 0. -1.
         22    1    3    3    0    0 -0.33949268974E+01 -0.45481002181E+02  0.19043488230E+03  0.19582004873E+03  0.00000000000E+00 0. -1.
</event>
<event>
 7    1  0.7029100E-006  0.7081195E+02  0.7818608E-02  0.1437706E+00
          2   -1    0    0  502    0  0.00000000000E+00  0.00000000000E+00  0.93460293177E+02  0.93460293177E+02  0.00000000000E+00 0. -1.
          1   -1    0    0  501    0 -0.00000000000E+00 -0.00000000000E+00 -0.12741574465E+04  0.12741574465E+04  0.00000000000E+00 0. -1.
         25    2    1    2    0    0 -0.44677742262E+02 -0.42237352416E+02 -0.29653290212E+03  0.32762072845E+03  0.12499394017E+03 0.  0.
          2    1    1    2  501    0  0.70698594664E+02  0.15410877531E+02 -0.95615203109E+03  0.95888606883E+03  0.00000000000E+00 0. -1.
          1    1    1    2  502    0 -0.26020852402E+02  0.26826474885E+02  0.71987779917E+02  0.81110942368E+02  0.00000000000E+00 0. -1.
         22    1    3    3    0    0 -0.87828638369E+02 -0.17745964608E+02 -0.19600141795E+03  0.21551182060E+03  0.00000000000E+00 0. -1.
         22    1    3    3    0    0  0.43150896107E+02 -0.24491387808E+02 -0.10053148417E+03  0.11210890785E+03  0.00000000000E+00 0. -1.
</event>
<event>
 7    1  0.7029100E-006  0.5096223E+02  0.7818608E-02  0.1493437E+00
          2   -1    0    0  502    0  0.00000000000E+00  0.00000000000E+00  0.25060906145E+04  0.25060906145E+04  0.00000000000E+00 0. -1.
          1   -1    0    0  501    0 -0.00000000000E+00 -0.00000000000E+00 -0.80270820215E+02  0.80270820215E+02  0.00000000000E+00 0. -1.
         25    2    1    2    0    0  0.18836340827E+02 -0.10398987226E+02  0.14926056992E+03  0.19587034952E+03  0.12499411754E+03 0.  0.
          2    1    1    2  501    0 -0.53046309509E+02  0.43159740931E+01 -0.44376603921E+02  0.69295177036E+02  0.00000000000E+00 0. -1.
          1    1    1    2  502    0  0.34209968682E+02  0.60830131325E+01  0.23209358283E+04  0.23211959082E+04  0.00000000000E+00 0. -1.
         22    1    3    3    0    0  0.63295694660E+02 -0.13084073566E+02  0.35589481995E+02  0.73784477854E+02  0.00000000000E+00 0.  1.
         22    1    3    3    0    0 -0.44459353833E+02  0.26850863402E+01  0.11367108792E+03  0.12208587167E+03  0.00000000000E+00 0.  1.
</event>
<event>
 7    1  0.7029100E-006  0.5971199E+02  0.7818608E-02  0.1438577E+00
          2   -1    0    0  502    0  0.00000000000E+00  0.00000000000E+00  0.72790418345E+03  0.72790418345E+03  0.00000000000E+00 0. -1.
          1   -1    0    0  501    0 -0.00000000000E+00 -0.00000000000E+00 -0.29763563670E+03  0.29763563670E+03  0.00000000000E+00 0. -1.
         25    2    1    2    0    0 -0.14862456154E+02  0.14887650245E+02 -0.61732756297E+02  0.14099272648E+03  0.12500192393E+03 0.  0.
          2    1    1    2  501    0  0.42483374252E+02 -0.49179544709E+02 -0.19016397645E+03  0.20096219207E+03  0.00000000000E+00 0. -1.
          1    1    1    2  502    0 -0.27620918098E+02  0.34291894464E+02  0.68216527949E+03  0.68358490160E+03  0.00000000000E+00 0. -1.
         22    1    3    3    0    0  0.12351490998E+02 -0.51030676087E+02 -0.41321292941E+02  0.66814208683E+02  0.00000000000E+00 0.  1.
         22    1    3    3    0    0 -0.27213947152E+02  0.65918326331E+02 -0.20411463356E+02  0.74178517795E+02  0.00000000000E+00 0.  1.
</event>
<event>
 7    1  0.7029100E-006  0.2032234E+03  0.7818608E-02  0.1231893E+00
          2   -1    0    0  502    0  0.00000000000E+00  0.00000000000E+00  0.38882024838E+04  0.38882024838E+04  0.00000000000E+00 0. -1.
          1   -1    0    0  501    0 -0.00000000000E+00 -0.00000000000E+00 -0.11190252401E+03  0.11190252401E+03  0.00000000000E+00 0. -1.
         25    2    1    2    0    0 -0.11265324547E+03  0.25401476168E+03  0.45295780427E+03  0.54590374456E+03  0.12500349199E+03 0.  0.
          2    1    1    2  501    0  0.34929672305E+02 -0.71342322197E+02 -0.37261226023E+02  0.87739431891E+02  0.00000000000E+00 0. -1.
          1    1    1    2  502    0  0.77723573169E+02 -0.18267243948E+03  0.33606033815E+04  0.33664618313E+04  0.00000000000E+00 0. -1.
         22    1    3    3    0    0 -0.10963040919E+03  0.14868893451E+03  0.20207023286E+03  0.27378751775E+03  0.00000000000E+00 0. -1.
         22    1    3    3    0    0 -0.30228362823E+01  0.10532582717E+03  0.25088757141E+03  0.27211622681E+03  0.00000000000E+00 0. -1.
</event>
<event>
 7    1  0.7029100E-006  0.1354249E+03  0.7818608E-02  0.1364532E+00
          2   -1    0    0  502    0  0.00000000000E+00  0.00000000000E+00  0.12766977795E+04  0.12766977795E+04  0.00000000000E+00 0. -1.
          1   -1    0    0  501    0 -0.00000000000E+00 -0.00000000000E+00 -0.33247382514E+03  0.33247382514E+03  0.00000000000E+00 0. -1.
         25    2    1    2    0    0  0.97978741061E+02  0.29564549699E+02 -0.23001354178E+03  0.28107818411E+03  0.12499927951E+03 0.  0.
          2    1    1    2  501    0  0.34852763209E+02 -0.80604644996E+00 -0.69075443943E+02  0.77374296573E+02  0.00000000000E+00 0. -1.
          1    1    1    2  502    0 -0.13283150427E+03 -0.28758503249E+02  0.12433129400E+04  0.12507191239E+04  0.00000000000E+00 0. -1.
         22    1    3    3    0    0  0.64539459913E+01  0.11549089305E+02  0.14348599191E+02  0.19517099718E+02  0.00000000000E+00 0.  1.
         22    1    3    3    0    0  0.91524795069E+02  0.18015460394E+02 -0.24436214097E+03  0.26156108439E+03  0.00000000000E+00 0.  1.
</event>
<event>
 7    1  0.7029100E-006  0.1803011E+03  0.7818608E-02  0.1296123E+00
          2   -1    0    0  502    0  0.00000000000E+00  0.00000000000E+00  0.20441641456E+04  0.20441641456E+04  0.00000000000E+00 0. -1.
          1   -1    0    0  501    0 -0.00000000000E+00 -0.00000000000E+00 -0.23128963324E+04  0.23128963324E+04  0.00000000000E+00 0. -1.
         25    2    1    2    0    0 -0.21751153550E+03 -0.32266828987E+01  0.46042603749E+03  0.52434592254E+03  0.12499932369E+03 0.  0.
          2    1    1    2  501    0  0.17840715802E+03 -0.24266207440E+02 -0.22770137002E+04  0.22841211338E+04  0.00000000000E+00 0. -1.
          1    1    1    2  502    0  0.39104377483E+02  0.27492890339E+02  0.15478554759E+04  0.15485934217E+04  0.00000000000E+00 0. -1.
         22    1    3    3    0    0 -0.65458826596E+02 -0.40654354546E+02  0.71657536389E+02  0.10522564822E+03  0.00000000000E+00 0. -1.
         22    1    3    3    0    0 -0.15205270891E+03  0.37427671648E+02  0.38876850111E+03  0.41912027432E+03  0.00000000000E+00 0. -1.
</event>
<event>
 7    1  0.7029100E-006  0.9729627E+02  0.7818608E-02  0.1323195E+00
          2   -1    0    0  502    0  0.00000000000E+00  0.00000000000E+00  0.39077244810E+04  0.39077244810E+04  0.00000000000E+00 0. -1.
          1   -1    0    0  501    0 -0.00000000000E+00 -0.00000000000E+00 -0.53840869503E+03  0.53840869503E+03  0.00000000000E+00 0. -1.
         25    2    1    2    0    0 -0.45348492460E+02 -0.13897629701E+03  0.52234612961E+03  0.55663386531E+03  0.12499953596E+03 0.  0.
          2    1    1    2  501    0 -0.94035214050E+01  0.96531587227E+02 -0.51639352563E+03  0.52542273158E+03  0.00000000000E+00 0. -1.
          1    1    1    2  502    0  0.54752013865E+02  0.42444709786E+02  0.33633631819E+04  0.33640765791E+04  0.00000000000E+00 0. -1.
         22    1    3    3    0    0 -0.14303542277E+02 -0.33705302790E+02  0.18596300713E+02  0.41066545485E+02  0.00000000000E+00 0.  1.
         22    1    3    3    0    0 -0.31044950183E+02 -0.10527099422E+03  0.50374982890E+03  0.51556731982E+03  0.00000000000E+00 0.  1.
</event>
<event>
 7    1  0.7029100E-006  0.1402018E+03  0.7818608E-02  0.1292794E+00
          2   -1    0    0  502    0  0.00000000000E+00  0.00000000000E+00  0.21554117753E+04  0.21554117753E+04  0.00000000000E+00 0. -1.
          1   -1    0    0  501    0 -0.00000000000E+00 -0.00000000000E+00 -0.90163272689E+02  0.90163272689E+02  0.00000000000E+00 0. -1.
         25    2    1    2    0    0 -0.90603629320E+02  0.51699704584E+02  0.36024705832E+03  0.39532751973E+03  0.12499611085E+03 0.  0.
          2    1    1    2  501    0  0.94307942404E+02 -0.11499794805E+03  0.47340644547E+01  0.14879827762E+03  0.00000000000E+00 0. -1.
          1    1    1    2  502    0 -0.37043130845E+01  0.63298243467E+02  0.17002673798E+04  0.17014492506E+04  0.00000000000E+00 0. -1.
         22    1    3    3    0    0 -0.69351392157E+02 -0.24820241557E+02  0.24140475783E+03  0.25239238714E+03  0.00000000000E+00 0.  1.
         22    1    3    3    0    0 -0.21252237163E+02  0.76519946141E+02  0.11884230049E+03  0.14293513259E+03  0.00000000000E+00 0.  1.
</event>
<event>
 7    1  0.7029100E-006  0.7499423E+02  0.7818608E-02  0.1357836E+00
          2   -1    0    0  502    0  0.00000000000E+00  0.00000000000E+00  0.93870989480E+03  0.93870989480E+03  0.00000000000E+00 0. -1.
          1   -1    0    0  501    0 -0.00000000000E+00 -0.00000000000E+00 -0.19457207518E+03  0.19457207518E+03  0.00000000000E+00 0. -1.
         25    2    1    2    0    0  0.18429791530E+02  0.13823460322E+03  0.33406676289E+03  0.38297478596E+03  0.12498248628E+03 0.  0.
          2    1    1    2  501    0 -0.27767621716E+01 -0.73508958617E+02 -0.16013657527E+03  0.17622428932E+03  0.00000000000E+00 0. -1.
          1    1    1    2  502    0 -0.15653029358E+02 -0.64725644599E+02  0.57020763201E+03  0.57408289471E+03  0.00000000000E+00 0. -1.
         22    1    3    3    0    0 -0.23267889168E+02  0.36605574949E+02  0.15600129741E+02  0.46094759265E+02  0.00000000000E+00 0. -1.
         22    1    3    3    0    0  0.41697680698E+02  0.10162902827E+03  0.31846663314E+03  0.33688002670E+03  0.00000000000E+00 0. -1.
</event>
<event>
 7    1  0.7029100E-006  0.1583754E+03  0.7818608E-02  0.1298871E+00
          2   -1    0    0  502    0  0.00000000000E+00  0.00000000000E+00  0.10665294746E+04  0.10665294746E+04  0.00000000000E+00 0. -1.
          1   -1    0    0  501    0 -0.00000000000E+00 -0.00000000000E+00 -0.19516545926E+04  0.19516545926E+04  0.00000000000E+00 0. -1.
         25    2    1    2    0    0 -0.11196389299E+03 -0.25072763744E+02  0.41676161733E+03  0.44997706344E+03  0.12499822049E+03 0.  0.
          2    1    1    2  501    0  0.15872410429E+03  0.10239880296E-01 -0.19306730197E+04  0.19371865296E+04  0.00000000000E+00 0. -1.
          1    1    1    2  502    0 -0.46760211298E+02  0.25062523864E+02  0.62878628433E+03  0.63102047417E+03  0.00000000000E+00 0. -1.
         22    1    3    3    0    0 -0.37900534958E+02 -0.71807604069E+02  0.22373598172E+03  0.23801380647E+03  0.00000000000E+00 0.  1.
         22    1    3    3    0    0 -0.74063358029E+02  0.46734840325E+02  0.19302563561E+03  0.21196325697E+03  0.00000000000E+00 0.  1.
</event>
<event>
 7    1  0.7029100E-006  0.8258478E+02  0.7818608E-02  0.1440181E+00
          2   -1    0    0  502    0  0.00000000000E+00  0.00000000000E+00  0.12961925916E+04  0.12961925916E+04  0.00000000000E+00 0. -1.
          1   -1    0    0  501    0 -0.00000000000E+00 -0.00000000000E+00 -0.79907380439E+03  0.79907380439E+03  0.00000000000E+00 0. -1.
         25    2    1    2    0    0 -0.29410766445E+02 -0.10721801159E+03  0.37381155393E+03  0.40953715096E+03  0.12499961990E+03 0.  0.
          2    1    1    2  501    0  0.97425080602E+01  0.29910602768E+02 -0.77913425127E+03  0.77976903127E+03  0.00000000000E+00 0. -1.
          1    1    1    2  502    0  0.19668258384E+02  0.77307408820E+02  0.90244148455E+03  0.90596021374E+03  0.00000000000E+00 0. -1.
         22    1    3    3    0    0  0.17442855530E+02 -0.43728271948E+02  0.27867734828E+02  0.54708551626E+02  0.00000000000E+00 0. -1.
         22    1    3    3    0    0 -0.46853621974E+02 -0.63489739640E+02  0.34594381910E+03  0.35482859934E+03  0.00000000000E+00 0. -1.
</event>
<event>
 7    1  0.7029100E-006  0.3455554E+02  0.7818608E-02  0.1604098E+00
          2   -1    0    0  502    0  0.00000000000E+00  0.00000000000E+00  0.15155272538E+03  0.15155272538E+03  0.00000000000E+00 0. -1.
          1   -1    0    0  501    0 -0.00000000000E+00 -0.00000000000E+00 -0.31784683476E+03  0.31784683476E+03  0.00000000000E+00 0. -1.
         25    2    1    2    0    0  0.43973303170E+02  0.17585948421E+01 -0.19367317159E+03  0.23467223733E+03  0.12500007012E+03 0.  0.
          2    1    1    2  501    0 -0.14823577813E+02 -0.20281741072E+02 -0.99814969641E+02  0.10292772049E+03  0.00000000000E+00 0. -1.
          1    1    1    2  502    0 -0.29149725357E+02  0.18523146230E+02  0.12719403185E+03  0.13179960233E+03  0.00000000000E+00 0. -1.
         22    1    3    3    0    0  0.78156220323E+01 -0.25006519667E+02  0.85083721545E+01  0.27546367643E+02  0.00000000000E+00 0.  1.
         22    1    3    3    0    0  0.36157681138E+02  0.26765114509E+02 -0.20218154375E+03  0.20712586968E+03  0.00000000000E+00 0.  1.
</event>
<event>
 7    1  0.7029100E-006  0.1505886E+03  0.7818608E-02  0.1207865E+00
          2   -1    0    0  502    0  0.00000000000E+00  0.00000000000E+00  0.92803703898E+03  0.92803703898E+03  0.00000000000E+00 0. -1.
          1   -1    0    0  501    0 -0.00000000000E+00 -0.00000000000E+00 -0.56088457168E+03  0.56088457168E+03  0.00000000000E+00 0. -1.
         25    2    1    2    0    0  0.12086762871E+03  0.40807751241E+02  0.84613714161E+02  0.19761344754E+03  0.12496934741E+03 0.  0.
          2    1    1    2  501    0 -0.39664528474E+02 -0.15234627856E+03 -0.48580530153E+03  0.51067548836E+03  0.00000000000E+00 0. -1.
          1    1    1    2  502    0 -0.81203100239E+02  0.11153852732E+03  0.76834405467E+03  0.78063267477E+03  0.00000000000E+00 0. -1.
         22    1    3    3    0    0  0.94616425773E+02  0.84876265951E+02  0.64265954791E+02  0.14243019867E+03  0.00000000000E+00 0.  1.
         22    1    3    3    0    0  0.26251202941E+02 -0.44068514710E+02  0.20347759370E+02  0.55183248871E+02  0.00000000000E+00 0.  1.
</event>
<event>
 7    1  0.7108439E-006  0.5789461E+02  0.7818608E-02  0.1424129E+00
          2   -1    0    0  502    0  0.00000000000E+00  0.00000000000E+00  0.62313509524E+03  0.62313509524E+03  0.00000000000E+00 0. -1.
          1   -1    0    0  501    0 -0.00000000000E+00 -0.00000000000E+00 -0.11320595102E+04  0.11320595102E+04  0.00000000000E+00 0. -1.
         25    2    1    2    0    0 -0.13396366759E+02 -0.59203448196E+02 -0.40563296206E+03  0.42877542683E+03  0.12500302326E+03 0.  0.
          2    1    1    2  501    0  0.52968429815E+02  0.27572423761E+02 -0.71255512183E+03  0.71505293143E+03  0.00000000000E+00 0. -1.
          1    1    1    2  502    0 -0.39572063056E+02  0.31631024435E+02  0.60926366894E+03  0.61136624717E+03  0.00000000000E+00 0. -1.
         22    1    3    3    0    0  0.29215541084E+02 -0.31600510801E+02 -0.35311767763E+03  0.35573056431E+03  0.00000000000E+00 0.  1.
         22    1    3    3    0    0 -0.42611907844E+02 -0.27602937395E+02 -0.52515284425E+02  0.73044862524E+02  0.00000000000E+00 0.  1.
</event>
<event>
 7    1  0.1258542E-005  0.6017741E+02  0.7818608E-02  0.1486360E+00
          2   -1    0    0  502    0  0.00000000000E+00  0.00000000000E+00  0.15068880664E+04  0.15068880664E+04  0.00000000000E+00 0. -1.
          1   -1    0    0  501    0 -0.00000000000E+00 -0.00000000000E+00 -0.96012424607E+03  0.96012424607E+03  0.00000000000E+00 0. -1.
         25    2    1    2    0    0  0.66904558588E+02 -0.35433247117E+02 -0.44498497336E+03  0.46836717176E+03  0.12499778442E+03 0.  0.
          2    1    1    2  501    0 -0.28831209112E+02 -0.11152248769E+02 -0.50236764066E+03  0.50331784953E+03  0.00000000000E+00 0. -1.
          1    1    1    2  502    0 -0.38073349476E+02  0.46585495885E+02  0.14941164344E+04  0.14953272912E+04  0.00000000000E+00 0. -1.
         22    1    3    3    0    0 -0.20447796997E+02 -0.45963899841E+02 -0.95066992551E+02  0.10755708049E+03  0.00000000000E+00 0.  1.
         22    1    3    3    0    0  0.87352355585E+02  0.10530652724E+02 -0.34991798081E+03  0.36081009127E+03  0.00000000000E+00 0.  1.
</event>
<event>
 7    1  0.7029100E-006  0.1182957E+03  0.7818608E-02  0.1317472E+00
          2   -1    0    0  502    0  0.00000000000E+00  0.00000000000E+00  0.37314267310E+03  0.37314267310E+03  0.00000000000E+00 0. -1.
          1   -1    0    0  501    0 -0.00000000000E+00 -0.00000000000E+00 -0.14807100340E+04  0.14807100340E+04  0.00000000000E+00 0. -1.
         25    2    1    2    0    0  0.31291349992E+02  0.14362794555E+03 -0.33954754648E+03  0.39054536603E+03  0.12500004513E+03 0.  0.
          2    1    1    2  501    0  0.20937886499E+02 -0.11416386381E+03 -0.11100290154E+04  0.11160807309E+04  0.00000000000E+00 0. -1.
          1    1    1    2  502    0 -0.52229236491E+02 -0.29464081742E+02  0.34200920097E+03  0.34722661017E+03  0.00000000000E+00 0. -1.
         22    1    3    3    0    0 -0.47191383980E+02  0.63319707009E+02 -0.16617962963E+03  0.18398935111E+03  0.00000000000E+00 0. -1.
         22    1    3    3    0    0  0.78482733971E+02  0.80308238542E+02 -0.17336791685E+03  0.20655601493E+03  0.00000000000E+00 0. -1.
</event>
<event>
 7    1  0.7029100E-006  0.7264313E+02  0.7818608E-02  0.1392964E+00
          2   -1    0    0  502    0  0.00000000000E+00  0.00000000000E+00  0.19131424485E+04  0.19131424485E+04  0.00000000000E+00 0. -1.
          1   -1    0    0  501    0 -0.00000000000E+00 -0.00000000000E+00 -0.19004553762E+03  0.19004553762E+03  0.00000000000E+00 0. -1.
         25    2    1    2    0    0  0.38328354455E+01 -0.95514634926E+02  0.96634131768E+01  0.15765854192E+03  0.12500039269E+03 0.  0.
          2    1    1    2  501    0  0.37182978909E+02  0.35658900757E+02 -0.10957270806E+03  0.12107976493E+03  0.00000000000E+00 0. -1.
          1    1    1    2  502    0 -0.41015814355E+02  0.59855734169E+02  0.18230062058E+04  0.18244496793E+04  0.00000000000E+00 0. -1.
         22    1    3    3    0    0  0.20248583532E+02 -0.56812493821E+02 -0.54274473104E+02  0.81138049150E+02  0.00000000000E+00 0. -1.
         22    1    3    3    0    0 -0.16415748087E+02 -0.38702141105E+02  0.63937886280E+02  0.76520492767E+02  0.00000000000E+00 0. -1.
</event>
<event>
 7    1  0.7029100E-006  0.1522456E+03  0.7818608E-02  0.1296949E+00
          2   -1    0    0  502    0  0.00000000000E+00  0.00000000000E+00  0.22062236099E+04  0.22062236099E+04  0.00000000000E+00 0. -1.
          1   -1    0    0  501    0 -0.00000000000E+00 -0.00000000000E+00 -0.50013071294E+03  0.50013071294E+03  0.00000000000E+00 0. -1.
         25    2    1    2    0    0  0.12695160752E+03 -0.19973034341E+02 -0.13936546479E+02  0.17982180584E+03  0.12500408704E+03 0.  0.
          2    1    1    2  501    0 -0.15524493731E+03 -0.28561101655E+02 -0.38741546951E+03  0.41833894524E+03  0.00000000000E+00 0. -1.
          1    1    1    2  502    0  0.28293329799E+02  0.48534135996E+02  0.21074449129E+04  0.21081935717E+04  0.00000000000E+00 0. -1.
         22    1    3    3    0    0 -0.18161327279E+02  0.21593261293E+02 -0.45674582106E+01  0.28582589391E+02  0.00000000000E+00 0. -1.
         22    1    3    3    0    0  0.14511293480E+03 -0.41566295634E+02 -0.93690882687E+01  0.15123921645E+03  0.00000000000E+00 0. -1.
</event>
<event>
 7    1  0.7029100E-006  0.1142829E+03  0.7818608E-02  0.1292470E+00
          2   -1    0    0  502    0  0.00000000000E+00  0.00000000000E+00  0.13185494648E+04  0.13185494648E+04  0.00000000000E+00 0. -1.
          1   -1    0    0  501    0 -0.00000000000E+00 -0.00000000000E+00 -0.39934442807E+03  0.39934442807E+03  0.00000000000E+00 0. -1.
         25    2    1    2    0    0 -0.16187559724E+03 -0.76178928408E+02  0.19471643969E+03  0.29248440088E+03  0.12500277901E+03 0.  0.
          2    1    1    2  501    0  0.52596300136E+02  0.57628952712E+02 -0.34321308049E+03  0.35196972256E+03  0.00000000000E+00 0. -1.
          1    1    1    2  502    0  0.10927929710E+03  0.18549975697E+02  0.10677016775E+04  0.10734397694E+04  0.00000000000E+00 0. -1.
         22    1    3    3    0    0 -0.12352225523E+03 -0.10993364226E+03  0.13194267300E+03  0.21154673762E+03  0.00000000000E+00 0.  1.
         22    1    3    3    0    0 -0.38353342002E+02  0.33754713853E+02  0.62773766691E+02  0.80937663264E+02  0.00000000000E+00 0.  1.
</event>
<event>
 7    1  0.7029100E-006  0.8423374E+02  0.7818608E-02  0.1487486E+00
          2   -1    0    0  502    0  0.00000000000E+00  0.00000000000E+00  0.76159636230E+03  0.76159636230E+03  0.00000000000E+00 0. -1.
          1   -1    0    0  501    0 -0.00000000000E+00 -0.00000000000E+00 -0.79639348439E+03  0.79639348439E+03  0.00000000000E+00 0. -1.
         25    2    1    2    0    0 -0.88391139238E+02  0.57730539136E+02  0.67143174943E+02  0.17686512097E+03  0.12500902540E+03 0.  0.
          2    1    1    2  501    0  0.71428958702E+02 -0.43860164503E+02 -0.73897487299E+03  0.74371343478E+03  0.00000000000E+00 0. -1.
          1    1    1    2  502    0  0.16962180535E+02 -0.13870374633E+02  0.63703457595E+03  0.63741129094E+03  0.00000000000E+00 0. -1.
         22    1    3    3    0    0  0.15013520830E+01  0.45828573827E+02  0.72772394778E+02  0.86013566830E+02  0.00000000000E+00 0.  1.
         22    1    3    3    0    0 -0.89892491321E+02  0.11901965309E+02 -0.56292198357E+01  0.90851554142E+02  0.00000000000E+00 0.  1.
</event>
<event>
 7    1  0.7029100E-006  0.1565433E+03  0.7818608E-02  0.1359884E+00
          2   -1    0    0  502    0  0.00000000000E+00  0.00000000000E+00  0.11653425692E+04  0.11653425692E+04  0.00000000000E+00 0. -1.
          1   -1    0    0  501    0 -0.00000000000E+00 -0.00000000000E+00 -0.32396669116E+03  0.32396669116E+03  0.00000000000E+00 0. -1.
         25    2    1    2    0    0  0.59645535006E+02  0.14402656602E+03  0.44374669089E+03  0.48665873090E+03  0.12499741247E+03 0.  0.
          2    1    1    2  501    0 -0.29861619797E+02 -0.15383166193E+03 -0.28183140005E+03  0.32246679613E+03  0.00000000000E+00 0. -1.
          1    1    1    2  502    0 -0.29783915209E+02  0.98050959097E+01  0.67946058722E+03  0.68018373333E+03  0.00000000000E+00 0. -1.
         22    1    3    3    0    0  0.77927789440E+02  0.62907580881E+02  0.33568761522E+03  0.35030883390E+03  0.00000000000E+00 0.  1.
         22    1    3    3    0    0 -0.18282254434E+02  0.81118985142E+02  0.10805907567E+03  0.13634989700E+03  0.00000000000E+00 0.  1.
</event>
<event>
 7    1  0.7029100E-006  0.8111503E+02  0.7818608E-02  0.1422273E+00
          2   -1    0    0  502    0  0.00000000000E+00  0.00000000000E+00  0.17694156935E+04  0.17694156935E+04  0.00000000000E+00 0. -1.
          1   -1    0    0  501    0 -0.00000000000E+00 -0.00000000000E+00 -0.12817077982E+04  0.12817077982E+04  0.00000000000E+00 0. -1.
         25    2    1    2    0    0  0.92278376236E+02  0.34813513408E+02  0.41667192989E+03  0.44605729797E+03  0.12499734587E+03 0.  0.
          2    1    1    2  501    0 -0.31968078748E+02  0.17976001292E+02 -0.12655489526E+04  0.12660802685E+04  0.00000000000E+00 0. -1.
          1    1    1    2  502    0 -0.60310297489E+02 -0.52789514700E+02  0.13365849180E+04  0.13389859252E+04  0.00000000000E+00 0. -1.
         22    1    3    3    0    0  0.90832584938E+02  0.19042966520E+02  0.13433235615E+03  0.16327392618E+03  0.00000000000E+00 0.  1.
         22    1    3    3    0    0  0.14457912980E+01  0.15770546888E+02  0.28233957374E+03  0.28278337179E+03  0.00000000000E+00 0.  1.
</event>
<event>
 7    1  0.7029100E-006  0.5248295E+02  0.7818608E-02  0.1455811E+00
          2   -1    0    0  502    0  0.00000000000E+00  0.00000000000E+00  0.25774870066E+04  0.25774870066E+04  0.00000000000E+00 0. -1.
          1   -1    0    0  501    0 -0.00000000000E+00 -0.00000000000E+00 -0.95648428239E+03  0.95648428239E+03  0.00000000000E+00 0. -1.
         25    2    1    2    0    0  0.36110985679E+02 -0.63886167352E+02  0.20976981635E+03  0.25497734513E+03  0.12499850004E+03 0.  0.
          2    1    1    2  501    0 -0.47903115676E+02  0.21390565202E+02 -0.93293616869E+03  0.93441005968E+03  0.00000000000E+00 0. -1.
          1    1    1    2  502    0  0.11792129997E+02  0.42495602149E+02  0.23441690765E+04  0.23445838842E+04  0.00000000000E+00 0. -1.
         22    1    3    3    0    0  0.79679065340E+02 -0.26976747535E+02  0.15215177917E+03  0.17385816710E+03  0.00000000000E+00 0.  1.
         22    1    3    3    0    0 -0.43568079661E+02 -0.36909419817E+02  0.57618037181E+02  0.81119178035E+02  0.00000000000E+00 0.  1.
</event>
<event>
 7    1  0.7029100E-006  0.5380761E+02  0.7818608E-02  0.1499521E+00
          2   -1    0    0  502    0  0.00000000000E+00  0.00000000000E+00  0.90419468035E+03  0.90419468035E+03  0.00000000000E+00 0. -1.
          1   -1    0    0  501    0 -0.00000000000E+00 -0.00000000000E+00 -0.30359087349E+03  0.30359087349E+03  0.00000000000E+00 0. -1.
         25    2    1    2    0    0  0.35908823785E+02 -0.12963139239E+02  0.30085274590E+03  0.32801729396E+03  0.12500193526E+03 0.  0.
          2    1    1    2  501    0 -0.52109607302E+02 -0.14115913817E+02 -0.28706844474E+03  0.29210094516E+03  0.00000000000E+00 0. -1.
          1    1    1    2  502    0  0.16200783517E+02  0.27079053055E+02  0.58681950570E+03  0.58766731471E+03  0.00000000000E+00 0. -1.
         22    1    3    3    0    0  0.44079432174E+02  0.79754468831E+01  0.30219877632E+03  0.30550074387E+03  0.00000000000E+00 0.  1.
         22    1    3    3    0    0 -0.81706083890E+01 -0.20938586122E+02 -0.13460304229E+01  0.22516550094E+02  0.00000000000E+00 0.  1.
</event>
<event>
 7    1  0.7029100E-006  0.1220043E+03  0.7818608E-02  0.1258761E+00
          2   -1    0    0  502    0  0.00000000000E+00  0.00000000000E+00  0.68255034679E+03  0.68255034679E+03  0.00000000000E+00 0. -1.
          1   -1    0    0  501    0 -0.00000000000E+00 -0.00000000000E+00 -0.13793834829E+04  0.13793834829E+04  0.00000000000E+00 0. -1.
         25    2    1    2    0    0 -0.41152979325E+01  0.18489170634E+03 -0.34902338722E+03  0.41429934197E+03  0.12499896472E+03 0.  0.
          2    1    1    2  501    0 -0.55630655538E+02 -0.10351177984E+03 -0.99030644460E+03  0.99725438711E+03  0.00000000000E+00 0. -1.
          1    1    1    2  502    0  0.59745953471E+02 -0.81379926494E+02  0.64249669566E+03  0.65038010065E+03  0.00000000000E+00 0. -1.
         22    1    3    3    0    0  0.22383862731E+01  0.56893833020E+02 -0.18608551786E+02  0.59901559315E+02  0.00000000000E+00 0. -1.
         22    1    3    3    0    0 -0.63536842056E+01  0.12799787332E+03 -0.33041483543E+03  0.35439778265E+03  0.00000000000E+00 0. -1.
</event>
<event>
 7    1  0.7029100E-006  0.9863072E+02  0.7818608E-02  0.1351861E+00
          2   -1    0    0  502    0  0.00000000000E+00  0.00000000000E+00  0.16467160049E+04  0.16467160049E+04  0.00000000000E+00 0. -1.
          1   -1    0    0  501    0 -0.00000000000E+00 -0.00000000000E+00 -0.57677385575E+03  0.57677385575E+03  0.00000000000E+00 0. -1.
         25    2    1    2    0    0 -0.67265190387E+02 -0.25475363632E+02  0.17915309340E+02  0.14532851088E+03  0.12500327106E+03 0.  0.
          2    1    1    2  501    0 -0.30625033885E+02  0.43575942788E+02 -0.51009632417E+03  0.51286939412E+03  0.00000000000E+00 0. -1.
          1    1    1    2  502    0  0.97890224272E+02 -0.18100579156E+02  0.15621231639E+04  0.15652919556E+04  0.00000000000E+00 0. -1.
         22    1    3    3    0    0 -0.85697987071E+02  0.19034278882E+02 -0.12026701759E+02  0.88606378528E+02  0.00000000000E+00 0.  1.
         22    1    3    3    0    0  0.18432796685E+02 -0.44509642513E+02  0.29942011098E+02  0.56722132355E+02  0.00000000000E+00 0.  1.
</event>
<event>
 7    1  0.7029100E-006  0.5866450E+02  0.7818608E-02  0.1410841E+00
          2   -1    0    0  502    0  0.00000000000E+00  0.00000000000E+00  0.77313033702E+03  0.77313033702E+03  0.00000000000E+00 0. -1.
          1   -1    0    0  501    0 -0.00000000000E+00 -0.00000000000E+00 -0.14084910292E+04  0.14084910292E+04  0.00000000000E+00 0. -1.
         25    2    1    2    0    0  0.14302761323E+02  0.28897527656E+01  0.42503146216E+03  0.44326645064E+03  0.12498192981E+03 0.  0.
          2    1    1    2  501    0  0.58604305812E+02  0.26567582741E+01 -0.13948069320E+04  0.13960400784E+04  0.00000000000E+00 0. -1.
          1    1    1    2  502    0 -0.72907067135E+02 -0.55465110397E+01  0.33441477766E+03  0.34231483716E+03  0.00000000000E+00 0. -1.
         22    1    3    3    0    0  0.65810244340E+02  0.19997038623E+02  0.28246046102E+03  0.29071426152E+03  0.00000000000E+00 0.  1.
         22    1    3    3    0    0 -0.51507483017E+02 -0.17107285858E+02  0.14257100115E+03  0.15255218912E+03  0.00000000000E+00 0.  1.
</event>
<event>
 7    1  0.7029100E-006  0.1939125E+03  0.7818608E-02  0.1298984E+00
          2   -1    0    0  502    0  0.00000000000E+00  0.00000000000E+00  0.55944602072E+03  0.55944602072E+03  0.00000000000E+00 0. -1.
          1   -1    0    0  501    0 -0.00000000000E+00 -0.00000000000E+00 -0.13022042225E+04  0.13022042225E+04  0.00000000000E+00 0. -1.
         25    2    1    2    0    0 -0.10089819904E+03 -0.18200183916E+03 -0.22019516122E+01  0.24276421956E+03  0.12499800671E+03 0.  0.
          2    1    1    2  501    0  0.12585662250E+03  0.14663683122E+03 -0.11707143174E+04  0.11865556298E+04  0.00000000000E+00 0. -1.
          1    1    1    2  502    0 -0.24958423461E+02  0.35365007939E+02  0.43015806719E+03  0.43233039386E+03  0.00000000000E+00 0. -1.
         22    1    3    3    0    0  0.20078103092E+02 -0.80350342295E+02 -0.15248422248E+02  0.84212956912E+02  0.00000000000E+00 0.  1.
         22    1    3    3    0    0 -0.12097630213E+03 -0.10165149687E+03  0.13046470636E+02  0.15855126265E+03  0.00000000000E+00 0.  1.
</event>
<event>
 7    1  0.7029100E-006  0.7783704E+02  0.7818608E-02  0.1479161E+00
          2   -1    0    0  502    0  0.00000000000E+00  0.00000000000E+00  0.32942466157E+03  0.32942466157E+03  0.00000000000E+00 0. -1.
          1   -1    0    0  501    0 -0.00000000000E+00 -0.00000000000E+00 -0.34263640242E+03  0.34263640242E+03  0.00000000000E+00 0. -1.
         25    2    1    2    0    0  0.81747120376E+02 -0.55150515802E+02  0.44726996023E+02  0.16537427366E+03  0.12499590046E+03 0.  0.
          2    1    1    2  501    0 -0.14382482449E+02  0.20621027823E+02 -0.27533896204E+03  0.27648440572E+03  0.00000000000E+00 0. -1.
          1    1    1    2  502    0 -0.67364637928E+02  0.34529487978E+02  0.21740022516E+03  0.23020238462E+03  0.00000000000E+00 0. -1.
         22    1    3    3    0    0  0.11235917735E+03 -0.39999828970E+02  0.15212890363E+02  0.12023311975E+03  0.00000000000E+00 0.  1.
         22    1    3    3    0    0 -0.30612056969E+02 -0.15150686832E+02  0.29514105660E+02  0.45141153909E+02  0.00000000000E+00 0.  1.
</event>
<event>
 7    1  0.7029100E-006  0.6175940E+02  0.7818608E-02  0.1392876E+00
          2   -1    0    0  502    0  0.00000000000E+00  0.00000000000E+00  0.12354117821E+04  0.12354117821E+04  0.00000000000E+00 0. -1.
          1   -1    0    0  501    0 -0.00000000000E+00 -0.00000000000E+00 -0.74977753591E+02  0.74977753591E+02  0.00000000000E+00 0. -1.
         25    2    1    2    0    0 -0.14440289165E+02 -0.50206784430E+01  0.14055361521E+03  0.18871238600E+03  0.12499326669E+03 0.  0.
          2    1    1    2  501    0  0.24596132433E+02  0.64804126496E+02 -0.26007087944E+02  0.74033189618E+02  0.00000000000E+00 0. -1.
          1    1    1    2  502    0 -0.10155843268E+02 -0.59783448053E+02  0.10458875012E+04  0.10476439600E+04  0.00000000000E+00 0. -1.
         22    1    3    3    0    0  0.16193600653E+02 -0.35414208863E+02  0.14025249018E+03  0.14555809800E+03  0.00000000000E+00 0.  1.
         22    1    3    3    0    0 -0.30633889818E+02  0.30393530420E+02  0.30112502939E+00  0.43154288003E+02  0.00000000000E+00 0.  1.
</event>
<event>
 7    1  0.7029100E-006  0.3774345E+02  0.7818608E-02  0.1532176E+00
          2   -1    0    0  502    0  0.00000000000E+00  0.00000000000E+00  0.21422808752E+04  0.21422808752E+04  0.00000000000E+00 0. -1.
          1   -1    0    0  501    0 -0.00000000000E+00 -0.00000000000E+00 -0.10076866467E+04  0.10076866467E+04  0.00000000000E+00 0. -1.
         25    2    1    2    0    0 -0.47737602283E+02 -0.12572866314E+02  0.27644791797E+03  0.30738514726E+03  0.12500088706E+03 0.  0.
          2    1    1    2  501    0  0.29657888597E+02 -0.20610470431E+02 -0.99169634447E+03  0.99235377839E+03  0.00000000000E+00 0. -1.
          1    1    1    2  502    0  0.18079713687E+02  0.33183336745E+02  0.18498426551E+04  0.18502285963E+04  0.00000000000E+00 0. -1.
         22    1    3    3    0    0 -0.20198250716E+02 -0.53692600918E+02  0.23771858302E+03  0.24454240826E+03  0.00000000000E+00 0.  1.
         22    1    3    3    0    0 -0.27539351568E+02  0.41119734604E+02  0.38729334943E+02  0.62842738991E+02  0.00000000000E+00 0.  1.
</event>
<event>
 7    1  0.7029100E-006  0.4866499E+02  0.7818608E-02  0.1463836E+00
          2   -1    0    0  502    0  0.00000000000E+00  0.00000000000E+00  0.13918723119E+03  0.13918723119E+03  0.00000000000E+00 0. -1.
          1   -1    0    0  501    0 -0.00000000000E+00 -0.00000000000E+00 -0.86779291002E+03  0.86779291002E+03  0.00000000000E+00 0. -1.
         25    2    1    2    0    0  0.28869187260E+02  0.61351741096E+02 -0.27619550999E+03  0.31063760224E+03  0.12495716898E+03 0.  0.
          2    1    1    2  501    0 -0.42407608627E+02 -0.14652175024E+02 -0.56861137974E+03  0.57037881506E+03  0.00000000000E+00 0. -1.
          1    1    1    2  502    0  0.13538421367E+02 -0.46699566072E+02  0.11620121090E+03  0.12596372390E+03  0.00000000000E+00 0. -1.
         22    1    3    3    0    0 -0.55541290418E+00  0.43126709803E+02 -0.12816716649E+02  0.44994330838E+02  0.00000000000E+00 0.  1.
         22    1    3    3    0    0  0.29424600164E+02  0.18225031293E+02 -0.26337879334E+03  0.26564327140E+03  0.00000000000E+00 0.  1.
</event>
<event>
 7    1  0.7029100E-006  0.9065873E+02  0.7818608E-02  0.1348003E+00
          2   -1    0    0  502    0  0.00000000000E+00  0.00000000000E+00  0.46708165807E+03  0.46708165807E+03  0.00000000000E+00 0. -1.
          1   -1    0    0  501    0 -0.00000000000E+00 -0.00000000000E+00 -0.35831934041E+03  0.35831934041E+03  0.00000000000E+00 0. -1.
         25    2    1    2    0    0 -0.60019923472E+02 -0.40930684599E+02  0.10955161155E+02  0.14499217250E+03  0.12500000950E+03 0.  0.
          2    1    1    2  501    0  0.26072041656E+02  0.90262061891E+02 -0.28131358390E+03  0.29658780093E+03  0.00000000000E+00 0. -1.
          1    1    1    2  502    0  0.33947881817E+02 -0.49331377292E+02  0.37912074040E+03  0.38382102505E+03  0.00000000000E+00 0. -1.
         22    1    3    3    0    0  0.44083797904E+01 -0.52029707874E+02 -0.36928438223E+02  0.63954936193E+02  0.00000000000E+00 0. -1.
         22    1    3    3    0    0 -0.64428303263E+02  0.11099023275E+02  0.47883599378E+02  0.81037236308E+02  0.00000000000E+00 0. -1.
</event>
<event>
 7    1  0.7029100E-006  0.5312176E+02  0.7818608E-02  0.1447587E+00
          2   -1    0    0  502    0  0.00000000000E+00  0.00000000000E+00  0.14589993473E+04  0.14589993473E+04  0.00000000000E+00 0. -1.
          1   -1    0    0  501    0 -0.00000000000E+00 -0.00000000000E+00 -0.44524688109E+02  0.44524688109E+02  0.00000000000E+00 0. -1.
         25    2    1    2    0    0 -0.42481399398E+02 -0.57073000785E+02  0.80379933402E+03  0.81656613217E+03  0.12499952851E+03 0.  0.
          2    1    1    2  501    0 -0.86818739127E+01  0.45464316300E+02 -0.22603124080E+02  0.51510001062E+02  0.00000000000E+00 0. -1.
          1    1    1    2  502    0  0.51163273311E+02  0.11608684486E+02  0.63327844923E+03  0.63544790216E+03  0.00000000000E+00 0. -1.
         22    1    3    3    0    0 -0.21266909902E+02  0.13454668290E+02  0.58813066223E+03  0.58866882490E+03  0.00000000000E+00 0. -1.
         22    1    3    3    0    0 -0.21214489496E+02 -0.70527669075E+02  0.21566867179E+03  0.22789730727E+03  0.00000000000E+00 0. -1.
</event>
<event>
 7    1  0.7029100E-006  0.1027533E+03  0.7818608E-02  0.1393524E+00
          2   -1    0    0  502    0  0.00000000000E+00  0.00000000000E+00  0.38045179849E+04  0.38045179849E+04  0.00000000000E+00 0. -1.
          1   -1    0    0  501    0 -0.00000000000E+00 -0.00000000000E+00 -0.13570734598E+03  0.13570734598E+03  0.00000000000E+00 0. -1.
         25    2    1    2    0    0  0.68721990946E+02  0.10900746521E+02  0.27862796884E+03  0.31320917031E+03  0.12499960412E+03 0.  0.
          2    1    1    2  501    0  0.35484803547E+02 -0.74522184644E+01 -0.11484765157E+03  0.12043541802E+03  0.00000000000E+00 0. -1.
          1    1    1    2  502    0 -0.10420679449E+03 -0.34485280569E+01  0.35050303216E+04  0.35065807425E+04  0.00000000000E+00 0. -1.
         22    1    3    3    0    0 -0.52903398639E+01 -0.19057646849E+02 -0.34246959078E+01  0.20072621687E+02  0.00000000000E+00 0.  1.
         22    1    3    3    0    0  0.74012330810E+02  0.29958393371E+02  0.28205266475E+03  0.29313654862E+03  0.00000000000E+00 0.  1.
</event>
<event>
 7    1  0.7029100E-006  0.7629799E+02  0.7818608E-02  0.1361681E+00
          2   -1    0    0  502    0  0.00000000000E+00  0.00000000000E+00  0.34492148828E+03  0.34492148828E+03  0.00000000000E+00 0. -1.
          1   -1    0    0  501    0 -0.00000000000E+00 -0.00000000000E+00 -0.92494805077E+03  0.92494805077E+03  0.00000000000E+00 0. -1.
         25    2    1    2    0    0 -0.12341710412E+03 -0.26644450529E+02  0.13597663242E+03  0.22373027233E+03  0.12499552736E+03 0.  0.
          2    1    1    2  501    0  0.62301150393E+02  0.43401668465E+02 -0.87328031518E+03  0.87657495233E+03  0.00000000000E+00 0. -1.
          1    1    1    2  502    0  0.61115953729E+02 -0.16757217936E+02  0.15727712028E+03  0.16956431439E+03  0.00000000000E+00 0. -1.
         22    1    3    3    0    0 -0.14927973477E+03 -0.19132363353E+02  0.11108177533E+03  0.18705519868E+03  0.00000000000E+00 0.  1.
         22    1    3    3    0    0  0.25862630652E+02 -0.75120871760E+01  0.24894857087E+02  0.36675073652E+02  0.00000000000E+00 0.  1.
</event>
<event>
 7    1  0.7029100E-006  0.7795849E+02  0.7818608E-02  0.1438422E+00
          2   -1    0    0  502    0  0.00000000000E+00  0.00000000000E+00  0.12386483040E+04  0.12386483040E+04  0.00000000000E+00 0. -1.
          1   -1    0    0  501    0 -0.00000000000E+00 -0.00000000000E+00 -0.10202265830E+03  0.10202265830E+03  0.00000000000E+00 0. -1.
         25    2    1    2    0    0  0.37747028585E+02 -0.24355160920E+02  0.98023916114E+03  0.98919846005E+03  0.12500707302E+03 0.  0.
          2    1    1    2  501    0 -0.68410918069E+02  0.38491562011E+02 -0.80356619033E+02  0.11233361153E+03  0.00000000000E+00 0. -1.
          1    1    1    2  502    0  0.30663889485E+02 -0.14136401091E+02  0.23674310358E+03  0.23913889071E+03  0.00000000000E+00 0. -1.
         22    1    3    3    0    0  0.22315157057E+02 -0.53858576878E+02  0.90554199206E+03  0.90741666941E+03  0.00000000000E+00 0.  1.
         22    1    3    3    0    0  0.15431871527E+02  0.29503415958E+02  0.74697169084E+02  0.81781790646E+02  0.00000000000E+00 0.  1.
</event>
<event>
 7    1  0.7029100E-006  0.7491795E+02  0.7818608E-02  0.1408194E+00
          2   -1    0    0  502    0  0.00000000000E+00  0.00000000000E+00  0.12395103789E+02  0.12395103789E+02  0.00000000000E+00 0. -1.
          1   -1    0    0  501    0 -0.00000000000E+00 -0.00000000000E+00 -0.38958881184E+04  0.38958881184E+04  0.00000000000E+00 0. -1.
         25    2    1    2    0    0  0.40779503330E+02 -0.29778465862E+02 -0.23508822027E+04  0.23547448483E+04  0.12500577928E+03 0.  0.
          2    1    1    2  501    0 -0.67971158090E+02  0.64730259682E+02 -0.14870258587E+04  0.14899852312E+04  0.00000000000E+00 0. -1.
          1    1    1    2  502    0  0.27191654760E+02 -0.34951793821E+02 -0.45584953261E+02  0.63553142673E+02  0.00000000000E+00 0. -1.
         22    1    3    3    0    0  0.13018012519E+02 -0.75846899754E+02 -0.16543969479E+04  0.16561858236E+04  0.00000000000E+00 0.  1.
         22    1    3    3    0    0  0.27761490811E+02  0.46068433892E+02 -0.69648525473E+03  0.69855902473E+03  0.00000000000E+00 0.  1.
</event>
<event>
 7    1  0.7029100E-006  0.8386525E+02  0.7818608E-02  0.1474182E+00
          2   -1    0    0  502    0  0.00000000000E+00  0.00000000000E+00  0.21777008468E+04  0.21777008468E+04  0.00000000000E+00 0. -1.
          1   -1    0    0  501    0 -0.00000000000E+00 -0.00000000000E+00 -0.11577224062E+03  0.11577224062E+03  0.00000000000E+00 0. -1.
         25    2    1    2    0    0  0.31859231186E+02 -0.61210185707E+02 -0.28314694415E+00  0.14278354523E+03  0.12500145267E+03 0.  0.
          2    1    1    2  501    0 -0.12613562674E+02 -0.20621623188E+02 -0.40032657227E+02  0.46765018453E+02  0.00000000000E+00 0. -1.
          1    1    1    2  502    0 -0.19245668512E+02  0.81831808896E+02  0.21022444103E+04  0.21039245237E+04  0.00000000000E+00 0. -1.
         22    1    3    3    0    0  0.43295631898E+02 -0.14728483928E+02 -0.54046369343E+02  0.70798658316E+02  0.00000000000E+00 0. -1.
         22    1    3    3    0    0 -0.11436400711E+02 -0.46481701779E+02  0.53763222399E+02  0.71984886915E+02  0.00000000000E+00 0. -1.
</event>
<event>
 7    1  0.7029100E-006  0.3784940E+03  0.7818608E-02  0.1280529E+00
          2   -1    0    0  502    0  0.00000000000E+00  0.00000000000E+00  0.12613947277E+04  0.12613947277E+04  0.00000000000E+00 0. -1.
          1   -1    0    0  501    0 -0.00000000000E+00 -0.00000000000E+00 -0.22209312045E+04  0.22209312045E+04  0.00000000000E+00 0. -1.
         25    2    1    2    0    0 -0.25715837507E+03 -0.26227289204E+03 -0.12592641567E+03  0.40792072841E+03  0.12499743490E+03 0.  0.
          2    1    1    2  501    0  0.28232142333E+03  0.25441310835E+03 -0.19353696013E+04  0.19723303246E+04  0.00000000000E+00 0. -1.
          1    1    1    2  502    0 -0.25163048261E+02  0.78597836958E+01  0.11017595401E+04  0.11020748792E+04  0.00000000000E+00 0. -1.
         22    1    3    3    0    0 -0.18193707950E+03 -0.10223754166E+03 -0.45200094926E+02  0.21353375472E+03  0.00000000000E+00 0.  1.
         22    1    3    3    0    0 -0.75221295568E+02 -0.16003535039E+03 -0.80726320742E+02  0.19438697369E+03  0.00000000000E+00 0.  1.
</event>
<event>
 7    1  0.7029100E-006  0.3492618E+03  0.7818608E-02  0.1208689E+00
          2   -1    0    0  502    0  0.00000000000E+00  0.00000000000E+00  0.14805165663E+04  0.14805165663E+04  0.00000000000E+00 0. -1.
          1   -1    0    0  501    0 -0.00000000000E+00 -0.00000000000E+00 -0.87539265408E+03  0.87539265408E+03  0.00000000000E+00 0. -1.
         25    2    1    2    0    0 -0.33458480284E+03 -0.19763937000E+03  0.83821128979E+02  0.41672476373E+03  0.12500094469E+03 0.  0.
          2    1    1    2  501    0  0.58506848370E+02 -0.73239411028E+01 -0.68362143394E+03  0.68615957063E+03  0.00000000000E+00 0. -1.
          1    1    1    2  502    0  0.27607795447E+03  0.20496331111E+03  0.12049242172E+04  0.12530248860E+04  0.00000000000E+00 0. -1.
         22    1    3    3    0    0 -0.66699906557E+01 -0.46505702119E+02  0.13389846630E+02  0.48852401146E+02  0.00000000000E+00 0.  1.
         22    1    3    3    0    0 -0.32791481219E+03 -0.15113366788E+03  0.70431282349E+02  0.36787236258E+03  0.00000000000E+00 0.  1.
</event>
<event>
 7    1  0.7029100E-006  0.1935840E+03  0.7818608E-02  0.1278229E+00
          2   -1    0    0  502    0  0.00000000000E+00  0.00000000000E+00  0.34196784435E+04  0.34196784435E+04  0.00000000000E+00 0. -1.
          1   -1    0    0  501    0 -0.00000000000E+00 -0.00000000000E+00 -0.80748489217E+03  0.80748489217E+03  0.00000000000E+00 0. -1.
         25    2    1    2    0    0 -0.71038632533E+02 -0.15542558628E+03 -0.17998577901E+03  0.27789144105E+03  0.12500068871E+03 0.  0.
          2    1    1    2  501    0 -0.52361868762E+02  0.58217673321E+01 -0.57455067732E+03  0.57696112442E+03  0.00000000000E+00 0. -1.
          1    1    1    2  502    0  0.12340050130E+03  0.14960381895E+03  0.33667300077E+04  0.33723107702E+04  0.00000000000E+00 0. -1.
         22    1    3    3    0    0 -0.10641100297E+03 -0.10123336108E+03 -0.12021861571E+03  0.18979992231E+03  0.00000000000E+00 0. -1.
         22    1    3    3    0    0  0.35372370438E+02 -0.54192225209E+02 -0.59767163298E+02  0.88091518731E+02  0.00000000000E+00 0. -1.
</event>
<event>
 7    1  0.7029100E-006  0.9568942E+02  0.7818608E-02  0.1373176E+00
          2   -1    0    0  502    0  0.00000000000E+00  0.00000000000E+00  0.12764637344E+04  0.12764637344E+04  0.00000000000E+00 0. -1.
          1   -1    0    0  501    0 -0.00000000000E+00 -0.00000000000E+00 -0.32510217703E+04  0.32510217703E+04  0.00000000000E+00 0. -1.
         25    2    1    2    0    0  0.11422715763E+03 -0.77636671161E+02 -0.81500588103E+02  0.20332770866E+03  0.12499805998E+03 0.  0.
          2    1    1    2  501    0 -0.70319361410E+02  0.64170851389E+02 -0.31074446198E+04  0.31089025034E+04  0.00000000000E+00 0. -1.
          1    1    1    2  502    0 -0.43907796217E+02  0.13465819771E+02  0.12143871720E+04  0.12152552926E+04  0.00000000000E+00 0. -1.
         22    1    3    3    0    0  0.64766885887E+02 -0.10807193552E+03 -0.40888674302E+02  0.13246198112E+03  0.00000000000E+00 0.  1.
         22    1    3    3    0    0  0.49460271741E+02  0.30435264361E+02 -0.40611913801E+02  0.70865727541E+02  0.00000000000E+00 0.  1.
</event>
<event>
 7    1  0.7029100E-006  0.8472490E+02  0.7818608E-02  0.1331308E+00
          2   -1    0    0  502    0  0.00000000000E+00  0.00000000000E+00  0.36655714990E+03  0.36655714990E+03  0.00000000000E+00 0. -1.
          1   -1    0    0  501    0 -0.00000000000E+00 -0.00000000000E+00 -0.94587871445E+03  0.94587871445E+03  0.00000000000E+00 0. -1.
         25    2    1    2    0    0 -0.71623604611E+02  0.67269993209E+02  0.21957912796E+02  0.16050836577E+03  0.12500237127E+03 0.  0.
          2    1    1    2  501    0  0.71602328404E+02  0.18897225216E+02 -0.86824662136E+03  0.87139898672E+03  0.00000000000E+00 0. -1.
          1    1    1    2  502    0  0.21276206628E-01 -0.86167218425E+02  0.26696714401E+03  0.28052851186E+03  0.00000000000E+00 0. -1.
         22    1    3    3    0    0  0.31624663130E+02  0.30615075277E+02 -0.12323473112E+02  0.45708534672E+02  0.00000000000E+00 0. -1.
         22    1    3    3    0    0 -0.10324826774E+03  0.36654917932E+02  0.34281385908E+02  0.11479983110E+03  0.00000000000E+00 0. -1.
</event>
<event>
 7    1  0.7029100E-006  0.4759326E+02  0.7818608E-02  0.1476074E+00
          2   -1    0    0  502    0  0.00000000000E+00  0.00000000000E+00  0.63376221904E+03  0.63376221904E+03  0.00000000000E+00 0. -1.
          1   -1    0    0  501    0 -0.00000000000E+00 -0.00000000000E+00 -0.62675635509E+02  0.62675635509E+02  0.00000000000E+00 0. -1.
         25    2    1    2    0    0 -0.21760690193E+02 -0.57784138274E+01  0.15892036789E+03  0.20343881346E+03  0.12499899915E+03 0.  0.
          2    1    1    2  501    0  0.62596347301E+01 -0.41558461674E+02 -0.27691511636E+02  0.50329996824E+02  0.00000000000E+00 0. -1.
          1    1    1    2  502    0  0.15501055463E+02  0.47336875501E+02  0.43985772727E+03  0.44266904426E+03  0.00000000000E+00 0. -1.
         22    1    3    3    0    0 -0.62962010841E+02  0.72829622029E+01  0.35450407372E+02  0.72622226146E+02  0.00000000000E+00 0.  1.
         22    1    3    3    0    0  0.41201320648E+02 -0.13061376030E+02  0.12346996052E+03  0.13081658732E+03  0.00000000000E+00 0.  1.
</event>
<event>
 7    1  0.7029100E-006  0.4273430E+02  0.7818608E-02  0.1515753E+00
          2   -1    0    0  502    0  0.00000000000E+00  0.00000000000E+00  0.49968712905E+03  0.49968712905E+03  0.00000000000E+00 0. -1.
          1   -1    0    0  501    0 -0.00000000000E+00 -0.00000000000E+00 -0.42019581251E+03  0.42019581251E+03  0.00000000000E+00 0. -1.
         25    2    1    2    0    0  0.46631001719E+02 -0.48732606954E+02 -0.93656982321E+01  0.14234517043E+03  0.12500045575E+03 0.  0.
          2    1    1    2  501    0 -0.64161083411E+01  0.34996430982E+02 -0.34237406724E+03  0.34421783589E+03  0.00000000000E+00 0. -1.
          1    1    1    2  502    0 -0.40214893378E+02  0.13736175972E+02  0.43123108202E+03  0.43331993524E+03  0.00000000000E+00 0. -1.
         22    1    3    3    0    0  0.84993362790E+02 -0.18850571285E+02  0.14365974361E+02  0.88236029916E+02  0.00000000000E+00 0. -1.
         22    1    3    3    0    0 -0.38362361070E+02 -0.29882035669E+02 -0.23731672594E+02  0.54109140510E+02  0.00000000000E+00 0. -1.
</event>
<event>
 7    1  0.7029100E-006  0.1881028E+03  0.7818608E-02  0.1275566E+00
          2   -1    0    0  502    0  0.00000000000E+00  0.00000000000E+00  0.16548255098E+04  0.16548255098E+04  0.00000000000E+00 0. -1.
          1   -1    0    0  501    0 -0.00000000000E+00 -0.00000000000E+00 -0.80610828223E+03  0.80610828223E+03  0.00000000000E+00 0. -1.
         25    2    1    2    0    0  0.12439352523E+03  0.18459021511E+03  0.27825593294E+03  0.37762318152E+03  0.12500242547E+03 0.  0.
          2    1    1    2  501    0 -0.69891529027E+02 -0.17350343186E+03 -0.74426400837E+03  0.76740939586E+03  0.00000000000E+00 0. -1.
          1    1    1    2  502    0 -0.54501996205E+02 -0.11086783248E+02  0.13147253030E+04  0.13159012147E+04  0.00000000000E+00 0. -1.
         22    1    3    3    0    0  0.11190011851E+03  0.20272556292E+03  0.26501684960E+03  0.35192786328E+03  0.00000000000E+00 0.  1.
         22    1    3    3    0    0  0.12493406724E+02 -0.18135347810E+02  0.13239083342E+02  0.25695318241E+02  0.00000000000E+00 0.  1.
</event>
<event>
 7    1  0.7029100E-006  0.2689544E+02  0.7818608E-02  0.1637723E+00
          2   -1    0    0  502    0  0.00000000000E+00  0.00000000000E+00  0.20548332615E+04  0.20548332615E+04  0.00000000000E+00 0. -1.
          1   -1    0    0  501    0 -0.00000000000E+00 -0.00000000000E+00 -0.56329374515E+02  0.56329374515E+02  0.00000000000E+00 0. -1.
         25    2    1    2    0    0 -0.15421070469E+02 -0.30862984448E+01  0.74789562296E+03  0.75843254934E+03  0.12499893761E+03 0.  0.
          2    1    1    2  501    0  0.23236266787E+01  0.26794879325E+02 -0.47368118986E+02  0.54471125335E+02  0.00000000000E+00 0. -1.
          1    1    1    2  502    0  0.13097443790E+02 -0.23708580880E+02  0.12979763830E+04  0.12982589613E+04  0.00000000000E+00 0. -1.
         22    1    3    3    0    0 -0.10670862804E+02  0.44652182531E+02  0.62222324869E+03  0.62391462231E+03  0.00000000000E+00 0.  1.
         22    1    3    3    0    0 -0.47502076646E+01 -0.47738480976E+02  0.12567237427E+03  0.13451792703E+03  0.00000000000E+00 0.  1.
</event>
<event>
 7    1  0.7029100E-006  0.5281512E+02  0.7818608E-02  0.1450499E+00
          2   -1    0    0  502    0  0.00000000000E+00  0.00000000000E+00  0.87175215732E+03  0.87175215732E+03  0.00000000000E+00 0. -1.
          1   -1    0    0  501    0 -0.00000000000E+00 -0.00000000000E+00 -0.29369036964E+02  0.29369036964E+02  0.00000000000E+00 0. -1.
         25    2    1    2    0    0 -0.50465454790E+02  0.28364073143E+01  0.34136261730E+03  0.36703164858E+03  0.12501594791E+03 0.  0.
          2    1    1    2  501    0  0.37543498354E+02  0.40857840497E+02  0.34477307729E+02  0.65326580708E+02  0.00000000000E+00 0. -1.
          1    1    1    2  502    0  0.12921956436E+02 -0.43694247812E+02  0.46654319533E+03  0.46876296500E+03  0.00000000000E+00 0. -1.
         22    1    3    3    0    0 -0.73416033352E+01  0.58002572490E+02  0.21223741201E+03  0.22014294586E+03  0.00000000000E+00 0. -1.
         22    1    3    3    0    0 -0.43123851454E+02 -0.55166165175E+02  0.12912520529E+03  0.14688870272E+03  0.00000000000E+00 0. -1.
</event>
<event>
 7    1  0.1094025E-005  0.5861552E+02  0.7818608E-02  0.1411301E+00
          2   -1    0    0  502    0  0.00000000000E+00  0.00000000000E+00  0.24442558954E+04  0.24442558954E+04  0.00000000000E+00 0. -1.
          1   -1    0    0  501    0 -0.00000000000E+00 -0.00000000000E+00 -0.21747341504E+04  0.21747341504E+04  0.00000000000E+00 0. -1.
         25    2    1    2    0    0 -0.62751022188E+02 -0.49329630253E+02 -0.40675992748E+03  0.43295347597E+03  0.12499588210E+03 0.  0.
          2    1    1    2  501    0  0.44161230309E+01  0.55066735496E+02 -0.17540892149E+04  0.17549589230E+04  0.00000000000E+00 0. -1.
          1    1    1    2  502    0  0.58334899157E+02 -0.57371052423E+01  0.24303708874E+04  0.24310776469E+04  0.00000000000E+00 0. -1.
         22    1    3    3    0    0 -0.14738537177E+02  0.36282414770E+02 -0.53443630527E+02  0.66256016659E+02  0.00000000000E+00 0. -1.
         22    1    3    3    0    0 -0.48012485011E+02 -0.85612045023E+02 -0.35331629695E+03  0.36669745931E+03  0.00000000000E+00 0. -1.
</event>
<event>
 7    1  0.7029100E-006  0.2151398E+03  0.7818608E-02  0.1194217E+00
          2   -1    0    0  502    0  0.00000000000E+00  0.00000000000E+00  0.79626006488E+03  0.79626006488E+03  0.00000000000E+00 0. -1.
          1   -1    0    0  501    0 -0.00000000000E+00 -0.00000000000E+00 -0.37601594023E+03  0.37601594023E+03  0.00000000000E+00 0. -1.
         25    2    1    2    0    0  0.14634584286E+03 -0.20966765641E+02 -0.81501956195E+02  0.21005833512E+03  0.12500089722E+03 0.  0.
          2    1    1    2  501    0  0.40383531512E+02 -0.10443364698E+03 -0.19785846871E+03  0.22734377027E+03  0.00000000000E+00 0. -1.
          1    1    1    2  502    0 -0.18672937437E+03  0.12540041262E+03  0.69960454956E+03  0.73487389973E+03  0.00000000000E+00 0. -1.
         22    1    3    3    0    0  0.13189102619E+03  0.32937145061E+02 -0.70651843869E+02  0.15320503046E+03  0.00000000000E+00 0.  1.
         22    1    3    3    0    0  0.14454816670E+02 -0.53903910702E+02 -0.10850112326E+02  0.56853304666E+02  0.00000000000E+00 0.  1.
</event>
<event>
 7    1  0.7029100E-006  0.8874634E+02  0.7818608E-02  0.1408778E+00
          2   -1    0    0  502    0  0.00000000000E+00  0.00000000000E+00  0.24519122083E+04  0.24519122083E+04  0.00000000000E+00 0. -1.
          1   -1    0    0  501    0 -0.00000000000E+00 -0.00000000000E+00 -0.68691723283E+03  0.68691723283E+03  0.00000000000E+00 0. -1.
         25    2    1    2    0    0 -0.85628196045E+02  0.49036261881E+01 -0.49665187145E+03  0.51927285211E+03  0.12499992007E+03 0.  0.
          2    1    1    2  501    0  0.71255831313E+01  0.36524344751E+02 -0.17620381923E+03  0.18009049838E+03  0.00000000000E+00 0. -1.
          1    1    1    2  502    0  0.78502612913E+02 -0.41427970940E+02  0.24378506662E+04  0.24394660907E+04  0.00000000000E+00 0. -1.
         22    1    3    3    0    0 -0.17386258491E+02  0.22481926263E+01  0.41545037182E+00  0.17535933206E+02  0.00000000000E+00 0.  1.
         22    1    3    3    0    0 -0.68241937553E+02  0.26554335617E+01 -0.49706732182E+03  0.50173691890E+03  0.00000000000E+00 0.  1.
</event>
<event>
 7    1  0.9946059E-006  0.3840473E+02  0.7818608E-02  0.1535264E+00
          2   -1    0    0  502    0  0.00000000000E+00  0.00000000000E+00  0.14254304578E+04  0.14254304578E+04  0.00000000000E+00 0. -1.
          1   -1    0    0  501    0 -0.00000000000E+00 -0.00000000000E+00 -0.74957685821E+03  0.74957685821E+03  0.00000000000E+00 0. -1.
         25    2    1    2    0    0  0.66101038161E+02 -0.39939971310E+01 -0.34394431192E+03  0.37189573050E+03  0.12499378145E+03 0.  0.
          2    1    1    2  501    0 -0.33386057722E+02  0.15806010693E+02 -0.39057099319E+03  0.39231385337E+03  0.00000000000E+00 0. -1.
          1    1    1    2  502    0 -0.32714980440E+02 -0.11812013562E+02  0.14103689047E+04  0.14107977322E+04  0.00000000000E+00 0. -1.
         22    1    3    3    0    0  0.88842733128E+02  0.70962863097E+01 -0.33229728184E+03  0.34404196259E+03  0.00000000000E+00 0.  1.
         22    1    3    3    0    0 -0.22741694966E+02 -0.11090283441E+02 -0.11647030087E+02  0.27853767906E+02  0.00000000000E+00 0.  1.
</event>
<event>
 7    1  0.7029100E-006  0.3527988E+02  0.7818608E-02  0.1555434E+00
          2   -1    0    0  502    0  0.00000000000E+00  0.00000000000E+00  0.64041238782E+02  0.64041238782E+02  0.00000000000E+00 0. -1.
          1   -1    0    0  501    0 -0.00000000000E+00 -0.00000000000E+00 -0.28751049043E+03  0.28751049043E+03  0.00000000000E+00 0. -1.
         25    2    1    2    0    0  0.97267773299E+01  0.30380489315E+01 -0.47116604562E+02  0.13397427579E+03  0.12500116884E+03 0.  0.
          2    1    1    2  501    0 -0.25505770216E+02  0.26212583806E+02 -0.18042419735E+03  0.18409382079E+03  0.00000000000E+00 0. -1.
          1    1    1    2  502    0  0.15778992886E+02 -0.29250632738E+02  0.40715502667E+01  0.33483632623E+02  0.00000000000E+00 0. -1.
         22    1    3    3    0    0  0.32351703600E+02 -0.24475680709E+02  0.29045764872E+02  0.49893367585E+02  0.00000000000E+00 0.  1.
         22    1    3    3    0    0 -0.22624926270E+02  0.27513729640E+02 -0.76162369434E+02  0.84080908209E+02  0.00000000000E+00 0.  1.
</event>
<event>
 7    1  0.7345883E-006  0.6162895E+02  0.7818608E-02  0.1463585E+00
          2   -1    0    0  502    0  0.00000000000E+00  0.00000000000E+00  0.12807808384E+04  0.12807808384E+04  0.00000000000E+00 0. -1.
          1   -1    0    0  501    0 -0.00000000000E+00 -0.00000000000E+00 -0.12300466580E+04  0.12300466580E+04  0.00000000000E+00 0. -1.
         25    2    1    2    0    0  0.51847234115E+02 -0.73384783835E+02 -0.13948130920E+03  0.20773432577E+03  0.12500020921E+03 0.  0.
          2    1    1    2  501    0 -0.20059359269E+02  0.57594581955E+02 -0.10553056143E+04  0.10570664375E+04  0.00000000000E+00 0. -1.
          1    1    1    2  502    0 -0.31787874847E+02  0.15790201881E+02  0.12455211039E+04  0.12460267331E+04  0.00000000000E+00 0. -1.
         22    1    3    3    0    0  0.12859370609E+02  0.31385611969E+02 -0.74363725917E+01  0.34723474602E+02  0.00000000000E+00 0.  1.
         22    1    3    3    0    0  0.38987863506E+02 -0.10477039580E+03 -0.13204493661E+03  0.17301085117E+03  0.00000000000E+00 0.  1.
</event>
<event>
 7    1  0.7029100E-006  0.9148516E+02  0.7818608E-02  0.1323176E+00
          2   -1    0    0  502    0  0.00000000000E+00  0.00000000000E+00  0.84538950391E+03  0.84538950391E+03  0.00000000000E+00 0. -1.
          1   -1    0    0  501    0 -0.00000000000E+00 -0.00000000000E+00 -0.82360790744E+02  0.82360790744E+02  0.00000000000E+00 0. -1.
         25    2    1    2    0    0  0.72621869629E+02  0.21301484248E+02  0.15075865920E+03  0.20994991644E+03  0.12499241941E+03 0.  0.
          2    1    1    2  501    0 -0.46588368003E+02 -0.90240122899E+02  0.44915435296E+00  0.10155765630E+03  0.00000000000E+00 0. -1.
          1    1    1    2  502    0 -0.26033501625E+02  0.68938638651E+02  0.61182089961E+03  0.61624272191E+03  0.00000000000E+00 0. -1.
         22    1    3    3    0    0  0.30514678164E+02  0.92723192841E+01  0.16169750009E+03  0.16481263005E+03  0.00000000000E+00 0.  1.
         22    1    3    3    0    0  0.42107191465E+02  0.12029164964E+02 -0.10938840889E+02  0.45137286392E+02  0.00000000000E+00 0.  1.
</event>
<event>
 7    1  0.7029100E-006  0.5938893E+02  0.7818608E-02  0.1434059E+00
          2   -1    0    0  502    0  0.00000000000E+00  0.00000000000E+00  0.22652606388E+04  0.22652606388E+04  0.00000000000E+00 0. -1.
          1   -1    0    0  501    0 -0.00000000000E+00 -0.00000000000E+00 -0.14803578757E+03  0.14803578757E+03  0.00000000000E+00 0. -1.
         25    2    1    2    0    0 -0.54055363990E+02  0.37688461438E+02 -0.72634061344E+02  0.15888042054E+03  0.12499951465E+03 0.  0.
          2    1    1    2  501    0 -0.48493438499E+01 -0.45542745345E+02 -0.15427754341E+02  0.48328805006E+02  0.00000000000E+00 0. -1.
          1    1    1    2  502    0  0.58904707839E+02  0.78542839067E+01  0.22052866669E+04  0.22060872008E+04  0.00000000000E+00 0. -1.
         22    1    3    3    0    0 -0.32116639603E+02  0.50214746818E+02  0.19992540999E+02  0.62870510042E+02  0.00000000000E+00 0. -1.
         22    1    3    3    0    0 -0.21938724387E+02 -0.12526285379E+02 -0.92626602343E+02  0.96009910502E+02  0.00000000000E+00 0. -1.
</event>
<event>
 7    1  0.7029100E-006  0.7440652E+02  0.7818608E-02  0.1437019E+00
          2   -1    0    0  502    0  0.00000000000E+00  0.00000000000E+00  0.59376317925E+03  0.59376317925E+03  0.00000000000E+00 0. -1.
          1   -1    0    0  501    0 -0.00000000000E+00 -0.00000000000E+00 -0.14946063939E+04  0.14946063939E+04  0.00000000000E+00 0. -1.
         25    2    1    2    0    0 -0.10729558101E+03  0.22095129249E+02 -0.83859660200E+01  0.16642367977E+03  0.12500392122E+03 0.  0.
          2    1    1    2  501    0  0.71804352893E+02 -0.17788745696E+02 -0.14056069895E+04  0.14075522418E+04  0.00000000000E+00 0. -1.
          1    1    1    2  502    0  0.35491228116E+02 -0.43063835525E+01  0.51314974086E+03  0.51439365155E+03  0.00000000000E+00 0. -1.
         22    1    3    3    0    0 -0.96506062982E+02  0.68288891336E+02 -0.12101878877E+02  0.11884127374E+03  0.00000000000E+00 0. -1.
         22    1    3    3    0    0 -0.10789518027E+02 -0.46193762088E+02  0.37159128574E+01  0.47582406028E+02  0.00000000000E+00 0. -1.
</event>
<event>
 7    1  0.7029100E-006  0.1978264E+03  0.7818608E-02  0.1256147E+00
          2   -1    0    0  502    0  0.00000000000E+00  0.00000000000E+00  0.15731325476E+03  0.15731325476E+03  0.00000000000E+00 0. -1.
          1   -1    0    0  501    0 -0.00000000000E+00 -0.00000000000E+00 -0.30484896561E+04  0.30484896561E+04  0.00000000000E+00 0. -1.
         25    2    1    2    0    0 -0.38459723774E+02 -0.17588489252E+03 -0.14613020132E+04  0.14776475777E+04  0.12499657672E+03 0.  0.
          2    1    1    2  501    0  0.59986061698E+02 -0.21989506129E+02 -0.15116282749E+04  0.15129778278E+04  0.00000000000E+00 0. -1.
          1    1    1    2  502    0 -0.21526337924E+02  0.19787439865E+03  0.81753886702E+02  0.21517750546E+03  0.00000000000E+00 0. -1.
         22    1    3    3    0    0 -0.32543211097E+02 -0.38035538247E+02 -0.82694302782E+03  0.82845671825E+03  0.00000000000E+00 0.  1.
         22    1    3    3    0    0 -0.59165126767E+01 -0.13784935427E+03 -0.63435898538E+03  0.64919085940E+03  0.00000000000E+00 0.  1.
</event>
<event>
 7    1  0.7029100E-006  0.1783059E+03  0.7818608E-02  0.1208686E+00
          2   -1    0    0  502    0  0.00000000000E+00  0.00000000000E+00  0.14793948320E+03  0.14793948320E+03  0.00000000000E+00 0. -1.
          1   -1    0    0  501    0 -0.00000000000E+00 -0.00000000000E+00 -0.15930492424E+04  0.15930492424E+04  0.00000000000E+00 0. -1.
         25    2    1    2    0    0 -0.83623713899E+02  0.54925278879E+02 -0.21408752208E+03  0.26733610927E+03  0.12500166569E+03 0.  0.
          2    1    1    2  501    0  0.19844214127E+03 -0.42391590054E+02 -0.13151811041E+04  0.13307432761E+04  0.00000000000E+00 0. -1.
          1    1    1    2  502    0 -0.11481842737E+03 -0.12533688825E+02  0.84158866999E+02  0.14290934019E+03  0.00000000000E+00 0. -1.
         22    1    3    3    0    0 -0.24511243771E+02 -0.40630719123E+02 -0.71154421186E+02  0.85525481945E+02  0.00000000000E+00 0. -1.
         22    1    3    3    0    0 -0.59112470127E+02  0.95555998002E+02 -0.14293310089E+03  0.18181062733E+03  0.00000000000E+00 0. -1.
</event>
<event>
 7    1  0.7029100E-006  0.8024019E+02  0.7818608E-02  0.1430423E+00
          2   -1    0    0  502    0  0.00000000000E+00  0.00000000000E+00  0.69394991000E+03  0.69394991000E+03  0.00000000000E+00 0. -1.
          1   -1    0    0  501    0 -0.00000000000E+00 -0.00000000000E+00 -0.22601188041E+03  0.22601188041E+03  0.00000000000E+00 0. -1.
         25    2    1    2    0    0 -0.19735494895E+02  0.85852546540E+02  0.10233508292E+02  0.15326328986E+03  0.12499904728E+03 0.  0.
          2    1    1    2  501    0 -0.14374565168E+02 -0.78744679104E+02 -0.14359061920E+03  0.16439470349E+03  0.00000000000E+00 0. -1.
          1    1    1    2  502    0  0.34110060063E+02 -0.71078674365E+01  0.60129514050E+03  0.60230379707E+03  0.00000000000E+00 0. -1.
         22    1    3    3    0    0  0.24979458582E+02  0.77467493355E+02  0.47686653546E+02  0.94335586097E+02  0.00000000000E+00 0. -1.
         22    1    3    3    0    0 -0.44714953477E+02  0.83850531851E+01 -0.37453145255E+02  0.58927703763E+02  0.00000000000E+00 0. -1.
</event>
<event>
 7    1  0.7029100E-006  0.1495541E+03  0.7818608E-02  0.1242818E+00
          2   -1    0    0  502    0  0.00000000000E+00  0.00000000000E+00  0.17020811950E+04  0.17020811950E+04  0.00000000000E+00 0. -1.
          1   -1    0    0  501    0 -0.00000000000E+00 -0.00000000000E+00 -0.17312221828E+04  0.17312221828E+04  0.00000000000E+00 0. -1.
         25    2    1    2    0    0 -0.65904721437E+02 -0.24420160644E+02  0.18190630352E+03  0.23163124714E+03  0.12499341917E+03 0.  0.
          2    1    1    2  501    0  0.14891848565E+03 -0.24896083606E+02 -0.17014544541E+04  0.17081404479E+04  0.00000000000E+00 0. -1.
          1    1    1    2  502    0 -0.83013764208E+02  0.49316244250E+02  0.14904071627E+04  0.14935316828E+04  0.00000000000E+00 0. -1.
         22    1    3    3    0    0 -0.24483510545E+01 -0.47685179430E+02  0.14899188436E+03  0.15645591189E+03  0.00000000000E+00 0.  1.
         22    1    3    3    0    0 -0.63456370383E+02  0.23265018785E+02  0.32914419162E+02  0.75175335251E+02  0.00000000000E+00 0.  1.
</event>
<event>
 7    1  0.7029100E-006  0.1921556E+03  0.7818608E-02  0.1276478E+00
          2   -1    0    0  502    0  0.00000000000E+00  0.00000000000E+00  0.85159442224E+03  0.85159442224E+03  0.00000000000E+00 0. -1.
          1   -1    0    0  501    0 -0.00000000000E+00 -0.00000000000E+00 -0.36283401499E+03  0.36283401499E+03  0.00000000000E+00 0. -1.
         25    2    1    2    0    0 -0.47320884490E+02  0.18100223145E+03 -0.25559532386E+03  0.34052433053E+03  0.12500710462E+03 0.  0.
          2    1    1    2  501    0  0.84894524868E+01 -0.21848623357E+03  0.12431818762E+03  0.25152200070E+03  0.00000000000E+00 0. -1.
          1    1    1    2  502    0  0.38831432003E+02  0.37484002120E+02  0.62003754349E+03  0.62238210599E+03  0.00000000000E+00 0. -1.
         22    1    3    3    0    0 -0.53202392847E+02  0.19082334738E+03 -0.19189581724E+03  0.27580436759E+03  0.00000000000E+00 0.  1.
         22    1    3    3    0    0  0.58815083575E+01 -0.98211159299E+01 -0.63699506622E+02  0.64719962937E+02  0.00000000000E+00 0.  1.
</event>
<event>
 7    1  0.7029100E-006  0.4395294E+02  0.7818608E-02  0.1562782E+00
          2   -1    0    0  502    0  0.00000000000E+00  0.00000000000E+00  0.20624303464E+04  0.20624303464E+04  0.00000000000E+00 0. -1.
          1   -1    0    0  501    0 -0.00000000000E+00 -0.00000000000E+00 -0.91386825052E+02  0.91386825052E+02  0.00000000000E+00 0. -1.
         25    2    1    2    0    0  0.40525056278E+02 -0.25999562126E+01  0.70613391538E+03  0.71826118804E+03  0.12499995136E+03 0.  0.
          2    1    1    2  501    0 -0.34519649664E+02  0.27343240798E+02 -0.79512509507E+02  0.90892784083E+02  0.00000000000E+00 0. -1.
          1    1    1    2  502    0 -0.60054066142E+01 -0.24743284585E+02  0.13444221154E+04  0.13446631993E+04  0.00000000000E+00 0. -1.
         22    1    3    3    0    0 -0.13347804903E+02  0.17697186050E+02  0.57030672536E+03  0.57073734352E+03  0.00000000000E+00 0.  1.
         22    1    3    3    0    0  0.53872861181E+02 -0.20297142263E+02  0.13582719001E+03  0.14752384452E+03  0.00000000000E+00 0.  1.
</event>
<event>
 7    1  0.1765792E-005  0.6185023E+02  0.7818608E-02  0.1500603E+00
          2   -1    0    0  502    0  0.00000000000E+00  0.00000000000E+00  0.12415000860E+04  0.12415000860E+04  0.00000000000E+00 0. -1.
          1   -1    0    0  501    0 -0.00000000000E+00 -0.00000000000E+00 -0.15674854446E+04  0.15674854446E+04  0.00000000000E+00 0. -1.
         25    2    1    2    0    0  0.12996615125E+02  0.81946404962E+02 -0.51183002699E+03  0.53336599873E+03  0.12500074714E+03 0.  0.
          2    1    1    2  501    0 -0.18134645720E+02 -0.20337895010E+02 -0.10439331691E+04  0.10442887325E+04  0.00000000000E+00 0. -1.
          1    1    1    2  502    0  0.51380305951E+01 -0.61608509951E+02  0.12297778375E+04  0.12313307993E+04  0.00000000000E+00 0. -1.
         22    1    3    3    0    0  0.27284083678E+02  0.10688678191E+03 -0.30085023748E+03  0.32043731175E+03  0.00000000000E+00 0. -1.
         22    1    3    3    0    0 -0.14287468553E+02 -0.24940376945E+02 -0.21097978950E+03  0.21292868698E+03  0.00000000000E+00 0. -1.
</event>
<event>
 7    1  0.7029100E-006  0.4801638E+02  0.7818608E-02  0.1496069E+00
          2   -1    0    0  502    0  0.00000000000E+00  0.00000000000E+00  0.14507182151E+04  0.14507182151E+04  0.00000000000E+00 0. -1.
          1   -1    0    0  501    0 -0.00000000000E+00 -0.00000000000E+00 -0.25122613535E+04  0.25122613535E+04  0.00000000000E+00 0. -1.
         25    2    1    2    0    0 -0.13868344573E+02 -0.82522391609E+02  0.11722116493E+03  0.19070576005E+03  0.12500243722E+03 0.  0.
          2    1    1    2  501    0  0.34585198187E+01  0.47838262824E+02 -0.24750338514E+04  0.24754985409E+04  0.00000000000E+00 0. -1.
          1    1    1    2  502    0  0.10409824754E+02  0.34684128785E+02  0.12962695481E+04  0.12967752676E+04  0.00000000000E+00 0. -1.
         22    1    3    3    0    0 -0.32533278610E+02 -0.49230128592E+02 -0.82274499704E+01  0.59579448733E+02  0.00000000000E+00 0. -1.
         22    1    3    3    0    0  0.18664934037E+02 -0.33292263016E+02  0.12544861490E+03  0.13112631132E+03  0.00000000000E+00 0. -1.
</event>
<event>
 7    1  0.7029100E-006  0.6359581E+02  0.7818608E-02  0.1436885E+00
          2   -1    0    0  502    0  0.00000000000E+00  0.00000000000E+00  0.15769050865E+03  0.15769050865E+03  0.00000000000E+00 0. -1.
          1   -1    0    0  501    0 -0.00000000000E+00 -0.00000000000E+00 -0.80760850732E+03  0.80760850732E+03  0.00000000000E+00 0. -1.
         25    2    1    2    0    0  0.19599411467E+02 -0.27490845683E+02 -0.18703222801E+03  0.22747710170E+03  0.12499957582E+03 0.  0.
          2    1    1    2  501    0 -0.61449417329E+02  0.26170145575E+02 -0.59525394030E+03  0.59898928275E+03  0.00000000000E+00 0. -1.
          1    1    1    2  502    0  0.41850005862E+02  0.13207001079E+01  0.13236816965E+03  0.13883263152E+03  0.00000000000E+00 0. -1.
         22    1    3    3    0    0  0.59415251522E+02 -0.25820855022E+02 -0.17380884185E+03  0.18548962821E+03  0.00000000000E+00 0.  1.
         22    1    3    3    0    0 -0.39815840055E+02 -0.16699906619E+01 -0.13223386161E+02  0.41987473485E+02  0.00000000000E+00 0.  1.
</event>
<event>
 7    1  0.7029100E-006  0.1713348E+03  0.7818608E-02  0.1258578E+00
          2   -1    0    0  502    0  0.00000000000E+00  0.00000000000E+00  0.62058226530E+03  0.62058226530E+03  0.00000000000E+00 0. -1.
          1   -1    0    0  501    0 -0.00000000000E+00 -0.00000000000E+00 -0.71541225038E+03  0.71541225038E+03  0.00000000000E+00 0. -1.
         25    2    1    2    0    0  0.21788950649E+03  0.48441389175E+02  0.21814856188E+03  0.33621432090E+03  0.12501547625E+03 0.  0.
          2    1    1    2  501    0 -0.71732062874E+02  0.64191553597E+01 -0.63650023028E+03  0.64056165788E+03  0.00000000000E+00 0. -1.
          1    1    1    2  502    0 -0.14615744361E+03 -0.54860544534E+02  0.32352168332E+03  0.35921853690E+03  0.00000000000E+00 0. -1.
         22    1    3    3    0    0  0.87133253140E+02 -0.33802208139E+02  0.12413229623E+03  0.15538217415E+03  0.00000000000E+00 0. -1.
         22    1    3    3    0    0  0.13075625335E+03  0.82243597313E+02  0.94016265656E+02  0.18083214674E+03  0.00000000000E+00 0. -1.
</event>
<event>
 7    1  0.7029100E-006  0.4895842E+02  0.7818608E-02  0.1491577E+00
          2   -1    0    0  502    0  0.00000000000E+00  0.00000000000E+00  0.33997456770E+03  0.33997456770E+03  0.00000000000E+00 0. -1.
          1   -1    0    0  501    0 -0.00000000000E+00 -0.00000000000E+00 -0.65262887905E+03  0.65262887905E+03  0.00000000000E+00 0. -1.
         25    2    1    2    0    0  0.19365857501E+02  0.17905220120E+02 -0.38786708943E+02  0.13351020075E+03  0.12499972628E+03 0.  0.
          2    1    1    2  501    0 -0.10728481781E+01 -0.49650487455E+02 -0.56423857121E+03  0.56641988591E+03  0.00000000000E+00 0. -1.
          1    1    1    2  502    0 -0.18293009323E+02  0.31745267335E+02  0.29037096880E+03  0.29267336010E+03  0.00000000000E+00 0. -1.
         22    1    3    3    0    0  0.37184746360E+02  0.33846409155E+02 -0.74892277086E+02  0.90206085945E+02  0.00000000000E+00 0.  1.
         22    1    3    3    0    0 -0.17818888859E+02 -0.15941189035E+02  0.36105568143E+02  0.43304114804E+02  0.00000000000E+00 0.  1.
</event>
<event>
 7    1  0.7029100E-006  0.1139480E+03  0.7818608E-02  0.1318861E+00
          2   -1    0    0  502    0  0.00000000000E+00  0.00000000000E+00  0.94849840899E+03  0.94849840899E+03  0.00000000000E+00 0. -1.
          1   -1    0    0  501    0 -0.00000000000E+00 -0.00000000000E+00 -0.11627629389E+04  0.11627629389E+04  0.00000000000E+00 0. -1.
         25    2    1    2    0    0 -0.52944089527E+02  0.10877436557E+02 -0.14885926140E+03  0.20175693981E+03  0.12500155126E+03 0.  0.
          2    1    1    2  501    0 -0.61420417690E+02  0.28224760225E+01 -0.98289333825E+03  0.98481457567E+03  0.00000000000E+00 0. -1.
          1    1    1    2  502    0  0.11436450722E+03 -0.13699912580E+02  0.91748806972E+03  0.92468983242E+03  0.00000000000E+00 0. -1.
         22    1    3    3    0    0  0.34773534332E+02 -0.87987885421E+01 -0.11637321296E+02  0.37710006851E+02  0.00000000000E+00 0. -1.
         22    1    3    3    0    0 -0.87717623858E+02  0.19676225099E+02 -0.13722194010E+03  0.16404693296E+03  0.00000000000E+00 0. -1.
</event>
<event>
 7    1  0.7029100E-006  0.7390659E+02  0.7818608E-02  0.1396866E+00
          2   -1    0    0  502    0  0.00000000000E+00  0.00000000000E+00  0.24026092423E+03  0.24026092423E+03  0.00000000000E+00 0. -1.
          1   -1    0    0  501    0 -0.00000000000E+00 -0.00000000000E+00 -0.17761720284E+04  0.17761720284E+04  0.00000000000E+00 0. -1.
         25    2    1    2    0    0 -0.23802046463E+02  0.80516462917E+01  0.13496448150E+03  0.18566693353E+03  0.12500173005E+03 0.  0.
          2    1    1    2  501    0  0.71512855249E+02 -0.19586878944E+02 -0.17424228242E+04  0.17439997226E+04  0.00000000000E+00 0. -1.
          1    1    1    2  502    0 -0.47710808786E+02  0.11535232652E+02  0.71547238504E+02  0.86766296480E+02  0.00000000000E+00 0. -1.
         22    1    3    3    0    0  0.49332401002E+02  0.39870364481E+01  0.80072536114E+02  0.94133911466E+02  0.00000000000E+00 0.  1.
         22    1    3    3    0    0 -0.73134447464E+02  0.40646098437E+01  0.54891945387E+02  0.91533022060E+02  0.00000000000E+00 0.  1.
</event>
<event>
 7    1  0.7029100E-006  0.8465801E+02  0.7818608E-02  0.1381464E+00
          2   -1    0    0  502    0  0.00000000000E+00  0.00000000000E+00  0.97533905023E+03  0.97533905023E+03  0.00000000000E+00 0. -1.
          1   -1    0    0  501    0 -0.00000000000E+00 -0.00000000000E+00 -0.44390265006E+02  0.44390265006E+02  0.00000000000E+00 0. -1.
         25    2    1    2    0    0  0.44166265576E+01 -0.12190025307E+03  0.26608735551E+03  0.31828714493E+03  0.12500019032E+03 0.  0.
          2    1    1    2  501    0  0.52016298697E+01  0.74358831620E+02  0.62909596274E+02  0.97539274636E+02  0.00000000000E+00 0. -1.
          1    1    1    2  502    0 -0.96182564273E+01  0.47541421453E+02  0.60195183344E+03  0.60390289567E+03  0.00000000000E+00 0. -1.
         22    1    3    3    0    0 -0.31602089408E+02  0.11026009309E+02  0.29900998473E+02  0.44881339618E+02  0.00000000000E+00 0.  1.
         22    1    3    3    0    0  0.36018715965E+02 -0.13292626238E+03  0.23618635703E+03  0.27340580531E+03  0.00000000000E+00 0.  1.
</event>
<event>
 7    1  0.7029100E-006  0.2706189E+02  0.7818608E-02  0.1662227E+00
          2   -1    0    0  502    0  0.00000000000E+00  0.00000000000E+00  0.11217007094E+03  0.11217007094E+03  0.00000000000E+00 0. -1.
          1   -1    0    0  501    0 -0.00000000000E+00 -0.00000000000E+00 -0.21652755645E+03  0.21652755645E+03  0.00000000000E+00 0. -1.
         25    2    1    2    0    0  0.77637654006E+01 -0.79293098108E+01 -0.14101195349E+03  0.18876586740E+03  0.12500012665E+03 0.  0.
          2    1    1    2  501    0 -0.33728154325E+01  0.30443368835E+02 -0.45380598463E+02  0.54750098693E+02  0.00000000000E+00 0. -1.
          1    1    1    2  502    0 -0.43909499681E+01 -0.22514059025E+02  0.82035066441E+02  0.85181661297E+02  0.00000000000E+00 0. -1.
         22    1    3    3    0    0  0.45490734055E+02  0.41999888505E+02 -0.82010785071E+02  0.10275780451E+03  0.00000000000E+00 0. -1.
         22    1    3    3    0    0 -0.37726968655E+02 -0.49929198316E+02 -0.59001168415E+02  0.86008062894E+02  0.00000000000E+00 0. -1.
</event>
<event>
 7    1  0.7029100E-006  0.9433559E+02  0.7818608E-02  0.1361008E+00
          2   -1    0    0  502    0  0.00000000000E+00  0.00000000000E+00  0.15827675116E+04  0.15827675116E+04  0.00000000000E+00 0. -1.
          1   -1    0    0  501    0 -0.00000000000E+00 -0.00000000000E+00 -0.15284111329E+03  0.15284111329E+03  0.00000000000E+00 0. -1.
         25    2    1    2    0    0  0.49824656139E+02  0.12750563160E+03  0.15989319301E+03  0.24480676457E+03  0.12499734542E+03 0.  0.
          2    1    1    2  501    0 -0.37429775279E+02 -0.35438119708E+02 -0.10271036147E+03  0.11491852227E+03  0.00000000000E+00 0. -1.
          1    1    1    2  502    0 -0.12394880860E+02 -0.92067511891E+02  0.13727435668E+04  0.13758833380E+04  0.00000000000E+00 0. -1.
         22    1    3    3    0    0  0.11134253339E+02  0.67110865392E+02  0.15914810442E+03  0.17307789862E+03  0.00000000000E+00 0. -1.
         22    1    3    3    0    0  0.38690402800E+02  0.60394766207E+02  0.74508859139E+00  0.71728865954E+02  0.00000000000E+00 0. -1.
</event>
<event>
 7    1  0.7029100E-006  0.7602636E+02  0.7818608E-02  0.1399934E+00
          2   -1    0    0  502    0  0.00000000000E+00  0.00000000000E+00  0.18656426082E+04  0.18656426082E+04  0.00000000000E+00 0. -1.
          1   -1    0    0  501    0 -0.00000000000E+00 -0.00000000000E+00 -0.76112238158E+03  0.76112238158E+03  0.00000000000E+00 0. -1.
         25    2    1    2    0    0  0.30359696246E+02  0.80935759581E+00 -0.33875568102E+02  0.13300799527E+03  0.12498482498E+03 0.  0.
          2    1    1    2  501    0  0.45088024067E+02  0.11651084810E+02 -0.67607427596E+03  0.67767625332E+03  0.00000000000E+00 0. -1.
          1    1    1    2  502    0 -0.75447720313E+02 -0.12460442406E+02  0.18144700707E+04  0.18160807412E+04  0.00000000000E+00 0. -1.
         22    1    3    3    0    0 -0.93949749149E+01 -0.48292517363E+02  0.16832005519E+02  0.51997588374E+02  0.00000000000E+00 0. -1.
         22    1    3    3    0    0  0.39754671161E+02  0.49101874959E+02 -0.50707573621E+02  0.81010406900E+02  0.00000000000E+00 0. -1.
</event>
<event>
 7    1  0.7029100E-006  0.1714216E+03  0.7818608E-02  0.1328647E+00
          2   -1    0    0  502    0  0.00000000000E+00  0.00000000000E+00  0.24955249710E+04  0.24955249710E+04  0.00000000000E+00 0. -1.
          1   -1    0    0  501    0 -0.00000000000E+00 -0.00000000000E+00 -0.40813155869E+03  0.40813155869E+03  0.00000000000E+00 0. -1.
         25    2    1    2    0    0  0.74634233103E+02 -0.19368692333E+03  0.82809860496E+02  0.25605917614E+03  0.12499574261E+03 0.  0.
          2    1    1    2  501    0 -0.14554047396E+02  0.34525866491E+02 -0.31729256443E+03  0.31949714739E+03  0.00000000000E+00 0. -1.
          1    1    1    2  502    0 -0.60080185707E+02  0.15916105683E+03  0.23218761162E+04  0.23281002061E+04  0.00000000000E+00 0. -1.
         22    1    3    3    0    0  0.20945012874E+02 -0.28847607917E+02  0.74391744944E+02  0.82492483068E+02  0.00000000000E+00 0.  1.
         22    1    3    3    0    0  0.53689220229E+02 -0.16483931541E+03  0.84181155525E+01  0.17356669307E+03  0.00000000000E+00 0.  1.
</event>
<event>
 7    1  0.7029100E-006  0.1331702E+03  0.7818608E-02  0.1263968E+00
          2   -1    0    0  502    0  0.00000000000E+00  0.00000000000E+00  0.20063521389E+03  0.20063521389E+03  0.00000000000E+00 0. -1.
          1   -1    0    0  501    0 -0.00000000000E+00 -0.00000000000E+00 -0.15113503857E+04  0.15113503857E+04  0.00000000000E+00 0. -1.
         25    2    1    2    0    0  0.55334565279E+02  0.17769343600E+03 -0.48934560169E+02  0.22948109464E+03  0.12502043955E+03 0.  0.
          2    1    1    2  501    0  0.18839341078E+02 -0.13055018181E+03 -0.13509083751E+04  0.13573325712E+04  0.00000000000E+00 0. -1.
          1    1    1    2  502    0 -0.74173906357E+02 -0.47143254192E+02  0.89127763445E+02  0.12517193382E+03  0.00000000000E+00 0. -1.
         22    1    3    3    0    0  0.70546213105E+02  0.16701305862E+03 -0.45459513848E+01  0.18135819697E+03  0.00000000000E+00 0.  1.
         22    1    3    3    0    0 -0.15211647826E+02  0.10680377379E+02 -0.44388608784E+02  0.48122897672E+02  0.00000000000E+00 0.  1.
</event>
<event>
 7    1  0.7029100E-006  0.9339197E+02  0.7818608E-02  0.1369786E+00
          2   -1    0    0  502    0  0.00000000000E+00  0.00000000000E+00  0.17789624891E+04  0.17789624891E+04  0.00000000000E+00 0. -1.
          1   -1    0    0  501    0 -0.00000000000E+00 -0.00000000000E+00 -0.60861897400E+02  0.60861897400E+02  0.00000000000E+00 0. -1.
         25    2    1    2    0    0  0.57238859632E+02  0.35733035348E+02  0.39084705675E+03  0.41585840115E+03  0.12499460457E+03 0.  0.
          2    1    1    2  501    0 -0.63386975320E+01  0.47975044699E+02 -0.34031515976E+02  0.59160189992E+02  0.00000000000E+00 0. -1.
          1    1    1    2  502    0 -0.50900162099E+02 -0.83708080047E+02  0.13612850510E+04  0.13648057954E+04  0.00000000000E+00 0. -1.
         22    1    3    3    0    0  0.44710304733E+02  0.55159116894E+02  0.92462576514E+02  0.11657987640E+03  0.00000000000E+00 0. -1.
         22    1    3    3    0    0  0.12528554898E+02 -0.19426081546E+02  0.29838448023E+03  0.29927852475E+03  0.00000000000E+00 0. -1.
</event>
<event>
 7    1  0.7029100E-006  0.8014113E+02  0.7818608E-02  0.1363633E+00
          2   -1    0    0  502    0  0.00000000000E+00  0.00000000000E+00  0.66755079898E+02  0.66755079898E+02  0.00000000000E+00 0. -1.
          1   -1    0    0  501    0 -0.00000000000E+00 -0.00000000000E+00 -0.11760309245E+04  0.11760309245E+04  0.00000000000E+00 0. -1.
         25    2    1    2    0    0  0.59324554395E+02 -0.13667679091E+02 -0.14052743022E+03  0.19768461900E+03  0.12500016694E+03 0.  0.
          2    1    1    2  501    0  0.20702891655E+02  0.55627530493E+02 -0.95120318271E+03  0.95305326539E+03  0.00000000000E+00 0. -1.
          1    1    1    2  502    0 -0.80027446050E+02 -0.41959851402E+02 -0.17545231715E+02  0.92048120062E+02  0.00000000000E+00 0. -1.
         22    1    3    3    0    0  0.72426873263E+00 -0.55010591671E+02 -0.22210515683E+02  0.59329560660E+02  0.00000000000E+00 0. -1.
         22    1    3    3    0    0  0.58600285663E+02  0.41342912580E+02 -0.11831691454E+03  0.13835505833E+03  0.00000000000E+00 0. -1.
</event>
<event>
 7    1  0.7029100E-006  0.5056140E+02  0.7818608E-02  0.1451404E+00
          2   -1    0    0  502    0  0.00000000000E+00  0.00000000000E+00  0.20277613842E+04  0.20277613842E+04  0.00000000000E+00 0. -1.
          1   -1    0    0  501    0 -0.00000000000E+00 -0.00000000000E+00 -0.30445800931E+03  0.30445800931E+03  0.00000000000E+00 0. -1.
         25    2    1    2    0    0  0.22159197122E+02  0.44438079976E+02 -0.18534713048E+03  0.22900659902E+03  0.12499876260E+03 0.  0.
          2    1    1    2  501    0  0.28402017626E+02 -0.44575643430E+02 -0.89758355537E+02  0.10416441322E+03  0.00000000000E+00 0. -1.
          1    1    1    2  502    0 -0.50561214748E+02  0.13756345458E+00  0.19984088609E+04  0.19990483813E+04  0.00000000000E+00 0. -1.
         22    1    3    3    0    0  0.88837828819E+01 -0.41528866566E+02 -0.33831651054E+02  0.54296859666E+02  0.00000000000E+00 0. -1.
         22    1    3    3    0    0  0.13275414240E+02  0.85966946542E+02 -0.15151547942E+03  0.17470973936E+03  0.00000000000E+00 0. -1.
</event>
<event>
 7    1  0.7029100E-006  0.7049780E+02  0.7818608E-02  0.1374861E+00
          2   -1    0    0  502    0  0.00000000000E+00  0.00000000000E+00  0.29930557334E+04  0.29930557334E+04  0.00000000000E+00 0. -1.
          1   -1    0    0  501    0 -0.00000000000E+00 -0.00000000000E+00 -0.16503393386E+03  0.16503393386E+03  0.00000000000E+00 0. -1.
         25    2    1    2    0    0 -0.77811959579E+02  0.19198300506E+02  0.12271472393E+04  0.12360985352E+04  0.12500386420E+03 0.  0.
          2    1    1    2  501    0  0.42633358665E+02  0.44295287047E+02 -0.15389510190E+03  0.16572078360E+03  0.00000000000E+00 0. -1.
          1    1    1    2  502    0  0.35178600913E+02 -0.63493587553E+02  0.17547696622E+04  0.17562703485E+04  0.00000000000E+00 0. -1.
         22    1    3    3    0    0 -0.63052815364E+02 -0.17049474303E+02  0.11220672163E+04  0.11239667166E+04  0.00000000000E+00 0.  1.
         22    1    3    3    0    0 -0.14759144214E+02  0.36247774809E+02  0.10508002295E+03  0.11213181858E+03  0.00000000000E+00 0.  1.
</event>
<event>
 7    1  0.7029100E-006  0.4356289E+02  0.7818608E-02  0.1547341E+00
          2   -1    0    0  502    0  0.00000000000E+00  0.00000000000E+00  0.71158070999E+03  0.71158070999E+03  0.00000000000E+00 0. -1.
          1   -1    0    0  501    0 -0.00000000000E+00 -0.00000000000E+00 -0.61719906335E+02  0.61719906335E+02  0.00000000000E+00 0. -1.
         25    2    1    2    0    0  0.48492236300E+02 -0.31182905034E+02  0.61964158941E+03  0.63474676650E+03  0.12499555075E+03 0.  0.
          2    1    1    2  501    0 -0.11751946521E+02  0.25798823636E+02 -0.45849366298E+02  0.53905954569E+02  0.00000000000E+00 0. -1.
          1    1    1    2  502    0 -0.36740289779E+02  0.53840813977E+01  0.76068580545E+02  0.84647895259E+02  0.00000000000E+00 0. -1.
         22    1    3    3    0    0 -0.47745327378E+01 -0.66259203909E+02  0.21255022889E+03  0.22268964517E+03  0.00000000000E+00 0.  1.
         22    1    3    3    0    0  0.53266769038E+02  0.35076298875E+02  0.40709136052E+03  0.41205712133E+03  0.00000000000E+00 0.  1.
</event>
<event>
 7    1  0.7029100E-006  0.3291057E+02  0.7818608E-02  0.1585890E+00
          2   -1    0    0  502    0  0.00000000000E+00  0.00000000000E+00  0.13939329356E+03  0.13939329356E+03  0.00000000000E+00 0. -1.
          1   -1    0    0  501    0 -0.00000000000E+00 -0.00000000000E+00 -0.21533128360E+03  0.21533128360E+03  0.00000000000E+00 0. -1.
         25    2    1    2    0    0  0.10184942483E-01 -0.14182989050E+02 -0.45278534194E+02  0.13369927902E+03  0.12499677703E+03 0.  0.
          2    1    1    2  501    0 -0.29225626703E+02  0.17907681339E+02 -0.12112763916E+03  0.12588378480E+03  0.00000000000E+00 0. -1.
          1    1    1    2  502    0  0.29215441760E+02 -0.37246922891E+01  0.90468183313E+02  0.95141513347E+02  0.00000000000E+00 0. -1.
         22    1    3    3    0    0 -0.30496486421E+02  0.33925442830E+02  0.17562293753E+02  0.48881545773E+02  0.00000000000E+00 0. -1.
         22    1    3    3    0    0  0.30506671364E+02 -0.48108431880E+02 -0.62840827947E+02  0.84817733244E+02  0.00000000000E+00 0. -1.
</event>
<event>
 7    1  0.7029100E-006  0.2019902E+03  0.7818608E-02  0.1321579E+00
          2   -1    0    0  502    0  0.00000000000E+00  0.00000000000E+00  0.18363334145E+04  0.18363334145E+04  0.00000000000E+00 0. -1.
          1   -1    0    0  501    0 -0.00000000000E+00 -0.00000000000E+00 -0.41319611363E+02  0.41319611363E+02  0.00000000000E+00 0. -1.
         25    2    1    2    0    0 -0.16148067368E+03  0.95027771884E+02  0.94078756969E+03  0.96737418842E+03  0.12500113496E+03 0.  0.
          2    1    1    2  501    0  0.19224388821E+03 -0.80896487227E+02  0.36894958617E+03  0.42382278293E+03  0.00000000000E+00 0. -1.
          1    1    1    2  502    0 -0.30763214528E+02 -0.14131284657E+02  0.48527664729E+03  0.48645605452E+03  0.00000000000E+00 0. -1.
         22    1    3    3    0    0 -0.97202414499E+02  0.10071385370E+03  0.80445549627E+03  0.81654163102E+03  0.00000000000E+00 0. -1.
         22    1    3    3    0    0 -0.64278259179E+02 -0.56860818135E+01  0.13633207342E+03  0.15083255740E+03  0.00000000000E+00 0. -1.
</event>
<event>
 7    1  0.7029100E-006  0.6684167E+02  0.7818608E-02  0.1468759E+00
          2   -1    0    0  502    0  0.00000000000E+00  0.00000000000E+00  0.19990008580E+04  0.19990008580E+04  0.00000000000E+00 0. -1.
          1   -1    0    0  501    0 -0.00000000000E+00 -0.00000000000E+00 -0.44348631341E+03  0.44348631341E+03  0.00000000000E+00 0. -1.
         25    2    1    2    0    0 -0.55779155326E+02 -0.46109806766E+02  0.80337194008E+02  0.16525954706E+03  0.12497689669E+03 0.  0.
          2    1    1    2  501    0  0.27876169146E+02  0.60789173105E+02 -0.39810345342E+03  0.40368151308E+03  0.00000000000E+00 0. -1.
          1    1    1    2  502    0  0.27902986180E+02 -0.14679366339E+02  0.18732808040E+04  0.18735461113E+04  0.00000000000E+00 0. -1.
         22    1    3    3    0    0  0.38530100796E+02 -0.93374823447E+01  0.69956816537E+01  0.40257878803E+02  0.00000000000E+00 0.  1.
         22    1    3    3    0    0 -0.94309256122E+02 -0.36772324421E+02  0.73341512355E+02  0.12500166826E+03  0.00000000000E+00 0.  1.
</event>
<event>
 7    1  0.7029100E-006  0.6156965E+02  0.7818608E-02  0.1440296E+00
          2   -1    0    0  502    0  0.00000000000E+00  0.00000000000E+00  0.25493857664E+03  0.25493857664E+03  0.00000000000E+00 0. -1.
          1   -1    0    0  501    0 -0.00000000000E+00 -0.00000000000E+00 -0.57352101119E+03  0.57352101119E+03  0.00000000000E+00 0. -1.
         25    2    1    2    0    0  0.41767370631E+02  0.87837458094E+02 -0.16131952402E+03  0.22607221570E+03  0.12499890234E+03 0.  0.
          2    1    1    2  501    0 -0.37361599512E+02 -0.45910177904E+02 -0.37548931220E+03  0.38012610688E+03  0.00000000000E+00 0. -1.
          1    1    1    2  502    0 -0.44057711195E+01 -0.41927280190E+02  0.21822640167E+03  0.22226126525E+03  0.00000000000E+00 0. -1.
         22    1    3    3    0    0 -0.39749580380E+02  0.36328841761E+02 -0.25704199408E+02  0.59670090927E+02  0.00000000000E+00 0. -1.
         22    1    3    3    0    0  0.81516951011E+02  0.51508616334E+02 -0.13561532462E+03  0.16640212477E+03  0.00000000000E+00 0. -1.
</event>
<event>
 7    1  0.7029100E-006  0.1236662E+03  0.7818608E-02  0.1331550E+00
          2   -1    0    0  502    0  0.00000000000E+00  0.00000000000E+00  0.32205258018E+04  0.32205258018E+04  0.00000000000E+00 0. -1.
          1   -1    0    0  501    0 -0.00000000000E+00 -0.00000000000E+00 -0.18763951749E+04  0.18763951749E+04  0.00000000000E+00 0. -1.
         25    2    1    2    0    0 -0.62548915954E+02  0.15984029282E+03  0.16095846988E+03  0.26644722020E+03  0.12500082412E+03 0.  0.
          2    1    1    2  501    0  0.56280071844E+02 -0.10960212785E+03 -0.18213562953E+04  0.18255187831E+04  0.00000000000E+00 0. -1.
          1    1    1    2  502    0  0.62688441100E+01 -0.50238164964E+02  0.30045284523E+04  0.30049549734E+04  0.00000000000E+00 0. -1.
         22    1    3    3    0    0  0.27075381579E+02  0.10223160289E+03  0.77687032074E+02  0.13122367115E+03  0.00000000000E+00 0.  1.
         22    1    3    3    0    0 -0.89624297533E+02  0.57608689930E+02  0.83271437810E+02  0.13522354905E+03  0.00000000000E+00 0.  1.
</event>
<event>
 7    1  0.7029100E-006  0.1022363E+03  0.7818608E-02  0.1308010E+00
          2   -1    0    0  502    0  0.00000000000E+00  0.00000000000E+00  0.62986827712E+03  0.62986827712E+03  0.00000000000E+00 0. -1.
          1   -1    0    0  501    0 -0.00000000000E+00 -0.00000000000E+00 -0.37880139469E+03  0.37880139469E+03  0.00000000000E+00 0. -1.
         25    2    1    2    0    0 -0.73656864169E+02 -0.12859331083E+03  0.34644776218E+03  0.39700762476E+03  0.12500971551E+03 0.  0.
          2    1    1    2  501    0  0.44961902982E+00  0.75578383060E+02 -0.34134687418E+03  0.34961404814E+03  0.00000000000E+00 0. -1.
          1    1    1    2  502    0  0.73207245139E+02  0.53014927775E+02  0.24596599444E+03  0.26204799890E+03  0.00000000000E+00 0. -1.
         22    1    3    3    0    0 -0.31755294452E+02 -0.13537628862E+03  0.19350684686E+03  0.23828562279E+03  0.00000000000E+00 0.  1.
         22    1    3    3    0    0 -0.41901569716E+02  0.67829777852E+01  0.15294091532E+03  0.15872200198E+03  0.00000000000E+00 0.  1.
</event>
<event>
 7    1  0.7029100E-006  0.1566511E+03  0.7818608E-02  0.1346407E+00
          2   -1    0    0  502    0  0.00000000000E+00  0.00000000000E+00  0.64366391538E+03  0.64366391538E+03  0.00000000000E+00 0. -1.
          1   -1    0    0  501    0 -0.00000000000E+00 -0.00000000000E+00 -0.70181098874E+03  0.70181098874E+03  0.00000000000E+00 0. -1.
         25    2    1    2    0    0 -0.70761777073E+02  0.16838087553E+03 -0.80413148914E+02  0.23547917029E+03  0.12499926714E+03 0.  0.
          2    1    1    2  501    0  0.29582756771E+02 -0.18953306150E+02 -0.53266627708E+03  0.53382368817E+03  0.00000000000E+00 0. -1.
          1    1    1    2  502    0  0.41179020302E+02 -0.14942756938E+03  0.55493235263E+03  0.57617204565E+03  0.00000000000E+00 0. -1.
         22    1    3    3    0    0 -0.22215327489E+02  0.10577082056E+03 -0.10682905303E+03  0.15196523888E+03  0.00000000000E+00 0. -1.
         22    1    3    3    0    0 -0.48546449583E+02  0.62610054971E+02  0.26415904112E+02  0.83513931417E+02  0.00000000000E+00 0. -1.
</event>
<event>
 7    1  0.7029100E-006  0.5823962E+02  0.7818608E-02  0.1487711E+00
          2   -1    0    0  502    0  0.00000000000E+00  0.00000000000E+00  0.13913236536E+04  0.13913236536E+04  0.00000000000E+00 0. -1.
          1   -1    0    0  501    0 -0.00000000000E+00 -0.00000000000E+00 -0.13416567321E+03  0.13416567321E+03  0.00000000000E+00 0. -1.
         25    2    1    2    0    0 -0.52501897898E+02  0.24258352408E+01  0.28297368545E+03  0.31378594317E+03  0.12500071005E+03 0.  0.
          2    1    1    2  501    0  0.47887441660E+02 -0.33728600337E+02 -0.11129275665E+03  0.12576527037E+03  0.00000000000E+00 0. -1.
          1    1    1    2  502    0  0.46144562385E+01  0.31302765096E+02  0.10854770515E+04  0.10859381132E+04  0.00000000000E+00 0. -1.
         22    1    3    3    0    0  0.33449995113E+02 -0.28202048836E+02  0.10598990129E+03  0.11466523845E+03  0.00000000000E+00 0.  1.
         22    1    3    3    0    0 -0.85951893011E+02  0.30627884077E+02  0.17698378416E+03  0.19912070473E+03  0.00000000000E+00 0.  1.
</event>
<event>
 7    1  0.7029100E-006  0.5224639E+02  0.7818608E-02  0.1487025E+00
          2   -1    0    0  502    0  0.00000000000E+00  0.00000000000E+00  0.46127788685E+03  0.46127788685E+03  0.00000000000E+00 0. -1.
          1   -1    0    0  501    0 -0.00000000000E+00 -0.00000000000E+00 -0.52133960860E+03  0.52133960860E+03  0.00000000000E+00 0. -1.
         25    2    1    2    0    0  0.19958241892E+02  0.17255816121E+02 -0.67436251809E+02  0.14446227109E+03  0.12500242038E+03 0.  0.
          2    1    1    2  501    0  0.32656968269E+02 -0.13767323180E+02 -0.41298420187E+03  0.41450207208E+03  0.00000000000E+00 0. -1.
          1    1    1    2  502    0 -0.52615210161E+02 -0.34884929407E+01  0.42035873193E+03  0.42365315228E+03  0.00000000000E+00 0. -1.
         22    1    3    3    0    0 -0.13499907751E+02  0.38891030552E+02 -0.89789010993E+02  0.98776648363E+02  0.00000000000E+00 0.  1.
         22    1    3    3    0    0  0.33458149643E+02 -0.21635214431E+02  0.22352759185E+02  0.45685622730E+02  0.00000000000E+00 0.  1.
</event>
<event>
 7    1  0.7029100E-006  0.1952655E+03  0.7818608E-02  0.1255621E+00
          2   -1    0    0  502    0  0.00000000000E+00  0.00000000000E+00  0.21959423520E+04  0.21959423520E+04  0.00000000000E+00 0. -1.
          1   -1    0    0  501    0 -0.00000000000E+00 -0.00000000000E+00 -0.16462565092E+03  0.16462565092E+03  0.00000000000E+00 0. -1.
         25    2    1    2    0    0  0.44091165461E+02  0.21617110739E+03  0.12728873708E+04  0.12978980565E+04  0.12499251017E+03 0.  0.
          2    1    1    2  501    0 -0.91481327091E+02 -0.17158827498E+03 -0.88217400825E+02  0.21352676442E+03  0.00000000000E+00 0. -1.
          1    1    1    2  502    0  0.47390161630E+02 -0.44582832405E+02  0.84664673108E+03  0.84914318204E+03  0.00000000000E+00 0. -1.
         22    1    3    3    0    0  0.29962582849E+02  0.19396842365E+03  0.78019765621E+03  0.80450599035E+03  0.00000000000E+00 0.  1.
         22    1    3    3    0    0  0.14128582612E+02  0.22202683737E+02  0.49268971464E+03  0.49339206613E+03  0.00000000000E+00 0.  1.
</event>
<event>
 7    1  0.7029100E-006  0.4186312E+02  0.7818608E-02  0.1593311E+00
          2   -1    0    0  502    0  0.00000000000E+00  0.00000000000E+00  0.23677473173E+04  0.23677473173E+04  0.00000000000E+00 0. -1.
          1   -1    0    0  501    0 -0.00000000000E+00 -0.00000000000E+00 -0.23108850503E+03  0.23108850503E+03  0.00000000000E+00 0. -1.
         25    2    1    2    0    0 -0.21353732434E+02 -0.35451826112E+02  0.11110904026E+03  0.17228762703E+03  0.12499997494E+03 0.  0.
          2    1    1    2  501    0 -0.15600084647E+02  0.15695060601E+02 -0.19969075753E+03  0.20091315589E+03  0.00000000000E+00 0. -1.
          1    1    1    2  502    0  0.36953817081E+02  0.19756765511E+02  0.22252405295E+04  0.22256350394E+04  0.00000000000E+00 0. -1.
         22    1    3    3    0    0 -0.35120814972E+02 -0.38927398607E+02  0.13481703234E+03  0.14465284724E+03  0.00000000000E+00 0.  1.
         22    1    3    3    0    0  0.13767082538E+02  0.34755724952E+01 -0.23707992072E+02  0.27634779787E+02  0.00000000000E+00 0.  1.
</event>
<event>
 7    1  0.7029100E-006  0.8811503E+02  0.7818608E-02  0.1356362E+00
          2   -1    0    0  502    0  0.00000000000E+00  0.00000000000E+00  0.50570437237E+03  0.50570437237E+03  0.00000000000E+00 0. -1.
          1   -1    0    0  501    0 -0.00000000000E+00 -0.00000000000E+00 -0.25464585344E+03  0.25464585344E+03  0.00000000000E+00 0. -1.
         25    2    1    2    0    0  0.50135640818E+02 -0.10387954304E+03 -0.45381031018E+02  0.17602659068E+03  0.12498552200E+03 0.  0.
          2    1    1    2  501    0 -0.68959178948E+02  0.49669656775E+02 -0.12930300132E+03  0.15473108710E+03  0.00000000000E+00 0. -1.
          1    1    1    2  502    0  0.18823538130E+02  0.54209886262E+02  0.42574255127E+03  0.42959254803E+03  0.00000000000E+00 0. -1.
         22    1    3    3    0    0  0.61525809810E+01  0.22441675360E+02 -0.34781729403E+02  0.41847959878E+02  0.00000000000E+00 0.  1.
         22    1    3    3    0    0  0.43983059837E+02 -0.12632121840E+03 -0.10599301615E+02  0.13417863080E+03  0.00000000000E+00 0.  1.
</event>
<event>
 7    1  0.7029100E-006  0.4211995E+02  0.7818608E-02  0.1522701E+00
          2   -1    0    0  502    0  0.00000000000E+00  0.00000000000E+00  0.16338502397E+04  0.16338502397E+04  0.00000000000E+00 0. -1.
          1   -1    0    0  501    0 -0.00000000000E+00 -0.00000000000E+00 -0.43617229244E+02  0.43617229244E+02  0.00000000000E+00 0. -1.
         25    2    1    2    0    0  0.23540963034E+02 -0.51384014435E+01  0.48765738087E+03  0.50399953899E+03  0.12500093631E+03 0.  0.
          2    1    1    2  501    0 -0.47881680271E+01 -0.34124142608E+02 -0.26552386535E+02  0.43501872287E+02  0.00000000000E+00 0. -1.
          1    1    1    2  502    0 -0.18752795007E+02  0.39262544051E+02  0.11291280161E+04  0.11299660576E+04  0.00000000000E+00 0. -1.
         22    1    3    3    0    0 -0.34753792182E+02 -0.44859250136E+02  0.21362935934E+03  0.22103773787E+03  0.00000000000E+00 0.  1.
         22    1    3    3    0    0  0.58294755216E+02  0.39720848693E+02  0.27402802153E+03  0.28296180112E+03  0.00000000000E+00 0.  1.
</event>
<event>
 7    1  0.7029100E-006  0.9597424E+02  0.7818608E-02  0.1377550E+00
          2   -1    0    0  502    0  0.00000000000E+00  0.00000000000E+00  0.19269751977E+04  0.19269751977E+04  0.00000000000E+00 0. -1.
          1   -1    0    0  501    0 -0.00000000000E+00 -0.00000000000E+00 -0.75073256331E+03  0.75073256331E+03  0.00000000000E+00 0. -1.
         25    2    1    2    0    0  0.47261309279E+02 -0.23551396909E+02  0.12456979367E+03  0.18420380428E+03  0.12500043345E+03 0.  0.
          2    1    1    2  501    0 -0.88376887141E+02  0.39703424632E+02 -0.71738341124E+03  0.72389625971E+03  0.00000000000E+00 0. -1.
          1    1    1    2  502    0  0.41115577862E+02 -0.16152027723E+02  0.17690562520E+04  0.17696076971E+04  0.00000000000E+00 0. -1.
         22    1    3    3    0    0 -0.99287304448E+01 -0.50626139881E+02  0.88919907135E+01  0.52351248566E+02  0.00000000000E+00 0.  1.
         22    1    3    3    0    0  0.57190039724E+02  0.27074742973E+02  0.11567780296E+03  0.13185255571E+03  0.00000000000E+00 0.  1.
</event>
<event>
 7    1  0.7029100E-006  0.4624497E+02  0.7818608E-02  0.1486116E+00
          2   -1    0    0  502    0  0.00000000000E+00  0.00000000000E+00  0.51249955457E+03  0.51249955457E+03  0.00000000000E+00 0. -1.
          1   -1    0    0  501    0 -0.00000000000E+00 -0.00000000000E+00 -0.28691059627E+04  0.28691059627E+04  0.00000000000E+00 0. -1.
         25    2    1    2    0    0 -0.53355449848E+01  0.27758611317E+02 -0.11487478753E+04  0.11558741858E+04  0.12499777539E+03 0.  0.
          2    1    1    2  501    0 -0.38328071937E+02 -0.12435718036E+02 -0.17155060044E+04  0.17159791780E+04  0.00000000000E+00 0. -1.
          1    1    1    2  502    0  0.43663616922E+02 -0.15322893281E+02  0.50764747161E+03  0.50975215344E+03  0.00000000000E+00 0. -1.
         22    1    3    3    0    0  0.22788511639E+02  0.34926049507E+02 -0.12614876237E+03  0.13286329608E+03  0.00000000000E+00 0.  1.
         22    1    3    3    0    0 -0.28124056624E+02 -0.71674381898E+01 -0.10225991129E+04  0.10230108897E+04  0.00000000000E+00 0.  1.
</event>
<event>
 7    1  0.7029100E-006  0.1246915E+03  0.7818608E-02  0.1361227E+00
          2   -1    0    0  502    0  0.00000000000E+00  0.00000000000E+00  0.88621623152E+03  0.88621623152E+03  0.00000000000E+00 0. -1.
          1   -1    0    0  501    0 -0.00000000000E+00 -0.00000000000E+00 -0.15537545880E+03  0.15537545880E+03  0.00000000000E+00 0. -1.
         25    2    1    2    0    0  0.12777102715E+03 -0.94389400645E+00  0.24602229470E+03  0.30410846372E+03  0.12501464676E+03 0.  0.
          2    1    1    2  501    0 -0.11933438433E+03 -0.37055511076E+02 -0.94620603301E+02  0.15673820451E+03  0.00000000000E+00 0. -1.
          1    1    1    2  502    0 -0.84366428248E+01  0.37999405082E+02  0.57943908132E+03  0.58074502209E+03  0.00000000000E+00 0. -1.
         22    1    3    3    0    0  0.27575430465E+02  0.56776082226E+02  0.85398268255E+02  0.10619224124E+03  0.00000000000E+00 0. -1.
         22    1    3    3    0    0  0.10019559669E+03 -0.57719976232E+02  0.16062402644E+03  0.19791622248E+03  0.00000000000E+00 0. -1.
</event>
<event>
 7    1  0.7029100E-006  0.1024944E+03  0.7818608E-02  0.1370401E+00
          2   -1    0    0  502    0  0.00000000000E+00  0.00000000000E+00  0.39621611143E+03  0.39621611143E+03  0.00000000000E+00 0. -1.
          1   -1    0    0  501    0 -0.00000000000E+00 -0.00000000000E+00 -0.93857904196E+03  0.93857904196E+03  0.00000000000E+00 0. -1.
         25    2    1    2    0    0 -0.63801068379E+02 -0.49130074190E+01 -0.85173180754E+02  0.16424245639E+03  0.12500559904E+03 0.  0.
          2    1    1    2  501    0  0.10304290487E+03  0.24526997746E+02 -0.80905696703E+03  0.81596114476E+03  0.00000000000E+00 0. -1.
          1    1    1    2  502    0 -0.39241836492E+02 -0.19613990327E+02  0.35186721725E+03  0.35459155224E+03  0.00000000000E+00 0. -1.
         22    1    3    3    0    0 -0.56431362744E+02 -0.10609172866E+00 -0.11770944975E+03  0.13053744489E+03  0.00000000000E+00 0. -1.
         22    1    3    3    0    0 -0.73697056349E+01 -0.48069156904E+01  0.32536269000E+02  0.33705011497E+02  0.00000000000E+00 0. -1.
</event>
<event>
 7    1  0.7029100E-006  0.2306001E+03  0.7818608E-02  0.1255646E+00
          2   -1    0    0  502    0  0.00000000000E+00  0.00000000000E+00  0.60140210228E+03  0.60140210228E+03  0.00000000000E+00 0. -1.
          1   -1    0    0  501    0 -0.00000000000E+00 -0.00000000000E+00 -0.77564592143E+03  0.77564592143E+03  0.00000000000E+00 0. -1.
         25    2    1    2    0    0  0.10542236981E+03 -0.21188781559E+03 -0.32528062860E+03  0.42123891773E+03  0.12499766406E+03 0.  0.
          2    1    1    2  501    0  0.42528744458E+02  0.35003919273E+02 -0.37627160853E+03  0.38028185844E+03  0.00000000000E+00 0. -1.
          1    1    1    2  502    0 -0.14795111427E+03  0.17688389631E+03  0.52730841798E+03  0.57552724754E+03  0.00000000000E+00 0. -1.
         22    1    3    3    0    0 -0.27806161467E+02 -0.55049074833E+02 -0.81754471750E+02  0.10240789475E+03  0.00000000000E+00 0. -1.
         22    1    3    3    0    0  0.13322853128E+03 -0.15683874075E+03 -0.24352615685E+03  0.31883102298E+03  0.00000000000E+00 0. -1.
</event>
<event>
 7    1  0.7029100E-006  0.1084580E+03  0.7818608E-02  0.1331058E+00
          2   -1    0    0  502    0  0.00000000000E+00  0.00000000000E+00  0.30209811860E+04  0.30209811860E+04  0.00000000000E+00 0. -1.
          1   -1    0    0  501    0 -0.00000000000E+00 -0.00000000000E+00 -0.36898333557E+02  0.36898333557E+02  0.00000000000E+00 0. -1.
         25    2    1    2    0    0  0.82204522440E+02  0.81065012962E+02  0.10598635854E+04  0.10734368402E+04  0.12500684097E+03 0.  0.
          2    1    1    2  501    0  0.23798157164E+02 -0.52867339326E+02  0.88541431169E+00  0.57983547755E+02  0.00000000000E+00 0. -1.
          1    1    1    2  502    0 -0.10600267960E+03 -0.28197673636E+02  0.19233338527E+04  0.19264591316E+04  0.00000000000E+00 0. -1.
         22    1    3    3    0    0  0.30093839622E+02 -0.32742960871E+02  0.24242531344E+03  0.24647063368E+03  0.00000000000E+00 0.  1.
         22    1    3    3    0    0  0.52110682817E+02  0.11380797383E+03  0.81743827200E+03  0.82696620651E+03  0.00000000000E+00 0.  1.
</event>
<event>
 7    1  0.7029100E-006  0.3450498E+02  0.7818608E-02  0.1555105E+00
          2   -1    0    0  502    0  0.00000000000E+00  0.00000000000E+00  0.18880029146E+03  0.18880029146E+03  0.00000000000E+00 0. -1.
          1   -1    0    0  501    0 -0.00000000000E+00 -0.00000000000E+00 -0.27440638032E+03  0.27440638032E+03  0.00000000000E+00 0. -1.
         25    2    1    2    0    0  0.22850944002E+01  0.60683808346E+01  0.23945132819E+00  0.12516950204E+03  0.12500120000E+03 0.  0.
          2    1    1    2  501    0 -0.29080014384E+02  0.17718818941E+02 -0.20798316205E+03  0.21075246019E+03  0.00000000000E+00 0. -1.
          1    1    1    2  502    0  0.26794919983E+02 -0.23787199776E+02  0.12213762186E+03  0.12728470955E+03  0.00000000000E+00 0. -1.
         22    1    3    3    0    0 -0.50409497468E+02 -0.30164094271E+02 -0.12258184241E+02  0.60010441584E+02  0.00000000000E+00 0.  1.
         22    1    3    3    0    0  0.52694591869E+02  0.36232475105E+02  0.12497635569E+02  0.65159060454E+02  0.00000000000E+00 0.  1.
</event>
<event>
 7    1  0.7029100E-006  0.4973313E+02  0.7818608E-02  0.1461380E+00
          2   -1    0    0  502    0  0.00000000000E+00  0.00000000000E+00  0.23882785724E+03  0.23882785724E+03  0.00000000000E+00 0. -1.
          1   -1    0    0  501    0 -0.00000000000E+00 -0.00000000000E+00 -0.11447463347E+04  0.11447463347E+04  0.00000000000E+00 0. -1.
         25    2    1    2    0    0  0.52900707971E+02  0.30777534868E+02 -0.15577198993E+03  0.20889024116E+03  0.12499791378E+03 0.  0.
          2    1    1    2  501    0 -0.47997612411E+02  0.13643621901E+02 -0.95940733250E+03  0.96070409018E+03  0.00000000000E+00 0. -1.
          1    1    1    2  502    0 -0.49030955603E+01 -0.44421156769E+02  0.20926084497E+03  0.21397986062E+03  0.00000000000E+00 0. -1.
         22    1    3    3    0    0  0.75913565253E+02  0.10810671347E+02 -0.34919164927E+02  0.84256086330E+02  0.00000000000E+00 0. -1.
         22    1    3    3    0    0 -0.23012857282E+02  0.19966863521E+02 -0.12085282500E+03  0.12463415483E+03  0.00000000000E+00 0. -1.
</event>
<event>
 7    1  0.7029100E-006  0.6612139E+02  0.7818608E-02  0.1493535E+00
          2   -1    0    0  502    0  0.00000000000E+00  0.00000000000E+00  0.19458099225E+04  0.19458099225E+04  0.00000000000E+00 0. -1.
          1   -1    0    0  501    0 -0.00000000000E+00 -0.00000000000E+00 -0.77718278779E+02  0.77718278779E+02  0.00000000000E+00 0. -1.
         25    2    1    2    0    0 -0.48735037826E+01 -0.84938030375E+02  0.42350422527E+03  0.44969066491E+03  0.12501058054E+03 0.  0.
          2    1    1    2  501    0 -0.12215637590E+02  0.64342498085E+02 -0.47881686560E+02  0.81128507748E+02  0.00000000000E+00 0. -1.
          1    1    1    2  502    0  0.17089141372E+02  0.20595532290E+02  0.14924691050E+04  0.14927090287E+04  0.00000000000E+00 0. -1.
         22    1    3    3    0    0 -0.18241898756E+02  0.16099791589E+02  0.22726414785E+03  0.22856282081E+03  0.00000000000E+00 0. -1.
         22    1    3    3    0    0  0.13368394974E+02 -0.10103782196E+03  0.19624007742E+03  0.22112784410E+03  0.00000000000E+00 0. -1.
</event>
<event>
 7    1  0.7029100E-006  0.1459352E+03  0.7818608E-02  0.1323032E+00
          2   -1    0    0  502    0  0.00000000000E+00  0.00000000000E+00  0.11743308393E+04  0.11743308393E+04  0.00000000000E+00 0. -1.
          1   -1    0    0  501    0 -0.00000000000E+00 -0.00000000000E+00 -0.81632616206E+02  0.81632616206E+02  0.00000000000E+00 0. -1.
         25    2    1    2    0    0 -0.28511896394E+02  0.14892059884E+03  0.47710322248E+03  0.51598810012E+03  0.12500384621E+03 0.  0.
          2    1    1    2  501    0 -0.41213888699E+02 -0.20998060831E+02 -0.44385189634E+02  0.64105758237E+02  0.00000000000E+00 0. -1.
          1    1    1    2  502    0  0.69725785093E+02 -0.12792253800E+03  0.65998019029E+03  0.67586959720E+03  0.00000000000E+00 0. -1.
         22    1    3    3    0    0 -0.70989526748E+02  0.10381676027E+03  0.38469581749E+03  0.40473238642E+03  0.00000000000E+00 0.  1.
         22    1    3    3    0    0  0.42477630353E+02  0.45103838567E+02  0.92407404995E+02  0.11125571370E+03  0.00000000000E+00 0.  1.
</event>
<event>
 7    1  0.7029100E-006  0.2179029E+03  0.7818608E-02  0.1325193E+00
          2   -1    0    0  502    0  0.00000000000E+00  0.00000000000E+00  0.81929393705E+02  0.81929393705E+02  0.00000000000E+00 0. -1.
          1   -1    0    0  501    0 -0.00000000000E+00 -0.00000000000E+00 -0.22423072563E+04  0.22423072563E+04  0.00000000000E+00 0. -1.
         25    2    1    2    0    0 -0.23740096039E+03 -0.75432403010E+01 -0.62760819487E+03  0.68258569099E+03  0.12496024490E+03 0.  0.
          2    1    1    2  501    0  0.25720036408E+02  0.16186219315E+02 -0.13802957650E+04  0.13806302593E+04  0.00000000000E+00 0. -1.
          1    1    1    2  502    0  0.21168092398E+03 -0.86429790137E+01 -0.15247390267E+03  0.26102069967E+03  0.00000000000E+00 0. -1.
         22    1    3    3    0    0 -0.42622810291E+02 -0.51971841234E+02 -0.18977981547E+03  0.20133095788E+03  0.00000000000E+00 0. -1.
         22    1    3    3    0    0 -0.19477815010E+03  0.44428600933E+02 -0.43782837940E+03  0.48125473311E+03  0.00000000000E+00 0. -1.
</event>
<event>
 7    1  0.7029100E-006  0.5663588E+02  0.7818608E-02  0.1475658E+00
          2   -1    0    0  502    0  0.00000000000E+00  0.00000000000E+00  0.19800927013E+04  0.19800927013E+04  0.00000000000E+00 0. -1.
          1   -1    0    0  501    0 -0.00000000000E+00 -0.00000000000E+00 -0.79908477798E+02  0.79908477798E+02  0.00000000000E+00 0. -1.
         25    2    1    2    0    0 -0.88995429517E+02 -0.14692692095E+02  0.59074541464E+03  0.61052602338E+03  0.12500327447E+03 0.  0.
          2    1    1    2  501    0  0.34866196978E+02  0.62473570103E+01 -0.64957429223E+02  0.73987490649E+02  0.00000000000E+00 0. -1.
          1    1    1    2  502    0  0.54129232539E+02  0.84453350845E+01  0.13743962381E+04  0.13754876651E+04  0.00000000000E+00 0. -1.
         22    1    3    3    0    0 -0.41825970414E+01 -0.10407009748E+02  0.41687013256E+03  0.41702099155E+03  0.00000000000E+00 0.  1.
         22    1    3    3    0    0 -0.84812832476E+02 -0.42856823471E+01  0.17387528208E+03  0.19350503183E+03  0.00000000000E+00 0.  1.
</event>
<event>
 7    1  0.7029100E-006  0.1201599E+03  0.7818608E-02  0.1307114E+00
          2   -1    0    0  502    0  0.00000000000E+00  0.00000000000E+00  0.26832790280E+04  0.26832790280E+04  0.00000000000E+00 0. -1.
          1   -1    0    0  501    0 -0.00000000000E+00 -0.00000000000E+00 -0.49093109385E+03  0.49093109385E+03  0.00000000000E+00 0. -1.
         25    2    1    2    0    0 -0.84156510409E+02  0.72160861288E+02  0.18773858689E+03  0.25131846793E+03  0.12500274864E+03 0.  0.
          2    1    1    2  501    0  0.36036862897E+02 -0.11560981822E+03 -0.45072117313E+03  0.46670532616E+03  0.00000000000E+00 0. -1.
          1    1    1    2  502    0  0.48119647512E+02  0.43448956928E+02  0.24553305204E+04  0.24561863277E+04  0.00000000000E+00 0. -1.
         22    1    3    3    0    0  0.10196230940E+02 -0.26749690150E+02  0.19935281143E+02  0.34884444710E+02  0.00000000000E+00 0. -1.
         22    1    3    3    0    0 -0.94352741349E+02  0.98910551438E+02  0.16780330575E+03  0.21643402322E+03  0.00000000000E+00 0. -1.
</event>
<event>
 7    1  0.7029100E-006  0.3672856E+02  0.7818608E-02  0.1566440E+00
          2   -1    0    0  502    0  0.00000000000E+00  0.00000000000E+00  0.21970434739E+03  0.21970434739E+03  0.00000000000E+00 0. -1.
          1   -1    0    0  501    0 -0.00000000000E+00 -0.00000000000E+00 -0.14081020218E+04  0.14081020218E+04  0.00000000000E+00 0. -1.
         25    2    1    2    0    0 -0.34707182082E+02  0.56110266350E+02 -0.55353883111E+03  0.57130009483E+03  0.12500244126E+03 0.  0.
          2    1    1    2  501    0  0.12285938961E+02 -0.27122949108E+02 -0.84382544694E+03  0.84435062834E+03  0.00000000000E+00 0. -1.
          1    1    1    2  502    0  0.22421243121E+02 -0.28987317243E+02  0.20896660364E+03  0.21215564603E+03  0.00000000000E+00 0. -1.
         22    1    3    3    0    0  0.56260906782E+01  0.78632465432E+02 -0.20366780757E+03  0.21839252129E+03  0.00000000000E+00 0.  1.
         22    1    3    3    0    0 -0.40333272760E+02 -0.22522199082E+02 -0.34987102354E+03  0.35290757353E+03  0.00000000000E+00 0.  1.
</event>
<event>
 7    1  0.7029100E-006  0.1139074E+03  0.7818608E-02  0.1315157E+00
          2   -1    0    0  502    0  0.00000000000E+00  0.00000000000E+00  0.12731722488E+04  0.12731722488E+04  0.00000000000E+00 0. -1.
          1   -1    0    0  501    0 -0.00000000000E+00 -0.00000000000E+00 -0.74781148470E+03  0.74781148470E+03  0.00000000000E+00 0. -1.
         25    2    1    2    0    0  0.10573688709E+03  0.12525591440E+03  0.22104266214E+03  0.30224910297E+03  0.12500131352E+03 0.  0.
          2    1    1    2  501    0 -0.58287504490E+02 -0.25412241630E+02 -0.70274830768E+03  0.70561916014E+03  0.00000000000E+00 0. -1.
          1    1    1    2  502    0 -0.47449382596E+02 -0.99843672770E+02  0.10070664096E+04  0.10131154704E+04  0.00000000000E+00 0. -1.
         22    1    3    3    0    0  0.12991452029E+03  0.10703869341E+03  0.15175821844E+03  0.22663984940E+03  0.00000000000E+00 0. -1.
         22    1    3    3    0    0 -0.24177633208E+02  0.18217220988E+02  0.69284443694E+02  0.75609253574E+02  0.00000000000E+00 0. -1.
</event>
<event>
 7    1  0.7029100E-006  0.8973407E+02  0.7818608E-02  0.1394342E+00
          2   -1    0    0  502    0  0.00000000000E+00  0.00000000000E+00  0.48714133359E+02  0.48714133359E+02  0.00000000000E+00 0. -1.
          1   -1    0    0  501    0 -0.00000000000E+00 -0.00000000000E+00 -0.52024918232E+03  0.52024918232E+03  0.00000000000E+00 0. -1.
         25    2    1    2    0    0 -0.19456343915E+02 -0.70355523477E+02 -0.35983228727E+03  0.38785665247E+03  0.12500023562E+03 0.  0.
          2    1    1    2  501    0  0.34305243681E+02 -0.22905010150E+02 -0.61787371649E+02  0.74291106664E+02  0.00000000000E+00 0. -1.
          1    1    1    2  502    0 -0.14848899766E+02  0.93260533627E+02 -0.49915390049E+02  0.10681555655E+03  0.00000000000E+00 0. -1.
         22    1    3    3    0    0  0.27232750757E+02 -0.35296151876E+02 -0.32027407631E+02  0.54892585024E+02  0.00000000000E+00 0. -1.
         22    1    3    3    0    0 -0.46689094672E+02 -0.35059371600E+02 -0.32780487963E+03  0.33296406745E+03  0.00000000000E+00 0. -1.
</event>
<event>
 7    1  0.7029100E-006  0.7136357E+02  0.7818608E-02  0.1395942E+00
          2   -1    0    0  502    0  0.00000000000E+00  0.00000000000E+00  0.66378942972E+02  0.66378942972E+02  0.00000000000E+00 0. -1.
          1   -1    0    0  501    0 -0.00000000000E+00 -0.00000000000E+00 -0.97735332989E+03  0.97735332989E+03  0.00000000000E+00 0. -1.
         25    2    1    2    0    0 -0.25536798852E+02  0.19699360761E+02 -0.17832491533E+03  0.22015612267E+03  0.12501499915E+03 0.  0.
          2    1    1    2  501    0  0.25263066116E+02 -0.70908427578E+02 -0.76122189541E+03  0.76493463881E+03  0.00000000000E+00 0. -1.
          1    1    1    2  502    0  0.27373273605E+00  0.51209066817E+02  0.28572423818E+02  0.58641511378E+02  0.00000000000E+00 0. -1.
         22    1    3    3    0    0 -0.11242466109E+02  0.22595013814E+02  0.12922454682E+02  0.28353439447E+02  0.00000000000E+00 0. -1.
         22    1    3    3    0    0 -0.14294332743E+02 -0.28956530523E+01 -0.19124737002E+03  0.19180268323E+03  0.00000000000E+00 0. -1.
</event>
<event>
 7    1  0.7029100E-006  0.1075340E+03  0.7818608E-02  0.1398973E+00
          2   -1    0    0  502    0  0.00000000000E+00  0.00000000000E+00  0.24223499668E+04  0.24223499668E+04  0.00000000000E+00 0. -1.
          1   -1    0    0  501    0 -0.00000000000E+00 -0.00000000000E+00 -0.25286612868E+03  0.25286612868E+03  0.00000000000E+00 0. -1.
         25    2    1    2    0    0 -0.57034083555E+02 -0.10336193675E+03  0.30229240323E+03  0.34776773745E+03  0.12500050201E+03 0.  0.
          2    1    1    2  501    0  0.23881496508E+02  0.10460724991E+03 -0.21748215253E+03  0.24251080240E+03  0.00000000000E+00 0. -1.
          1    1    1    2  502    0  0.33152587046E+02 -0.12453131534E+01  0.20846735874E+04  0.20849375557E+04  0.00000000000E+00 0. -1.
         22    1    3    3    0    0 -0.96414588349E+01  0.28727095094E+02  0.38753081304E+02  0.49193546645E+02  0.00000000000E+00 0.  1.
         22    1    3    3    0    0 -0.47392624720E+02 -0.13208903185E+03  0.26353932193E+03  0.29857419080E+03  0.00000000000E+00 0.  1.
</event>
<event>
 7    1  0.7029100E-006  0.5642156E+02  0.7818608E-02  0.1423901E+00
          2   -1    0    0  502    0  0.00000000000E+00  0.00000000000E+00  0.24521856605E+03  0.24521856605E+03  0.00000000000E+00 0. -1.
          1   -1    0    0  501    0 -0.00000000000E+00 -0.00000000000E+00 -0.22260353655E+03  0.22260353655E+03  0.00000000000E+00 0. -1.
         25    2    1    2    0    0 -0.13416933003E+02 -0.33188784502E+00  0.10266780664E+03  0.16230687388E+03  0.12499087386E+03 0.  0.
          2    1    1    2  501    0  0.32639266957E+02 -0.48064269698E+02 -0.18199461987E+03  0.19104328680E+03  0.00000000000E+00 0. -1.
          1    1    1    2  502    0 -0.19222333954E+02  0.48396157543E+02  0.10194184273E+03  0.11447194192E+03  0.00000000000E+00 0. -1.
         22    1    3    3    0    0 -0.38037903984E+02  0.35894977595E+02  0.17911400497E+01  0.52331059025E+02  0.00000000000E+00 0.  1.
         22    1    3    3    0    0  0.24620970981E+02 -0.36226865440E+02  0.10087666659E+03  0.10997581486E+03  0.00000000000E+00 0.  1.
</event>
<event>
 7    1  0.7029100E-006  0.3529905E+02  0.7818608E-02  0.1550195E+00
          2   -1    0    0  502    0  0.00000000000E+00  0.00000000000E+00  0.17022626928E+03  0.17022626928E+03  0.00000000000E+00 0. -1.
          1   -1    0    0  501    0 -0.00000000000E+00 -0.00000000000E+00 -0.28914122204E+03  0.28914122204E+03  0.00000000000E+00 0. -1.
         25    2    1    2    0    0 -0.33060003249E+02 -0.56819709372E+02 -0.18753153392E+03  0.23476509390E+03  0.12500051963E+03 0.  0.
          2    1    1    2  501    0  0.25928258768E+02  0.22530473204E+02 -0.71955067503E+02  0.79733484590E+02  0.00000000000E+00 0. -1.
          1    1    1    2  502    0  0.71317444811E+01  0.34289236168E+02  0.14057164867E+03  0.14486891284E+03  0.00000000000E+00 0. -1.
         22    1    3    3    0    0  0.46454913389E+02 -0.36719687921E+02 -0.78099601474E+02  0.98009908730E+02  0.00000000000E+00 0.  1.
         22    1    3    3    0    0 -0.79514916638E+02 -0.20100021451E+02 -0.10943193245E+03  0.13675518517E+03  0.00000000000E+00 0.  1.
</event>
<event>
 7    1  0.7029100E-006  0.1663911E+03  0.7818608E-02  0.1188792E+00
          2   -1    0    0  502    0  0.00000000000E+00  0.00000000000E+00  0.23775540305E+04  0.23775540305E+04  0.00000000000E+00 0. -1.
          1   -1    0    0  501    0 -0.00000000000E+00 -0.00000000000E+00 -0.25212796484E+03  0.25212796484E+03  0.00000000000E+00 0. -1.
         25    2    1    2    0    0  0.21716160781E+01 -0.15023201876E+02 -0.17383727352E+03  0.21465971542E+03  0.12501593197E+03 0.  0.
          2    1    1    2  501    0  0.15533240093E+02 -0.15290441901E+03  0.53226835612E+02  0.16264728380E+03  0.00000000000E+00 0. -1.
          1    1    1    2  502    0 -0.17704856171E+02  0.16792762088E+03  0.22460365036E+04  0.22523749961E+04  0.00000000000E+00 0. -1.
         22    1    3    3    0    0 -0.44394207327E+02  0.21431301167E+02 -0.13548392347E+03  0.14417364472E+03  0.00000000000E+00 0. -1.
         22    1    3    3    0    0  0.46565823405E+02 -0.36454503043E+02 -0.38353350051E+02  0.70486070692E+02  0.00000000000E+00 0. -1.
</event>
<event>
 7    1  0.7029100E-006  0.7522287E+02  0.7818608E-02  0.1430873E+00
          2   -1    0    0  502    0  0.00000000000E+00  0.00000000000E+00  0.28702830428E+03  0.28702830428E+03  0.00000000000E+00 0. -1.
          1   -1    0    0  501    0 -0.00000000000E+00 -0.00000000000E+00 -0.22683317603E+03  0.22683317603E+03  0.00000000000E+00 0. -1.
         25    2    1    2    0    0 -0.38205579106E+02  0.87947986739E+02 -0.22289100683E+02  0.15911547560E+03  0.12500566356E+03 0.  0.
          2    1    1    2  501    0  0.44003434214E+01 -0.72809384955E+02 -0.12459716354E+03  0.14437805485E+03  0.00000000000E+00 0. -1.
          1    1    1    2  502    0  0.33805235684E+02 -0.15138601784E+02  0.20708139246E+03  0.21036794986E+03  0.00000000000E+00 0. -1.
         22    1    3    3    0    0 -0.20295827930E+02 -0.16546220456E+01  0.42483451024E+02  0.47111591105E+02  0.00000000000E+00 0.  1.
         22    1    3    3    0    0 -0.17909751176E+02  0.89602608784E+02 -0.64772551707E+02  0.11200388450E+03  0.00000000000E+00 0.  1.
</event>
<event>
 7    1  0.7029100E-006  0.3450749E+02  0.7818608E-02  0.1617501E+00
          2   -1    0    0  502    0  0.00000000000E+00  0.00000000000E+00  0.26998635631E+02  0.26998635631E+02  0.00000000000E+00 0. -1.
          1   -1    0    0  501    0 -0.00000000000E+00 -0.00000000000E+00 -0.81983989295E+03  0.81983989295E+03  0.00000000000E+00 0. -1.
         25    2    1    2    0    0  0.28878720764E+02  0.27752168466E+02 -0.39218634795E+03  0.41356999169E+03  0.12500337250E+03 0.  0.
          2    1    1    2  501    0  0.53142510536E+01 -0.22617368336E+02 -0.39790530092E+03  0.39858300907E+03  0.00000000000E+00 0. -1.
          1    1    1    2  502    0 -0.34192971818E+02 -0.51348001301E+01 -0.27496084444E+01  0.34685527828E+02  0.00000000000E+00 0. -1.
         22    1    3    3    0    0  0.76460111411E+02  0.33090907996E+02 -0.24251845570E+03  0.25643002590E+03  0.00000000000E+00 0. -1.
         22    1    3    3    0    0 -0.47581390647E+02 -0.53387395305E+01 -0.14966789225E+03  0.15713996578E+03  0.00000000000E+00 0. -1.
</event>
<event>
 7    1  0.7029100E-006  0.9586748E+02  0.7818608E-02  0.1345098E+00
          2   -1    0    0  502    0  0.00000000000E+00  0.00000000000E+00  0.18339011679E+04  0.18339011679E+04  0.00000000000E+00 0. -1.
          1   -1    0    0  501    0 -0.00000000000E+00 -0.00000000000E+00 -0.40022779856E+02  0.40022779856E+02  0.00000000000E+00 0. -1.
         25    2    1    2    0    0 -0.12177126297E+02  0.10638277145E+02  0.95161997238E+03  0.95993073917E+03  0.12499998730E+03 0.  0.
          2    1    1    2  501    0 -0.58604658505E+02 -0.75868748415E+02  0.36617717498E+02  0.10262275683E+03  0.00000000000E+00 0. -1.
          1    1    1    2  502    0  0.70781784802E+02  0.65230471270E+02  0.80564069820E+03  0.81137045179E+03  0.00000000000E+00 0. -1.
         22    1    3    3    0    0  0.11426216522E+02 -0.53329836788E+02  0.31690906685E+03  0.32156801235E+03  0.00000000000E+00 0.  1.
         22    1    3    3    0    0 -0.23603342819E+02  0.63968113933E+02  0.63471090553E+03  0.63836272682E+03  0.00000000000E+00 0.  1.
</event>
<event>
 7    1  0.7029100E-006  0.7145444E+02  0.7818608E-02  0.1447497E+00
          2   -1    0    0  502    0  0.00000000000E+00  0.00000000000E+00  0.94704729518E+03  0.94704729518E+03  0.00000000000E+00 0. -1.
          1   -1    0    0  501    0 -0.00000000000E+00 -0.00000000000E+00 -0.65798457938E+03  0.65798457938E+03  0.00000000000E+00 0. -1.
         25    2    1    2    0    0  0.30994020876E+02  0.60968078539E+02 -0.39443143448E+03  0.41937965566E+03  0.12500161258E+03 0.  0.
          2    1    1    2  501    0  0.31748288506E+00 -0.75294661729E+02 -0.24510773236E+03  0.25641214351E+03  0.00000000000E+00 0. -1.
          1    1    1    2  502    0 -0.31311503761E+02  0.14326583190E+02  0.92860188264E+03  0.92924007538E+03  0.00000000000E+00 0. -1.
         22    1    3    3    0    0  0.63609368631E+02  0.78383430243E+02 -0.23585007169E+03  0.25654506472E+03  0.00000000000E+00 0. -1.
         22    1    3    3    0    0 -0.32615347755E+02 -0.17415351704E+02 -0.15858136279E+03  0.16283459094E+03  0.00000000000E+00 0. -1.
</event>
<event>
 7    1  0.7029100E-006  0.6301496E+02  0.7818608E-02  0.1427664E+00
          2   -1    0    0  502    0  0.00000000000E+00  0.00000000000E+00  0.18130864828E+03  0.18130864828E+03  0.00000000000E+00 0. -1.
          1   -1    0    0  501    0 -0.00000000000E+00 -0.00000000000E+00 -0.25180931449E+04  0.25180931449E+04  0.00000000000E+00 0. -1.
         25    2    1    2    0    0 -0.85958569985E+02  0.44842670896E+02 -0.12990067544E+03  0.20470693557E+03  0.12502401010E+03 0.  0.
          2    1    1    2  501    0  0.45269366651E+02  0.18215475789E+01 -0.23439011190E+04  0.23443389451E+04  0.00000000000E+00 0. -1.
          1    1    1    2  502    0  0.40689203334E+02 -0.46664218475E+02  0.13701729780E+03  0.15035591259E+03  0.00000000000E+00 0. -1.
         22    1    3    3    0    0 -0.87346249140E+02 -0.18505708155E+02 -0.48679623349E+02  0.10169333411E+03  0.00000000000E+00 0.  1.
         22    1    3    3    0    0  0.13876791546E+01  0.63348379051E+02 -0.81221052092E+02  0.10301360146E+03  0.00000000000E+00 0.  1.
</event>
<event>
 7    1  0.7029100E-006  0.9722492E+02  0.7818608E-02  0.1389950E+00
          2   -1    0    0  502    0  0.00000000000E+00  0.00000000000E+00  0.24153544948E+03  0.24153544948E+03  0.00000000000E+00 0. -1.
          1   -1    0    0  501    0 -0.00000000000E+00 -0.00000000000E+00 -0.30485192087E+03  0.30485192087E+03  0.00000000000E+00 0. -1.
         25    2    1    2    0    0  0.48285682352E+02  0.51629904499E+02 -0.24943684675E+02  0.14575501807E+03  0.12500073491E+03 0.  0.
          2    1    1    2  501    0  0.39426713662E+02  0.77250642385E+00 -0.20304427235E+03  0.20683819534E+03  0.00000000000E+00 0. -1.
          1    1    1    2  502    0 -0.87712396014E+02 -0.52402410923E+02  0.16467148564E+03  0.19379415695E+03  0.00000000000E+00 0. -1.
         22    1    3    3    0    0 -0.29270906239E+02 -0.18571530527E+02 -0.22091201836E+02  0.41106068856E+02  0.00000000000E+00 0. -1.
         22    1    3    3    0    0  0.77556588591E+02  0.70201435026E+02 -0.28524828390E+01  0.10464894922E+03  0.00000000000E+00 0. -1.
</event>
<event>
 7    1  0.7029100E-006  0.1362083E+03  0.7818608E-02  0.1221563E+00
          2   -1    0    0  502    0  0.00000000000E+00  0.00000000000E+00  0.13726848208E+04  0.13726848208E+04  0.00000000000E+00 0. -1.
          1   -1    0    0  501    0 -0.00000000000E+00 -0.00000000000E+00 -0.17294856562E+04  0.17294856562E+04  0.00000000000E+00 0. -1.
         25    2    1    2    0    0  0.10903637429E+03  0.25368818325E+02 -0.11964566753E+03  0.20608400920E+03  0.12499210066E+03 0.  0.
          2    1    1    2  501    0 -0.75114664802E+02  0.10846090862E+03 -0.15602449321E+04  0.15658129613E+04  0.00000000000E+00 0. -1.
          1    1    1    2  502    0 -0.33921709483E+02 -0.13382972694E+03  0.13230897642E+04  0.13302735065E+04  0.00000000000E+00 0. -1.
         22    1    3    3    0    0 -0.19337485032E+02  0.11353027832E+02  0.86654589453E+01  0.24039961461E+02  0.00000000000E+00 0. -1.
         22    1    3    3    0    0  0.12837385932E+03  0.14015790493E+02 -0.12831112648E+03  0.18204404774E+03  0.00000000000E+00 0. -1.
</event>
<event>
 7    1  0.7029100E-006  0.8561893E+02  0.7818608E-02  0.1320630E+00
          2   -1    0    0  502    0  0.00000000000E+00  0.00000000000E+00  0.24854350286E+04  0.24854350286E+04  0.00000000000E+00 0. -1.
          1   -1    0    0  501    0 -0.00000000000E+00 -0.00000000000E+00 -0.25634925223E+04  0.25634925223E+04  0.00000000000E+00 0. -1.
         25    2    1    2    0    0  0.10341070434E+03  0.81506433670E+02  0.31749503728E+03  0.36574009681E+03  0.12500258883E+03 0.  0.
          2    1    1    2  501    0 -0.18613261924E+02 -0.78365162930E+02 -0.25378911548E+04  0.25391689716E+04  0.00000000000E+00 0. -1.
          1    1    1    2  502    0 -0.84797442413E+02 -0.31412707399E+01  0.21423386239E+04  0.21440184825E+04  0.00000000000E+00 0. -1.
         22    1    3    3    0    0  0.75027086465E+02  0.36562999566E+01  0.24289131535E+03  0.25424126987E+03  0.00000000000E+00 0. -1.
         22    1    3    3    0    0  0.28383617872E+02  0.77850133714E+02  0.74603721939E+02  0.11149882694E+03  0.00000000000E+00 0. -1.
</event>
<event>
 7    1  0.7029100E-006  0.8227180E+02  0.7818608E-02  0.1412246E+00
          2   -1    0    0  502    0  0.00000000000E+00  0.00000000000E+00  0.22531820656E+04  0.22531820656E+04  0.00000000000E+00 0. -1.
          1   -1    0    0  501    0 -0.00000000000E+00 -0.00000000000E+00 -0.54856475996E+03  0.54856475996E+03  0.00000000000E+00 0. -1.
         25    2    1    2    0    0 -0.26690308303E+02 -0.88518494091E+02  0.10944251699E+03  0.19013484078E+03  0.12500278717E+03 0.  0.
          2    1    1    2  501    0 -0.28076491741E+02  0.27170184888E+02 -0.50666238704E+03  0.50816658959E+03  0.00000000000E+00 0. -1.
          1    1    1    2  502    0  0.54766800044E+02  0.61348309203E+02  0.21018371757E+04  0.21034453952E+04  0.00000000000E+00 0. -1.
         22    1    3    3    0    0 -0.15345263345E+02 -0.91692010973E+02  0.13388750338E+03  0.16299928081E+03  0.00000000000E+00 0. -1.
         22    1    3    3    0    0 -0.11345044958E+02  0.31735168814E+01 -0.24444986398E+02  0.27135559963E+02  0.00000000000E+00 0. -1.
</event>
<event>
 7    1  0.7029100E-006  0.6338458E+02  0.7818608E-02  0.1471288E+00
          2   -1    0    0  502    0  0.00000000000E+00  0.00000000000E+00  0.10851814170E+04  0.10851814170E+04  0.00000000000E+00 0. -1.
          1   -1    0    0  501    0 -0.00000000000E+00 -0.00000000000E+00 -0.95177776227E+02  0.95177776227E+02  0.00000000000E+00 0. -1.
         25    2    1    2    0    0 -0.14923573469E+02 -0.70473283206E+02 -0.28977167333E+02  0.14714764743E+03  0.12499422877E+03 0.  0.
          2    1    1    2  501    0 -0.11201677988E+02  0.50887911443E+02  0.92584788584E+02  0.10624029461E+03  0.00000000000E+00 0. -1.
          1    1    1    2  502    0  0.26125251457E+02  0.19585371763E+02  0.92639601955E+03  0.92697125122E+03  0.00000000000E+00 0. -1.
         22    1    3    3    0    0 -0.63866971879E+02 -0.67864080338E+02 -0.70608553068E+01  0.93457900547E+02  0.00000000000E+00 0.  1.
         22    1    3    3    0    0  0.48943398409E+02 -0.26092028678E+01 -0.21916312026E+02  0.53689746882E+02  0.00000000000E+00 0.  1.
</event>
<event>
 7    1  0.7029100E-006  0.4711831E+02  0.7818608E-02  0.1466646E+00
          2   -1    0    0  502    0  0.00000000000E+00  0.00000000000E+00  0.44175748936E+03  0.44175748936E+03  0.00000000000E+00 0. -1.
          1   -1    0    0  501    0 -0.00000000000E+00 -0.00000000000E+00 -0.41538374689E+03  0.41538374689E+03  0.00000000000E+00 0. -1.
         25    2    1    2    0    0  0.15626573160E+02  0.48499273014E+01  0.66552391783E+02  0.14255431115E+03  0.12499919677E+03 0.  0.
          2    1    1    2  501    0 -0.21191242757E+02  0.42084039862E+02 -0.37424215310E+03  0.37719666534E+03  0.00000000000E+00 0. -1.
          1    1    1    2  502    0  0.55646695976E+01 -0.46933967163E+02  0.33406350379E+03  0.33739025977E+03  0.00000000000E+00 0. -1.
         22    1    3    3    0    0 -0.41309703490E+02 -0.15232523217E+02  0.69315687309E+02  0.82116903699E+02  0.00000000000E+00 0.  1.
         22    1    3    3    0    0  0.56936276650E+02  0.20082450519E+02 -0.27632955255E+01  0.60437407454E+02  0.00000000000E+00 0.  1.
</event>
<event>
 7    1  0.7029100E-006  0.4937916E+02  0.7818608E-02  0.1450450E+00
          2   -1    0    0  502    0  0.00000000000E+00  0.00000000000E+00  0.48430948349E+03  0.48430948349E+03  0.00000000000E+00 0. -1.
          1   -1    0    0  501    0 -0.00000000000E+00 -0.00000000000E+00 -0.79214848086E+03  0.79214848086E+03  0.00000000000E+00 0. -1.
         25    2    1    2    0    0  0.13983689733E+02  0.91495958710E+01  0.70416223351E+02  0.14444076679E+03  0.12500172765E+03 0.  0.
          2    1    1    2  501    0  0.23556195405E+02 -0.43398235856E+02 -0.75261056288E+03  0.75422871901E+03  0.00000000000E+00 0. -1.
          1    1    1    2  502    0 -0.37539885138E+02  0.34248639985E+02  0.37435534217E+03  0.37778847855E+03  0.00000000000E+00 0. -1.
         22    1    3    3    0    0 -0.89365916729E+01  0.64401877221E+02  0.26402032406E+02  0.70175008198E+02  0.00000000000E+00 0.  1.
         22    1    3    3    0    0  0.22920281406E+02 -0.55252281350E+02  0.44014190944E+02  0.74265758588E+02  0.00000000000E+00 0.  1.
</event>
<event>
 7    1  0.7029100E-006  0.3491821E+02  0.7818608E-02  0.1569475E+00
          2   -1    0    0  502    0  0.00000000000E+00  0.00000000000E+00  0.66786896318E+02  0.66786896318E+02  0.00000000000E+00 0. -1.
          1   -1    0    0  501    0 -0.00000000000E+00 -0.00000000000E+00 -0.37057314316E+03  0.37057314316E+03  0.00000000000E+00 0. -1.
         25    2    1    2    0    0 -0.26143043521E+02  0.27237487729E+02 -0.13366471904E+03  0.18686005900E+03  0.12500034029E+03 0.  0.
          2    1    1    2  501    0  0.35423673666E+02  0.20563961770E+01 -0.20266118972E+03  0.20574407218E+03  0.00000000000E+00 0. -1.
          1    1    1    2  502    0 -0.92806301447E+01 -0.29293883906E+02  0.32539661911E+02  0.44755908296E+02  0.00000000000E+00 0. -1.
         22    1    3    3    0    0 -0.78147539675E+01  0.28365982245E+02  0.17732567180E+02  0.34353213344E+02  0.00000000000E+00 0.  1.
         22    1    3    3    0    0 -0.18328289554E+02 -0.11284945159E+01 -0.15139728622E+03  0.15250684566E+03  0.00000000000E+00 0.  1.
</event>
<event>
 7    1  0.7029100E-006  0.4337906E+02  0.7818608E-02  0.1571823E+00
          2   -1    0    0  502    0  0.00000000000E+00  0.00000000000E+00  0.21856026509E+02  0.21856026509E+02  0.00000000000E+00 0. -1.
          1   -1    0    0  501    0 -0.00000000000E+00 -0.00000000000E+00 -0.14577232349E+04  0.14577232349E+04  0.00000000000E+00 0. -1.
         25    2    1    2    0    0 -0.28299254791E+02 -0.27305602163E+02 -0.77886134729E+03  0.78980801848E+03  0.12500105610E+03 0.  0.
          2    1    1    2  501    0  0.43889761942E+02  0.85685885578E+01 -0.66313210506E+03  0.66463818780E+03  0.00000000000E+00 0. -1.
          1    1    1    2  502    0 -0.15590507151E+02  0.18737013605E+02  0.61262440083E+01  0.25133055081E+02  0.00000000000E+00 0. -1.
         22    1    3    3    0    0 -0.64959852764E+02 -0.52825823561E+02 -0.57851244495E+03  0.58453998929E+03  0.00000000000E+00 0.  1.
         22    1    3    3    0    0  0.36660597973E+02  0.25520221399E+02 -0.20034890233E+03  0.20526802920E+03  0.00000000000E+00 0.  1.
</event>
<event>
 7    1  0.7029100E-006  0.8390037E+02  0.7818608E-02  0.1347865E+00
          2   -1    0    0  502    0  0.00000000000E+00  0.00000000000E+00  0.54161440737E+03  0.54161440737E+03  0.00000000000E+00 0. -1.
          1   -1    0    0  501    0 -0.00000000000E+00 -0.00000000000E+00 -0.65934084423E+03  0.65934084423E+03  0.00000000000E+00 0. -1.
         25    2    1    2    0    0 -0.33233743926E+01  0.20161881400E+02  0.13899106019E+03  0.18804026020E+03  0.12499231321E+03 0.  0.
          2    1    1    2  501    0  0.33743011786E+01 -0.84945683606E+02 -0.62916131913E+03  0.63487882352E+03  0.00000000000E+00 0. -1.
          1    1    1    2  502    0 -0.50926786016E-01  0.64783802207E+02  0.37244382208E+03  0.37803616788E+03  0.00000000000E+00 0. -1.
         22    1    3    3    0    0 -0.35658412930E+02 -0.21571228552E+02  0.12732591841E+03  0.13397286969E+03  0.00000000000E+00 0. -1.
         22    1    3    3    0    0  0.32335038537E+02  0.41733109952E+02  0.11665141786E+02  0.54067390508E+02  0.00000000000E+00 0. -1.
</event>
<event>
 7    1  0.7029100E-006  0.6145471E+02  0.7818608E-02  0.1437123E+00
          2   -1    0    0  502    0  0.00000000000E+00  0.00000000000E+00  0.14051563672E+04  0.14051563672E+04  0.00000000000E+00 0. -1.
          1   -1    0    0  501    0 -0.00000000000E+00 -0.00000000000E+00 -0.34831921828E+03  0.34831921828E+03  0.00000000000E+00 0. -1.
         25    2    1    2    0    0 -0.15630540243E+02 -0.29926882620E+02 -0.18456680822E+02  0.13078814955E+03  0.12499983562E+03 0.  0.
          2    1    1    2  501    0 -0.42383318264E+02  0.86262827038E+01 -0.27127486824E+03  0.27470131518E+03  0.00000000000E+00 0. -1.
          1    1    1    2  502    0  0.58013858507E+02  0.21300599916E+02  0.13465686980E+04  0.13479861207E+04  0.00000000000E+00 0. -1.
         22    1    3    3    0    0 -0.39276212801E+02 -0.49496006760E+00 -0.61850881140E+02  0.73269348129E+02  0.00000000000E+00 0. -1.
         22    1    3    3    0    0  0.23645672558E+02 -0.29431922553E+02  0.43394200317E+02  0.57518801422E+02  0.00000000000E+00 0. -1.
</event>
<event>
 7    1  0.7029100E-006  0.9909289E+02  0.7818608E-02  0.1351396E+00
          2   -1    0    0  502    0  0.00000000000E+00  0.00000000000E+00  0.11644213348E+04  0.11644213348E+04  0.00000000000E+00 0. -1.
          1   -1    0    0  501    0 -0.00000000000E+00 -0.00000000000E+00 -0.81306407927E+02  0.81306407927E+02  0.00000000000E+00 0. -1.
         25    2    1    2    0    0 -0.81913832509E+02 -0.12213368997E+03  0.34508982334E+03  0.39539628747E+03  0.12499889514E+03 0.  0.
          2    1    1    2  501    0  0.54308585316E+02  0.76629335393E+02 -0.15272212721E+02  0.95156281785E+02  0.00000000000E+00 0. -1.
          1    1    1    2  502    0  0.27605247192E+02  0.45504354580E+02  0.75329731626E+03  0.75517517348E+03  0.00000000000E+00 0. -1.
         22    1    3    3    0    0  0.31517753691E+02 -0.30420740006E+02  0.51830745466E+02  0.67861744715E+02  0.00000000000E+00 0. -1.
         22    1    3    3    0    0 -0.11343158620E+03 -0.91712949967E+02  0.29325907788E+03  0.32753454275E+03  0.00000000000E+00 0. -1.
</event>
<event>
 7    1  0.7029100E-006  0.1649901E+03  0.7818608E-02  0.1231640E+00
          2   -1    0    0  502    0  0.00000000000E+00  0.00000000000E+00  0.19007951733E+04  0.19007951733E+04  0.00000000000E+00 0. -1.
          1   -1    0    0  501    0 -0.00000000000E+00 -0.00000000000E+00 -0.12194699673E+04  0.12194699673E+04  0.00000000000E+00 0. -1.
         25    2    1    2    0    0  0.10629453674E+03 -0.44754445695E+02  0.25758551702E+03  0.30866821009E+03  0.12499710552E+03 0.  0.
          2    1    1    2  501    0 -0.13879269754E+01 -0.98086432574E+02 -0.11870453053E+04  0.11910916973E+04  0.00000000000E+00 0. -1.
          1    1    1    2  502    0 -0.10490660977E+03  0.14284087827E+03  0.16107849942E+04  0.16205052332E+04  0.00000000000E+00 0. -1.
         22    1    3    3    0    0  0.64057020719E+02 -0.38166201720E+02  0.35642666579E+02  0.82645995293E+02  0.00000000000E+00 0.  1.
         22    1    3    3    0    0  0.42237516025E+02 -0.65882439748E+01  0.22194285044E+03  0.22602221479E+03  0.00000000000E+00 0.  1.
</event>
<event>
 7    1  0.7029100E-006  0.6552976E+02  0.7818608E-02  0.1473295E+00
          2   -1    0    0  502    0  0.00000000000E+00  0.00000000000E+00  0.20753442806E+04  0.20753442806E+04  0.00000000000E+00 0. -1.
          1   -1    0    0  501    0 -0.00000000000E+00 -0.00000000000E+00 -0.35321226201E+03  0.35321226201E+03  0.00000000000E+00 0. -1.
         25    2    1    2    0    0  0.70704544511E+02  0.37054854140E+02  0.62604321460E+02  0.16098584347E+03  0.12499978361E+03 0.  0.
          2    1    1    2  501    0 -0.55859287059E+01 -0.30628000111E+02 -0.30267764749E+03  0.30427460505E+03  0.00000000000E+00 0. -1.
          1    1    1    2  502    0 -0.65118615805E+02 -0.64268540289E+01  0.19622053446E+04  0.19632960941E+04  0.00000000000E+00 0. -1.
         22    1    3    3    0    0  0.73462193678E+02  0.48671639471E+02 -0.88268168750E+01  0.88563734592E+02  0.00000000000E+00 0.  1.
         22    1    3    3    0    0 -0.27576491667E+01 -0.11616785331E+02  0.71431138335E+02  0.72422108877E+02  0.00000000000E+00 0.  1.
</event>
<event>
 7    1  0.7029100E-006  0.1067550E+03  0.7818608E-02  0.1406760E+00
          2   -1    0    0  502    0  0.00000000000E+00  0.00000000000E+00  0.29042036004E+04  0.29042036004E+04  0.00000000000E+00 0. -1.
          1   -1    0    0  501    0 -0.00000000000E+00 -0.00000000000E+00 -0.12204102799E+03  0.12204102799E+03  0.00000000000E+00 0. -1.
         25    2    1    2    0    0  0.11995641317E+03 -0.30794723423E+02  0.15276097728E+03  0.23302128296E+03  0.12500058432E+03 0.  0.
          2    1    1    2  501    0 -0.13593704217E+02  0.28335995202E+02 -0.77812447317E+02  0.83919570875E+02  0.00000000000E+00 0. -1.
          1    1    1    2  502    0 -0.10636270895E+03  0.24587282214E+01  0.27072140424E+04  0.27093037745E+04  0.00000000000E+00 0. -1.
         22    1    3    3    0    0  0.84113115748E+02 -0.56012902842E+02  0.15936046518E+03  0.18870140272E+03  0.00000000000E+00 0. -1.
         22    1    3    3    0    0  0.35843297420E+02  0.25218179419E+02 -0.65994879058E+01  0.44319880232E+02  0.00000000000E+00 0. -1.
</event>
<event>
 7    1  0.7029100E-006  0.1089983E+03  0.7818608E-02  0.1339775E+00
          2   -1    0    0  502    0  0.00000000000E+00  0.00000000000E+00  0.12875352576E+03  0.12875352576E+03  0.00000000000E+00 0. -1.
          1   -1    0    0  501    0 -0.00000000000E+00 -0.00000000000E+00 -0.41599646882E+03  0.41599646882E+03  0.00000000000E+00 0. -1.
         25    2    1    2    0    0 -0.57091127173E+02  0.12008020484E+03 -0.12565661451E+03  0.22157087643E+03  0.12500166445E+03 0.  0.
          2    1    1    2  501    0 -0.21185454327E+02 -0.49088341637E+02 -0.20281740699E+03  0.20974601150E+03  0.00000000000E+00 0. -1.
          1    1    1    2  502    0  0.78276581501E+02 -0.70991863206E+02  0.41231078441E+02  0.11343310664E+03  0.00000000000E+00 0. -1.
         22    1    3    3    0    0 -0.65324356069E+02  0.13311315354E+03 -0.70283395012E+02  0.16409186072E+03  0.00000000000E+00 0. -1.
         22    1    3    3    0    0  0.82332288957E+01 -0.13032948694E+02 -0.55373219495E+02  0.57479015710E+02  0.00000000000E+00 0. -1.
</event>
<event>
 7    1  0.7029100E-006  0.1021828E+03  0.7818608E-02  0.1302888E+00
          2   -1    0    0  502    0  0.00000000000E+00  0.00000000000E+00  0.52277314848E+03  0.52277314848E+03  0.00000000000E+00 0. -1.
          1   -1    0    0  501    0 -0.00000000000E+00 -0.00000000000E+00 -0.46484739291E+03  0.46484739291E+03  0.00000000000E+00 0. -1.
         25    2    1    2    0    0 -0.62690194628E+00  0.78318718093E+02 -0.54229176850E+02  0.15716251109E+03  0.12500014665E+03 0.  0.
          2    1    1    2  501    0  0.79811385425E+02 -0.75269615971E+02 -0.34730228191E+03  0.36421730787E+03  0.00000000000E+00 0. -1.
          1    1    1    2  502    0 -0.79184483479E+02 -0.30491021222E+01  0.45945721433E+03  0.46624072243E+03  0.00000000000E+00 0. -1.
         22    1    3    3    0    0  0.39844585033E+02 -0.58674891226E+01 -0.49250281597E+02  0.63620819096E+02  0.00000000000E+00 0. -1.
         22    1    3    3    0    0 -0.40471486979E+02  0.84186207216E+02 -0.49788952529E+01  0.93541691997E+02  0.00000000000E+00 0. -1.
</event>
<event>
 7    1  0.7029100E-006  0.6104084E+02  0.7818608E-02  0.1520424E+00
          2   -1    0    0  502    0  0.00000000000E+00  0.00000000000E+00  0.10048348387E+04  0.10048348387E+04  0.00000000000E+00 0. -1.
          1   -1    0    0  501    0 -0.00000000000E+00 -0.00000000000E+00 -0.38298003400E+02  0.38298003400E+02  0.00000000000E+00 0. -1.
         25    2    1    2    0    0  0.34156612177E+02 -0.76713235354E+02  0.63774299950E+03  0.65528113778E+03  0.12500256588E+03 0.  0.
          2    1    1    2  501    0 -0.22557047924E+02  0.55541352330E+02  0.18064578900E+01  0.59974373859E+02  0.00000000000E+00 0. -1.
          1    1    1    2  502    0 -0.11599564253E+02  0.21171883024E+02  0.32698737791E+03  0.32787733047E+03  0.00000000000E+00 0. -1.
         22    1    3    3    0    0  0.16975497053E-01 -0.63834136318E+02  0.11716346210E+03  0.13342441343E+03  0.00000000000E+00 0. -1.
         22    1    3    3    0    0  0.34139636680E+02 -0.12879099036E+02  0.52057953741E+03  0.52185672435E+03  0.00000000000E+00 0. -1.
</event>
<event>
 7    1  0.7029100E-006  0.3563469E+03  0.7818608E-02  0.1177695E+00
          2   -1    0    0  502    0  0.00000000000E+00  0.00000000000E+00  0.22922862064E+04  0.22922862064E+04  0.00000000000E+00 0. -1.
          1   -1    0    0  501    0 -0.00000000000E+00 -0.00000000000E+00 -0.20566207626E+04  0.20566207626E+04  0.00000000000E+00 0. -1.
         25    2    1    2    0    0 -0.34300893772E+03 -0.14709257550E+03 -0.31815240906E+03  0.50610010637E+03  0.12500002062E+03 0.  0.
          2    1    1    2  501    0  0.53922793128E+02 -0.60764905945E+02 -0.16290582606E+04  0.16310827256E+04  0.00000000000E+00 0. -1.
          1    1    1    2  502    0  0.28908614459E+03  0.20785748144E+03  0.21828761135E+04  0.22117241371E+04  0.00000000000E+00 0. -1.
         22    1    3    3    0    0 -0.44820141254E+02  0.61926402963E+01 -0.20328235476E+01  0.45291569055E+02  0.00000000000E+00 0.  1.
         22    1    3    3    0    0 -0.29818879647E+03 -0.15328521579E+03 -0.31611958551E+03  0.46080853732E+03  0.00000000000E+00 0.  1.
</event>
<event>
 7    1  0.7029100E-006  0.3397018E+02  0.7818608E-02  0.1573818E+00
          2   -1    0    0  502    0  0.00000000000E+00  0.00000000000E+00  0.15763116533E+03  0.15763116533E+03  0.00000000000E+00 0. -1.
          1   -1    0    0  501    0 -0.00000000000E+00 -0.00000000000E+00 -0.17467358667E+04  0.17467358667E+04  0.00000000000E+00 0. -1.
         25    2    1    2    0    0 -0.12916827116E+02  0.52232956892E+02 -0.11493440148E+04  0.11573726272E+04  0.12499843001E+03 0.  0.
          2    1    1    2  501    0  0.23397378496E+02 -0.19940072143E+02 -0.59109733796E+03  0.59189619591E+03  0.00000000000E+00 0. -1.
          1    1    1    2  502    0 -0.10480551380E+02 -0.32292884749E+02  0.15133665140E+03  0.15509820895E+03  0.00000000000E+00 0. -1.
         22    1    3    3    0    0 -0.66916062917E+02  0.39227669589E+02 -0.54683738848E+03  0.55231123379E+03  0.00000000000E+00 0. -1.
         22    1    3    3    0    0  0.53999235802E+02  0.13005287302E+02 -0.60250662637E+03  0.60506139340E+03  0.00000000000E+00 0. -1.
</event>
<event>
 7    1  0.7029100E-006  0.1392561E+03  0.7818608E-02  0.1215907E+00
          2   -1    0    0  502    0  0.00000000000E+00  0.00000000000E+00  0.79371171689E+03  0.79371171689E+03  0.00000000000E+00 0. -1.
          1   -1    0    0  501    0 -0.00000000000E+00 -0.00000000000E+00 -0.82145914841E+03  0.82145914841E+03  0.00000000000E+00 0. -1.
         25    2    1    2    0    0  0.69116385163E+02 -0.13747476185E+03 -0.60121334100E+02  0.20716021373E+03  0.12499757796E+03 0.  0.
          2    1    1    2  501    0  0.71192552536E+02  0.11699872002E+03 -0.67388346845E+03  0.68765980620E+03  0.00000000000E+00 0. -1.
          1    1    1    2  502    0 -0.14030893770E+03  0.20476041823E+02  0.70625737103E+03  0.72035084536E+03  0.00000000000E+00 0. -1.
         22    1    3    3    0    0  0.24534294082E+02 -0.13816949498E+03 -0.10910608963E+02  0.14075433321E+03  0.00000000000E+00 0. -1.
         22    1    3    3    0    0  0.44582091081E+02  0.69473313536E+00 -0.49210725137E+02  0.66405880521E+02  0.00000000000E+00 0. -1.
</event>
<event>
 7    1  0.7029100E-006  0.1157437E+03  0.7818608E-02  0.1264393E+00
          2   -1    0    0  502    0  0.00000000000E+00  0.00000000000E+00  0.20997626806E+04  0.20997626806E+04  0.00000000000E+00 0. -1.
          1   -1    0    0  501    0 -0.00000000000E+00 -0.00000000000E+00 -0.45529940150E+02  0.45529940150E+02  0.00000000000E+00 0. -1.
         25    2    1    2    0    0 -0.28767721393E+02  0.71256277515E+01  0.72270898036E+03  0.73403790871E+03  0.12500009909E+03 0.  0.
          2    1    1    2  501    0  0.12879745282E+03  0.44889812951E+01  0.71828481828E+02  0.14754072525E+03  0.00000000000E+00 0. -1.
          1    1    1    2  502    0 -0.10002973143E+03 -0.11614609047E+02  0.12596952782E+04  0.12637139867E+04  0.00000000000E+00 0. -1.
         22    1    3    3    0    0 -0.40058433818E+02 -0.70692833224E+01  0.69148020388E+02  0.80225317763E+02  0.00000000000E+00 0.  1.
         22    1    3    3    0    0  0.11290712424E+02  0.14194911074E+02  0.65356095997E+03  0.65381259095E+03  0.00000000000E+00 0.  1.
</event>
<event>
 7    1  0.7029100E-006  0.9257929E+02  0.7818608E-02  0.1305805E+00
          2   -1    0    0  502    0  0.00000000000E+00  0.00000000000E+00  0.10398853021E+03  0.10398853021E+03  0.00000000000E+00 0. -1.
          1   -1    0    0  501    0 -0.00000000000E+00 -0.00000000000E+00 -0.30795978675E+03  0.30795978675E+03  0.00000000000E+00 0. -1.
         25    2    1    2    0    0 -0.61303807878E+02  0.39468694905E+01 -0.88654487346E+02  0.16509940730E+03  0.12499784608E+03 0.  0.
          2    1    1    2  501    0  0.91814666236E+02 -0.83451840306E+02 -0.10207811313E+03  0.16066761891E+03  0.00000000000E+00 0. -1.
          1    1    1    2  502    0 -0.30510858358E+02  0.79504970815E+02 -0.13238656060E+02  0.86181290756E+02  0.00000000000E+00 0. -1.
         22    1    3    3    0    0  0.17484079132E+02 -0.41083974232E+02 -0.11807493338E+02  0.46184443926E+02  0.00000000000E+00 0.  1.
         22    1    3    3    0    0 -0.78787887010E+02  0.45030843723E+02 -0.76846994008E+02  0.11891496337E+03  0.00000000000E+00 0.  1.
</event>
<event>
 7    1  0.7029100E-006  0.8375934E+02  0.7818608E-02  0.1325655E+00
          2   -1    0    0  502    0  0.00000000000E+00  0.00000000000E+00  0.33649711826E+03  0.33649711826E+03  0.00000000000E+00 0. -1.
          1   -1    0    0  501    0 -0.00000000000E+00 -0.00000000000E+00 -0.17198867979E+04  0.17198867979E+04  0.00000000000E+00 0. -1.
         25    2    1    2    0    0  0.32612708367E+01 -0.12914582184E+02 -0.10524695175E+02  0.12614662650E+03  0.12499911939E+03 0.  0.
          2    1    1    2  501    0 -0.78806857467E+02 -0.28374398494E+02 -0.16438103340E+04  0.16459429035E+04  0.00000000000E+00 0. -1.
          1    1    1    2  502    0  0.75545586631E+02  0.41288980679E+02  0.27094534955E+03  0.28429438620E+03  0.00000000000E+00 0. -1.
         22    1    3    3    0    0  0.51019353967E+01 -0.44066559472E+02  0.44534580184E+02  0.62858732414E+02  0.00000000000E+00 0.  1.
         22    1    3    3    0    0 -0.18406645600E+01  0.31151977288E+02 -0.55059275358E+02  0.63287894087E+02  0.00000000000E+00 0.  1.
</event>
<event>
 7    1  0.7029100E-006  0.4154194E+02  0.7818608E-02  0.1552201E+00
          2   -1    0    0  502    0  0.00000000000E+00  0.00000000000E+00  0.12518873802E+04  0.12518873802E+04  0.00000000000E+00 0. -1.
          1   -1    0    0  501    0 -0.00000000000E+00 -0.00000000000E+00 -0.53912738696E+03  0.53912738696E+03  0.00000000000E+00 0. -1.
         25    2    1    2    0    0 -0.30890969125E+02  0.23902772074E+01 -0.10275887395E+03  0.16475744324E+03  0.12500265409E+03 0.  0.
          2    1    1    2  501    0  0.31917626807E+01  0.28637281265E+02 -0.40450233791E+03  0.40552733891E+03  0.00000000000E+00 0. -1.
          1    1    1    2  502    0  0.27699206445E+02 -0.31027558472E+02  0.12200212051E+04  0.12207299850E+04  0.00000000000E+00 0. -1.
         22    1    3    3    0    0  0.24061811760E+02  0.38642660095E+02 -0.35068153565E+01  0.45656584611E+02  0.00000000000E+00 0. -1.
         22    1    3    3    0    0 -0.54952780885E+02 -0.36252382887E+02 -0.99252058590E+02  0.11910085863E+03  0.00000000000E+00 0. -1.
</event>
<event>
 7    1  0.7029100E-006  0.1424765E+03  0.7818608E-02  0.1312571E+00
          2   -1    0    0  502    0  0.00000000000E+00  0.00000000000E+00  0.25408623346E+04  0.25408623346E+04  0.00000000000E+00 0. -1.
          1   -1    0    0  501    0 -0.00000000000E+00 -0.00000000000E+00 -0.71832008939E+02  0.71832008939E+02  0.00000000000E+00 0. -1.
         25    2    1    2    0    0 -0.13296675520E+02 -0.12852688406E+03  0.15579190910E+03  0.23788969964E+03  0.12499771497E+03 0.  0.
          2    1    1    2  501    0  0.61810530166E+02  0.14734489830E+03  0.17903869575E+03  0.23997065502E+03  0.00000000000E+00 0. -1.
          1    1    1    2  502    0 -0.48513854646E+02 -0.18818014244E+02  0.21341997208E+04  0.21348339889E+04  0.00000000000E+00 0. -1.
         22    1    3    3    0    0 -0.28370015850E+02  0.17262145053E+02  0.29357853538E+02  0.44325196170E+02  0.00000000000E+00 0.  1.
         22    1    3    3    0    0  0.15073340331E+02 -0.14578902911E+03  0.12643405557E+03  0.19356450347E+03  0.00000000000E+00 0.  1.
</event>
<event>
 7    1  0.7029100E-006  0.6124855E+02  0.7818608E-02  0.1482169E+00
          2   -1    0    0  502    0  0.00000000000E+00  0.00000000000E+00  0.11400397251E+03  0.11400397251E+03  0.00000000000E+00 0. -1.
          1   -1    0    0  501    0 -0.00000000000E+00 -0.00000000000E+00 -0.33795983847E+03  0.33795983847E+03  0.00000000000E+00 0. -1.
         25    2    1    2    0    0 -0.41935562848E+02 -0.11154468527E+02 -0.29600674371E+02  0.13558843644E+03  0.12500004229E+03 0.  0.
          2    1    1    2  501    0  0.61502099123E+02 -0.13249470191E+02 -0.24713819678E+03  0.25502028343E+03  0.00000000000E+00 0. -1.
          1    1    1    2  502    0 -0.19566536275E+02  0.24403938717E+02  0.52783005191E+02  0.61355091098E+02  0.00000000000E+00 0. -1.
         22    1    3    3    0    0  0.23802042362E+02  0.16415701687E+02  0.30734508902E+02  0.42197423143E+02  0.00000000000E+00 0.  1.
         22    1    3    3    0    0 -0.65737605209E+02 -0.27570170214E+02 -0.60335183272E+02  0.93391013298E+02  0.00000000000E+00 0.  1.
</event>
<event>
 7    1  0.7029100E-006  0.1226511E+03  0.7818608E-02  0.1253500E+00
          2   -1    0    0  502    0  0.00000000000E+00  0.00000000000E+00  0.38559070173E+03  0.38559070173E+03  0.00000000000E+00 0. -1.
          1   -1    0    0  501    0 -0.00000000000E+00 -0.00000000000E+00 -0.28660904983E+04  0.28660904983E+04  0.00000000000E+00 0. -1.
         25    2    1    2    0    0  0.13831785912E+02 -0.16127616549E+02 -0.66177308970E+02  0.14302411694E+03  0.12500017395E+03 0.  0.
          2    1    1    2  501    0 -0.61112769927E+02  0.11076144024E+03 -0.27519440712E+04  0.27548500937E+04  0.00000000000E+00 0. -1.
          1    1    1    2  502    0  0.47280984015E+02 -0.94633823695E+02  0.33762158364E+03  0.35380698944E+03  0.00000000000E+00 0. -1.
         22    1    3    3    0    0  0.26443572257E+02 -0.61905656346E+02 -0.77900884851E+01  0.67766203081E+02  0.00000000000E+00 0. -1.
         22    1    3    3    0    0 -0.12611786344E+02  0.45778039797E+02 -0.58387220485E+02  0.75257913859E+02  0.00000000000E+00 0. -1.
</event>
<event>
 7    1  0.7029100E-006  0.8773420E+02  0.7818608E-02  0.1364254E+00
          2   -1    0    0  502    0  0.00000000000E+00  0.00000000000E+00  0.18263059361E+03  0.18263059361E+03  0.00000000000E+00 0. -1.
          1   -1    0    0  501    0 -0.00000000000E+00 -0.00000000000E+00 -0.11346228242E+04  0.11346228242E+04  0.00000000000E+00 0. -1.
         25    2    1    2    0    0  0.25202946088E+02 -0.49786311517E+02  0.64644087026E+02  0.15138216737E+03  0.12499534913E+03 0.  0.
          2    1    1    2  501    0 -0.78406766159E+02  0.40918466948E+02 -0.10794558174E+04  0.10830728525E+04  0.00000000000E+00 0. -1.
          1    1    1    2  502    0  0.53203820071E+02  0.88678445690E+01  0.62819499867E+02  0.82798397937E+02  0.00000000000E+00 0. -1.
         22    1    3    3    0    0  0.12141302294E+02 -0.82791950559E+02  0.73712848084E+01  0.84001512716E+02  0.00000000000E+00 0.  1.
         22    1    3    3    0    0  0.13061643794E+02  0.33005639042E+02  0.57272802218E+02  0.67380654650E+02  0.00000000000E+00 0.  1.
</event>
<event>
 7    1  0.7029100E-006  0.5341382E+02  0.7818608E-02  0.1467707E+00
          2   -1    0    0  502    0  0.00000000000E+00  0.00000000000E+00  0.10476908958E+04  0.10476908958E+04  0.00000000000E+00 0. -1.
          1   -1    0    0  501    0 -0.00000000000E+00 -0.00000000000E+00 -0.56197287491E+02  0.56197287491E+02  0.00000000000E+00 0. -1.
         25    2    1    2    0    0 -0.27247525823E+02 -0.57824940100E+02  0.39169904083E+03  0.41610062446E+03  0.12500175890E+03 0.  0.
          2    1    1    2  501    0 -0.12097472155E+02  0.52137776454E+02 -0.26852238953E+02  0.59881042934E+02  0.00000000000E+00 0. -1.
          1    1    1    2  502    0  0.39344997978E+02  0.56871636460E+01  0.62664680644E+03  0.62790651591E+03  0.00000000000E+00 0. -1.
         22    1    3    3    0    0 -0.47249541783E+02 -0.89951203737E+02  0.30569825084E+03  0.32214151986E+03  0.00000000000E+00 0.  1.
         22    1    3    3    0    0  0.20002015960E+02  0.32126263637E+02  0.86000789990E+02  0.93959104597E+02  0.00000000000E+00 0.  1.
</event>
<event>
 7    1  0.7029100E-006  0.5369007E+02  0.7818608E-02  0.1524596E+00
          2   -1    0    0  502    0  0.00000000000E+00  0.00000000000E+00  0.30468648542E+03  0.30468648542E+03  0.00000000000E+00 0. -1.
          1   -1    0    0  501    0 -0.00000000000E+00 -0.00000000000E+00 -0.67281754777E+02  0.67281754777E+02  0.00000000000E+00 0. -1.
         25    2    1    2    0    0  0.83118967972E+01 -0.65722768026E+02  0.10011826067E+03  0.17335196627E+03  0.12505466095E+03 0.  0.
          2    1    1    2  501    0 -0.22181681377E+02  0.14850586943E+02 -0.19592817136E+02  0.33112617000E+02  0.00000000000E+00 0. -1.
          1    1    1    2  502    0  0.13869784580E+02  0.50872181083E+02  0.15687928711E+03  0.16550365693E+03  0.00000000000E+00 0. -1.
         22    1    3    3    0    0  0.22460546148E+02 -0.91196168380E+02  0.10803866374E+03  0.14315575477E+03  0.00000000000E+00 0. -1.
         22    1    3    3    0    0 -0.14148649351E+02  0.25473400353E+02 -0.79204030751E+01  0.30196211499E+02  0.00000000000E+00 0. -1.
</event>
<event>
 7    1  0.7029100E-006  0.6302130E+02  0.7818608E-02  0.1412683E+00
          2   -1    0    0  502    0  0.00000000000E+00  0.00000000000E+00  0.25633811144E+04  0.25633811144E+04  0.00000000000E+00 0. -1.
          1   -1    0    0  501    0 -0.00000000000E+00 -0.00000000000E+00 -0.48100319944E+03  0.48100319944E+03  0.00000000000E+00 0. -1.
         25    2    1    2    0    0 -0.75596485579E+02  0.82291355068E+02  0.50549587182E+03  0.53257509276E+03  0.12499382883E+03 0.  0.
          2    1    1    2  501    0  0.30485240542E+02 -0.40675994166E+02 -0.46561940399E+03  0.46838586205E+03  0.00000000000E+00 0. -1.
          1    1    1    2  502    0  0.45111245037E+02 -0.41615360902E+02  0.20425014471E+04  0.20434233590E+04  0.00000000000E+00 0. -1.
         22    1    3    3    0    0 -0.38205659014E+02  0.11298109807E+03  0.36350251484E+03  0.38256826737E+03  0.00000000000E+00 0. -1.
         22    1    3    3    0    0 -0.37390826565E+02 -0.30689743001E+02  0.14199335698E+03  0.15000682538E+03  0.00000000000E+00 0. -1.
</event>
<event>
 7    1  0.7029100E-006  0.1892235E+03  0.7818608E-02  0.1266047E+00
          2   -1    0    0  502    0  0.00000000000E+00  0.00000000000E+00  0.21118170277E+04  0.21118170277E+04  0.00000000000E+00 0. -1.
          1   -1    0    0  501    0 -0.00000000000E+00 -0.00000000000E+00 -0.13154919483E+03  0.13154919483E+03  0.00000000000E+00 0. -1.
         25    2    1    2    0    0  0.14590332792E+03 -0.91706170405E+01  0.29158584693E+03  0.34931248440E+03  0.12500009725E+03 0.  0.
          2    1    1    2  501    0 -0.20269887502E+03 -0.11997389053E+02 -0.12277862409E+01  0.20305732869E+03  0.00000000000E+00 0. -1.
          1    1    1    2  502    0  0.56795547099E+02  0.21168006093E+02  0.16899097722E+04  0.16909964094E+04  0.00000000000E+00 0. -1.
         22    1    3    3    0    0  0.33611886926E+02  0.52558098090E+02  0.73904396813E+02  0.96715937083E+02  0.00000000000E+00 0. -1.
         22    1    3    3    0    0  0.11229144099E+03 -0.61728715130E+02  0.21768145012E+03  0.25259654732E+03  0.00000000000E+00 0. -1.
</event>
<event>
 7    1  0.7029100E-006  0.5097180E+02  0.7818608E-02  0.1543156E+00
          2   -1    0    0  502    0  0.00000000000E+00  0.00000000000E+00  0.10098718930E+02  0.10098718930E+02  0.00000000000E+00 0. -1.
          1   -1    0    0  501    0 -0.00000000000E+00 -0.00000000000E+00 -0.17334024849E+04  0.17334024849E+04  0.00000000000E+00 0. -1.
         25    2    1    2    0    0  0.65493151184E+02  0.26570669228E+02 -0.70999580026E+03  0.72436728105E+03  0.12497426996E+03 0.  0.
          2    1    1    2  501    0 -0.40640298061E+02 -0.27984212365E+02 -0.94736132152E+03  0.94864546775E+03  0.00000000000E+00 0. -1.
          1    1    1    2  502    0 -0.24852853123E+02  0.14135431371E+01 -0.65946644143E+02  0.70488454986E+02  0.00000000000E+00 0. -1.
         22    1    3    3    0    0  0.70396415904E+02  0.53728152883E+02 -0.66968650227E+03  0.67551638108E+03  0.00000000000E+00 0. -1.
         22    1    3    3    0    0 -0.49032647200E+01 -0.27157483656E+02 -0.40309297994E+02  0.48850899973E+02  0.00000000000E+00 0. -1.
</event>
<event>
 7    1  0.7029100E-006  0.7956453E+02  0.7818608E-02  0.1408720E+00
          2   -1    0    0  502    0  0.00000000000E+00  0.00000000000E+00  0.89145314634E+03  0.89145314634E+03  0.00000000000E+00 0. -1.
          1   -1    0    0  501    0 -0.00000000000E+00 -0.00000000000E+00 -0.18525825191E+03  0.18525825191E+03  0.00000000000E+00 0. -1.
         25    2    1    2    0    0  0.58955233296E+02 -0.30708026489E+02  0.27343599016E+03  0.30791212662E+03  0.12499573824E+03 0.  0.
          2    1    1    2  501    0 -0.80151309049E+02 -0.50012469718E+01 -0.15765313592E+03  0.17692867512E+03  0.00000000000E+00 0. -1.
          1    1    1    2  502    0  0.21196075753E+02  0.35709273460E+02  0.59041204017E+03  0.59187059652E+03  0.00000000000E+00 0. -1.
         22    1    3    3    0    0  0.60788396859E+02  0.32055452645E+02  0.19898667435E+03  0.21051954257E+03  0.00000000000E+00 0. -1.
         22    1    3    3    0    0 -0.18331635629E+01 -0.62763479134E+02  0.74449315816E+02  0.97392584046E+02  0.00000000000E+00 0. -1.
</event>
<event>
 7    1  0.7029100E-006  0.1021584E+03  0.7818608E-02  0.1334408E+00
          2   -1    0    0  502    0  0.00000000000E+00  0.00000000000E+00  0.12572321691E+04  0.12572321691E+04  0.00000000000E+00 0. -1.
          1   -1    0    0  501    0 -0.00000000000E+00 -0.00000000000E+00 -0.24103748077E+03  0.24103748077E+03  0.00000000000E+00 0. -1.
         25    2    1    2    0    0  0.92439958111E+02  0.51325414321E+02  0.20620507281E+03  0.26329384706E+03  0.12499469524E+03 0.  0.
          2    1    1    2  501    0 -0.44342378810E+02  0.40080587120E+02 -0.20561795480E+03  0.21412950137E+03  0.00000000000E+00 0. -1.
          1    1    1    2  502    0 -0.48097579301E+02 -0.91406001442E+02  0.10156075704E+04  0.10208463015E+04  0.00000000000E+00 0. -1.
         22    1    3    3    0    0 -0.25439249813E+02  0.60043405263E+01  0.82375891414E+02  0.86423347670E+02  0.00000000000E+00 0. -1.
         22    1    3    3    0    0  0.11787920792E+03  0.45321073795E+02  0.12382918139E+03  0.17687049939E+03  0.00000000000E+00 0. -1.
</event>
<event>
 7    1  0.7029100E-006  0.1225815E+03  0.7818608E-02  0.1389970E+00
          2   -1    0    0  502    0  0.00000000000E+00  0.00000000000E+00  0.25498529264E+04  0.25498529264E+04  0.00000000000E+00 0. -1.
          1   -1    0    0  501    0 -0.00000000000E+00 -0.00000000000E+00 -0.11352687488E+03  0.11352687488E+03  0.00000000000E+00 0. -1.
         25    2    1    2    0    0  0.73320142118E+01  0.15110142459E+03  0.50654497211E+03  0.54322814342E+03  0.12499443221E+03 0.  0.
          2    1    1    2  501    0 -0.89639197889E+00 -0.12049877363E+03 -0.56874728528E+02  0.13324973812E+03  0.00000000000E+00 0. -1.
          1    1    1    2  502    0 -0.64356222329E+01 -0.30602650968E+02  0.19866558079E+04  0.19869019197E+04  0.00000000000E+00 0. -1.
         22    1    3    3    0    0 -0.34221622788E+02  0.33095936164E+02  0.28369574892E+03  0.28766254260E+03  0.00000000000E+00 0.  1.
         22    1    3    3    0    0  0.41553637000E+02  0.11800548843E+03  0.22284922319E+03  0.25556560082E+03  0.00000000000E+00 0.  1.
</event>
<event>
 7    1  0.7029100E-006  0.8816267E+02  0.7818608E-02  0.1338748E+00
          2   -1    0    0  502    0  0.00000000000E+00  0.00000000000E+00  0.11423888840E+04  0.11423888840E+04  0.00000000000E+00 0. -1.
          1   -1    0    0  501    0 -0.00000000000E+00 -0.00000000000E+00 -0.74504194256E+03  0.74504194256E+03  0.00000000000E+00 0. -1.
         25    2    1    2    0    0  0.21689936091E+02 -0.87488324317E+02 -0.46880914444E+03  0.49348959570E+03  0.12500122774E+03 0.  0.
          2    1    1    2  501    0 -0.65771540857E+02  0.11041397603E+02 -0.25792184955E+03  0.26640474568E+03  0.00000000000E+00 0. -1.
          1    1    1    2  502    0  0.44081604767E+02  0.76446926714E+02  0.11240779354E+04  0.11275364851E+04  0.00000000000E+00 0. -1.
         22    1    3    3    0    0  0.60529388726E+02 -0.49032463675E+02 -0.14038826952E+03  0.16055172254E+03  0.00000000000E+00 0. -1.
         22    1    3    3    0    0 -0.38839452635E+02 -0.38455860641E+02 -0.32842087492E+03  0.33293787316E+03  0.00000000000E+00 0. -1.
</event>
<event>
 7    1  0.7029100E-006  0.5668851E+02  0.7818608E-02  0.1500987E+00
          2   -1    0    0  502    0  0.00000000000E+00  0.00000000000E+00  0.42061148648E+03  0.42061148648E+03  0.00000000000E+00 0. -1.
          1   -1    0    0  501    0 -0.00000000000E+00 -0.00000000000E+00 -0.30778324619E+04  0.30778324619E+04  0.00000000000E+00 0. -1.
         25    2    1    2    0    0 -0.59931660422E+02  0.55060481480E+01 -0.70219326280E+03  0.71576712983E+03  0.12500034136E+03 0.  0.
          2    1    1    2  501    0  0.51992778413E+02  0.23063015137E+02 -0.23679791708E+04  0.23686621762E+04  0.00000000000E+00 0. -1.
          1    1    1    2  502    0  0.79388820091E+01 -0.28569063285E+02  0.41295145820E+03  0.41401464232E+03  0.00000000000E+00 0. -1.
         22    1    3    3    0    0 -0.23454996929E+02  0.61250365000E+02 -0.45710131836E+03  0.46178280537E+03  0.00000000000E+00 0.  1.
         22    1    3    3    0    0 -0.36476663493E+02 -0.55744316852E+02 -0.24509194444E+03  0.25398432446E+03  0.00000000000E+00 0.  1.
</event>
<event>
 7    1  0.7029100E-006  0.5046109E+02  0.7818608E-02  0.1537240E+00
          2   -1    0    0  502    0  0.00000000000E+00  0.00000000000E+00  0.76935924665E+03  0.76935924665E+03  0.00000000000E+00 0. -1.
          1   -1    0    0  501    0 -0.00000000000E+00 -0.00000000000E+00 -0.12998871003E+03  0.12998871003E+03  0.00000000000E+00 0. -1.
         25    2    1    2    0    0 -0.45004727613E+02 -0.40248464325E+02  0.11368114533E+03  0.17942473834E+03  0.12499787813E+03 0.  0.
          2    1    1    2  501    0  0.25408440526E+02 -0.61062724746E+01 -0.94320805999E+02  0.97873846649E+02  0.00000000000E+00 0. -1.
          1    1    1    2  502    0  0.19596287087E+02  0.46354736800E+02  0.62001019729E+03  0.62204937170E+03  0.00000000000E+00 0. -1.
         22    1    3    3    0    0 -0.58123362772E+02  0.11276302007E+02  0.11146043479E+03  0.12620978096E+03  0.00000000000E+00 0.  1.
         22    1    3    3    0    0  0.13118635159E+02 -0.51524766332E+02  0.22207105466E+01  0.53214957384E+02  0.00000000000E+00 0.  1.
</event>
<event>
 7    1  0.7029100E-006  0.1192136E+03  0.7818608E-02  0.1336071E+00
          2   -1    0    0  502    0  0.00000000000E+00  0.00000000000E+00  0.25741977481E+04  0.25741977481E+04  0.00000000000E+00 0. -1.
          1   -1    0    0  501    0 -0.00000000000E+00 -0.00000000000E+00 -0.48194520762E+03  0.48194520762E+03  0.00000000000E+00 0. -1.
         25    2    1    2    0    0  0.58105653050E+02 -0.81813347405E+02 -0.28293420432E+03  0.32518767370E+03  0.12500227368E+03 0.  0.
          2    1    1    2  501    0 -0.66163361199E+02  0.13164867943E+03 -0.14707835642E+03  0.20818503330E+03  0.00000000000E+00 0. -1.
          1    1    1    2  502    0  0.80577081488E+01 -0.49835332024E+02  0.25222651012E+04  0.25227702487E+04  0.00000000000E+00 0. -1.
         22    1    3    3    0    0  0.29344480796E+02 -0.10484922277E+03 -0.25976489113E+03  0.28165982449E+03  0.00000000000E+00 0.  1.
         22    1    3    3    0    0  0.28761172255E+02  0.23035875368E+02 -0.23169313189E+02  0.43527849213E+02  0.00000000000E+00 0.  1.
</event>
<event>
 7    1  0.7029100E-006  0.7986001E+02  0.7818608E-02  0.1352432E+00
          2   -1    0    0  502    0  0.00000000000E+00  0.00000000000E+00  0.87352903454E+03  0.87352903454E+03  0.00000000000E+00 0. -1.
          1   -1    0    0  501    0 -0.00000000000E+00 -0.00000000000E+00 -0.18052904430E+03  0.18052904430E+03  0.00000000000E+00 0. -1.
         25    2    1    2    0    0 -0.85785493375E+02 -0.21884699942E+02  0.13734317375E+03  0.20573090892E+03  0.12499587411E+03 0.  0.
          2    1    1    2  501    0  0.44671037486E+02 -0.47850572924E+02 -0.13653554229E+03  0.15141708367E+03  0.00000000000E+00 0. -1.
          1    1    1    2  502    0  0.41114455890E+02  0.69735272866E+02  0.69219235878E+03  0.69691008625E+03  0.00000000000E+00 0. -1.
         22    1    3    3    0    0  0.27566198205E+02 -0.54718404304E-01  0.17009540191E+01  0.27618680674E+02  0.00000000000E+00 0. -1.
         22    1    3    3    0    0 -0.11335169158E+03 -0.21829981538E+02  0.13564221973E+03  0.17811222825E+03  0.00000000000E+00 0. -1.
</event>
<event>
 7    1  0.7029100E-006  0.1099596E+03  0.7818608E-02  0.1387936E+00
          2   -1    0    0  502    0  0.00000000000E+00  0.00000000000E+00  0.36000134430E+03  0.36000134430E+03  0.00000000000E+00 0. -1.
          1   -1    0    0  501    0 -0.00000000000E+00 -0.00000000000E+00 -0.26921997426E+04  0.26921997426E+04  0.00000000000E+00 0. -1.
         25    2    1    2    0    0 -0.13174460993E+03  0.17394058216E+02  0.11843393261E+03  0.21750607638E+03  0.12499240522E+03 0.  0.
          2    1    1    2  501    0  0.27967078208E+02 -0.21762952447E+02 -0.26284897888E+04  0.26287286572E+04  0.00000000000E+00 0. -1.
          1    1    1    2  502    0  0.10377753173E+03  0.43688942306E+01  0.17785745793E+03  0.20596635324E+03  0.00000000000E+00 0. -1.
         22    1    3    3    0    0 -0.99544545116E+02  0.69279998605E+02  0.75548545402E+02  0.14288602934E+03  0.00000000000E+00 0. -1.
         22    1    3    3    0    0 -0.32200064817E+02 -0.51885940389E+02  0.42885387206E+02  0.74620047039E+02  0.00000000000E+00 0. -1.
</event>
<event>
 7    1  0.7029100E-006  0.7157991E+02  0.7818608E-02  0.1357095E+00
          2   -1    0    0  502    0  0.00000000000E+00  0.00000000000E+00  0.38450296694E+03  0.38450296694E+03  0.00000000000E+00 0. -1.
          1   -1    0    0  501    0 -0.00000000000E+00 -0.00000000000E+00 -0.15613134698E+04  0.15613134698E+04  0.00000000000E+00 0. -1.
         25    2    1    2    0    0  0.30458362174E+02 -0.10355393273E+03 -0.25496370292E+03  0.30378160360E+03  0.12500257625E+03 0.  0.
          2    1    1    2  501    0 -0.59110406974E+02  0.39461329373E+02 -0.12775217997E+04  0.12794972393E+04  0.00000000000E+00 0. -1.
          1    1    1    2  502    0  0.28652044800E+02  0.64092603353E+02  0.35567499977E+03  0.36253759382E+03  0.00000000000E+00 0. -1.
         22    1    3    3    0    0  0.59644901532E+02 -0.12999666310E+02 -0.54280213740E+02  0.81687497248E+02  0.00000000000E+00 0.  1.
         22    1    3    3    0    0 -0.29186539358E+02 -0.90554266416E+02 -0.20068348918E+03  0.22209410635E+03  0.00000000000E+00 0.  1.
</event>
<event>
 7    1  0.7029100E-006  0.7584851E+02  0.7818608E-02  0.1364539E+00
          2   -1    0    0  502    0  0.00000000000E+00  0.00000000000E+00  0.58199252716E+03  0.58199252716E+03  0.00000000000E+00 0. -1.
          1   -1    0    0  501    0 -0.00000000000E+00 -0.00000000000E+00 -0.72766948121E+03  0.72766948121E+03  0.00000000000E+00 0. -1.
         25    2    1    2    0    0  0.42733258704E+02 -0.86096705734E+02 -0.24153337853E+03  0.28844788730E+03  0.12500014642E+03 0.  0.
          2    1    1    2  501    0 -0.60982872972E+02  0.12453162981E+02 -0.45798752445E+03  0.46219753852E+03  0.00000000000E+00 0. -1.
          1    1    1    2  502    0  0.18249614268E+02  0.73643542753E+02  0.55384394893E+03  0.55901658256E+03  0.00000000000E+00 0. -1.
         22    1    3    3    0    0  0.27654651988E+02 -0.64862860089E+02 -0.32227372670E+02  0.77527891399E+02  0.00000000000E+00 0.  1.
         22    1    3    3    0    0  0.15078606717E+02 -0.21233845645E+02 -0.20930600586E+03  0.21091999590E+03  0.00000000000E+00 0.  1.
</event>
<event>
 7    1  0.7029100E-006  0.3720013E+03  0.7818608E-02  0.1218117E+00
          2   -1    0    0  502    0  0.00000000000E+00  0.00000000000E+00  0.37378125241E+03  0.37378125241E+03  0.00000000000E+00 0. -1.
          1   -1    0    0  501    0 -0.00000000000E+00 -0.00000000000E+00 -0.20933576816E+04  0.20933576816E+04  0.00000000000E+00 0. -1.
         25    2    1    2    0    0  0.22559121241E+03 -0.24864950112E+03 -0.44933772774E+03  0.57467147161E+03  0.12499974878E+03 0.  0.
          2    1    1    2  501    0 -0.26255080798E+03  0.28245317936E+03 -0.15556293161E+04  0.16027149760E+04  0.00000000000E+00 0. -1.
          1    1    1    2  502    0  0.36959595575E+02 -0.33803678245E+02  0.28539061470E+03  0.28975248631E+03  0.00000000000E+00 0. -1.
         22    1    3    3    0    0  0.61674497189E+02 -0.29672632389E+02 -0.31687739911E+02  0.75420962451E+02  0.00000000000E+00 0.  1.
         22    1    3    3    0    0  0.16391671522E+03 -0.21897686873E+03 -0.41764998783E+03  0.49925050916E+03  0.00000000000E+00 0.  1.
</event>
<event>
 7    1  0.7029100E-006  0.3340531E+02  0.7818608E-02  0.1580204E+00
          2   -1    0    0  502    0  0.00000000000E+00  0.00000000000E+00  0.26833288444E+02  0.26833288444E+02  0.00000000000E+00 0. -1.
          1   -1    0    0  501    0 -0.00000000000E+00 -0.00000000000E+00 -0.53795469181E+03  0.53795469181E+03  0.00000000000E+00 0. -1.
         25    2    1    2    0    0  0.53161218318E+01  0.58386970512E+01 -0.26445334902E+03  0.29261400618E+03  0.12500012507E+03 0.  0.
          2    1    1    2  501    0  0.30010502143E+02  0.15065018251E+01 -0.23081518645E+03  0.23276286234E+03  0.00000000000E+00 0. -1.
          1    1    1    2  502    0 -0.35326623974E+02 -0.73451988764E+01 -0.15852867889E+02  0.39411111736E+02  0.00000000000E+00 0. -1.
         22    1    3    3    0    0  0.51193467042E+02 -0.14242607297E+02 -0.52036474042E+02  0.74373500396E+02  0.00000000000E+00 0. -1.
         22    1    3    3    0    0 -0.45877345210E+02  0.20081304348E+02 -0.21241687498E+03  0.21824050578E+03  0.00000000000E+00 0. -1.
</event>
<event>
 7    1  0.7029100E-006  0.8491758E+02  0.7818608E-02  0.1334464E+00
          2   -1    0    0  502    0  0.00000000000E+00  0.00000000000E+00  0.91809808534E+02  0.91809808534E+02  0.00000000000E+00 0. -1.
          1   -1    0    0  501    0 -0.00000000000E+00 -0.00000000000E+00 -0.63202417788E+03  0.63202417788E+03  0.00000000000E+00 0. -1.
         25    2    1    2    0    0 -0.22302325207E+01 -0.30927997074E+02 -0.81208271028E+02  0.15224464476E+03  0.12498853401E+03 0.  0.
          2    1    1    2  501    0  0.65292156380E+02  0.65406901631E+02 -0.48607946719E+03  0.49478720365E+03  0.00000000000E+00 0. -1.
          1    1    1    2  502    0 -0.63061923859E+02 -0.34478904557E+02  0.27073368878E+02  0.76802138008E+02  0.00000000000E+00 0. -1.
         22    1    3    3    0    0  0.12580040068E+02  0.82861223192E+01 -0.10362172260E+03  0.10471092888E+03  0.00000000000E+00 0. -1.
         22    1    3    3    0    0 -0.14810272588E+02 -0.39214119394E+02  0.22413451573E+02  0.47533715880E+02  0.00000000000E+00 0. -1.
</event>
<event>
 7    1  0.7029100E-006  0.2960804E+03  0.7818608E-02  0.1156069E+00
          2   -1    0    0  502    0  0.00000000000E+00  0.00000000000E+00  0.79479604720E+03  0.79479604720E+03  0.00000000000E+00 0. -1.
          1   -1    0    0  501    0 -0.00000000000E+00 -0.00000000000E+00 -0.17469172560E+04  0.17469172560E+04  0.00000000000E+00 0. -1.
         25    2    1    2    0    0 -0.23175459548E+03 -0.88396115742E+01 -0.14369062183E+03  0.30010111034E+03  0.12500140145E+03 0.  0.
          2    1    1    2  501    0  0.29575111062E+03 -0.98984060010E+02 -0.15034072834E+04  0.15354152609E+04  0.00000000000E+00 0. -1.
          1    1    1    2  502    0 -0.63996515138E+02  0.10782367158E+03  0.69497669645E+03  0.70619693196E+03  0.00000000000E+00 0. -1.
         22    1    3    3    0    0 -0.19628678305E+03  0.90002535627E+01 -0.16360250787E+03  0.25568591347E+03  0.00000000000E+00 0.  1.
         22    1    3    3    0    0 -0.35467812424E+02 -0.17839865137E+02  0.19911886047E+02  0.44415196861E+02  0.00000000000E+00 0.  1.
</event>
<event>
 7    1  0.7029100E-006  0.6972265E+02  0.7818608E-02  0.1417260E+00
          2   -1    0    0  502    0  0.00000000000E+00  0.00000000000E+00  0.64686018068E+03  0.64686018068E+03  0.00000000000E+00 0. -1.
          1   -1    0    0  501    0 -0.00000000000E+00 -0.00000000000E+00 -0.48594266399E+03  0.48594266399E+03  0.00000000000E+00 0. -1.
         25    2    1    2    0    0  0.87302597481E+02 -0.15882949404E+02  0.11476011212E+02  0.15373687828E+03  0.12501726801E+03 0.  0.
          2    1    1    2  501    0 -0.53366880904E+02  0.44429476311E+02 -0.41102412563E+03  0.41684869460E+03  0.00000000000E+00 0. -1.
          1    1    1    2  502    0 -0.33935716577E+02 -0.28546526906E+02  0.56046563110E+03  0.56221727179E+03  0.00000000000E+00 0. -1.
         22    1    3    3    0    0  0.10526137236E+03  0.23982640397E+02 -0.20189077269E+01  0.10797777336E+03  0.00000000000E+00 0.  1.
         22    1    3    3    0    0 -0.17958774882E+02 -0.39865589801E+02  0.13494918939E+02  0.45759104915E+02  0.00000000000E+00 0.  1.
</event>
<event>
 7    1  0.7029100E-006  0.3614370E+02  0.7818608E-02  0.1565026E+00
          2   -1    0    0  502    0  0.00000000000E+00  0.00000000000E+00  0.16669875770E+04  0.16669875770E+04  0.00000000000E+00 0. -1.
          1   -1    0    0  501    0 -0.00000000000E+00 -0.00000000000E+00 -0.62100869545E+03  0.62100869545E+03  0.00000000000E+00 0. -1.
         25    2    1    2    0    0  0.82204283847E+01 -0.39562127420E+02 -0.36019256559E+03  0.38340146939E+03  0.12500106021E+03 0.  0.
          2    1    1    2  501    0  0.22544852482E+02  0.20583571270E+02 -0.24807858403E+03  0.24994987024E+03  0.00000000000E+00 0. -1.
          1    1    1    2  502    0 -0.30765280867E+02  0.18978556150E+02  0.16542500312E+04  0.16546449328E+04  0.00000000000E+00 0. -1.
         22    1    3    3    0    0  0.47794023043E+02 -0.82815903161E+01 -0.52013836993E+02  0.71121674724E+02  0.00000000000E+00 0. -1.
         22    1    3    3    0    0 -0.39573594658E+02 -0.31280537104E+02 -0.30817872860E+03  0.31227979466E+03  0.00000000000E+00 0. -1.
</event>
<event>
 7    1  0.7029100E-006  0.5370827E+02  0.7818608E-02  0.1493342E+00
          2   -1    0    0  502    0  0.00000000000E+00  0.00000000000E+00  0.15182234311E+03  0.15182234311E+03  0.00000000000E+00 0. -1.
          1   -1    0    0  501    0 -0.00000000000E+00 -0.00000000000E+00 -0.90218927850E+03  0.90218927850E+03  0.00000000000E+00 0. -1.
         25    2    1    2    0    0 -0.44276756830E+02 -0.72194099892E+02 -0.17039604334E+03  0.22766600732E+03  0.12499832019E+03 0.  0.
          2    1    1    2  501    0  0.22037955589E+02  0.47824189526E+02 -0.69994245134E+03  0.70192040843E+03  0.00000000000E+00 0. -1.
          1    1    1    2  502    0  0.22238801242E+02  0.24369910366E+02  0.11997155929E+03  0.12442520585E+03  0.00000000000E+00 0. -1.
         22    1    3    3    0    0 -0.20226159329E+02  0.35341191419E+02 -0.49202127749E+02  0.63866632189E+02  0.00000000000E+00 0.  1.
         22    1    3    3    0    0 -0.24050597501E+02 -0.10753529131E+03 -0.12119391559E+03  0.16379937513E+03  0.00000000000E+00 0.  1.
</event>
<event>
 7    1  0.7029100E-006  0.1269390E+03  0.7818608E-02  0.1237585E+00
          2   -1    0    0  502    0  0.00000000000E+00  0.00000000000E+00  0.23744225105E+04  0.23744225105E+04  0.00000000000E+00 0. -1.
          1   -1    0    0  501    0 -0.00000000000E+00 -0.00000000000E+00 -0.52013997700E+03  0.52013997700E+03  0.00000000000E+00 0. -1.
         25    2    1    2    0    0  0.61894977739E+02  0.80628099100E+02  0.42559749863E+03  0.45507136245E+03  0.12499934179E+03 0.  0.
          2    1    1    2  501    0  0.65931275608E+02 -0.10847388069E+03 -0.49517575899E+03  0.51118739048E+03  0.00000000000E+00 0. -1.
          1    1    1    2  502    0 -0.12782625335E+03  0.27845781590E+02  0.19238607939E+04  0.19283037346E+04  0.00000000000E+00 0. -1.
         22    1    3    3    0    0 -0.21328712317E+02 -0.11819291595E+02  0.15928897595E+03  0.16114461667E+03  0.00000000000E+00 0.  1.
         22    1    3    3    0    0  0.83223690056E+02  0.92447390695E+02  0.26630852269E+03  0.29392674579E+03  0.00000000000E+00 0.  1.
</event>
<event>
 7    1  0.7029100E-006  0.3894650E+02  0.7818608E-02  0.1574884E+00
          2   -1    0    0  502    0  0.00000000000E+00  0.00000000000E+00  0.11159460659E+04  0.11159460659E+04  0.00000000000E+00 0. -1.
          1   -1    0    0  501    0 -0.00000000000E+00 -0.00000000000E+00 -0.28764490173E+03  0.28764490173E+03  0.00000000000E+00 0. -1.
         25    2    1    2    0    0  0.22568023399E+02 -0.60983257497E+02 -0.29904538203E+02  0.14404389886E+03  0.12500436000E+03 0.  0.
          2    1    1    2  501    0 -0.56135456683E+01  0.26038186037E+02 -0.19942872006E+03  0.20119968542E+03  0.00000000000E+00 0. -1.
          1    1    1    2  502    0 -0.16954477731E+02  0.34945071460E+02  0.10576344224E+04  0.10583473833E+04  0.00000000000E+00 0. -1.
         22    1    3    3    0    0  0.43424360641E+02 -0.40083993515E+02 -0.71672216489E+02  0.92894070046E+02  0.00000000000E+00 0. -1.
         22    1    3    3    0    0 -0.20856337242E+02 -0.20899263982E+02  0.41767678287E+02  0.51149828813E+02  0.00000000000E+00 0. -1.
</event>
<event>
 7    1  0.7029100E-006  0.1424548E+03  0.7818608E-02  0.1285248E+00
          2   -1    0    0  502    0  0.00000000000E+00  0.00000000000E+00  0.24333713750E+04  0.24333713750E+04  0.00000000000E+00 0. -1.
          1   -1    0    0  501    0 -0.00000000000E+00 -0.00000000000E+00 -0.44225066713E+03  0.44225066713E+03  0.00000000000E+00 0. -1.
         25    2    1    2    0    0 -0.28786640338E+02 -0.16753321707E+03  0.86404531969E+03  0.88943558869E+03  0.12500120986E+03 0.  0.
          2    1    1    2  501    0 -0.44262706799E+02  0.50271761878E+02 -0.42385510638E+03  0.42911488958E+03  0.00000000000E+00 0. -1.
          1    1    1    2  502    0  0.73049347137E+02  0.11726145520E+03  0.15509304945E+04  0.15570715638E+04  0.00000000000E+00 0. -1.
         22    1    3    3    0    0 -0.62489281805E+02 -0.14814867496E+03  0.55086639519E+03  0.57385252947E+03  0.00000000000E+00 0.  1.
         22    1    3    3    0    0  0.33702641467E+02 -0.19384542117E+02  0.31317892451E+03  0.31558305923E+03  0.00000000000E+00 0.  1.
</event>
<event>
 7    1  0.7029100E-006  0.7051864E+02  0.7818608E-02  0.1398640E+00
          2   -1    0    0  502    0  0.00000000000E+00  0.00000000000E+00  0.42568813629E+04  0.42568813629E+04  0.00000000000E+00 0. -1.
          1   -1    0    0  501    0 -0.00000000000E+00 -0.00000000000E+00 -0.92343213601E+03  0.92343213601E+03  0.00000000000E+00 0. -1.
         25    2    1    2    0    0 -0.23062167926E+02  0.11859074023E+01  0.58629305195E+03  0.59991611823E+03  0.12500614457E+03 0.  0.
          2    1    1    2  501    0  0.65324085562E+02  0.26864850575E+02 -0.91508401966E+03  0.91780592686E+03  0.00000000000E+00 0. -1.
          1    1    1    2  502    0 -0.42261917635E+02 -0.28050757978E+02  0.36622401946E+04  0.36625914538E+04  0.00000000000E+00 0. -1.
         22    1    3    3    0    0 -0.13619540486E+02  0.88367760230E+01  0.58748078141E+03  0.58770506976E+03  0.00000000000E+00 0. -1.
         22    1    3    3    0    0 -0.94426274405E+01 -0.76508686206E+01 -0.11877294553E+01  0.12211048476E+02  0.00000000000E+00 0. -1.
</event>
<event>
 7    1  0.7029100E-006  0.6360782E+02  0.7818608E-02  0.1439351E+00
          2   -1    0    0  502    0  0.00000000000E+00  0.00000000000E+00  0.12441600293E+04  0.12441600293E+04  0.00000000000E+00 0. -1.
          1   -1    0    0  501    0 -0.00000000000E+00 -0.00000000000E+00 -0.53336956032E+02  0.53336956032E+02  0.00000000000E+00 0. -1.
         25    2    1    2    0    0  0.25872611983E+02  0.17834124855E+02  0.23572269062E+03  0.26865820370E+03  0.12499838193E+03 0.  0.
          2    1    1    2  501    0 -0.35950405884E+02 -0.57676074195E+02 -0.47315452425E+01  0.68127444824E+02  0.00000000000E+00 0. -1.
          1    1    1    2  502    0  0.10077793901E+02  0.39841949340E+02  0.95983192787E+03  0.96071133678E+03  0.00000000000E+00 0. -1.
         22    1    3    3    0    0 -0.31344735807E+02  0.51379375408E+02  0.13799556806E+03  0.15054935897E+03  0.00000000000E+00 0. -1.
         22    1    3    3    0    0  0.57217347790E+02 -0.33545250553E+02  0.97727122552E+02  0.11810884474E+03  0.00000000000E+00 0. -1.
</event>
<event>
 7    1  0.7029100E-006  0.8714674E+02  0.7818608E-02  0.1309939E+00
          2   -1    0    0  502    0  0.00000000000E+00  0.00000000000E+00  0.22134514550E+04  0.22134514550E+04  0.00000000000E+00 0. -1.
          1   -1    0    0  501    0 -0.00000000000E+00 -0.00000000000E+00 -0.57154975648E+03  0.57154975648E+03  0.00000000000E+00 0. -1.
         25    2    1    2    0    0  0.21524330649E+02 -0.21580933959E+02  0.18233134146E+03  0.22315866095E+03  0.12500414536E+03 0.  0.
          2    1    1    2  501    0 -0.64307269634E+02 -0.58814356673E+02 -0.54665169840E+03  0.55355454369E+03  0.00000000000E+00 0. -1.
          1    1    1    2  502    0  0.42782938985E+02  0.80395290632E+02  0.20062220554E+04  0.20082880068E+04  0.00000000000E+00 0. -1.
         22    1    3    3    0    0  0.46653937589E+02 -0.57864690472E+02  0.68538258717E+02  0.10110591083E+03  0.00000000000E+00 0. -1.
         22    1    3    3    0    0 -0.25129606940E+02  0.36283756512E+02  0.11379308275E+03  0.12205275012E+03  0.00000000000E+00 0. -1.
</event>
<event>
 7    1  0.7029100E-006  0.6355331E+02  0.7818608E-02  0.1395977E+00
          2   -1    0    0  502    0  0.00000000000E+00  0.00000000000E+00  0.10880241598E+04  0.10880241598E+04  0.00000000000E+00 0. -1.
          1   -1    0    0  501    0 -0.00000000000E+00 -0.00000000000E+00 -0.44155706781E+02  0.44155706781E+02  0.00000000000E+00 0. -1.
         25    2    1    2    0    0 -0.82243991301E+01 -0.10008270414E+02  0.26157101049E+03  0.29019395210E+03  0.12500132034E+03 0.  0.
          2    1    1    2  501    0 -0.53642367994E+02 -0.20670452083E+02  0.85020636786E+00  0.57493426444E+02  0.00000000000E+00 0. -1.
          1    1    1    2  502    0  0.61866767125E+02  0.30678722497E+02  0.78144723618E+03  0.78449248806E+03  0.00000000000E+00 0. -1.
         22    1    3    3    0    0 -0.11419639702E+01  0.28015224746E+02  0.23869549059E+01  0.28139908547E+02  0.00000000000E+00 0.  1.
         22    1    3    3    0    0 -0.70824351599E+01 -0.38023495160E+02  0.25918405558E+03  0.26205404355E+03  0.00000000000E+00 0.  1.
</event>
<event>
 7    1  0.7029100E-006  0.1902241E+03  0.7818608E-02  0.1161542E+00
          2   -1    0    0  502    0  0.00000000000E+00  0.00000000000E+00  0.10209637656E+04  0.10209637656E+04  0.00000000000E+00 0. -1.
          1   -1    0    0  501    0 -0.00000000000E+00 -0.00000000000E+00 -0.61763449161E+03  0.61763449161E+03  0.00000000000E+00 0. -1.
         25    2    1    2    0    0  0.28227908336E+03 -0.73867405827E+02 -0.54578426513E+01  0.31747638281E+03  0.12499436408E+03 0.  0.
          2    1    1    2  501    0 -0.10971486450E+03  0.14657981841E+03 -0.42700809023E+03  0.46460618138E+03  0.00000000000E+00 0. -1.
          1    1    1    2  502    0 -0.17256421886E+03 -0.72712412585E+02  0.83579520691E+03  0.85651569306E+03  0.00000000000E+00 0. -1.
         22    1    3    3    0    0  0.61924891682E+02 -0.71995701848E+02  0.15103323542E+02  0.96157078140E+02  0.00000000000E+00 0. -1.
         22    1    3    3    0    0  0.22035419168E+03 -0.18717039786E+01 -0.20561166193E+02  0.22131930467E+03  0.00000000000E+00 0. -1.
</event>
<event>
 7    1  0.7029100E-006  0.7248164E+02  0.7818608E-02  0.1416702E+00
          2   -1    0    0  502    0  0.00000000000E+00  0.00000000000E+00  0.49887452415E+02  0.49887452415E+02  0.00000000000E+00 0. -1.
          1   -1    0    0  501    0 -0.00000000000E+00 -0.00000000000E+00 -0.10871316285E+04  0.10871316285E+04  0.00000000000E+00 0. -1.
         25    2    1    2    0    0 -0.11610692973E+02  0.61604668845E+02 -0.15784394154E+03  0.21087629184E+03  0.12499662860E+03 0.  0.
          2    1    1    2  501    0  0.41232853743E+02  0.11631189805E+02 -0.83385400366E+03  0.83495385036E+03  0.00000000000E+00 0. -1.
          1    1    1    2  502    0 -0.29622160769E+02 -0.73235858651E+02 -0.45546230918E+02  0.91188938758E+02  0.00000000000E+00 0. -1.
         22    1    3    3    0    0 -0.14193735360E+02 -0.28282168487E+02 -0.29623074321E+01  0.31782360565E+02  0.00000000000E+00 0.  1.
         22    1    3    3    0    0  0.25830423869E+01  0.89886837332E+02 -0.15488163411E+03  0.17909393127E+03  0.00000000000E+00 0.  1.
</event>
<event>
 7    1  0.7029100E-006  0.6441617E+02  0.7818608E-02  0.1455460E+00
          2   -1    0    0  502    0  0.00000000000E+00  0.00000000000E+00  0.22143074172E+04  0.22143074172E+04  0.00000000000E+00 0. -1.
          1   -1    0    0  501    0 -0.00000000000E+00 -0.00000000000E+00 -0.11894664693E+02  0.11894664693E+02  0.00000000000E+00 0. -1.
         25    2    1    2    0    0 -0.31524401007E+02  0.26391337836E+02  0.74451303834E+03  0.75604687964E+03  0.12496771342E+03 0.  0.
          2    1    1    2  501    0 -0.34710594266E+02 -0.96372165417E+01  0.55964354460E+02  0.66556068597E+02  0.00000000000E+00 0. -1.
          1    1    1    2  502    0  0.66234995273E+02 -0.16754121294E+02  0.14019353597E+04  0.14035991336E+04  0.00000000000E+00 0. -1.
         22    1    3    3    0    0  0.10243818570E+01  0.23846509742E+02  0.20982252566E+02  0.31779872683E+02  0.00000000000E+00 0.  1.
         22    1    3    3    0    0 -0.32548782864E+02  0.25448280939E+01  0.72353078577E+03  0.72426700696E+03  0.00000000000E+00 0.  1.
</event>
<event>
 7    1  0.7029100E-006  0.1028193E+03  0.7818608E-02  0.1374311E+00
          2   -1    0    0  502    0  0.00000000000E+00  0.00000000000E+00  0.96718574343E+03  0.96718574343E+03  0.00000000000E+00 0. -1.
          1   -1    0    0  501    0 -0.00000000000E+00 -0.00000000000E+00 -0.19564206358E+03  0.19564206358E+03  0.00000000000E+00 0. -1.
         25    2    1    2    0    0  0.49987234892E+02  0.87037238519E+02  0.24728852830E+03  0.29469818286E+03  0.12498479190E+03 0.  0.
          2    1    1    2  501    0 -0.83456896567E+02 -0.61099151604E+02 -0.15566345972E+03  0.18689374683E+03  0.00000000000E+00 0. -1.
          1    1    1    2  502    0  0.33469661675E+02 -0.25938086916E+02  0.67991861127E+03  0.68123587732E+03  0.00000000000E+00 0. -1.
         22    1    3    3    0    0 -0.92398095894E+01  0.65519752441E+02  0.38381408592E+02  0.76494081907E+02  0.00000000000E+00 0. -1.
         22    1    3    3    0    0  0.59227044482E+02  0.21517486078E+02  0.20890711971E+03  0.21820410095E+03  0.00000000000E+00 0. -1.
</event>
<event>
 7    1  0.7029100E-006  0.1066948E+03  0.7818608E-02  0.1460026E+00
          2   -1    0    0  502    0  0.00000000000E+00  0.00000000000E+00  0.12663847972E+04  0.12663847972E+04  0.00000000000E+00 0. -1.
          1   -1    0    0  501    0 -0.00000000000E+00 -0.00000000000E+00 -0.29238270542E+04  0.29238270542E+04  0.00000000000E+00 0. -1.
         25    2    1    2    0    0 -0.85842161164E+02  0.88563670514E+01 -0.13917242600E+03  0.20601190798E+03  0.12499852080E+03 0.  0.
          2    1    1    2  501    0  0.10674041452E+03 -0.11270591012E+02 -0.27500981888E+04  0.27521919610E+04  0.00000000000E+00 0. -1.
          1    1    1    2  502    0 -0.20898253359E+02  0.24142239603E+01  0.12318283578E+04  0.12320079823E+04  0.00000000000E+00 0. -1.
         22    1    3    3    0    0 -0.68026026055E+02  0.35822763092E+02 -0.15816107267E+02  0.78491781897E+02  0.00000000000E+00 0.  1.
         22    1    3    3    0    0 -0.17816135109E+02 -0.26966396040E+02 -0.12335631873E+03  0.12752012609E+03  0.00000000000E+00 0.  1.
</event>
<event>
 7    1  0.7029100E-006  0.6259029E+02  0.7818608E-02  0.1540518E+00
          2   -1    0    0  502    0  0.00000000000E+00  0.00000000000E+00  0.55864071120E+03  0.55864071120E+03  0.00000000000E+00 0. -1.
          1   -1    0    0  501    0 -0.00000000000E+00 -0.00000000000E+00 -0.76283736714E+02  0.76283736714E+02  0.00000000000E+00 0. -1.
         25    2    1    2    0    0  0.65459497905E+02  0.26995130356E+02  0.14072945145E+03  0.20108624486E+03  0.12496886187E+03 0.  0.
          2    1    1    2  501    0 -0.48393853016E+02 -0.38573080578E+02 -0.24917299335E+02  0.66713711943E+02  0.00000000000E+00 0. -1.
          1    1    1    2  502    0 -0.17065644888E+02  0.11577950222E+02  0.36654482237E+03  0.36712449111E+03  0.00000000000E+00 0. -1.
         22    1    3    3    0    0  0.99762885216E+02  0.87980125813E+01  0.76475427794E+02  0.12601003670E+03  0.00000000000E+00 0.  1.
         22    1    3    3    0    0 -0.34303387311E+02  0.18197117775E+02  0.64254023660E+02  0.75076208167E+02  0.00000000000E+00 0.  1.
</event>
<event>
 7    1  0.7029100E-006  0.5348078E+02  0.7818608E-02  0.1439173E+00
          2   -1    0    0  502    0  0.00000000000E+00  0.00000000000E+00  0.25633381372E+04  0.25633381372E+04  0.00000000000E+00 0. -1.
          1   -1    0    0  501    0 -0.00000000000E+00 -0.00000000000E+00 -0.22137580331E+03  0.22137580331E+03  0.00000000000E+00 0. -1.
         25    2    1    2    0    0  0.12068788836E+02  0.16143481616E+02  0.40252640193E+03  0.42197049460E+03  0.12500130559E+03 0.  0.
          2    1    1    2  501    0  0.25617192680E+02 -0.47372373902E+02 -0.20794453274E+03  0.21480528640E+03  0.00000000000E+00 0. -1.
          1    1    1    2  502    0 -0.37685981516E+02  0.31228892286E+02  0.21473804647E+04  0.21479381595E+04  0.00000000000E+00 0. -1.
         22    1    3    3    0    0  0.22421944369E+02 -0.51497201961E+02  0.14471631818E+03  0.15523375325E+03  0.00000000000E+00 0.  1.
         22    1    3    3    0    0 -0.10353155533E+02  0.67640683577E+02  0.25781008375E+03  0.26673674135E+03  0.00000000000E+00 0.  1.
</event>
<event>
 7    1  0.7029100E-006  0.5722235E+02  0.7818608E-02  0.1438769E+00
          2   -1    0    0  502    0  0.00000000000E+00  0.00000000000E+00  0.21419145756E+04  0.21419145756E+04  0.00000000000E+00 0. -1.
          1   -1    0    0  501    0 -0.00000000000E+00 -0.00000000000E+00 -0.31893914837E+02  0.31893914837E+02  0.00000000000E+00 0. -1.
         25    2    1    2    0    0  0.68948361152E+02 -0.14986835675E+02  0.24073891279E+03  0.28028380213E+03  0.12500121541E+03 0.  0.
          2    1    1    2  501    0 -0.34629283287E+02  0.45439256173E+02  0.57137869914E+02  0.80800058421E+02  0.00000000000E+00 0. -1.
          1    1    1    2  502    0 -0.34319077865E+02 -0.30452420499E+02  0.18121438781E+04  0.18127246299E+04  0.00000000000E+00 0. -1.
         22    1    3    3    0    0  0.47777148533E+02  0.31264839294E+00  0.24848660405E+03  0.25303823044E+03  0.00000000000E+00 0.  1.
         22    1    3    3    0    0  0.21171212619E+02 -0.15299484068E+02 -0.77476912641E+01  0.27245571684E+02  0.00000000000E+00 0.  1.
</event>
<event>
 7    1  0.7029100E-006  0.1047890E+03  0.7818608E-02  0.1323716E+00
          2   -1    0    0  502    0  0.00000000000E+00  0.00000000000E+00  0.18286897879E+04  0.18286897879E+04  0.00000000000E+00 0. -1.
          1   -1    0    0  501    0 -0.00000000000E+00 -0.00000000000E+00 -0.65871410778E+03  0.65871410778E+03  0.00000000000E+00 0. -1.
         25    2    1    2    0    0 -0.16043925084E+03  0.18925936342E+02 -0.54189487035E+02  0.21132962210E+03  0.12499905758E+03 0.  0.
          2    1    1    2  501    0  0.62122106480E+02  0.15499625898E+02 -0.52244841323E+03  0.52635704517E+03  0.00000000000E+00 0. -1.
          1    1    1    2  502    0  0.98317144363E+02 -0.34425562239E+02  0.17466135804E+04  0.17497172284E+04  0.00000000000E+00 0. -1.
         22    1    3    3    0    0 -0.94319141238E+02 -0.19458573258E+02 -0.85432652111E+02  0.12873800730E+03  0.00000000000E+00 0. -1.
         22    1    3    3    0    0 -0.66120109604E+02  0.38384509599E+02  0.31243165076E+02  0.82591614800E+02  0.00000000000E+00 0. -1.
</event>
<event>
 7    1  0.7029100E-006  0.6077417E+02  0.7818608E-02  0.1504299E+00
          2   -1    0    0  502    0  0.00000000000E+00  0.00000000000E+00  0.60162726680E+02  0.60162726680E+02  0.00000000000E+00 0. -1.
          1   -1    0    0  501    0 -0.00000000000E+00 -0.00000000000E+00 -0.53461583156E+03  0.53461583156E+03  0.00000000000E+00 0. -1.
         25    2    1    2    0    0 -0.67480133886E+02 -0.27685506140E+01 -0.10962540896E+03  0.17944046606E+03  0.12497966726E+03 0.  0.
          2    1    1    2  501    0  0.56554444649E+02 -0.21963812383E+02 -0.37967492048E+03  0.38449168978E+03  0.00000000000E+00 0. -1.
          1    1    1    2  502    0  0.10925689237E+02  0.24732362997E+02  0.14847224554E+02  0.30846402411E+02  0.00000000000E+00 0. -1.
         22    1    3    3    0    0 -0.79788548326E+02  0.27312034624E+02 -0.11878060460E+03  0.14567426577E+03  0.00000000000E+00 0. -1.
         22    1    3    3    0    0  0.12308414440E+02 -0.30080585238E+02  0.91551956442E+01  0.33766200283E+02  0.00000000000E+00 0. -1.
</event>
<event>
 7    1  0.7029100E-006  0.8148984E+02  0.7818608E-02  0.1431444E+00
          2   -1    0    0  502    0  0.00000000000E+00  0.00000000000E+00  0.15377104165E+03  0.15377104165E+03  0.00000000000E+00 0. -1.
          1   -1    0    0  501    0 -0.00000000000E+00 -0.00000000000E+00 -0.19011091454E+04  0.19011091454E+04  0.00000000000E+00 0. -1.
         25    2    1    2    0    0  0.88489652875E+02  0.34990553095E+02 -0.25287547387E+02  0.15911921412E+03  0.12499882711E+03 0.  0.
          2    1    1    2  501    0 -0.88116164860E+01 -0.32884037151E+02 -0.17904235552E+04  0.17907471936E+04  0.00000000000E+00 0. -1.
          1    1    1    2  502    0 -0.79678036390E+02 -0.21065159431E+01  0.68372998782E+02  0.10501377936E+03  0.00000000000E+00 0. -1.
         22    1    3    3    0    0  0.22780826745E+02 -0.46256917878E+02 -0.17023787230E+02  0.54299888126E+02  0.00000000000E+00 0.  1.
         22    1    3    3    0    0  0.65708826130E+02  0.81247470973E+02 -0.82637601567E+01  0.10481932600E+03  0.00000000000E+00 0.  1.
</event>
<event>
 7    1  0.7029100E-006  0.4463053E+02  0.7818608E-02  0.1522301E+00
          2   -1    0    0  502    0  0.00000000000E+00  0.00000000000E+00  0.18319816641E+03  0.18319816641E+03  0.00000000000E+00 0. -1.
          1   -1    0    0  501    0 -0.00000000000E+00 -0.00000000000E+00 -0.11354438176E+04  0.11354438176E+04  0.00000000000E+00 0. -1.
         25    2    1    2    0    0  0.50040864010E+02 -0.54149883836E+02  0.30171585676E+02  0.14822768922E+03  0.12499930111E+03 0.  0.
          2    1    1    2  501    0 -0.26554899982E+02  0.18921953918E+02 -0.10713874982E+04  0.10718835638E+04  0.00000000000E+00 0. -1.
          1    1    1    2  502    0 -0.23485964028E+02  0.35227929918E+02  0.88970261321E+02  0.98530731004E+02  0.00000000000E+00 0. -1.
         22    1    3    3    0    0  0.52302042805E+02  0.29996235035E+02  0.56779961890E+01  0.60560031692E+02  0.00000000000E+00 0. -1.
         22    1    3    3    0    0 -0.22611787953E+01 -0.84146118871E+02  0.24493589487E+02  0.87667657528E+02  0.00000000000E+00 0. -1.
</event>
<event>
 7    1  0.7029100E-006  0.5064378E+02  0.7818608E-02  0.1496518E+00
          2   -1    0    0  502    0  0.00000000000E+00  0.00000000000E+00  0.27370704660E+03  0.27370704660E+03  0.00000000000E+00 0. -1.
          1   -1    0    0  501    0 -0.00000000000E+00 -0.00000000000E+00 -0.12728644315E+04  0.12728644315E+04  0.00000000000E+00 0. -1.
         25    2    1    2    0    0  0.52908193709E+02 -0.17386338824E+02 -0.72647723376E+02  0.15493259194E+03  0.12499941838E+03 0.  0.
          2    1    1    2  501    0 -0.48709196739E+01  0.33879313264E+02 -0.11560449658E+04  0.11565515538E+04  0.00000000000E+00 0. -1.
          1    1    1    2  502    0 -0.48037274035E+02 -0.16492974440E+02  0.22953530428E+03  0.23508733231E+03  0.00000000000E+00 0. -1.
         22    1    3    3    0    0  0.32328552419E+02  0.23268057379E+02  0.25103908431E+02  0.47082311055E+02  0.00000000000E+00 0. -1.
         22    1    3    3    0    0  0.20579641290E+02 -0.40654396203E+02 -0.97751631807E+02  0.10785028089E+03  0.00000000000E+00 0. -1.
</event>
<event>
 7    1  0.7029100E-006  0.6722931E+02  0.7818608E-02  0.1424282E+00
          2   -1    0    0  502    0  0.00000000000E+00  0.00000000000E+00  0.46946270860E+03  0.46946270860E+03  0.00000000000E+00 0. -1.
          1   -1    0    0  501    0 -0.00000000000E+00 -0.00000000000E+00 -0.23195124458E+04  0.23195124458E+04  0.00000000000E+00 0. -1.
         25    2    1    2    0    0 -0.32660076094E+02 -0.16366864712E+02 -0.37215303529E+03  0.39428071616E+03  0.12499938652E+03 0.  0.
          2    1    1    2  501    0  0.34818939516E+02  0.59888656586E+02 -0.19346386586E+04  0.19358785471E+04  0.00000000000E+00 0. -1.
          1    1    1    2  502    0 -0.21588634222E+01 -0.43521791873E+02  0.45674195664E+03  0.45881589119E+03  0.00000000000E+00 0. -1.
         22    1    3    3    0    0  0.32943712390E+02  0.15921996694E+02 -0.40150898197E+02  0.54322120640E+02  0.00000000000E+00 0. -1.
         22    1    3    3    0    0 -0.65603788483E+02 -0.32288861407E+02 -0.33200213709E+03  0.33995859552E+03  0.00000000000E+00 0. -1.
</event>
<event>
 7    1  0.7029100E-006  0.1226361E+03  0.7818608E-02  0.1292589E+00
          2   -1    0    0  502    0  0.00000000000E+00  0.00000000000E+00  0.18592392528E+04  0.18592392528E+04  0.00000000000E+00 0. -1.
          1   -1    0    0  501    0 -0.00000000000E+00 -0.00000000000E+00 -0.13522932689E+03  0.13522932689E+03  0.00000000000E+00 0. -1.
         25    2    1    2    0    0 -0.11166816132E+03 -0.11415622333E+03  0.44460504342E+03  0.48867048077E+03  0.12499509016E+03 0.  0.
          2    1    1    2  501    0  0.72622352739E+02  0.85526451832E+00 -0.98672709481E+02  0.12251955432E+03  0.00000000000E+00 0. -1.
          1    1    1    2  502    0  0.39045808581E+02  0.11330095881E+03  0.13780775920E+04  0.13832785446E+04  0.00000000000E+00 0. -1.
         22    1    3    3    0    0  0.27591053339E+01 -0.67538337222E+02  0.86056283249E+02  0.10942907997E+03  0.00000000000E+00 0.  1.
         22    1    3    3    0    0 -0.11442726665E+03 -0.46617886105E+02  0.35854876017E+03  0.37924140080E+03  0.00000000000E+00 0.  1.
</event>
<event>
 7    1  0.7029100E-006  0.8635029E+02  0.7818608E-02  0.1392775E+00
          2   -1    0    0  502    0  0.00000000000E+00  0.00000000000E+00  0.36556142757E+03  0.36556142757E+03  0.00000000000E+00 0. -1.
          1   -1    0    0  501    0 -0.00000000000E+00 -0.00000000000E+00 -0.81563143572E+03  0.81563143572E+03  0.00000000000E+00 0. -1.
         25    2    1    2    0    0 -0.11040493038E+03 -0.59566771716E+02  0.25677602156E+01  0.17711310692E+03  0.12500004122E+03 0.  0.
          2    1    1    2  501    0  0.67676315766E+02  0.51928816568E+02 -0.72413123729E+03  0.72913835074E+03  0.00000000000E+00 0. -1.
          1    1    1    2  502    0  0.42728614615E+02  0.76379551482E+01  0.27149346892E+03  0.27494140563E+03  0.00000000000E+00 0. -1.
         22    1    3    3    0    0 -0.44337462175E+02 -0.21562782544E+02 -0.60599149271E+02  0.78121834563E+02  0.00000000000E+00 0.  1.
         22    1    3    3    0    0 -0.66067468205E+02 -0.38003989173E+02  0.63166909487E+02  0.98991272354E+02  0.00000000000E+00 0.  1.
</event>
<event>
 7    1  0.7029100E-006  0.3881612E+02  0.7818608E-02  0.1564305E+00
          2   -1    0    0  502    0  0.00000000000E+00  0.00000000000E+00  0.28879015048E+04  0.28879015048E+04  0.00000000000E+00 0. -1.
          1   -1    0    0  501    0 -0.00000000000E+00 -0.00000000000E+00 -0.59985391815E+03  0.59985391815E+03  0.00000000000E+00 0. -1.
         25    2    1    2    0    0 -0.10503383328E+02  0.16885878762E+00 -0.53661560387E+02  0.13642312877E+03  0.12498542885E+03 0.  0.
          2    1    1    2  501    0 -0.27899130370E+02 -0.60868284357E+01 -0.50427503086E+03  0.50508288202E+03  0.00000000000E+00 0. -1.
          1    1    1    2  502    0  0.38402513699E+02  0.59179696481E+01  0.28459841779E+04  0.28462494122E+04  0.00000000000E+00 0. -1.
         22    1    3    3    0    0 -0.14641789590E+02  0.53511328906E+02  0.65632971504E+01  0.55865205568E+02  0.00000000000E+00 0. -1.
         22    1    3    3    0    0  0.41384062619E+01 -0.53342470118E+02 -0.60224857537E+02  0.80557923199E+02  0.00000000000E+00 0. -1.
</event>
<event>
 7    1  0.7029100E-006  0.1130394E+03  0.7818608E-02  0.1298970E+00
          2   -1    0    0  502    0  0.00000000000E+00  0.00000000000E+00  0.71900990727E+03  0.71900990727E+03  0.00000000000E+00 0. -1.
          1   -1    0    0  501    0 -0.00000000000E+00 -0.00000000000E+00 -0.42353406443E+03  0.42353406443E+03  0.00000000000E+00 0. -1.
         25    2    1    2    0    0  0.11098920377E+03 -0.15248685895E+02 -0.35315772581E+02  0.17153188051E+03  0.12499942585E+03 0.  0.
          2    1    1    2  501    0 -0.31835851063E+02 -0.67093188519E+02 -0.31068971574E+03  0.31944188333E+03  0.00000000000E+00 0. -1.
          1    1    1    2  502    0 -0.79153352706E+02  0.82341874414E+02  0.64148133117E+03  0.65157020786E+03  0.00000000000E+00 0. -1.
         22    1    3    3    0    0  0.70076591685E+02 -0.63852526556E+00  0.42823623758E+02  0.82127943895E+02  0.00000000000E+00 0. -1.
         22    1    3    3    0    0  0.40912612084E+02 -0.14610160630E+02 -0.78139396339E+02  0.89403936610E+02  0.00000000000E+00 0. -1.
</event>
<event>
 7    1  0.7029100E-006  0.9613972E+02  0.7818608E-02  0.1339157E+00
          2   -1    0    0  502    0  0.00000000000E+00  0.00000000000E+00  0.15591015525E+04  0.15591015525E+04  0.00000000000E+00 0. -1.
          1   -1    0    0  501    0 -0.00000000000E+00 -0.00000000000E+00 -0.28280380507E+03  0.28280380507E+03  0.00000000000E+00 0. -1.
         25    2    1    2    0    0 -0.71322824575E+02  0.84366091368E+01  0.55459463381E+03  0.57302629085E+03  0.12500320188E+03 0.  0.
          2    1    1    2  501    0  0.67554366230E+02 -0.69261297518E+02 -0.26406382230E+03  0.28123019393E+03  0.00000000000E+00 0. -1.
          1    1    1    2  502    0  0.37684583448E+01  0.60824688381E+02  0.98576693592E+03  0.98764887280E+03  0.00000000000E+00 0. -1.
         22    1    3    3    0    0 -0.70507247052E+02  0.21410396359E+02  0.13982382321E+03  0.15805182219E+03  0.00000000000E+00 0. -1.
         22    1    3    3    0    0 -0.81557752309E+00 -0.12973787223E+02  0.41477081059E+03  0.41497446866E+03  0.00000000000E+00 0. -1.
</event>
<event>
 7    1  0.7029100E-006  0.5878770E+02  0.7818608E-02  0.1484340E+00
          2   -1    0    0  502    0  0.00000000000E+00  0.00000000000E+00  0.20932311170E+03  0.20932311170E+03  0.00000000000E+00 0. -1.
          1   -1    0    0  501    0 -0.00000000000E+00 -0.00000000000E+00 -0.60476273025E+03  0.60476273025E+03  0.00000000000E+00 0. -1.
         25    2    1    2    0    0  0.31250298782E+02  0.72861298125E+02 -0.46309252547E+03  0.48617432525E+03  0.12500174981E+03 0.  0.
          2    1    1    2  501    0 -0.29775578685E+02 -0.40799990686E+02 -0.12384165069E+03  0.13374594862E+03  0.00000000000E+00 0. -1.
          1    1    1    2  502    0 -0.14747200970E+01 -0.32061307439E+02  0.19149455760E+03  0.19416556808E+03  0.00000000000E+00 0. -1.
         22    1    3    3    0    0 -0.30047213614E+02 -0.88767828087E+01 -0.39407441468E+02  0.50344600129E+02  0.00000000000E+00 0. -1.
         22    1    3    3    0    0  0.61297512396E+02  0.81738080933E+02 -0.42368508400E+03  0.43582972512E+03  0.00000000000E+00 0. -1.
</event>
<event>
 7    1  0.7029100E-006  0.7739766E+02  0.7818608E-02  0.1388907E+00
          2   -1    0    0  502    0  0.00000000000E+00  0.00000000000E+00  0.60763951585E+03  0.60763951585E+03  0.00000000000E+00 0. -1.
          1   -1    0    0  501    0 -0.00000000000E+00 -0.00000000000E+00 -0.18825657758E+04  0.18825657758E+04  0.00000000000E+00 0. -1.
         25    2    1    2    0    0 -0.21337475336E+02  0.73771509739E+02 -0.50345145155E+01  0.14679286026E+03  0.12500109594E+03 0.  0.
          2    1    1    2  501    0 -0.28589192961E+02 -0.72132904222E+02 -0.18046544113E+04  0.18063216885E+04  0.00000000000E+00 0. -1.
          1    1    1    2  502    0  0.49926668297E+02 -0.16386055169E+01  0.53476266593E+03  0.53709074290E+03  0.00000000000E+00 0. -1.
         22    1    3    3    0    0 -0.23543251427E+02  0.11964493613E+02 -0.59045417042E+02  0.64682262397E+02  0.00000000000E+00 0.  1.
         22    1    3    3    0    0  0.22057760911E+01  0.61807016125E+02  0.54010902526E+02  0.82110597868E+02  0.00000000000E+00 0.  1.
</event>
<event>
 7    1  0.7029100E-006  0.9401392E+02  0.7818608E-02  0.1388644E+00
          2   -1    0    0  502    0  0.00000000000E+00  0.00000000000E+00  0.24570915783E+03  0.24570915783E+03  0.00000000000E+00 0. -1.
          1   -1    0    0  501    0 -0.00000000000E+00 -0.00000000000E+00 -0.60930150464E+03  0.60930150464E+03  0.00000000000E+00 0. -1.
         25    2    1    2    0    0  0.60467354592E+02  0.10505166744E+03  0.28833291893E+01  0.17414136866E+03  0.12499899554E+03 0.  0.
          2    1    1    2  501    0  0.33849281533E+01 -0.41072562655E+02 -0.50977785440E+03  0.51144097800E+03  0.00000000000E+00 0. -1.
          1    1    1    2  502    0 -0.63852282745E+02 -0.63979104790E+02  0.14330217840E+03  0.16942831581E+03  0.00000000000E+00 0. -1.
         22    1    3    3    0    0 -0.31219919949E+02  0.99049298212E+01 -0.22305935103E+02  0.39627588587E+02  0.00000000000E+00 0. -1.
         22    1    3    3    0    0  0.91687274541E+02  0.95146737624E+02  0.25189264293E+02  0.13451378007E+03  0.00000000000E+00 0. -1.
</event>
<event>
 7    1  0.7029100E-006  0.1754670E+03  0.7818608E-02  0.1191208E+00
          2   -1    0    0  502    0  0.00000000000E+00  0.00000000000E+00  0.28429385533E+04  0.28429385533E+04  0.00000000000E+00 0. -1.
          1   -1    0    0  501    0 -0.00000000000E+00 -0.00000000000E+00 -0.13180050075E+04  0.13180050075E+04  0.00000000000E+00 0. -1.
         25    2    1    2    0    0  0.84737509186E+02  0.12622163653E+03  0.15104328424E+04  0.15232021111E+04  0.12499981053E+03 0.  0.
          2    1    1    2  501    0 -0.17497872611E+03 -0.16706604035E+02 -0.13019009678E+04  0.13137133611E+04  0.00000000000E+00 0. -1.
          1    1    1    2  502    0  0.90241216924E+02 -0.10951503249E+03  0.13164016711E+04  0.13240280886E+04  0.00000000000E+00 0. -1.
         22    1    3    3    0    0  0.82789621958E+02  0.17548145824E+02  0.52265058233E+03  0.52945792102E+03  0.00000000000E+00 0. -1.
         22    1    3    3    0    0  0.19478872285E+01  0.10867349070E+03  0.98778226011E+03  0.99374419004E+03  0.00000000000E+00 0. -1.
</event>
<event>
 7    1  0.7029100E-006  0.9258631E+02  0.7818608E-02  0.1325319E+00
          2   -1    0    0  502    0  0.00000000000E+00  0.00000000000E+00  0.13219470361E+04  0.13219470361E+04  0.00000000000E+00 0. -1.
          1   -1    0    0  501    0 -0.00000000000E+00 -0.00000000000E+00 -0.39655590620E+03  0.39655590620E+03  0.00000000000E+00 0. -1.
         25    2    1    2    0    0 -0.10728217763E+03 -0.11334456331E+03 -0.59747469600E+02  0.20868750437E+03  0.12499703471E+03 0.  0.
          2    1    1    2  501    0  0.67928387965E+02  0.53718481660E+02 -0.25413430002E+03  0.26848497837E+03  0.00000000000E+00 0. -1.
          1    1    1    2  502    0  0.39353789662E+02  0.59626081647E+02  0.12392728995E+04  0.12413304596E+04  0.00000000000E+00 0. -1.
         22    1    3    3    0    0  0.14868156683E+02  0.88898887422E+01  0.12525061702E+02  0.21376842041E+02  0.00000000000E+00 0.  1.
         22    1    3    3    0    0 -0.12215033431E+03 -0.12223445205E+03 -0.72272531302E+02  0.18731066233E+03  0.00000000000E+00 0.  1.
</event>
<event>
 7    1  0.7029100E-006  0.1974872E+03  0.7818608E-02  0.1262767E+00
          2   -1    0    0  502    0  0.00000000000E+00  0.00000000000E+00  0.23409367838E+03  0.23409367838E+03  0.00000000000E+00 0. -1.
          1   -1    0    0  501    0 -0.00000000000E+00 -0.00000000000E+00 -0.11145067653E+04  0.11145067653E+04  0.00000000000E+00 0. -1.
         25    2    1    2    0    0  0.18294866072E+03 -0.22054813626E+02  0.99005866793E+02  0.24368736812E+03  0.12499897783E+03 0.  0.
          2    1    1    2  501    0  0.53144491320E+02 -0.27774422108E+02 -0.80487804289E+03  0.80710867881E+03  0.00000000000E+00 0. -1.
          1    1    1    2  502    0 -0.23609315204E+03  0.49829235735E+02 -0.17454091081E+03  0.29780439674E+03  0.00000000000E+00 0. -1.
         22    1    3    3    0    0  0.12631100571E+03  0.40319000615E+02  0.32936040614E+02  0.13661945230E+03  0.00000000000E+00 0. -1.
         22    1    3    3    0    0  0.56637655005E+02 -0.62373814241E+02  0.66069826179E+02  0.10706791582E+03  0.00000000000E+00 0. -1.
</event>
<event>
 7    1  0.7029100E-006  0.6240145E+02  0.7818608E-02  0.1430940E+00
          2   -1    0    0  502    0  0.00000000000E+00  0.00000000000E+00  0.84984808342E+03  0.84984808342E+03  0.00000000000E+00 0. -1.
          1   -1    0    0  501    0 -0.00000000000E+00 -0.00000000000E+00 -0.17350550002E+03  0.17350550002E+03  0.00000000000E+00 0. -1.
         25    2    1    2    0    0 -0.37024893216E+02 -0.21147862555E+02 -0.25764157522E+02  0.13456195394E+03  0.12500021131E+03 0.  0.
          2    1    1    2  501    0  0.20618742655E+02 -0.39579694514E+02 -0.86683416708E+02  0.97497176875E+02  0.00000000000E+00 0. -1.
          1    1    1    2  502    0  0.16406150561E+02  0.60727557069E+02  0.78879015763E+03  0.79129445262E+03  0.00000000000E+00 0. -1.
         22    1    3    3    0    0 -0.45916575266E+02 -0.23979014216E+02  0.41672647117E+02  0.66482588131E+02  0.00000000000E+00 0.  1.
         22    1    3    3    0    0  0.88916820499E+01  0.28311516604E+01 -0.67436804639E+02  0.68079365812E+02  0.00000000000E+00 0.  1.
</event>
<event>
 7    1  0.7029100E-006  0.8676099E+02  0.7818608E-02  0.1330467E+00
          2   -1    0    0  502    0  0.00000000000E+00  0.00000000000E+00  0.33762420936E+03  0.33762420936E+03  0.00000000000E+00 0. -1.
          1   -1    0    0  501    0 -0.00000000000E+00 -0.00000000000E+00 -0.33076114181E+04  0.33076114181E+04  0.00000000000E+00 0. -1.
         25    2    1    2    0    0 -0.75718794730E+02 -0.43723666427E+02  0.77336569259E+02  0.17105101132E+03  0.12502963108E+03 0.  0.
          2    1    1    2  501    0 -0.11647704688E+02  0.71915695816E+02 -0.32504554053E+04  0.32512717324E+04  0.00000000000E+00 0. -1.
          1    1    1    2  502    0  0.87366499418E+02 -0.28192029389E+02  0.20313162726E+03  0.22291288374E+03  0.00000000000E+00 0. -1.
         22    1    3    3    0    0 -0.10574495697E+03 -0.36771994563E+02  0.32380647203E+02  0.11654476316E+03  0.00000000000E+00 0.  1.
         22    1    3    3    0    0  0.30026162235E+02 -0.69516718646E+01  0.44955922056E+02  0.54506248157E+02  0.00000000000E+00 0.  1.
</event>
<event>
 7    1  0.7029100E-006  0.1144433E+03  0.7818608E-02  0.1371578E+00
          2   -1    0    0  502    0  0.00000000000E+00  0.00000000000E+00  0.11016595978E+04  0.11016595978E+04  0.00000000000E+00 0. -1.
          1   -1    0    0  501    0 -0.00000000000E+00 -0.00000000000E+00 -0.45300937155E+03  0.45300937155E+03  0.00000000000E+00 0. -1.
         25    2    1    2    0    0  0.73987156428E+02 -0.66209169628E+02 -0.72216067956E+02  0.17520443016E+03  0.12499471356E+03 0.  0.
          2    1    1    2  501    0 -0.18269549355E+02 -0.34353700658E+02 -0.32498867490E+03  0.32730962710E+03  0.00000000000E+00 0. -1.
          1    1    1    2  502    0 -0.55717607073E+02  0.10056287029E+03  0.10458549691E+04  0.10521549121E+04  0.00000000000E+00 0. -1.
         22    1    3    3    0    0 -0.23371909133E+02  0.18948488999E+02 -0.10300673921E+02  0.31802441024E+02  0.00000000000E+00 0. -1.
         22    1    3    3    0    0  0.97359065562E+02 -0.85157658627E+02 -0.61915394034E+02  0.14340198914E+03  0.00000000000E+00 0. -1.
</event>
<event>
 7    1  0.7029100E-006  0.7187550E+02  0.7818608E-02  0.1404191E+00
          2   -1    0    0  502    0  0.00000000000E+00  0.00000000000E+00  0.16796784988E+02  0.16796784988E+02  0.00000000000E+00 0. -1.
          1   -1    0    0  501    0 -0.00000000000E+00 -0.00000000000E+00 -0.21000837019E+04  0.21000837019E+04  0.00000000000E+00 0. -1.
         25    2    1    2    0    0  0.11729523754E+02  0.40610290534E+02 -0.47354822619E+03  0.49158860001E+03  0.12499860682E+03 0.  0.
          2    1    1    2  501    0  0.28102419833E+02  0.38456715467E+02 -0.13507386265E+04  0.13515781524E+04  0.00000000000E+00 0. -1.
          1    1    1    2  502    0 -0.39831943587E+02 -0.79067006001E+02 -0.25900006423E+03  0.27371373447E+03  0.00000000000E+00 0. -1.
         22    1    3    3    0    0 -0.54778707579E+01  0.12419301510E+02 -0.45188811816E+03  0.45209193473E+03  0.00000000000E+00 0.  1.
         22    1    3    3    0    0  0.17207394512E+02  0.28190989023E+02 -0.21660108034E+02  0.39496665278E+02  0.00000000000E+00 0.  1.
</event>
<event>
 7    1  0.7029100E-006  0.1059687E+03  0.7818608E-02  0.1320864E+00
          2   -1    0    0  502    0  0.00000000000E+00  0.00000000000E+00  0.76391487956E+03  0.76391487956E+03  0.00000000000E+00 0. -1.
          1   -1    0    0  501    0 -0.00000000000E+00 -0.00000000000E+00 -0.23749788502E+04  0.23749788502E+04  0.00000000000E+00 0. -1.
         25    2    1    2    0    0 -0.76300320584E+02  0.14124918236E+03  0.23972063382E+03  0.31442699960E+03  0.12500114144E+03 0.  0.
          2    1    1    2  501    0  0.23781671182E+02 -0.10304903930E+03 -0.23342573317E+04  0.23366518703E+04  0.00000000000E+00 0. -1.
          1    1    1    2  502    0  0.52518649402E+02 -0.38200143052E+02  0.48347272726E+03  0.48781485983E+03  0.00000000000E+00 0. -1.
         22    1    3    3    0    0 -0.73074930846E+02  0.11134878030E+03  0.87716240529E+02  0.15947612751E+03  0.00000000000E+00 0.  1.
         22    1    3    3    0    0 -0.32253897374E+01  0.29900402053E+02  0.15200439329E+03  0.15495087209E+03  0.00000000000E+00 0.  1.
</event>
<event>
 7    1  0.7029100E-006  0.1120604E+03  0.7818608E-02  0.1302600E+00
          2   -1    0    0  502    0  0.00000000000E+00  0.00000000000E+00  0.16868544243E+02  0.16868544243E+02  0.00000000000E+00 0. -1.
          1   -1    0    0  501    0 -0.00000000000E+00 -0.00000000000E+00 -0.31893513267E+04  0.31893513267E+04  0.00000000000E+00 0. -1.
         25    2    1    2    0    0  0.74477236774E+02  0.46473577848E+02 -0.11535843248E+04  0.11636525035E+04  0.12499480890E+03 0.  0.
          2    1    1    2  501    0  0.48583289795E+02 -0.53745861752E+02 -0.16863436045E+04  0.16878991990E+04  0.00000000000E+00 0. -1.
          1    1    1    2  502    0 -0.12306052657E+03  0.72722839033E+01 -0.33255485315E+03  0.35466816838E+03  0.00000000000E+00 0. -1.
         22    1    3    3    0    0  0.54409413419E+02  0.45467484764E+02 -0.25042715092E+03  0.26027184703E+03  0.00000000000E+00 0. -1.
         22    1    3    3    0    0  0.20067823356E+02  0.10060930842E+01 -0.90315717391E+03  0.90338065650E+03  0.00000000000E+00 0. -1.
</event>
<event>
 7    1  0.7029100E-006  0.6953892E+02  0.7818608E-02  0.1445674E+00
          2   -1    0    0  502    0  0.00000000000E+00  0.00000000000E+00  0.15352174401E+04  0.15352174401E+04  0.00000000000E+00 0. -1.
          1   -1    0    0  501    0 -0.00000000000E+00 -0.00000000000E+00 -0.14885118708E+02  0.14885118708E+02  0.00000000000E+00 0. -1.
         25    2    1    2    0    0  0.38274452919E+02 -0.76662476512E+01  0.89492608136E+03  0.90445618336E+03  0.12499836567E+03 0.  0.
          2    1    1    2  501    0 -0.74136839776E+02  0.77620677070E+01  0.13734680162E+03  0.15627112536E+03  0.00000000000E+00 0. -1.
          1    1    1    2  502    0  0.35862386857E+02 -0.95820055787E-01  0.48805943841E+03  0.48937525008E+03  0.00000000000E+00 0. -1.
         22    1    3    3    0    0  0.77444803067E+02  0.15364552454E+02  0.69285916199E+03  0.69734323353E+03  0.00000000000E+00 0. -1.
         22    1    3    3    0    0 -0.39170350148E+02 -0.23030800106E+02  0.20206691937E+03  0.20711294983E+03  0.00000000000E+00 0. -1.
</event>
<event>
 7    1  0.7029100E-006  0.7857072E+02  0.7818608E-02  0.1429049E+00
          2   -1    0    0  502    0  0.00000000000E+00  0.00000000000E+00  0.30133468482E+03  0.30133468482E+03  0.00000000000E+00 0. -1.
          1   -1    0    0  501    0 -0.00000000000E+00 -0.00000000000E+00 -0.22454684854E+04  0.22454684854E+04  0.00000000000E+00 0. -1.
         25    2    1    2    0    0  0.22728520392E+02 -0.59893311784E+02 -0.76247804980E+03  0.77530701209E+03  0.12499756852E+03 0.  0.
          2    1    1    2  501    0 -0.58602472165E+02  0.57469164067E+02 -0.14743343038E+04  0.14766172808E+04  0.00000000000E+00 0. -1.
          1    1    1    2  502    0  0.35873951772E+02  0.24241477163E+01  0.29267855302E+03  0.29487887735E+03  0.00000000000E+00 0. -1.
         22    1    3    3    0    0  0.17460324227E+02  0.36782800592E+02 -0.16002651227E+03  0.16512517062E+03  0.00000000000E+00 0.  1.
         22    1    3    3    0    0  0.52681961653E+01 -0.96676112375E+02 -0.60245153753E+03  0.61018184147E+03  0.00000000000E+00 0.  1.
</event>
<event>
 7    1  0.7029100E-006  0.2090764E+03  0.7818608E-02  0.1218226E+00
          2   -1    0    0  502    0  0.00000000000E+00  0.00000000000E+00  0.74559960931E+03  0.74559960931E+03  0.00000000000E+00 0. -1.
          1   -1    0    0  501    0 -0.00000000000E+00 -0.00000000000E+00 -0.55575043708E+03  0.55575043708E+03  0.00000000000E+00 0. -1.
         25    2    1    2    0    0  0.14237707224E+03  0.22478703771E+03  0.15160867456E+03  0.33077209509E+03  0.12499818266E+03 0.  0.
          2    1    1    2  501    0  0.17376524268E+01 -0.88998371403E+02 -0.44212792713E+03  0.45099981541E+03  0.00000000000E+00 0. -1.
          1    1    1    2  502    0 -0.14411472466E+03 -0.13578866630E+03  0.48036842479E+03  0.51957813589E+03  0.00000000000E+00 0. -1.
         22    1    3    3    0    0  0.94584628147E+02  0.20971254380E+03  0.15964048615E+03  0.28001908458E+03  0.00000000000E+00 0.  1.
         22    1    3    3    0    0  0.47792444089E+02  0.15074493907E+02 -0.80318115922E+01  0.50753010512E+02  0.00000000000E+00 0.  1.
</event>
<event>
 7    1  0.7029100E-006  0.5324843E+02  0.7818608E-02  0.1547421E+00
          2   -1    0    0  502    0  0.00000000000E+00  0.00000000000E+00  0.15178194370E+04  0.15178194370E+04  0.00000000000E+00 0. -1.
          1   -1    0    0  501    0 -0.00000000000E+00 -0.00000000000E+00 -0.70476114047E+02  0.70476114047E+02  0.00000000000E+00 0. -1.
         25    2    1    2    0    0  0.18653022112E+02 -0.57793968465E+02  0.11931820167E+04  0.12012478166E+04  0.12499965583E+03 0.  0.
          2    1    1    2  501    0 -0.22080926146E+02  0.70555836314E+01 -0.62327855923E+02  0.66498948743E+02  0.00000000000E+00 0. -1.
          1    1    1    2  502    0  0.34279040347E+01  0.50738384833E+02  0.31648916214E+03  0.32054878564E+03  0.00000000000E+00 0. -1.
         22    1    3    3    0    0  0.34529122820E+02 -0.21738074255E+01  0.97238196686E+03  0.97299726373E+03  0.00000000000E+00 0.  1.
         22    1    3    3    0    0 -0.15876100709E+02 -0.55620161039E+02  0.22080004986E+03  0.22825055292E+03  0.00000000000E+00 0.  1.
</event>
<event>
 7    1  0.7029100E-006  0.5222768E+02  0.7818608E-02  0.1449678E+00
          2   -1    0    0  502    0  0.00000000000E+00  0.00000000000E+00  0.26015465879E+03  0.26015465879E+03  0.00000000000E+00 0. -1.
          1   -1    0    0  501    0 -0.00000000000E+00 -0.00000000000E+00 -0.98399204149E+03  0.98399204149E+03  0.00000000000E+00 0. -1.
         25    2    1    2    0    0 -0.27211506410E+02  0.60130979061E+02 -0.29447964187E+03  0.32664228385E+03  0.12498288442E+03 0.  0.
          2    1    1    2  501    0  0.48852224351E+02 -0.19135380776E+02 -0.67019539207E+03  0.67224591198E+03  0.00000000000E+00 0. -1.
          1    1    1    2  502    0 -0.21640717941E+02 -0.40995598285E+02  0.24083765124E+03  0.24525850445E+03  0.00000000000E+00 0. -1.
         22    1    3    3    0    0 -0.41506697213E+02  0.89043685353E+02 -0.26618823698E+03  0.28373889638E+03  0.00000000000E+00 0. -1.
         22    1    3    3    0    0  0.14295190803E+02 -0.28912706292E+02 -0.28291404892E+02  0.42903387465E+02  0.00000000000E+00 0. -1.
</event>
<event>
 7    1  0.7029100E-006  0.3324282E+02  0.7818608E-02  0.1597793E+00
          2   -1    0    0  502    0  0.00000000000E+00  0.00000000000E+00  0.89728440660E+03  0.89728440660E+03  0.00000000000E+00 0. -1.
          1   -1    0    0  501    0 -0.00000000000E+00 -0.00000000000E+00 -0.27050002228E+03  0.27050002228E+03  0.00000000000E+00 0. -1.
         25    2    1    2    0    0 -0.23325982276E+02  0.28812920536E+02 -0.61195994303E+02  0.14402856899E+03  0.12499997251E+03 0.  0.
          2    1    1    2  501    0 -0.97536052970E+01 -0.25307266615E+02 -0.16646662520E+03  0.16866157791E+03  0.00000000000E+00 0. -1.
          1    1    1    2  502    0  0.33079587573E+02 -0.35056539213E+01  0.85444700382E+03  0.85509428197E+03  0.00000000000E+00 0. -1.
         22    1    3    3    0    0 -0.51391022525E+02  0.36796470913E+02 -0.85311255203E+02  0.10617451546E+03  0.00000000000E+00 0.  1.
         22    1    3    3    0    0  0.28065040249E+02 -0.79835503774E+01  0.24115260900E+02  0.37854053536E+02  0.00000000000E+00 0.  1.
</event>
<event>
 7    1  0.7156705E-006  0.4601950E+02  0.7818608E-02  0.1503804E+00
          2   -1    0    0  502    0  0.00000000000E+00  0.00000000000E+00  0.13665771460E+04  0.13665771460E+04  0.00000000000E+00 0. -1.
          1   -1    0    0  501    0 -0.00000000000E+00 -0.00000000000E+00 -0.10007853523E+04  0.10007853523E+04  0.00000000000E+00 0. -1.
         25    2    1    2    0    0 -0.59736167489E+02 -0.55481135016E+02 -0.11424493847E+02  0.14967528007E+03  0.12500241740E+03 0.  0.
          2    1    1    2  501    0  0.32756822285E+02  0.31906486662E+02 -0.91941979354E+03  0.92055623949E+03  0.00000000000E+00 0. -1.
          1    1    1    2  502    0  0.26979345204E+02  0.23574648354E+02  0.12966360811E+04  0.12971309787E+04  0.00000000000E+00 0. -1.
         22    1    3    3    0    0 -0.87828306170E+02 -0.90208694077E+01 -0.28473927834E+02  0.92768270523E+02  0.00000000000E+00 0.  1.
         22    1    3    3    0    0  0.28092138681E+02 -0.46460265609E+02  0.17049433987E+02  0.56907009545E+02  0.00000000000E+00 0.  1.
</event>
<event>
 7    1  0.7029100E-006  0.5864025E+02  0.7818608E-02  0.1414304E+00
          2   -1    0    0  502    0  0.00000000000E+00  0.00000000000E+00  0.58215781819E+03  0.58215781819E+03  0.00000000000E+00 0. -1.
          1   -1    0    0  501    0 -0.00000000000E+00 -0.00000000000E+00 -0.68173171634E+03  0.68173171634E+03  0.00000000000E+00 0. -1.
         25    2    1    2    0    0  0.59288388058E+02  0.11342816473E+02 -0.11971417332E+03  0.18330275468E+03  0.12499857654E+03 0.  0.
          2    1    1    2  501    0 -0.44063747344E+02  0.40410641644E+02 -0.52720756864E+03  0.53058689601E+03  0.00000000000E+00 0. -1.
          1    1    1    2  502    0 -0.15224640714E+02 -0.51753458116E+02  0.54734784380E+03  0.54999988384E+03  0.00000000000E+00 0. -1.
         22    1    3    3    0    0 -0.13163209282E+02  0.28477870690E+02  0.10688633631E+02  0.33143718659E+02  0.00000000000E+00 0. -1.
         22    1    3    3    0    0  0.72451597340E+02 -0.17135054217E+02 -0.13040280695E+03  0.15015903603E+03  0.00000000000E+00 0. -1.
</event>
<event>
 7    1  0.9719347E-006  0.8886746E+02  0.7818608E-02  0.1318381E+00
          2   -1    0    0  502    0  0.00000000000E+00  0.00000000000E+00  0.27192385274E+04  0.27192385274E+04  0.00000000000E+00 0. -1.
          1   -1    0    0  501    0 -0.00000000000E+00 -0.00000000000E+00 -0.11359093248E+04  0.11359093248E+04  0.00000000000E+00 0. -1.
         25    2    1    2    0    0  0.14028299491E+03  0.81995602269E+02 -0.32470698584E+03  0.38400847936E+03  0.12500115246E+03 0.  0.
          2    1    1    2  501    0 -0.55230810623E+02 -0.56732208233E+02 -0.77881214257E+03  0.78282650652E+03  0.00000000000E+00 0. -1.
          1    1    1    2  502    0 -0.85052184282E+02 -0.25263394035E+02  0.26868483311E+04  0.26883128663E+04  0.00000000000E+00 0. -1.
         22    1    3    3    0    0  0.22790309060E+02  0.47638518579E+02 -0.21491059327E+02  0.57014842545E+02  0.00000000000E+00 0.  1.
         22    1    3    3    0    0  0.11749268585E+03  0.34357083690E+02 -0.30321592651E+03  0.32699363681E+03  0.00000000000E+00 0.  1.
</event>
<event>
 7    1  0.7029100E-006  0.9234920E+02  0.7818608E-02  0.1367042E+00
          2   -1    0    0  502    0  0.00000000000E+00  0.00000000000E+00  0.18280690640E+04  0.18280690640E+04  0.00000000000E+00 0. -1.
          1   -1    0    0  501    0 -0.00000000000E+00 -0.00000000000E+00 -0.77296075090E+02  0.77296075090E+02  0.00000000000E+00 0. -1.
         25    2    1    2    0    0  0.47402805794E+01 -0.46753617704E+02  0.46805210651E+03  0.48673139562E+03  0.12500522407E+03 0.  0.
          2    1    1    2  501    0  0.73618351907E+01  0.95334478106E+02 -0.33608349662E+02  0.10135275280E+03  0.00000000000E+00 0. -1.
          1    1    1    2  502    0 -0.12102115770E+02 -0.48580860402E+02  0.13163292320E+04  0.13172809907E+04  0.00000000000E+00 0. -1.
         22    1    3    3    0    0  0.94752450715E+01 -0.71317472565E+02  0.45041129183E+03  0.45612092034E+03  0.00000000000E+00 0. -1.
         22    1    3    3    0    0 -0.47349644921E+01  0.24563854861E+02  0.17640814681E+02  0.30610475282E+02  0.00000000000E+00 0. -1.
</event>
<event>
 7    1  0.7029100E-006  0.6422412E+02  0.7818608E-02  0.1500733E+00
          2   -1    0    0  502    0  0.00000000000E+00  0.00000000000E+00  0.12404369348E+04  0.12404369348E+04  0.00000000000E+00 0. -1.
          1   -1    0    0  501    0 -0.00000000000E+00 -0.00000000000E+00 -0.19039000796E+03  0.19039000796E+03  0.00000000000E+00 0. -1.
         25    2    1    2    0    0  0.18484950456E+02  0.35369056275E+02  0.40131418622E+03  0.42222100975E+03  0.12499936589E+03 0.  0.
          2    1    1    2  501    0 -0.19474762672E+02 -0.61568558294E+02 -0.17392738033E+03  0.18552813096E+03  0.00000000000E+00 0. -1.
          1    1    1    2  502    0  0.98981221612E+00  0.26199502019E+02  0.82266012097E+03  0.82307780207E+03  0.00000000000E+00 0. -1.
         22    1    3    3    0    0  0.64073190991E+01 -0.45615142769E+02  0.19232742375E+03  0.19776661224E+03  0.00000000000E+00 0. -1.
         22    1    3    3    0    0  0.12077631356E+02  0.80984199044E+02  0.20898676247E+03  0.22445439751E+03  0.00000000000E+00 0. -1.
</event>
<event>
 7    1  0.7029100E-006  0.7596656E+02  0.7818608E-02  0.1363406E+00
          2   -1    0    0  502    0  0.00000000000E+00  0.00000000000E+00  0.11558812278E+03  0.11558812278E+03  0.00000000000E+00 0. -1.
          1   -1    0    0  501    0 -0.00000000000E+00 -0.00000000000E+00 -0.22518359852E+04  0.22518359852E+04  0.00000000000E+00 0. -1.
         25    2    1    2    0    0 -0.11450267915E+03 -0.40972378319E+02 -0.58025126123E+03  0.60589267794E+03  0.12499924682E+03 0.  0.
          2    1    1    2  501    0  0.61510070665E+02 -0.12339119712E+02 -0.16443399443E+04  0.16455362636E+04  0.00000000000E+00 0. -1.
          1    1    1    2  502    0  0.52992608487E+02  0.53311498031E+02  0.88343343035E+02  0.11599516643E+03  0.00000000000E+00 0. -1.
         22    1    3    3    0    0  0.23783706888E+02 -0.26061835652E+02 -0.12170227353E+03  0.12671356428E+03  0.00000000000E+00 0. -1.
         22    1    3    3    0    0 -0.13828638604E+03 -0.14910542666E+02 -0.45854898770E+03  0.47917911366E+03  0.00000000000E+00 0. -1.
</event>
<event>
 7    1  0.7029100E-006  0.9031694E+02  0.7818608E-02  0.1344434E+00
          2   -1    0    0  502    0  0.00000000000E+00  0.00000000000E+00  0.43827039909E+03  0.43827039909E+03  0.00000000000E+00 0. -1.
          1   -1    0    0  501    0 -0.00000000000E+00 -0.00000000000E+00 -0.14671503182E+03  0.14671503182E+03  0.00000000000E+00 0. -1.
         25    2    1    2    0    0  0.34590407448E+02 -0.27835966056E+02  0.40933803967E+02  0.13882528099E+03  0.12500218014E+03 0.  0.
          2    1    1    2  501    0 -0.70932751187E+02  0.78042586959E+02 -0.65416120663E+02  0.12410225386E+03  0.00000000000E+00 0. -1.
          1    1    1    2  502    0  0.36342343739E+02 -0.50206620903E+02  0.31603768397E+03  0.32205789606E+03  0.00000000000E+00 0. -1.
         22    1    3    3    0    0 -0.13166231085E+02  0.31461337957E+02  0.51694659492E+02  0.61931439891E+02  0.00000000000E+00 0. -1.
         22    1    3    3    0    0  0.47756638533E+02 -0.59297304013E+02 -0.10760855525E+02  0.76893841098E+02  0.00000000000E+00 0. -1.
</event>
<event>
 7    1  0.7029100E-006  0.6080452E+02  0.7818608E-02  0.1470652E+00
          2   -1    0    0  502    0  0.00000000000E+00  0.00000000000E+00  0.89247458320E+03  0.89247458320E+03  0.00000000000E+00 0. -1.
          1   -1    0    0  501    0 -0.00000000000E+00 -0.00000000000E+00 -0.19850175645E+02  0.19850175645E+02  0.00000000000E+00 0. -1.
         25    2    1    2    0    0 -0.23495878809E+02 -0.36066130782E+02  0.60436422344E+03  0.61865452501E+03  0.12499793850E+03 0.  0.
          2    1    1    2  501    0 -0.26338418675E+02 -0.21803341044E+02  0.38208578370E+02  0.51273711003E+02  0.00000000000E+00 0. -1.
          1    1    1    2  502    0  0.49834297484E+02  0.57869471826E+02  0.23005160574E+03  0.24239652282E+03  0.00000000000E+00 0. -1.
         22    1    3    3    0    0  0.36768414419E+02 -0.38474471829E+01  0.63400765898E+02  0.73391935968E+02  0.00000000000E+00 0. -1.
         22    1    3    3    0    0 -0.60264293228E+02 -0.32218683599E+02  0.54096345755E+03  0.54526258905E+03  0.00000000000E+00 0. -1.
</event>
<event>
 7    1  0.7029100E-006  0.9070603E+02  0.7818608E-02  0.1475355E+00
          2   -1    0    0  502    0  0.00000000000E+00  0.00000000000E+00  0.97247591094E+03  0.97247591094E+03  0.00000000000E+00 0. -1.
          1   -1    0    0  501    0 -0.00000000000E+00 -0.00000000000E+00 -0.38203411265E+02  0.38203411265E+02  0.00000000000E+00 0. -1.
         25    2    1    2    0    0 -0.16578725809E+02  0.89526437010E+02  0.37187667049E+03  0.40274918311E+03  0.12499923747E+03 0.  0.
          2    1    1    2  501    0  0.37748167466E+02 -0.82959741132E+02  0.69710911728E+02  0.11474691285E+03  0.00000000000E+00 0. -1.
          1    1    1    2  502    0 -0.21169441657E+02 -0.65666958773E+01  0.49268491745E+03  0.49318322624E+03  0.00000000000E+00 0. -1.
         22    1    3    3    0    0  0.42401153544E+02  0.62520838089E+02  0.11340853995E+03  0.13626521915E+03  0.00000000000E+00 0. -1.
         22    1    3    3    0    0 -0.58979879353E+02  0.27005598921E+02  0.25846813054E+03  0.26648396396E+03  0.00000000000E+00 0. -1.
</event>
<event>
 7    1  0.7029100E-006  0.1283120E+03  0.7818608E-02  0.1259608E+00
          2   -1    0    0  502    0  0.00000000000E+00  0.00000000000E+00  0.54153410238E+03  0.54153410238E+03  0.00000000000E+00 0. -1.
          1   -1    0    0  501    0 -0.00000000000E+00 -0.00000000000E+00 -0.77131635283E+03  0.77131635283E+03  0.00000000000E+00 0. -1.
         25    2    1    2    0    0  0.17742535866E+02  0.59990730217E+02  0.25085263849E+03  0.28716910545E+03  0.12500145438E+03 0.  0.
          2    1    1    2  501    0  0.59475087612E+02 -0.11566766022E+03 -0.73898854971E+03  0.75034683332E+03  0.00000000000E+00 0. -1.
          1    1    1    2  502    0 -0.77217623479E+02  0.55676930004E+02  0.25835366077E+03  0.27533451644E+03  0.00000000000E+00 0. -1.
         22    1    3    3    0    0  0.65554033363E+02  0.12538330570E+02  0.16539862632E+03  0.17835707615E+03  0.00000000000E+00 0.  1.
         22    1    3    3    0    0 -0.47811497496E+02  0.47452399647E+02  0.85454012168E+02  0.10881202930E+03  0.00000000000E+00 0.  1.
</event>
<event>
 7    1  0.7029100E-006  0.1574491E+03  0.7818608E-02  0.1268697E+00
          2   -1    0    0  502    0  0.00000000000E+00  0.00000000000E+00  0.22170526412E+04  0.22170526412E+04  0.00000000000E+00 0. -1.
          1   -1    0    0  501    0 -0.00000000000E+00 -0.00000000000E+00 -0.29105464000E+03  0.29105464000E+03  0.00000000000E+00 0. -1.
         25    2    1    2    0    0  0.15747688083E+03 -0.84901369526E+02  0.22662385089E+02  0.21942089378E+03  0.12499893754E+03 0.  0.
          2    1    1    2  501    0 -0.15416720231E+03  0.13985390404E+02 -0.16087376887E+03  0.22325654956E+03  0.00000000000E+00 0. -1.
          1    1    1    2  502    0 -0.33096785225E+01  0.70915979123E+02  0.20642093850E+04  0.20654298379E+04  0.00000000000E+00 0. -1.
         22    1    3    3    0    0  0.13861096767E+03 -0.74802891120E+02 -0.31995093259E+02  0.16072385906E+03  0.00000000000E+00 0.  1.
         22    1    3    3    0    0  0.18865913154E+02 -0.10098478406E+02  0.54657478348E+02  0.58697034718E+02  0.00000000000E+00 0.  1.
</event>
<event>
 7    1  0.7029100E-006  0.1936300E+03  0.7818608E-02  0.1275354E+00
          2   -1    0    0  502    0  0.00000000000E+00  0.00000000000E+00  0.16689546644E+03  0.16689546644E+03  0.00000000000E+00 0. -1.
          1   -1    0    0  501    0 -0.00000000000E+00 -0.00000000000E+00 -0.13868704664E+04  0.13868704664E+04  0.00000000000E+00 0. -1.
         25    2    1    2    0    0  0.20792449234E+03  0.18660668264E+02 -0.38439520053E+02  0.24633902595E+03  0.12499801578E+03 0.  0.
          2    1    1    2  501    0 -0.18141170707E+03 -0.65865130699E+02 -0.12236865116E+04  0.12388127791E+04  0.00000000000E+00 0. -1.
          1    1    1    2  502    0 -0.26512785272E+02  0.47204462435E+02  0.42151031728E+02  0.68614127790E+02  0.00000000000E+00 0. -1.
         22    1    3    3    0    0  0.42904484989E+02  0.35300794036E+02  0.34232703899E+02  0.65259626937E+02  0.00000000000E+00 0.  1.
         22    1    3    3    0    0  0.16502000735E+03 -0.16640125772E+02 -0.72672223951E+02  0.18107939901E+03  0.00000000000E+00 0.  1.
</event>
<event>
 7    1  0.7029100E-006  0.8234931E+02  0.7818608E-02  0.1357971E+00
          2   -1    0    0  502    0  0.00000000000E+00  0.00000000000E+00  0.15148529667E+03  0.15148529667E+03  0.00000000000E+00 0. -1.
          1   -1    0    0  501    0 -0.00000000000E+00 -0.00000000000E+00 -0.29449497103E+03  0.29449497103E+03  0.00000000000E+00 0. -1.
         25    2    1    2    0    0  0.56528343937E+02  0.84581582800E+02 -0.24575960111E+02  0.16302808636E+03  0.12499872524E+03 0.  0.
          2    1    1    2  501    0  0.39913514709E+01 -0.82001267389E+02 -0.17922471450E+03  0.19713355124E+03  0.00000000000E+00 0. -1.
          1    1    1    2  502    0 -0.60519695408E+02 -0.25803154111E+01  0.60791000243E+02  0.85818630090E+02  0.00000000000E+00 0. -1.
         22    1    3    3    0    0  0.17786485475E+02  0.31685728902E+01 -0.62616380070E+02  0.65170622007E+02  0.00000000000E+00 0. -1.
         22    1    3    3    0    0  0.38741858463E+02  0.81413009910E+02  0.38040419959E+02  0.97857464357E+02  0.00000000000E+00 0. -1.
</event>
<event>
 7    1  0.7029100E-006  0.1177188E+03  0.7818608E-02  0.1308903E+00
          2   -1    0    0  502    0  0.00000000000E+00  0.00000000000E+00  0.57242389182E+03  0.57242389182E+03  0.00000000000E+00 0. -1.
          1   -1    0    0  501    0 -0.00000000000E+00 -0.00000000000E+00 -0.12151403155E+03  0.12151403155E+03  0.00000000000E+00 0. -1.
         25    2    1    2    0    0 -0.51794928546E+02 -0.13219297235E+03  0.29184550169E+03  0.34778796858E+03  0.12499991068E+03 0.  0.
          2    1    1    2  501    0  0.61383628525E+02  0.21705326138E+02 -0.67571056398E+02  0.93834528274E+02  0.00000000000E+00 0. -1.
          1    1    1    2  502    0 -0.95886999793E+01  0.11048764621E+03  0.22663541498E+03  0.25231542651E+03  0.00000000000E+00 0. -1.
         22    1    3    3    0    0 -0.85059169727E+02 -0.48299386956E+02  0.17043615724E+03  0.19651050056E+03  0.00000000000E+00 0.  1.
         22    1    3    3    0    0  0.33264241181E+02 -0.83893585391E+02  0.12140934445E+03  0.15127746802E+03  0.00000000000E+00 0.  1.
</event>
<event>
 7    1  0.7029100E-006  0.5730057E+02  0.7818608E-02  0.1555985E+00
          2   -1    0    0  502    0  0.00000000000E+00  0.00000000000E+00  0.73491038270E+03  0.73491038270E+03  0.00000000000E+00 0. -1.
          1   -1    0    0  501    0 -0.00000000000E+00 -0.00000000000E+00 -0.11141825019E+04  0.11141825019E+04  0.00000000000E+00 0. -1.
         25    2    1    2    0    0  0.31446461297E+02  0.69531229498E+02  0.20026862832E+03  0.24810480294E+03  0.12499999180E+03 0.  0.
          2    1    1    2  501    0 -0.10343156046E+02 -0.17573254176E+02 -0.10886291753E+04  0.10888201327E+04  0.00000000000E+00 0. -1.
          1    1    1    2  502    0 -0.21103305251E+02 -0.51957975322E+02  0.50908842774E+03  0.51216794897E+03  0.00000000000E+00 0. -1.
         22    1    3    3    0    0 -0.11481756888E+02  0.36087641185E+02  0.18871070189E+03  0.19247305680E+03  0.00000000000E+00 0.  1.
         22    1    3    3    0    0  0.42928218185E+02  0.33443588312E+02  0.11557926437E+02  0.55631746146E+02  0.00000000000E+00 0.  1.
</event>
<event>
 7    1  0.7029100E-006  0.4688774E+02  0.7818608E-02  0.1499985E+00
          2   -1    0    0  502    0  0.00000000000E+00  0.00000000000E+00  0.29815915882E+03  0.29815915882E+03  0.00000000000E+00 0. -1.
          1   -1    0    0  501    0 -0.00000000000E+00 -0.00000000000E+00 -0.16341780333E+04  0.16341780333E+04  0.00000000000E+00 0. -1.
         25    2    1    2    0    0 -0.54440039501E+02 -0.51201370528E+01 -0.18994659984E+03  0.23386709808E+03  0.12499670023E+03 0.  0.
          2    1    1    2  501    0  0.32581154621E+02  0.33846310434E+02 -0.14207018402E+04  0.14214783935E+04  0.00000000000E+00 0. -1.
          1    1    1    2  502    0  0.21858884880E+02 -0.28726173381E+02  0.27462956558E+03  0.27699170055E+03  0.00000000000E+00 0. -1.
         22    1    3    3    0    0 -0.33299772854E+02 -0.58586413441E+02 -0.54314294507E+02  0.86552211409E+02  0.00000000000E+00 0.  1.
         22    1    3    3    0    0 -0.21140266647E+02  0.53466276388E+02 -0.13563230533E+03  0.14731488667E+03  0.00000000000E+00 0.  1.
</event>
<event>
 7    1  0.7029100E-006  0.5086875E+02  0.7818608E-02  0.1470218E+00
          2   -1    0    0  502    0  0.00000000000E+00  0.00000000000E+00  0.44056136795E+02  0.44056136795E+02  0.00000000000E+00 0. -1.
          1   -1    0    0  501    0 -0.00000000000E+00 -0.00000000000E+00 -0.66969941401E+03  0.66969941401E+03  0.00000000000E+00 0. -1.
         25    2    1    2    0    0 -0.17969902945E+02  0.17359421018E+01 -0.16924437327E+03  0.21117423035E+03  0.12499986709E+03 0.  0.
          2    1    1    2  501    0  0.45035367175E+02  0.29058029952E+02 -0.45841175487E+03  0.46153427869E+03  0.00000000000E+00 0. -1.
          1    1    1    2  502    0 -0.27065464230E+02 -0.30793972053E+02  0.20128509314E+01  0.41047041765E+02  0.00000000000E+00 0. -1.
         22    1    3    3    0    0 -0.58267155122E+02  0.24087378673E+02 -0.41780554681E+02  0.75636485421E+02  0.00000000000E+00 0. -1.
         22    1    3    3    0    0  0.40297252177E+02 -0.22351436571E+02 -0.12746381859E+03  0.13553774493E+03  0.00000000000E+00 0. -1.
</event>
<event>
 7    1  0.7029100E-006  0.9527230E+02  0.7818608E-02  0.1323405E+00
          2   -1    0    0  502    0  0.00000000000E+00  0.00000000000E+00  0.16366164477E+04  0.16366164477E+04  0.00000000000E+00 0. -1.
          1   -1    0    0  501    0 -0.00000000000E+00 -0.00000000000E+00 -0.87200194743E+03  0.87200194743E+03  0.00000000000E+00 0. -1.
         25    2    1    2    0    0  0.15878168827E+02 -0.49882615721E+02  0.85239147961E+02  0.16009704210E+03  0.12499983579E+03 0.  0.
          2    1    1    2  501    0  0.45155443168E+02  0.85402404689E+02 -0.83094962367E+03  0.83654638954E+03  0.00000000000E+00 0. -1.
          1    1    1    2  502    0 -0.61033611995E+02 -0.35519788968E+02  0.15103249760E+04  0.15119749635E+04  0.00000000000E+00 0. -1.
         22    1    3    3    0    0  0.43626939611E+02 -0.23880327115E+02  0.10577089145E+03  0.11688054313E+03  0.00000000000E+00 0.  1.
         22    1    3    3    0    0 -0.27748770784E+02 -0.26002288606E+02 -0.20531743490E+02  0.43216498974E+02  0.00000000000E+00 0.  1.
</event>
<event>
 7    1  0.7029100E-006  0.7039414E+02  0.7818608E-02  0.1464687E+00
          2   -1    0    0  502    0  0.00000000000E+00  0.00000000000E+00  0.13828679725E+03  0.13828679725E+03  0.00000000000E+00 0. -1.
          1   -1    0    0  501    0 -0.00000000000E+00 -0.00000000000E+00 -0.18411308256E+03  0.18411308256E+03  0.00000000000E+00 0. -1.
         25    2    1    2    0    0 -0.78180419094E+02  0.29335238554E+02 -0.62858579901E+02  0.16294101173E+03  0.12500335230E+03 0.  0.
          2    1    1    2  501    0  0.50980657211E+02 -0.43844892921E+02 -0.51246321129E+02  0.84543405859E+02  0.00000000000E+00 0. -1.
          1    1    1    2  502    0  0.27199761883E+02  0.14509654367E+02  0.68278615715E+02  0.74915462225E+02  0.00000000000E+00 0. -1.
         22    1    3    3    0    0 -0.57092917872E+02  0.35608427280E+02  0.25445308663E+02  0.71937647288E+02  0.00000000000E+00 0.  1.
         22    1    3    3    0    0 -0.21087501222E+02 -0.62731887258E+01 -0.88303888564E+02  0.91003364443E+02  0.00000000000E+00 0.  1.
</event>
<event>
 7    1  0.7029100E-006  0.5723251E+02  0.7818608E-02  0.1447278E+00
          2   -1    0    0  502    0  0.00000000000E+00  0.00000000000E+00  0.26095852576E+04  0.26095852576E+04  0.00000000000E+00 0. -1.
          1   -1    0    0  501    0 -0.00000000000E+00 -0.00000000000E+00 -0.63894563313E+02  0.63894563313E+02  0.00000000000E+00 0. -1.
         25    2    1    2    0    0  0.26133950067E+02 -0.73306225192E+02  0.79576761089E+03  0.80927727463E+03  0.12500732254E+03 0.  0.
          2    1    1    2  501    0  0.18741835952E+02  0.38766631365E+02 -0.48518128393E+02  0.64870000039E+02  0.00000000000E+00 0. -1.
          1    1    1    2  502    0 -0.44875786019E+02  0.34539593827E+02  0.17984412118E+04  0.17993325463E+04  0.00000000000E+00 0. -1.
         22    1    3    3    0    0  0.40079872228E+02 -0.10483109082E+03  0.63688172070E+03  0.64669488936E+03  0.00000000000E+00 0. -1.
         22    1    3    3    0    0 -0.13945922161E+02  0.31524865633E+02  0.15888589019E+03  0.16258238527E+03  0.00000000000E+00 0. -1.
</event>
<event>
 7    1  0.7029100E-006  0.8267062E+02  0.7818608E-02  0.1442616E+00
          2   -1    0    0  502    0  0.00000000000E+00  0.00000000000E+00  0.77459660019E+03  0.77459660019E+03  0.00000000000E+00 0. -1.
          1   -1    0    0  501    0 -0.00000000000E+00 -0.00000000000E+00 -0.15607163217E+04  0.15607163217E+04  0.00000000000E+00 0. -1.
         25    2    1    2    0    0  0.50009577274E+02 -0.20487746261E+02  0.37733504421E+02  0.14131313506E+03  0.12499951687E+03 0.  0.
          2    1    1    2  501    0  0.24132849341E+02 -0.19232620247E+02 -0.15061860942E+04  0.15065021867E+04  0.00000000000E+00 0. -1.
          1    1    1    2  502    0 -0.74142426616E+02  0.39720366508E+02  0.68233286832E+03  0.68749760009E+03  0.00000000000E+00 0. -1.
         22    1    3    3    0    0 -0.38568858342E+02  0.13047218629E+02  0.18235746287E+02  0.44613105591E+02  0.00000000000E+00 0.  1.
         22    1    3    3    0    0  0.88578435617E+02 -0.33534964890E+02  0.19497758134E+02  0.96700029466E+02  0.00000000000E+00 0.  1.
</event>
<event>
 7    1  0.7029100E-006  0.1272437E+03  0.7818608E-02  0.1350326E+00
          2   -1    0    0  502    0  0.00000000000E+00  0.00000000000E+00  0.25579259280E+04  0.25579259280E+04  0.00000000000E+00 0. -1.
          1   -1    0    0  501    0 -0.00000000000E+00 -0.00000000000E+00 -0.12785072974E+03  0.12785072974E+03  0.00000000000E+00 0. -1.
         25    2    1    2    0    0  0.12113746267E+03  0.41963394677E+02  0.54755754240E+03  0.57608800853E+03  0.12499167963E+03 0.  0.
          2    1    1    2  501    0 -0.20160802985E+02  0.36648208549E+02 -0.10760876938E+03  0.11545213907E+03  0.00000000000E+00 0. -1.
          1    1    1    2  502    0 -0.10097665969E+03 -0.78611603225E+02  0.19901264252E+04  0.19942365101E+04  0.00000000000E+00 0. -1.
         22    1    3    3    0    0  0.12041351326E+03  0.15734000642E+01  0.49695985650E+03  0.51134234006E+03  0.00000000000E+00 0.  1.
         22    1    3    3    0    0  0.72394941328E+00  0.40389994612E+02  0.50597685902E+02  0.64745668475E+02  0.00000000000E+00 0.  1.
</event>
<event>
 7    1  0.7029100E-006  0.1288238E+03  0.7818608E-02  0.1328062E+00
          2   -1    0    0  502    0  0.00000000000E+00  0.00000000000E+00  0.23518889718E+04  0.23518889718E+04  0.00000000000E+00 0. -1.
          1   -1    0    0  501    0 -0.00000000000E+00 -0.00000000000E+00 -0.38017216645E+03  0.38017216645E+03  0.00000000000E+00 0. -1.
         25    2    1    2    0    0  0.11632700987E+03  0.32689523648E+02 -0.10807191053E+03  0.20470872447E+03  0.12500218337E+03 0.  0.
          2    1    1    2  501    0  0.11696516868E+02 -0.48731463124E+02 -0.21914425330E+03  0.22480161868E+03  0.00000000000E+00 0. -1.
          1    1    1    2  502    0 -0.12802352674E+03  0.16041939476E+02  0.22989329692E+04  0.23025507951E+04  0.00000000000E+00 0. -1.
         22    1    3    3    0    0  0.10988415457E+03  0.42173890315E+02 -0.13280020998E+03  0.17745157148E+03  0.00000000000E+00 0. -1.
         22    1    3    3    0    0  0.64428553043E+01 -0.94843666669E+01  0.24728299451E+02  0.27257152993E+02  0.00000000000E+00 0. -1.
</event>
<event>
 7    1  0.7029100E-006  0.1208082E+03  0.7818608E-02  0.1336243E+00
          2   -1    0    0  502    0  0.00000000000E+00  0.00000000000E+00  0.47406283456E+03  0.47406283456E+03  0.00000000000E+00 0. -1.
          1   -1    0    0  501    0 -0.00000000000E+00 -0.00000000000E+00 -0.29550590711E+03  0.29550590711E+03  0.00000000000E+00 0. -1.
         25    2    1    2    0    0 -0.27151499300E+01 -0.92172630297E+02  0.51423777641E+02  0.16362195804E+03  0.12499829771E+03 0.  0.
          2    1    1    2  501    0 -0.38550830484E+02  0.11994629194E+03 -0.22093972299E+03  0.25433765092E+03  0.00000000000E+00 0. -1.
          1    1    1    2  502    0  0.41265980414E+02 -0.27773661647E+02  0.34807287280E+03  0.35160913271E+03  0.00000000000E+00 0. -1.
         22    1    3    3    0    0 -0.71303733441E+01  0.15883753776E+02  0.52664930292E+02  0.55468285900E+02  0.00000000000E+00 0. -1.
         22    1    3    3    0    0  0.44152234141E+01 -0.10805638407E+03 -0.12411526513E+01  0.10815367214E+03  0.00000000000E+00 0. -1.
</event>
<event>
 7    1  0.7029100E-006  0.9033567E+02  0.7818608E-02  0.1418566E+00
          2   -1    0    0  502    0  0.00000000000E+00  0.00000000000E+00  0.11365017567E+04  0.11365017567E+04  0.00000000000E+00 0. -1.
          1   -1    0    0  501    0 -0.00000000000E+00 -0.00000000000E+00 -0.43062749428E+02  0.43062749428E+02  0.00000000000E+00 0. -1.
         25    2    1    2    0    0 -0.16901075756E+02  0.96409178381E+02  0.46498144540E+03  0.49133832197E+03  0.12500090415E+03 0.  0.
          2    1    1    2  501    0  0.32888501746E+02 -0.81521572649E+01 -0.16060278264E+02  0.37497249941E+02  0.00000000000E+00 0. -1.
          1    1    1    2  502    0 -0.15987425991E+02 -0.88257021116E+02  0.64451784011E+03  0.65072893418E+03  0.00000000000E+00 0. -1.
         22    1    3    3    0    0  0.15808234264E+02  0.23439912854E+02  0.35081589763E+03  0.35195329778E+03  0.00000000000E+00 0. -1.
         22    1    3    3    0    0 -0.32709310020E+02  0.72969265527E+02  0.11416554777E+03  0.13938502420E+03  0.00000000000E+00 0. -1.
</event>
<event>
 7    1  0.7029100E-006  0.5122570E+02  0.7818608E-02  0.1516332E+00
          2   -1    0    0  502    0  0.00000000000E+00  0.00000000000E+00  0.82251947440E+03  0.82251947440E+03  0.00000000000E+00 0. -1.
          1   -1    0    0  501    0 -0.00000000000E+00 -0.00000000000E+00 -0.53250266237E+03  0.53250266237E+03  0.00000000000E+00 0. -1.
         25    2    1    2    0    0 -0.29546294194E+02 -0.83009615359E+01  0.51185474783E+00  0.12870705467E+03  0.12499341768E+03 0.  0.
          2    1    1    2  501    0  0.50133264066E+02 -0.12920716674E+02 -0.46668474058E+03  0.46954758670E+03  0.00000000000E+00 0. -1.
          1    1    1    2  502    0 -0.20586969872E+02  0.21221678210E+02  0.75618969786E+03  0.75676749541E+03  0.00000000000E+00 0. -1.
         22    1    3    3    0    0 -0.27344723309E+02 -0.45726019118E+02 -0.45002139870E+02  0.69740915610E+02  0.00000000000E+00 0.  1.
         22    1    3    3    0    0 -0.22015708853E+01  0.37425057582E+02  0.45513994618E+02  0.58966139058E+02  0.00000000000E+00 0.  1.
</event>
<event>
 7    1  0.7029100E-006  0.8662412E+02  0.7818608E-02  0.1368446E+00
          2   -1    0    0  502    0  0.00000000000E+00  0.00000000000E+00  0.26037689787E+03  0.26037689787E+03  0.00000000000E+00 0. -1.
          1   -1    0    0  501    0 -0.00000000000E+00 -0.00000000000E+00 -0.13116196768E+04  0.13116196768E+04  0.00000000000E+00 0. -1.
         25    2    1    2    0    0 -0.37054902216E+02 -0.28680831356E+00  0.33224984004E+02  0.13451047161E+03  0.12496407233E+03 0.  0.
          2    1    1    2  501    0  0.84574991982E+02 -0.22625799176E+02 -0.12554762290E+04  0.12585250962E+04  0.00000000000E+00 0. -1.
          1    1    1    2  502    0 -0.47520089766E+02  0.22912607490E+02  0.17100846608E+03  0.17896100689E+03  0.00000000000E+00 0. -1.
         22    1    3    3    0    0 -0.14469892134E+02  0.51550012324E+02  0.52289602130E+02  0.74839722340E+02  0.00000000000E+00 0. -1.
         22    1    3    3    0    0 -0.22585010082E+02 -0.51836820638E+02 -0.19064618127E+02  0.59670749271E+02  0.00000000000E+00 0. -1.
</event>
<event>
 7    1  0.7029100E-006  0.1072243E+03  0.7818608E-02  0.1267388E+00
          2   -1    0    0  502    0  0.00000000000E+00  0.00000000000E+00  0.41568079051E+03  0.41568079051E+03  0.00000000000E+00 0. -1.
          1   -1    0    0  501    0 -0.00000000000E+00 -0.00000000000E+00 -0.10364702444E+04  0.10364702444E+04  0.00000000000E+00 0. -1.
         25    2    1    2    0    0 -0.14865423634E+03 -0.75597887968E+02 -0.53539405118E+03  0.57453034562E+03  0.12500082139E+03 0.  0.
          2    1    1    2  501    0  0.10341786858E+03 -0.21255675211E+02 -0.46831058208E+03  0.48006443376E+03  0.00000000000E+00 0. -1.
          1    1    1    2  502    0  0.45236367752E+02  0.96853563179E+02  0.38291517941E+03  0.39755625551E+03  0.00000000000E+00 0. -1.
         22    1    3    3    0    0 -0.12683111180E+03 -0.10362795663E+03 -0.49145257094E+03  0.51802559184E+03  0.00000000000E+00 0. -1.
         22    1    3    3    0    0 -0.21823124540E+02  0.28030068660E+02 -0.43941480237E+02  0.56504753775E+02  0.00000000000E+00 0. -1.
</event>
<event>
 7    1  0.7029100E-006  0.1834191E+03  0.7818608E-02  0.1190663E+00
          2   -1    0    0  502    0  0.00000000000E+00  0.00000000000E+00  0.56375816747E+03  0.56375816747E+03  0.00000000000E+00 0. -1.
          1   -1    0    0  501    0 -0.00000000000E+00 -0.00000000000E+00 -0.26699767458E+04  0.26699767458E+04  0.00000000000E+00 0. -1.
         25    2    1    2    0    0 -0.14512656596E+03  0.22045194667E+03 -0.10330967224E+03  0.30976411357E+03  0.12498054546E+03 0.  0.
          2    1    1    2  501    0 -0.12717022355E+02 -0.13597778176E+03 -0.24440625038E+04  0.24478752424E+04  0.00000000000E+00 0. -1.
          1    1    1    2  502    0  0.15784358832E+03 -0.84474164904E+02  0.44115359772E+03  0.47609555731E+03  0.00000000000E+00 0. -1.
         22    1    3    3    0    0 -0.11363838889E+03  0.21149212268E+03 -0.12481494250E+03  0.27059447751E+03  0.00000000000E+00 0.  1.
         22    1    3    3    0    0 -0.31488177067E+02  0.89598239857E+01  0.21505270256E+02  0.39169636067E+02  0.00000000000E+00 0.  1.
</event>
<event>
 7    1  0.7029100E-006  0.8038121E+02  0.7818608E-02  0.1447543E+00
          2   -1    0    0  502    0  0.00000000000E+00  0.00000000000E+00  0.17349465730E+03  0.17349465730E+03  0.00000000000E+00 0. -1.
          1   -1    0    0  501    0 -0.00000000000E+00 -0.00000000000E+00 -0.72870575037E+03  0.72870575037E+03  0.00000000000E+00 0. -1.
         25    2    1    2    0    0 -0.64532221783E+02 -0.53453011229E+02 -0.16883841040E+02  0.15143539736E+03  0.12500393364E+03 0.  0.
          2    1    1    2  501    0  0.76396918587E+02  0.25247953481E+02 -0.63976901198E+03  0.64480876003E+03  0.00000000000E+00 0. -1.
          1    1    1    2  502    0 -0.11864696804E+02  0.28205057748E+02  0.10144175995E+03  0.10595625028E+03  0.00000000000E+00 0. -1.
         22    1    3    3    0    0  0.26849314982E+02  0.19799456017E+02 -0.45873436824E+01  0.33674142834E+02  0.00000000000E+00 0. -1.
         22    1    3    3    0    0 -0.91381536765E+02 -0.73252467246E+02 -0.12296497357E+02  0.11776125452E+03  0.00000000000E+00 0. -1.
</event>
<event>
 7    1  0.7029100E-006  0.5382367E+02  0.7818608E-02  0.1553865E+00
          2   -1    0    0  502    0  0.00000000000E+00  0.00000000000E+00  0.63585246760E+03  0.63585246760E+03  0.00000000000E+00 0. -1.
          1   -1    0    0  501    0 -0.00000000000E+00 -0.00000000000E+00 -0.69146550474E+02  0.69146550474E+02  0.00000000000E+00 0. -1.
         25    2    1    2    0    0 -0.40296316248E+02 -0.91498010829E+01  0.10872843434E+03  0.17074617548E+03  0.12499948817E+03 0.  0.
          2    1    1    2  501    0  0.55598482773E+02 -0.66622264918E+01 -0.17190614429E+02  0.58575539032E+02  0.00000000000E+00 0. -1.
          1    1    1    2  502    0 -0.15302166525E+02  0.15812027575E+02  0.47516809721E+03  0.47567730356E+03  0.00000000000E+00 0. -1.
         22    1    3    3    0    0  0.49648819905E+01 -0.48853133788E+01  0.12292289660E+03  0.12312008305E+03  0.00000000000E+00 0.  1.
         22    1    3    3    0    0 -0.45261198238E+02 -0.42644877041E+01 -0.14194462262E+02  0.47626092431E+02  0.00000000000E+00 0.  1.
</event>
<event>
 7    1  0.7029100E-006  0.7326920E+02  0.7818608E-02  0.1397205E+00
          2   -1    0    0  502    0  0.00000000000E+00  0.00000000000E+00  0.66878839345E+03  0.66878839345E+03  0.00000000000E+00 0. -1.
          1   -1    0    0  501    0 -0.00000000000E+00 -0.00000000000E+00 -0.42055150586E+03  0.42055150586E+03  0.00000000000E+00 0. -1.
         25    2    1    2    0    0  0.20413998603E+02  0.22342100593E+02  0.66319041039E+02  0.14470279641E+03  0.12499913315E+03 0.  0.
          2    1    1    2  501    0 -0.21542866165E+02 -0.71708527204E+02 -0.37658462609E+03  0.38395597217E+03  0.00000000000E+00 0. -1.
          1    1    1    2  502    0  0.11288675618E+01  0.49366426611E+02  0.55850247264E+03  0.56068113074E+03  0.00000000000E+00 0. -1.
         22    1    3    3    0    0  0.26545031162E+02 -0.11013862025E+02  0.95643657775E+02  0.99868178659E+02  0.00000000000E+00 0.  1.
         22    1    3    3    0    0 -0.61310325585E+01  0.33355962618E+02 -0.29324616736E+02  0.44834617754E+02  0.00000000000E+00 0.  1.
</event>
<event>
 7    1  0.7029100E-006  0.8299962E+02  0.7818608E-02  0.1490378E+00
          2   -1    0    0  502    0  0.00000000000E+00  0.00000000000E+00  0.22708185206E+03  0.22708185206E+03  0.00000000000E+00 0. -1.
          1   -1    0    0  501    0 -0.00000000000E+00 -0.00000000000E+00 -0.59705790104E+03  0.59705790104E+03  0.00000000000E+00 0. -1.
         25    2    1    2    0    0  0.27196062655E+02 -0.78909689580E+02  0.92748281341E+02  0.17661633386E+03  0.12499888303E+03 0.  0.
          2    1    1    2  501    0  0.19595099955E+02  0.95375261168E+01 -0.53591224276E+03  0.53635516618E+03  0.00000000000E+00 0. -1.
          1    1    1    2  502    0 -0.46791162610E+02  0.69372163463E+02  0.73187912437E+02  0.11116825306E+03  0.00000000000E+00 0. -1.
         22    1    3    3    0    0  0.24008877376E+01 -0.88444818267E+02  0.92095661802E+01  0.88955417201E+02  0.00000000000E+00 0. -1.
         22    1    3    3    0    0  0.24795174917E+02  0.95351286869E+01  0.83538715161E+02  0.87660916656E+02  0.00000000000E+00 0. -1.
</event>
<event>
 7    1  0.7029100E-006  0.3372834E+03  0.7818608E-02  0.1184182E+00
          2   -1    0    0  502    0  0.00000000000E+00  0.00000000000E+00  0.26927068725E+04  0.26927068725E+04  0.00000000000E+00 0. -1.
          1   -1    0    0  501    0 -0.00000000000E+00 -0.00000000000E+00 -0.67418181154E+03  0.67418181154E+03  0.00000000000E+00 0. -1.
         25    2    1    2    0    0 -0.35413670376E+03 -0.16468190917E+03  0.70560738190E+03  0.81611226157E+03  0.12499803973E+03 0.  0.
          2    1    1    2  501    0  0.32152393019E+03  0.91843088508E+02 -0.57285992884E+03  0.66331085372E+03  0.00000000000E+00 0. -1.
          1    1    1    2  502    0  0.32612773568E+02  0.72838820664E+02  0.18857776079E+04  0.18874655687E+04  0.00000000000E+00 0. -1.
         22    1    3    3    0    0 -0.35169166167E+03 -0.17774233718E+03  0.69566088410E+03  0.79951449579E+03  0.00000000000E+00 0.  1.
         22    1    3    3    0    0 -0.24450420964E+01  0.13060428003E+02  0.99464977954E+01  0.16597765780E+02  0.00000000000E+00 0.  1.
</event>
<event>
 7    1  0.7029100E-006  0.8699831E+02  0.7818608E-02  0.1363844E+00
          2   -1    0    0  502    0  0.00000000000E+00  0.00000000000E+00  0.18850929445E+04  0.18850929445E+04  0.00000000000E+00 0. -1.
          1   -1    0    0  501    0 -0.00000000000E+00 -0.00000000000E+00 -0.65814648466E+03  0.65814648466E+03  0.00000000000E+00 0. -1.
         25    2    1    2    0    0  0.11478973633E+03 -0.41810246393E+02 -0.13914799395E+03  0.22341439920E+03  0.12500819685E+03 0.  0.
          2    1    1    2  501    0 -0.62401034852E+02  0.57122446416E+02 -0.47270512736E+03  0.48021557708E+03  0.00000000000E+00 0. -1.
          1    1    1    2  502    0 -0.52388701480E+02 -0.15312200024E+02  0.18387995811E+04  0.18396094529E+04  0.00000000000E+00 0. -1.
         22    1    3    3    0    0  0.58502257926E+02  0.16825288852E+02  0.15870633120E+01  0.60894361787E+02  0.00000000000E+00 0.  1.
         22    1    3    3    0    0  0.56287478406E+02 -0.58635535245E+02 -0.14073505726E+03  0.16252003741E+03  0.00000000000E+00 0.  1.
</event>
<event>
 7    1  0.7029100E-006  0.1816145E+03  0.7818608E-02  0.1371219E+00
          2   -1    0    0  502    0  0.00000000000E+00  0.00000000000E+00  0.88517284849E+03  0.88517284849E+03  0.00000000000E+00 0. -1.
          1   -1    0    0  501    0 -0.00000000000E+00 -0.00000000000E+00 -0.99233606854E+02  0.99233606854E+02  0.00000000000E+00 0. -1.
         25    2    1    2    0    0 -0.11420645698E+03 -0.11857821978E+03  0.25007354382E+03  0.32444721321E+03  0.12500123127E+03 0.  0.
          2    1    1    2  501    0 -0.11772315509E+02 -0.21590586388E+02 -0.43907031038E+02  0.50324628241E+02  0.00000000000E+00 0. -1.
          1    1    1    2  502    0  0.12597877249E+03  0.14016880616E+03  0.57977272886E+03  0.60963461390E+03  0.00000000000E+00 0. -1.
         22    1    3    3    0    0 -0.41840442112E+02 -0.30567997833E+00  0.40439474860E+01  0.42036526351E+02  0.00000000000E+00 0. -1.
         22    1    3    3    0    0 -0.72366014865E+02 -0.11827253980E+03  0.24602959634E+03  0.28241068686E+03  0.00000000000E+00 0. -1.
</event>
<event>
 7    1  0.7029100E-006  0.1092597E+03  0.7818608E-02  0.1416188E+00
          2   -1    0    0  502    0  0.00000000000E+00  0.00000000000E+00  0.11036994741E+04  0.11036994741E+04  0.00000000000E+00 0. -1.
          1   -1    0    0  501    0 -0.00000000000E+00 -0.00000000000E+00 -0.48614791493E+03  0.48614791493E+03  0.00000000000E+00 0. -1.
         25    2    1    2    0    0 -0.11965611939E+03  0.22177655893E+02 -0.12466689860E+03  0.21441909336E+03  0.12499710660E+03 0.  0.
          2    1    1    2  501    0  0.19420480622E+02  0.20905451398E+02 -0.31314401437E+03  0.31444135654E+03  0.00000000000E+00 0. -1.
          1    1    1    2  502    0  0.10023563877E+03 -0.43083107291E+02  0.10553624722E+04  0.10609869392E+04  0.00000000000E+00 0. -1.
         22    1    3    3    0    0 -0.53292578372E+02 -0.34365363102E+01  0.16876020257E+02  0.56006327777E+02  0.00000000000E+00 0.  1.
         22    1    3    3    0    0 -0.66363541022E+02  0.25614192203E+02 -0.14154291886E+03  0.15841276558E+03  0.00000000000E+00 0.  1.
</event>
<event>
 7    1  0.7029100E-006  0.1666954E+03  0.7818608E-02  0.1209479E+00
          2   -1    0    0  502    0  0.00000000000E+00  0.00000000000E+00  0.25786584837E+04  0.25786584837E+04  0.00000000000E+00 0. -1.
          1   -1    0    0  501    0 -0.00000000000E+00 -0.00000000000E+00 -0.99711685535E+03  0.99711685535E+03  0.00000000000E+00 0. -1.
         25    2    1    2    0    0 -0.13123791032E+03  0.10907021098E+03 -0.11582171549E+03  0.24116161469E+03  0.12499821835E+03 0.  0.
          2    1    1    2  501    0 -0.35891949034E+02 -0.11712500818E+03 -0.81123966951E+03  0.82043665260E+03  0.00000000000E+00 0. -1.
          1    1    1    2  502    0  0.16712985935E+03  0.80547971945E+01  0.25086030134E+04  0.25141770718E+04  0.00000000000E+00 0. -1.
         22    1    3    3    0    0 -0.13647183176E+03  0.89002511334E+02 -0.13599624656E+03  0.21222861957E+03  0.00000000000E+00 0. -1.
         22    1    3    3    0    0  0.52339214390E+01  0.20067699647E+02  0.20174531066E+02  0.28932995118E+02  0.00000000000E+00 0. -1.
</event>
<event>
 7    1  0.7029100E-006  0.2113353E+03  0.7818608E-02  0.1209868E+00
          2   -1    0    0  502    0  0.00000000000E+00  0.00000000000E+00  0.14439004696E+04  0.14439004696E+04  0.00000000000E+00 0. -1.
          1   -1    0    0  501    0 -0.00000000000E+00 -0.00000000000E+00 -0.57870416798E+03  0.57870416798E+03  0.00000000000E+00 0. -1.
         25    2    1    2    0    0 -0.11422612573E+03  0.14951956755E+03  0.36714976986E+03  0.43107843453E+03  0.12500381727E+03 0.  0.
          2    1    1    2  501    0  0.19219268394E+03 -0.93123780675E+02 -0.52353685678E+03  0.56542099952E+03  0.00000000000E+00 0. -1.
          1    1    1    2  502    0 -0.77966558211E+02 -0.56395786875E+02  0.10215833885E+04  0.10261052035E+04  0.00000000000E+00 0. -1.
         22    1    3    3    0    0 -0.42914416402E+02  0.34330214706E+02  0.23673675237E+03  0.24303189235E+03  0.00000000000E+00 0. -1.
         22    1    3    3    0    0 -0.71311709328E+02  0.11518935284E+03  0.13041301749E+03  0.18804654218E+03  0.00000000000E+00 0. -1.
</event>
<event>
 7    1  0.7029100E-006  0.2348807E+03  0.7818608E-02  0.1204457E+00
          2   -1    0    0  502    0  0.00000000000E+00  0.00000000000E+00  0.35135158409E+04  0.35135158409E+04  0.00000000000E+00 0. -1.
          1   -1    0    0  501    0 -0.00000000000E+00 -0.00000000000E+00 -0.19515091352E+04  0.19515091352E+04  0.00000000000E+00 0. -1.
         25    2    1    2    0    0  0.20411680607E+03 -0.13675971266E+02  0.18824509819E+03  0.30481427410E+03  0.12499928796E+03 0.  0.
          2    1    1    2  501    0  0.21834190268E+02  0.89118478174E+02 -0.18877664659E+04  0.18899949907E+04  0.00000000000E+00 0. -1.
          1    1    1    2  502    0 -0.22595099634E+03 -0.75442506908E+02  0.32615280734E+04  0.32702157113E+04  0.00000000000E+00 0. -1.
         22    1    3    3    0    0  0.20163326620E+03  0.20623832369E+02  0.17560225077E+03  0.26817432199E+03  0.00000000000E+00 0. -1.
         22    1    3    3    0    0  0.24835398795E+01 -0.34299803635E+02  0.12642847419E+02  0.36639952110E+02  0.00000000000E+00 0. -1.
</event>
<event>
 7    1  0.7029100E-006  0.1358622E+03  0.7818608E-02  0.1383725E+00
          2   -1    0    0  502    0  0.00000000000E+00  0.00000000000E+00  0.22439516477E+04  0.22439516477E+04  0.00000000000E+00 0. -1.
          1   -1    0    0  501    0 -0.00000000000E+00 -0.00000000000E+00 -0.13818714762E+04  0.13818714762E+04  0.00000000000E+00 0. -1.
         25    2    1    2    0    0  0.13182541542E+03 -0.69235458898E+02  0.31005252879E+02  0.19687353923E+03  0.12500550316E+03 0.  0.
          2    1    1    2  501    0 -0.12960759810E+03  0.39644441960E+02 -0.12952979833E+04  0.13023696391E+04  0.00000000000E+00 0. -1.
          1    1    1    2  502    0 -0.22178173232E+01  0.29591016939E+02  0.21263729019E+04  0.21265799456E+04  0.00000000000E+00 0. -1.
         22    1    3    3    0    0 -0.11358835901E+02 -0.46002703538E+02 -0.43092774164E+01  0.47579846129E+02  0.00000000000E+00 0. -1.
         22    1    3    3    0    0  0.14318425132E+03 -0.23232755360E+02  0.35314530295E+02  0.14929369310E+03  0.00000000000E+00 0. -1.
</event>
<event>
 7    1  0.7029100E-006  0.7185785E+02  0.7818608E-02  0.1410469E+00
          2   -1    0    0  502    0  0.00000000000E+00  0.00000000000E+00  0.94369680167E+03  0.94369680167E+03  0.00000000000E+00 0. -1.
          1   -1    0    0  501    0 -0.00000000000E+00 -0.00000000000E+00 -0.70105884981E+03  0.70105884981E+03  0.00000000000E+00 0. -1.
         25    2    1    2    0    0 -0.10906637922E+02  0.72631237721E+02 -0.41036785003E+03  0.43522528354E+03  0.12500009462E+03 0.  0.
          2    1    1    2  501    0  0.52318862169E+02 -0.54132226244E+02 -0.27260488145E+03  0.28280909223E+03  0.00000000000E+00 0. -1.
          1    1    1    2  502    0 -0.41412224247E+02 -0.18499011477E+02  0.92561068334E+03  0.92672127571E+03  0.00000000000E+00 0. -1.
         22    1    3    3    0    0 -0.24353677703E+02  0.10075537720E+03 -0.23130890740E+03  0.25347299323E+03  0.00000000000E+00 0. -1.
         22    1    3    3    0    0  0.13447039781E+02 -0.28124139479E+02 -0.17905894262E+03  0.18175229031E+03  0.00000000000E+00 0. -1.
</event>
<event>
 7    1  0.7029100E-006  0.1470027E+03  0.7818608E-02  0.1279563E+00
          2   -1    0    0  502    0  0.00000000000E+00  0.00000000000E+00  0.13441632575E+04  0.13441632575E+04  0.00000000000E+00 0. -1.
          1   -1    0    0  501    0 -0.00000000000E+00 -0.00000000000E+00 -0.32922672257E+03  0.32922672257E+03  0.00000000000E+00 0. -1.
         25    2    1    2    0    0 -0.68080681984E+02  0.65734611316E+02  0.19172440800E+03  0.24766932339E+03  0.12500330692E+03 0.  0.
          2    1    1    2  501    0 -0.19125329428E+02  0.65778368976E+02 -0.29173122028E+03  0.29966594224E+03  0.00000000000E+00 0. -1.
          1    1    1    2  502    0  0.87206011411E+02 -0.13151298029E+03  0.11149433472E+04  0.11260547144E+04  0.00000000000E+00 0. -1.
         22    1    3    3    0    0  0.27285911435E+02  0.46339915393E+02  0.10196598505E+03  0.11527779851E+03  0.00000000000E+00 0.  1.
         22    1    3    3    0    0 -0.95366593419E+02  0.19394695923E+02  0.89758422944E+02  0.13239152488E+03  0.00000000000E+00 0.  1.
</event>
<event>
 7    1  0.7029100E-006  0.2049012E+03  0.7818608E-02  0.1252631E+00
          2   -1    0    0  502    0  0.00000000000E+00  0.00000000000E+00  0.20346606487E+03  0.20346606487E+03  0.00000000000E+00 0. -1.
          1   -1    0    0  501    0 -0.00000000000E+00 -0.00000000000E+00 -0.74599188015E+03  0.74599188015E+03  0.00000000000E+00 0. -1.
         25    2    1    2    0    0  0.96998912506E+02 -0.12790828443E+03 -0.23801564732E+03  0.31312306413E+03  0.12500114668E+03 0.  0.
          2    1    1    2  501    0  0.60045251671E+02 -0.21777560809E+02 -0.39582676013E+03  0.40094702697E+03  0.00000000000E+00 0. -1.
          1    1    1    2  502    0 -0.15704416418E+03  0.14968584523E+03  0.91316592163E+02  0.23538785391E+03  0.00000000000E+00 0. -1.
         22    1    3    3    0    0  0.87397660586E+02 -0.14319457226E+03 -0.24216945721E+03  0.29459986865E+03  0.00000000000E+00 0.  1.
         22    1    3    3    0    0  0.96012519199E+01  0.15286287835E+02  0.41538098976E+01  0.18523195482E+02  0.00000000000E+00 0.  1.
</event>
<event>
 7    1  0.7029100E-006  0.1181991E+03  0.7818608E-02  0.1308277E+00
          2   -1    0    0  502    0  0.00000000000E+00  0.00000000000E+00  0.20108750230E+04  0.20108750230E+04  0.00000000000E+00 0. -1.
          1   -1    0    0  501    0 -0.00000000000E+00 -0.00000000000E+00 -0.21950471709E+03  0.21950471709E+03  0.00000000000E+00 0. -1.
         25    2    1    2    0    0  0.74702465723E+02  0.30876428456E+01  0.70928970345E+02  0.16200016939E+03  0.12499257628E+03 0.  0.
          2    1    1    2  501    0 -0.12043641882E+03  0.43401970431E+02 -0.14977249064E+03  0.19702908661E+03  0.00000000000E+00 0. -1.
          1    1    1    2  502    0  0.45733953097E+02 -0.46489613276E+02  0.18702138262E+04  0.18713504841E+04  0.00000000000E+00 0. -1.
         22    1    3    3    0    0 -0.10930036926E+02  0.46921800908E+02  0.33948772696E+02  0.58937596449E+02  0.00000000000E+00 0. -1.
         22    1    3    3    0    0  0.85632502649E+02 -0.43834158062E+02  0.36980197649E+02  0.10306257294E+03  0.00000000000E+00 0. -1.
</event>
<event>
 7    1  0.7029100E-006  0.1142271E+03  0.7818608E-02  0.1298941E+00
          2   -1    0    0  502    0  0.00000000000E+00  0.00000000000E+00  0.28425665659E+03  0.28425665659E+03  0.00000000000E+00 0. -1.
          1   -1    0    0  501    0 -0.00000000000E+00 -0.00000000000E+00 -0.36603118468E+03  0.36603118468E+03  0.00000000000E+00 0. -1.
         25    2    1    2    0    0  0.58009363959E+02  0.73446838401E+02 -0.16659123518E+03  0.22832902858E+03  0.12498792452E+03 0.  0.
          2    1    1    2  501    0 -0.12961331507E+03 -0.56814562993E+02 -0.13169023777E+03  0.19331276402E+03  0.00000000000E+00 0. -1.
          1    1    1    2  502    0  0.71603951108E+02 -0.16632275407E+02  0.21650694486E+03  0.22864604867E+03  0.00000000000E+00 0. -1.
         22    1    3    3    0    0  0.82735853682E+02  0.92724810415E+02 -0.12520007864E+03  0.17640343433E+03  0.00000000000E+00 0.  1.
         22    1    3    3    0    0 -0.24726489723E+02 -0.19277972014E+02 -0.41391156533E+02  0.51925594250E+02  0.00000000000E+00 0.  1.
</event>
<event>
 7    1  0.7029100E-006  0.4910721E+02  0.7818608E-02  0.1478207E+00
          2   -1    0    0  502    0  0.00000000000E+00  0.00000000000E+00  0.20613154260E+04  0.20613154260E+04  0.00000000000E+00 0. -1.
          1   -1    0    0  501    0 -0.00000000000E+00 -0.00000000000E+00 -0.61670850021E+02  0.61670850021E+02  0.00000000000E+00 0. -1.
         25    2    1    2    0    0  0.85399592007E+02 -0.43683575225E+00  0.64477222350E+03  0.66230632381E+03  0.12500066084E+03 0.  0.
          2    1    1    2  501    0 -0.38954944695E+02 -0.95976721661E+01 -0.44835973163E+02  0.60165334842E+02  0.00000000000E+00 0. -1.
          1    1    1    2  502    0 -0.46444647312E+02  0.10034507918E+02  0.13997083256E+04  0.14005146174E+04  0.00000000000E+00 0. -1.
         22    1    3    3    0    0  0.93013507131E+02 -0.45380776766E+02  0.39057214002E+03  0.40405138778E+03  0.00000000000E+00 0.  1.
         22    1    3    3    0    0 -0.76139151245E+01  0.44943941014E+02  0.25420008349E+03  0.25825493603E+03  0.00000000000E+00 0.  1.
</event>
<event>
 7    1  0.7029100E-006  0.1487851E+03  0.7818608E-02  0.1234291E+00
          2   -1    0    0  502    0  0.00000000000E+00  0.00000000000E+00  0.13748097802E+04  0.13748097802E+04  0.00000000000E+00 0. -1.
          1   -1    0    0  501    0 -0.00000000000E+00 -0.00000000000E+00 -0.14169857122E+04  0.14169857122E+04  0.00000000000E+00 0. -1.
         25    2    1    2    0    0 -0.19863692188E+02 -0.23538660464E+03 -0.35234584592E+03  0.44223761988E+03  0.12500038956E+03 0.  0.
          2    1    1    2  501    0 -0.22251068735E+02  0.13826729227E+03 -0.10127612172E+04  0.10223982772E+04  0.00000000000E+00 0. -1.
          1    1    1    2  502    0  0.42114760924E+02  0.97119312373E+02  0.13229311311E+04  0.13271595953E+04  0.00000000000E+00 0. -1.
         22    1    3    3    0    0  0.45966999237E+02 -0.41436059074E+02 -0.70136573846E+02  0.93536361920E+02  0.00000000000E+00 0. -1.
         22    1    3    3    0    0 -0.65830691426E+02 -0.19395054557E+03 -0.28220927207E+03  0.34870125796E+03  0.00000000000E+00 0. -1.
</event>
<event>
 7    1  0.7029100E-006  0.1559674E+03  0.7818608E-02  0.1214533E+00
          2   -1    0    0  502    0  0.00000000000E+00  0.00000000000E+00  0.16605920120E+04  0.16605920120E+04  0.00000000000E+00 0. -1.
          1   -1    0    0  501    0 -0.00000000000E+00 -0.00000000000E+00 -0.41247169167E+03  0.41247169167E+03  0.00000000000E+00 0. -1.
         25    2    1    2    0    0 -0.16924000627E+03 -0.19422376087E+03  0.14761516679E+03  0.32215208090E+03  0.12500670683E+03 0.  0.
          2    1    1    2  501    0  0.11186868831E+03  0.53661409284E+02 -0.30914279185E+03  0.33311171703E+03  0.00000000000E+00 0. -1.
          1    1    1    2  502    0  0.57371317962E+02  0.14056235159E+03  0.14096479454E+04  0.14177999057E+04  0.00000000000E+00 0. -1.
         22    1    3    3    0    0 -0.16789503097E+02 -0.88239368500E+01 -0.21393594583E+02  0.28590823090E+02  0.00000000000E+00 0. -1.
         22    1    3    3    0    0 -0.15245050317E+03 -0.18539982402E+03  0.16900876138E+03  0.29356125781E+03  0.00000000000E+00 0. -1.
</event>
<event>
 7    1  0.7029100E-006  0.8525563E+02  0.7818608E-02  0.1422195E+00
          2   -1    0    0  502    0  0.00000000000E+00  0.00000000000E+00  0.11399213771E+04  0.11399213771E+04  0.00000000000E+00 0. -1.
          1   -1    0    0  501    0 -0.00000000000E+00 -0.00000000000E+00 -0.10358901564E+03  0.10358901564E+03  0.00000000000E+00 0. -1.
         25    2    1    2    0    0 -0.28911247530E+02 -0.78633340388E+02  0.34855431120E+03  0.37965094194E+03  0.12500266959E+03 0.  0.
          2    1    1    2  501    0  0.34066657250E+02 -0.76502589095E+01 -0.82062571417E+02  0.89181439914E+02  0.00000000000E+00 0. -1.
          1    1    1    2  502    0 -0.51554097194E+01  0.86283599298E+02  0.76984062169E+03  0.77467801089E+03  0.00000000000E+00 0. -1.
         22    1    3    3    0    0  0.19631570790E+02 -0.22578614195E+02  0.26990102376E+03  0.27155433161E+03  0.00000000000E+00 0. -1.
         22    1    3    3    0    0 -0.48542818320E+02 -0.56054726194E+02  0.78653287438E+02  0.10809661033E+03  0.00000000000E+00 0. -1.
</event>
<event>
 7    1  0.7029100E-006  0.1037589E+03  0.7818608E-02  0.1344131E+00
          2   -1    0    0  502    0  0.00000000000E+00  0.00000000000E+00  0.14513222778E+04  0.14513222778E+04  0.00000000000E+00 0. -1.
          1   -1    0    0  501    0 -0.00000000000E+00 -0.00000000000E+00 -0.17170668410E+03  0.17170668410E+03  0.00000000000E+00 0. -1.
         25    2    1    2    0    0  0.43578727051E+02 -0.50815448172E+02  0.17043049757E+03  0.22170542324E+03  0.12500169987E+03 0.  0.
          2    1    1    2  501    0 -0.13307822316E+02 -0.52428514256E+02 -0.13866612582E+03  0.14884267430E+03  0.00000000000E+00 0. -1.
          1    1    1    2  502    0 -0.30270904735E+02  0.10324396243E+03  0.12478512220E+04  0.12524808644E+04  0.00000000000E+00 0. -1.
         22    1    3    3    0    0 -0.43288460164E+02 -0.19018623214E+02  0.76062125550E+02  0.89560291176E+02  0.00000000000E+00 0. -1.
         22    1    3    3    0    0  0.86867187215E+02 -0.31796824958E+02  0.94368372015E+02  0.13214513207E+03  0.00000000000E+00 0. -1.
</event>
<event>
 7    1  0.7029100E-006  0.5063919E+02  0.7818608E-02  0.1470264E+00
          2   -1    0    0  502    0  0.00000000000E+00  0.00000000000E+00  0.91723031696E+03  0.91723031696E+03  0.00000000000E+00 0. -1.
          1   -1    0    0  501    0 -0.00000000000E+00 -0.00000000000E+00 -0.18716942281E+04  0.18716942281E+04  0.00000000000E+00 0. -1.
         25    2    1    2    0    0  0.12656791916E+02 -0.49095468619E+01  0.17308069454E+02  0.12692093377E+03  0.12500022452E+03 0.  0.
          2    1    1    2  501    0  0.14361161959E+02 -0.38584151003E+02 -0.18158787202E+04  0.18163453709E+04  0.00000000000E+00 0. -1.
          1    1    1    2  502    0 -0.27017953876E+02  0.43493697865E+02  0.84410673967E+03  0.84565824039E+03  0.00000000000E+00 0. -1.
         22    1    3    3    0    0  0.46488732016E+02 -0.36814814656E+02 -0.24713810546E+02  0.64244106456E+02  0.00000000000E+00 0. -1.
         22    1    3    3    0    0 -0.33831940099E+02  0.31905267794E+02  0.42021879999E+02  0.62676827317E+02  0.00000000000E+00 0. -1.
</event>
<event>
 7    1  0.7029100E-006  0.1210572E+03  0.7818608E-02  0.1314503E+00
          2   -1    0    0  502    0  0.00000000000E+00  0.00000000000E+00  0.35564366233E+03  0.35564366233E+03  0.00000000000E+00 0. -1.
          1   -1    0    0  501    0 -0.00000000000E+00 -0.00000000000E+00 -0.13411364869E+04  0.13411364869E+04  0.00000000000E+00 0. -1.
         25    2    1    2    0    0  0.82863690249E+02  0.15617096934E+03 -0.19686390729E+03  0.29263642592E+03  0.12499966783E+03 0.  0.
          2    1    1    2  501    0 -0.38414381880E+02 -0.46329852047E+02 -0.10841149286E+04  0.10857841859E+04  0.00000000000E+00 0. -1.
          1    1    1    2  502    0 -0.44449308369E+02 -0.10984111729E+03  0.29548601141E+03  0.31835953732E+03  0.00000000000E+00 0. -1.
         22    1    3    3    0    0 -0.25785232856E+02  0.78298236503E+02 -0.83933637145E+02  0.11764500634E+03  0.00000000000E+00 0.  1.
         22    1    3    3    0    0  0.10864892311E+03  0.77872732838E+02 -0.11293027015E+03  0.17499141958E+03  0.00000000000E+00 0.  1.
</event>
<event>
 7    1  0.7029100E-006  0.3747180E+02  0.7818608E-02  0.1578266E+00
          2   -1    0    0  502    0  0.00000000000E+00  0.00000000000E+00  0.10555470837E+04  0.10555470837E+04  0.00000000000E+00 0. -1.
          1   -1    0    0  501    0 -0.00000000000E+00 -0.00000000000E+00 -0.28781240287E+03  0.28781240287E+03  0.00000000000E+00 0. -1.
         25    2    1    2    0    0 -0.13804892104E+02 -0.62326217006E+02 -0.25403799019E+02  0.14263103551E+03  0.12499250743E+03 0.  0.
          2    1    1    2  501    0  0.80236449113E+01  0.35839666328E+02 -0.20195419511E+03  0.20526655227E+03  0.00000000000E+00 0. -1.
          1    1    1    2  502    0  0.57812471929E+01  0.26486550678E+02  0.99509267496E+03  0.99546189880E+03  0.00000000000E+00 0. -1.
         22    1    3    3    0    0  0.54959093238E+02 -0.15430095227E+02 -0.88067389086E+01  0.57759401126E+02  0.00000000000E+00 0. -1.
         22    1    3    3    0    0 -0.68763985342E+02 -0.46896121779E+02 -0.16597060111E+02  0.84871634380E+02  0.00000000000E+00 0. -1.
</event>
<event>
 7    1  0.7029100E-006  0.7881363E+03  0.7818608E-02  0.1134411E+00
          2   -1    0    0  502    0  0.00000000000E+00  0.00000000000E+00  0.19719057817E+04  0.19719057817E+04  0.00000000000E+00 0. -1.
          1   -1    0    0  501    0 -0.00000000000E+00 -0.00000000000E+00 -0.13504824234E+04  0.13504824234E+04  0.00000000000E+00 0. -1.
         25    2    1    2    0    0 -0.12372251274E+03 -0.81949565919E+03 -0.12955723060E+03  0.84810987429E+03  0.12499954914E+03 0.  0.
          2    1    1    2  501    0  0.12513397285E+03  0.75849483919E+03 -0.68940862797E+03  0.10325973022E+04  0.00000000000E+00 0. -1.
          1    1    1    2  502    0 -0.14114601033E+01  0.61000819995E+02  0.14403892168E+04  0.14416810286E+04  0.00000000000E+00 0. -1.
         22    1    3    3    0    0 -0.48970604824E+02 -0.42732929415E+03 -0.58863875436E+01  0.43016635774E+03  0.00000000000E+00 0. -1.
         22    1    3    3    0    0 -0.74751907920E+02 -0.39216636504E+03 -0.12367084305E+03  0.41794351655E+03  0.00000000000E+00 0. -1.
</event>
<event>
 7    1  0.7029100E-006  0.4908592E+02  0.7818608E-02  0.1455310E+00
          2   -1    0    0  502    0  0.00000000000E+00  0.00000000000E+00  0.43742126573E+03  0.43742126573E+03  0.00000000000E+00 0. -1.
          1   -1    0    0  501    0 -0.00000000000E+00 -0.00000000000E+00 -0.64525912196E+03  0.64525912196E+03  0.00000000000E+00 0. -1.
         25    2    1    2    0    0  0.29725277545E+02 -0.66745688057E+02 -0.11695910553E+03  0.18612704912E+03  0.12500106818E+03 0.  0.
          2    1    1    2  501    0  0.14263250135E+02  0.45125789298E+02 -0.49108330391E+03  0.49335847874E+03  0.00000000000E+00 0. -1.
          1    1    1    2  502    0 -0.43988527680E+02  0.21619898759E+02  0.40020455321E+03  0.40319485983E+03  0.00000000000E+00 0. -1.
         22    1    3    3    0    0  0.19531528290E+02 -0.93386290154E+02 -0.12428026603E+03  0.15667821901E+03  0.00000000000E+00 0.  1.
         22    1    3    3    0    0  0.10193749254E+02  0.26640602097E+02  0.73211604988E+01  0.29448830112E+02  0.00000000000E+00 0.  1.
</event>
<event>
 7    1  0.7029100E-006  0.1115892E+03  0.7818608E-02  0.1278307E+00
          2   -1    0    0  502    0  0.00000000000E+00  0.00000000000E+00  0.60506081668E+03  0.60506081668E+03  0.00000000000E+00 0. -1.
          1   -1    0    0  501    0 -0.00000000000E+00 -0.00000000000E+00 -0.72594198569E+02  0.72594198569E+02  0.00000000000E+00 0. -1.
         25    2    1    2    0    0 -0.23829268721E+02 -0.93194490899E+02  0.11940318019E+03  0.19782701463E+03  0.12500144438E+03 0.  0.
          2    1    1    2  501    0 -0.52345950772E+02  0.14357495344E+03  0.25636327335E+03  0.29845601642E+03  0.00000000000E+00 0. -1.
          1    1    1    2  502    0  0.76175219494E+02 -0.50380462544E+02  0.15670016458E+03  0.18137198419E+03  0.00000000000E+00 0. -1.
         22    1    3    3    0    0 -0.54733974406E+02 -0.10495678734E+03  0.11396387964E+03  0.16431524891E+03  0.00000000000E+00 0.  1.
         22    1    3    3    0    0  0.30904705685E+02  0.11762296444E+02  0.54393005470E+01  0.33511765718E+02  0.00000000000E+00 0.  1.
</event>
<event>
 7    1  0.7029100E-006  0.7837778E+02  0.7818608E-02  0.1364827E+00
          2   -1    0    0  502    0  0.00000000000E+00  0.00000000000E+00  0.14122268397E+04  0.14122268397E+04  0.00000000000E+00 0. -1.
          1   -1    0    0  501    0 -0.00000000000E+00 -0.00000000000E+00 -0.38055486728E+03  0.38055486728E+03  0.00000000000E+00 0. -1.
         25    2    1    2    0    0  0.69160329968E+02 -0.62603990361E+02 -0.36738848582E+02  0.16024105109E+03  0.12500016244E+03 0.  0.
          2    1    1    2  501    0 -0.11083865220E+02  0.78023707552E+02 -0.27587610402E+03  0.28691144239E+03  0.00000000000E+00 0. -1.
          1    1    1    2  502    0 -0.58076464748E+02 -0.15419717191E+02  0.13442869251E+04  0.13456292135E+04  0.00000000000E+00 0. -1.
         22    1    3    3    0    0  0.92300723481E+02 -0.50675974412E+02  0.10994823864E+02  0.10586956168E+03  0.00000000000E+00 0.  1.
         22    1    3    3    0    0 -0.23140393513E+02 -0.11928015949E+02 -0.47733672446E+02  0.54371489418E+02  0.00000000000E+00 0.  1.
</event>
<event>
 7    1  0.7029100E-006  0.6893424E+02  0.7818608E-02  0.1451589E+00
          2   -1    0    0  502    0  0.00000000000E+00  0.00000000000E+00  0.44123282416E+03  0.44123282416E+03  0.00000000000E+00 0. -1.
          1   -1    0    0  501    0 -0.00000000000E+00 -0.00000000000E+00 -0.38368290990E+03  0.38368290990E+03  0.00000000000E+00 0. -1.
         25    2    1    2    0    0  0.32478502127E+02  0.97937915482E+02  0.27050586414E+03  0.31535225535E+03  0.12500773588E+03 0.  0.
          2    1    1    2  501    0 -0.21742911655E+02 -0.65012307420E+02 -0.35592156377E+03  0.36246312071E+03  0.00000000000E+00 0. -1.
          1    1    1    2  502    0 -0.10735590472E+02 -0.32925608061E+02  0.14296561389E+03  0.14710035800E+03  0.00000000000E+00 0. -1.
         22    1    3    3    0    0  0.28430882778E+02  0.17650027193E+02  0.21517379722E+03  0.21776042240E+03  0.00000000000E+00 0.  1.
         22    1    3    3    0    0  0.40476193492E+01  0.80287888288E+02  0.55332066926E+02  0.97591832950E+02  0.00000000000E+00 0.  1.
</event>
<event>
 7    1  0.7029100E-006  0.7281888E+02  0.7818608E-02  0.1382197E+00
          2   -1    0    0  502    0  0.00000000000E+00  0.00000000000E+00  0.97777141950E+03  0.97777141950E+03  0.00000000000E+00 0. -1.
          1   -1    0    0  501    0 -0.00000000000E+00 -0.00000000000E+00 -0.18759811552E+03  0.18759811552E+03  0.00000000000E+00 0. -1.
         25    2    1    2    0    0  0.10614622864E+03 -0.53922321796E+02  0.25288388011E+03  0.30618448483E+03  0.12499617309E+03 0.  0.
          2    1    1    2  501    0 -0.37100017717E+02  0.42021612581E+02 -0.15424256458E+03  0.16411275382E+03  0.00000000000E+00 0. -1.
          1    1    1    2  502    0 -0.69046210926E+02  0.11900709215E+02  0.69153198846E+03  0.69507229637E+03  0.00000000000E+00 0. -1.
         22    1    3    3    0    0  0.54301624994E+02  0.38467075700E+02  0.91713157529E+02  0.11331233672E+03  0.00000000000E+00 0. -1.
         22    1    3    3    0    0  0.51844603650E+02 -0.92389397496E+02  0.16117072258E+03  0.19287214810E+03  0.00000000000E+00 0. -1.
</event>
<event>
 7    1  0.7029100E-006  0.1752078E+03  0.7818608E-02  0.1278364E+00
          2   -1    0    0  502    0  0.00000000000E+00  0.00000000000E+00  0.13961995523E+03  0.13961995523E+03  0.00000000000E+00 0. -1.
          1   -1    0    0  501    0 -0.00000000000E+00 -0.00000000000E+00 -0.28857707795E+04  0.28857707795E+04  0.00000000000E+00 0. -1.
         25    2    1    2    0    0  0.59853435479E+02 -0.12008311946E+03 -0.77726338583E+03  0.79860286766E+03  0.12500311985E+03 0.  0.
          2    1    1    2  501    0 -0.82000838393E+02  0.17383412469E+03 -0.20866362486E+04  0.20954697026E+04  0.00000000000E+00 0. -1.
          1    1    1    2  502    0  0.22147402914E+02 -0.53751005229E+02  0.11774881019E+03  0.13131816447E+03  0.00000000000E+00 0. -1.
         22    1    3    3    0    0  0.67519163332E+02 -0.14852520712E+02 -0.43457639762E+03  0.44004099826E+03  0.00000000000E+00 0. -1.
         22    1    3    3    0    0 -0.76657278535E+01 -0.10523059875E+03 -0.34268698821E+03  0.35856186940E+03  0.00000000000E+00 0. -1.
</event>
<event>
 7    1  0.7029100E-006  0.1692055E+03  0.7818608E-02  0.1354242E+00
          2   -1    0    0  502    0  0.00000000000E+00  0.00000000000E+00  0.63958848129E+02  0.63958848129E+02  0.00000000000E+00 0. -1.
          1   -1    0    0  501    0 -0.00000000000E+00 -0.00000000000E+00 -0.17374666049E+04  0.17374666049E+04  0.00000000000E+00 0. -1.
         25    2    1    2    0    0 -0.17776873408E+03 -0.32222330096E+02 -0.50173844346E+03  0.54773332860E+03  0.12502132714E+03 0.  0.
          2    1    1    2  501    0  0.11798052904E+02  0.28043915828E+02 -0.10433634225E+04  0.10438069202E+04  0.00000000000E+00 0. -1.
          1    1    1    2  502    0  0.16597068118E+03  0.41784142683E+01 -0.12840589081E+03  0.20988520422E+03  0.00000000000E+00 0. -1.
         22    1    3    3    0    0 -0.90795275137E+02 -0.79526854765E+02 -0.27610785573E+03  0.30133677276E+03  0.00000000000E+00 0. -1.
         22    1    3    3    0    0 -0.86973458943E+02  0.47304524669E+02 -0.22563058773E+03  0.24639655585E+03  0.00000000000E+00 0. -1.
</event>
<event>
 7    1  0.7029100E-006  0.1045889E+03  0.7818608E-02  0.1280774E+00
          2   -1    0    0  502    0  0.00000000000E+00  0.00000000000E+00  0.28453960946E+04  0.28453960946E+04  0.00000000000E+00 0. -1.
          1   -1    0    0  501    0 -0.00000000000E+00 -0.00000000000E+00 -0.48159549607E+02  0.48159549607E+02  0.00000000000E+00 0. -1.
         25    2    1    2    0    0 -0.27970162268E+02 -0.39154833278E+02  0.10405935820E+04  0.10491780958E+04  0.12499697136E+03 0.  0.
          2    1    1    2  501    0 -0.57309876545E+02 -0.75991133255E+02  0.14411808992E+02  0.96264087392E+02  0.00000000000E+00 0. -1.
          1    1    1    2  502    0  0.85280038814E+02  0.11514596653E+03  0.17422311540E+04  0.17481134610E+04  0.00000000000E+00 0. -1.
         22    1    3    3    0    0  0.31585039915E+02 -0.24999186219E+02  0.79677364556E+03  0.79779121098E+03  0.00000000000E+00 0.  1.
         22    1    3    3    0    0 -0.59555202183E+02 -0.14155647058E+02  0.24381993641E+03  0.25138688478E+03  0.00000000000E+00 0.  1.
</event>
<event>
 7    1  0.7029100E-006  0.4999552E+03  0.7818608E-02  0.1165200E+00
          2   -1    0    0  502    0  0.00000000000E+00  0.00000000000E+00  0.20166746705E+04  0.20166746705E+04  0.00000000000E+00 0. -1.
          1   -1    0    0  501    0 -0.00000000000E+00 -0.00000000000E+00 -0.99410913997E+03  0.99410913997E+03  0.00000000000E+00 0. -1.
         25    2    1    2    0    0  0.21507990647E+03  0.45393414270E+03  0.36375845351E+03  0.63266107234E+03  0.12499699150E+03 0.  0.
          2    1    1    2  501    0 -0.62830592633E+02  0.22613855511E+02 -0.81705299485E+03  0.81977720524E+03  0.00000000000E+00 0. -1.
          1    1    1    2  502    0 -0.15224931384E+03 -0.47654799821E+03  0.14758600719E+04  0.15583455329E+04  0.00000000000E+00 0. -1.
         22    1    3    3    0    0  0.11411109729E+03  0.29223392035E+03  0.15489033690E+03  0.34987572536E+03  0.00000000000E+00 0.  1.
         22    1    3    3    0    0  0.10096880919E+03  0.16170022235E+03  0.20886811661E+03  0.28278534699E+03  0.00000000000E+00 0.  1.
</event>
<event>
 7    1  0.7029100E-006  0.3092538E+02  0.7818608E-02  0.1615992E+00
          2   -1    0    0  502    0  0.00000000000E+00  0.00000000000E+00  0.46756621439E+03  0.46756621439E+03  0.00000000000E+00 0. -1.
          1   -1    0    0  501    0 -0.00000000000E+00 -0.00000000000E+00 -0.48118559549E+02  0.48118559549E+02  0.00000000000E+00 0. -1.
         25    2    1    2    0    0 -0.46242556862E+02  0.16015420179E+02  0.26656410328E+03  0.29845659642E+03  0.12500020415E+03 0.  0.
          2    1    1    2  501    0  0.25556854158E+02  0.55657206825E+01 -0.25397816286E+02  0.36457908789E+02  0.00000000000E+00 0. -1.
          1    1    1    2  502    0  0.20685702703E+02 -0.21581140861E+02  0.17828136784E+03  0.18077026873E+03  0.00000000000E+00 0. -1.
         22    1    3    3    0    0 -0.51790712420E+02 -0.41241062945E+02  0.83466752635E+02  0.10653544932E+03  0.00000000000E+00 0.  1.
         22    1    3    3    0    0  0.55481555578E+01  0.57256483124E+02  0.18309735065E+03  0.19192114710E+03  0.00000000000E+00 0.  1.
</event>
<event>
 7    1  0.7029100E-006  0.7234575E+02  0.7818608E-02  0.1417776E+00
          2   -1    0    0  502    0  0.00000000000E+00  0.00000000000E+00  0.11042490797E+04  0.11042490797E+04  0.00000000000E+00 0. -1.
          1   -1    0    0  501    0 -0.00000000000E+00 -0.00000000000E+00 -0.40715473840E+02  0.40715473840E+02  0.00000000000E+00 0. -1.
         25    2    1    2    0    0  0.94574372663E+02  0.12547072224E+02  0.92244579494E+03  0.93575272356E+03  0.12500069624E+03 0.  0.
          2    1    1    2  501    0 -0.42001913444E+02  0.69178126336E+01 -0.13593102608E+02  0.44685448449E+02  0.00000000000E+00 0. -1.
          1    1    1    2  502    0 -0.52572459218E+02 -0.19464884857E+02  0.15468091356E+03  0.16452638156E+03  0.00000000000E+00 0. -1.
         22    1    3    3    0    0 -0.30517638528E+01 -0.43458129646E+02  0.31072469685E+03  0.31376385950E+03  0.00000000000E+00 0.  1.
         22    1    3    3    0    0  0.97626136516E+02  0.56005201870E+02  0.61172109809E+03  0.62198886406E+03  0.00000000000E+00 0.  1.
</event>
<event>
 7    1  0.7029100E-006  0.6576407E+02  0.7818608E-02  0.1432903E+00
          2   -1    0    0  502    0  0.00000000000E+00  0.00000000000E+00  0.14173172754E+03  0.14173172754E+03  0.00000000000E+00 0. -1.
          1   -1    0    0  501    0 -0.00000000000E+00 -0.00000000000E+00 -0.68437658593E+03  0.68437658593E+03  0.00000000000E+00 0. -1.
         25    2    1    2    0    0 -0.46201287065E+02  0.35775774069E+02 -0.47123568924E+03  0.49102182537E+03  0.12499957297E+03 0.  0.
          2    1    1    2  501    0  0.75353234897E+02 -0.59274533807E+01 -0.19260739115E+03  0.20690783417E+03  0.00000000000E+00 0. -1.
          1    1    1    2  502    0 -0.29151947832E+02 -0.29848320688E+02  0.12119822200E+03  0.12817865394E+03  0.00000000000E+00 0. -1.
         22    1    3    3    0    0  0.26794351676E+02 -0.29471468145E+02 -0.14992838321E+03  0.15512905855E+03  0.00000000000E+00 0.  1.
         22    1    3    3    0    0 -0.72995638741E+02  0.65247242214E+02 -0.32130730603E+03  0.33589276682E+03  0.00000000000E+00 0.  1.
</event>
<event>
 7    1  0.7029100E-006  0.3527676E+02  0.7818608E-02  0.1571565E+00
          2   -1    0    0  502    0  0.00000000000E+00  0.00000000000E+00  0.33651575373E+03  0.33651575373E+03  0.00000000000E+00 0. -1.
          1   -1    0    0  501    0 -0.00000000000E+00 -0.00000000000E+00 -0.75044233452E+03  0.75044233452E+03  0.00000000000E+00 0. -1.
         25    2    1    2    0    0 -0.16685214467E+02 -0.23005045559E+01 -0.72943792810E+02  0.14570469664E+03  0.12500149204E+03 0.  0.
          2    1    1    2  501    0 -0.63618918927E+01  0.29339874466E+02 -0.63971338036E+03  0.64041745050E+03  0.00000000000E+00 0. -1.
          1    1    1    2  502    0  0.23047106360E+02 -0.27039369911E+02  0.29873059238E+03  0.30083594110E+03  0.00000000000E+00 0. -1.
         22    1    3    3    0    0  0.14589255876E+02 -0.25490469950E+02  0.26094793554E+02  0.39288022296E+02  0.00000000000E+00 0.  1.
         22    1    3    3    0    0 -0.31274470343E+02  0.23189965394E+02 -0.99038586363E+02  0.10641667435E+03  0.00000000000E+00 0.  1.
</event>
<event>
 7    1  0.7029100E-006  0.5602082E+02  0.7818608E-02  0.1445851E+00
          2   -1    0    0  502    0  0.00000000000E+00  0.00000000000E+00  0.16377057646E+04  0.16377057646E+04  0.00000000000E+00 0. -1.
          1   -1    0    0  501    0 -0.00000000000E+00 -0.00000000000E+00 -0.74184505917E+02  0.74184505917E+02  0.00000000000E+00 0. -1.
         25    2    1    2    0    0  0.82842701956E+01  0.44500479608E+02  0.64277361752E+03  0.65637585597E+03  0.12498967602E+03 0.  0.
          2    1    1    2  501    0 -0.49368016863E+02 -0.27510554541E+02 -0.54937289783E+02  0.78817114314E+02  0.00000000000E+00 0. -1.
          1    1    1    2  502    0  0.41083746668E+02 -0.16989925067E+02  0.97568493094E+03  0.97669730022E+03  0.00000000000E+00 0. -1.
         22    1    3    3    0    0  0.11294855255E+01  0.87381491532E+02  0.48036884968E+03  0.48825304151E+03  0.00000000000E+00 0. -1.
         22    1    3    3    0    0  0.71547846702E+01 -0.42881011924E+02  0.16240476784E+03  0.16812281447E+03  0.00000000000E+00 0. -1.
</event>
<event>
 7    1  0.7029100E-006  0.2139698E+03  0.7818608E-02  0.1361662E+00
          2   -1    0    0  502    0  0.00000000000E+00  0.00000000000E+00  0.15041877252E+03  0.15041877252E+03  0.00000000000E+00 0. -1.
          1   -1    0    0  501    0 -0.00000000000E+00 -0.00000000000E+00 -0.21117071138E+04  0.21117071138E+04  0.00000000000E+00 0. -1.
         25    2    1    2    0    0  0.46059430151E+02  0.22739835158E+03 -0.10250106083E+04  0.10583491880E+04  0.12499910113E+03 0.  0.
          2    1    1    2  501    0  0.68096138192E+01 -0.21550533664E+02 -0.98538841360E+03  0.98564756481E+03  0.00000000000E+00 0. -1.
          1    1    1    2  502    0 -0.52869043970E+02 -0.20584781791E+03  0.49110680574E+02  0.21812913354E+03  0.00000000000E+00 0. -1.
         22    1    3    3    0    0 -0.39732367885E+02  0.11589738194E+03 -0.45040631107E+03  0.46677265264E+03  0.00000000000E+00 0.  1.
         22    1    3    3    0    0  0.85791798036E+02  0.11150096964E+03 -0.57460429718E+03  0.59157653535E+03  0.00000000000E+00 0.  1.
</event>
<event>
 7    1  0.9138685E-006  0.6527312E+02  0.7818608E-02  0.1386119E+00
          2   -1    0    0  502    0  0.00000000000E+00  0.00000000000E+00  0.77286815541E+03  0.77286815541E+03  0.00000000000E+00 0. -1.
          1   -1    0    0  501    0 -0.00000000000E+00 -0.00000000000E+00 -0.22474326025E+04  0.22474326025E+04  0.00000000000E+00 0. -1.
         25    2    1    2    0    0 -0.66808424616E+02  0.38794806714E+02 -0.23885175966E+03  0.28043583992E+03  0.12500277835E+03 0.  0.
          2    1    1    2  501    0  0.51154515169E+01 -0.60362932154E+02 -0.19859062452E+04  0.19868300043E+04  0.00000000000E+00 0. -1.
          1    1    1    2  502    0  0.61692973100E+02  0.21568125440E+02  0.75019355780E+03  0.75303491362E+03  0.00000000000E+00 0. -1.
         22    1    3    3    0    0  0.28202602756E+01 -0.83033680254E+01  0.12573855811E+02  0.15329763160E+02  0.00000000000E+00 0. -1.
         22    1    3    3    0    0 -0.69628684892E+02  0.47098174739E+02 -0.25142561547E+03  0.26510607676E+03  0.00000000000E+00 0. -1.
</event>
<event>
 7    1  0.7029100E-006  0.3260077E+02  0.7818608E-02  0.1612182E+00
          2   -1    0    0  502    0  0.00000000000E+00  0.00000000000E+00  0.45941648021E+03  0.45941648021E+03  0.00000000000E+00 0. -1.
          1   -1    0    0  501    0 -0.00000000000E+00 -0.00000000000E+00 -0.11451249644E+04  0.11451249644E+04  0.00000000000E+00 0. -1.
         25    2    1    2    0    0  0.85500964818E+01 -0.52285810035E+02 -0.55911452412E+03  0.57536284435E+03  0.12500576585E+03 0.  0.
          2    1    1    2  501    0  0.78511683226E+01  0.24131475439E+02 -0.57701891784E+03  0.57757666201E+03  0.00000000000E+00 0. -1.
          1    1    1    2  502    0 -0.16401264804E+02  0.28154334596E+02  0.45042495777E+03  0.45160193825E+03  0.00000000000E+00 0. -1.
         22    1    3    3    0    0 -0.55683334825E+02 -0.14014616254E+02 -0.30985505029E+03  0.31513044194E+03  0.00000000000E+00 0. -1.
         22    1    3    3    0    0  0.64233431307E+02 -0.38271193781E+02 -0.24925947383E+03  0.26023240241E+03  0.00000000000E+00 0. -1.
</event>
<event>
 7    1  0.7029100E-006  0.1146992E+03  0.7818608E-02  0.1291729E+00
          2   -1    0    0  502    0  0.00000000000E+00  0.00000000000E+00  0.16818528551E+03  0.16818528551E+03  0.00000000000E+00 0. -1.
          1   -1    0    0  501    0 -0.00000000000E+00 -0.00000000000E+00 -0.14869433102E+04  0.14869433102E+04  0.00000000000E+00 0. -1.
         25    2    1    2    0    0 -0.74121143803E+02  0.12991913069E+02 -0.19917706198E+03  0.24691521902E+03  0.12503155442E+03 0.  0.
          2    1    1    2  501    0  0.10658869221E+03  0.58235546623E+02 -0.12501181817E+04  0.12560047756E+04  0.00000000000E+00 0. -1.
          1    1    1    2  502    0 -0.32467548409E+02 -0.71227459692E+02  0.13053721895E+03  0.15220860109E+03  0.00000000000E+00 0. -1.
         22    1    3    3    0    0 -0.79908422149E+02  0.26897986685E+02 -0.52192786919E+02  0.99161205239E+02  0.00000000000E+00 0. -1.
         22    1    3    3    0    0  0.57872783455E+01 -0.13906073616E+02 -0.14698427506E+03  0.14775401378E+03  0.00000000000E+00 0. -1.
</event>
<event>
 7    1  0.7029100E-006  0.5585321E+02  0.7818608E-02  0.1521367E+00
          2   -1    0    0  502    0  0.00000000000E+00  0.00000000000E+00  0.17854688584E+04  0.17854688584E+04  0.00000000000E+00 0. -1.
          1   -1    0    0  501    0 -0.00000000000E+00 -0.00000000000E+00 -0.12910934696E+03  0.12910934696E+03  0.00000000000E+00 0. -1.
         25    2    1    2    0    0  0.55780361684E+02 -0.45339472049E+01  0.90545404115E+02  0.16417808813E+03  0.12499587588E+03 0.  0.
          2    1    1    2  501    0 -0.51997470038E+02 -0.21409547982E+02 -0.83613749420E+02  0.10076390587E+03  0.00000000000E+00 0. -1.
          1    1    1    2  502    0 -0.37828916465E+01  0.25943495187E+02  0.16494278567E+04  0.16496362114E+04  0.00000000000E+00 0. -1.
         22    1    3    3    0    0  0.88861919752E+02  0.38105110824E+01  0.28547628114E+02  0.93412674984E+02  0.00000000000E+00 0.  1.
         22    1    3    3    0    0 -0.33081558068E+02 -0.83444582873E+01  0.61997776001E+02  0.70765413143E+02  0.00000000000E+00 0.  1.
</event>
<event>
 7    1  0.7029100E-006  0.1187834E+03  0.7818608E-02  0.1345510E+00
          2   -1    0    0  502    0  0.00000000000E+00  0.00000000000E+00  0.87347072732E+03  0.87347072732E+03  0.00000000000E+00 0. -1.
          1   -1    0    0  501    0 -0.00000000000E+00 -0.00000000000E+00 -0.17803050184E+03  0.17803050184E+03  0.00000000000E+00 0. -1.
         25    2    1    2    0    0 -0.17365540747E+02 -0.12801682035E+03  0.95737350066E+02  0.20366796111E+03  0.12500051955E+03 0.  0.
          2    1    1    2  501    0  0.57092311446E+02  0.10348236805E+03 -0.94955772233E+02  0.15160716080E+03  0.00000000000E+00 0. -1.
          1    1    1    2  502    0 -0.39726770699E+02  0.24534452299E+02  0.69465864765E+03  0.69622610725E+03  0.00000000000E+00 0. -1.
         22    1    3    3    0    0  0.45197085605E+01  0.23301834635E+02  0.27244999151E+02  0.36134377559E+02  0.00000000000E+00 0.  1.
         22    1    3    3    0    0 -0.21885249308E+02 -0.15131865499E+03  0.68492350915E+02  0.16753358356E+03  0.00000000000E+00 0.  1.
</event>
<event>
 7    1  0.7029100E-006  0.8730164E+02  0.7818608E-02  0.1408097E+00
          2   -1    0    0  502    0  0.00000000000E+00  0.00000000000E+00  0.19133404584E+04  0.19133404584E+04  0.00000000000E+00 0. -1.
          1   -1    0    0  501    0 -0.00000000000E+00 -0.00000000000E+00 -0.97427864898E+02  0.97427864898E+02  0.00000000000E+00 0. -1.
         25    2    1    2    0    0 -0.59440591348E+02  0.29335229588E+02  0.19029401082E+03  0.23712897993E+03  0.12499841189E+03 0.  0.
          2    1    1    2  501    0  0.90317323472E+02 -0.71326873433E+01 -0.45986680568E+02  0.10160152035E+03  0.00000000000E+00 0. -1.
          1    1    1    2  502    0 -0.30876732124E+02 -0.22202542245E+02  0.16716052633E+04  0.16720378230E+04  0.00000000000E+00 0. -1.
         22    1    3    3    0    0 -0.75304679884E+02  0.66115131901E+02  0.14931909550E+03  0.17982824517E+03  0.00000000000E+00 0.  1.
         22    1    3    3    0    0  0.15864088535E+02 -0.36779902313E+02  0.40974915316E+02  0.57300734763E+02  0.00000000000E+00 0.  1.
</event>
<event>
 7    1  0.7029100E-006  0.5738735E+02  0.7818608E-02  0.1421378E+00
          2   -1    0    0  502    0  0.00000000000E+00  0.00000000000E+00  0.23062045098E+04  0.23062045098E+04  0.00000000000E+00 0. -1.
          1   -1    0    0  501    0 -0.00000000000E+00 -0.00000000000E+00 -0.29889749937E+03  0.29889749937E+03  0.00000000000E+00 0. -1.
         25    2    1    2    0    0 -0.97186882715E+02  0.37869945182E+02  0.17408267033E+03  0.23834802268E+03  0.12500232352E+03 0.  0.
          2    1    1    2  501    0  0.40532070374E+02 -0.32887927749E+02 -0.26382234066E+03  0.26893622283E+03  0.00000000000E+00 0. -1.
          1    1    1    2  502    0  0.56654812341E+02 -0.49820174333E+01  0.20970466807E+04  0.20978177636E+04  0.00000000000E+00 0. -1.
         22    1    3    3    0    0 -0.87227304863E+02  0.55424147799E+02  0.18751210221E+03  0.21410564530E+03  0.00000000000E+00 0. -1.
         22    1    3    3    0    0 -0.99595778516E+01 -0.17554202617E+02 -0.13429431879E+02  0.24242377381E+02  0.00000000000E+00 0. -1.
</event>
<event>
 7    1  0.7029100E-006  0.8722346E+02  0.7818608E-02  0.1327343E+00
          2   -1    0    0  502    0  0.00000000000E+00  0.00000000000E+00  0.14391079669E+04  0.14391079669E+04  0.00000000000E+00 0. -1.
          1   -1    0    0  501    0 -0.00000000000E+00 -0.00000000000E+00 -0.27758659019E+03  0.27758659019E+03  0.00000000000E+00 0. -1.
         25    2    1    2    0    0 -0.11141932721E+01 -0.13856712702E+03  0.31065754804E+03  0.36239891908E+03  0.12499109680E+03 0.  0.
          2    1    1    2  501    0  0.41370772580E+02  0.75893010297E+02 -0.24299134499E+03  0.25790712200E+03  0.00000000000E+00 0. -1.
          1    1    1    2  502    0 -0.40256579308E+02  0.62674116720E+02  0.10938551736E+04  0.10963885160E+04  0.00000000000E+00 0. -1.
         22    1    3    3    0    0  0.38171845991E+02 -0.36889870903E+02  0.20057246029E+03  0.20747834641E+03  0.00000000000E+00 0. -1.
         22    1    3    3    0    0 -0.39286039263E+02 -0.10167725611E+03  0.11008508775E+03  0.15492057267E+03  0.00000000000E+00 0. -1.
</event>
<event>
 7    1  0.7029100E-006  0.9306539E+02  0.7818608E-02  0.1485570E+00
          2   -1    0    0  502    0  0.00000000000E+00  0.00000000000E+00  0.11665455260E+04  0.11665455260E+04  0.00000000000E+00 0. -1.
          1   -1    0    0  501    0 -0.00000000000E+00 -0.00000000000E+00 -0.55256419026E+03  0.55256419026E+03  0.00000000000E+00 0. -1.
         25    2    1    2    0    0  0.55753826804E+02 -0.97204319019E+02 -0.49376879199E+02  0.17498908378E+03  0.12500373755E+03 0.  0.
          2    1    1    2  501    0 -0.53089232244E+01  0.19385879791E+02 -0.43820242421E+03  0.43866315275E+03  0.00000000000E+00 0. -1.
          1    1    1    2  502    0 -0.50444903580E+02  0.77818439228E+02  0.11015606392E+04  0.11054574798E+04  0.00000000000E+00 0. -1.
         22    1    3    3    0    0  0.84761320956E+01  0.20815013589E+02 -0.42004085419E+02  0.47638774102E+02  0.00000000000E+00 0.  1.
         22    1    3    3    0    0  0.47277694708E+02 -0.11801933261E+03 -0.73727937800E+01  0.12735030968E+03  0.00000000000E+00 0.  1.
</event>
<event>
 7    1  0.7029100E-006  0.8216346E+02  0.7818608E-02  0.1326371E+00
          2   -1    0    0  502    0  0.00000000000E+00  0.00000000000E+00  0.35729681522E+03  0.35729681522E+03  0.00000000000E+00 0. -1.
          1   -1    0    0  501    0 -0.00000000000E+00 -0.00000000000E+00 -0.79703657887E+03  0.79703657887E+03  0.00000000000E+00 0. -1.
         25    2    1    2    0    0  0.21930415677E+02  0.30514444600E+02 -0.50064356155E+02  0.13979601264E+03  0.12499764370E+03 0.  0.
          2    1    1    2  501    0 -0.83874441511E+02  0.19728599027E+02 -0.69430937364E+03  0.69963536637E+03  0.00000000000E+00 0. -1.
          1    1    1    2  502    0  0.61944025834E+02 -0.50243043628E+02  0.30463396615E+03  0.31490201508E+03  0.00000000000E+00 0. -1.
         22    1    3    3    0    0  0.26881269913E+02  0.66200756304E+02 -0.68798188884E+02  0.99188374324E+02  0.00000000000E+00 0.  1.
         22    1    3    3    0    0 -0.49508542363E+01 -0.35686311704E+02  0.18733832729E+02  0.40607638314E+02  0.00000000000E+00 0.  1.
</event>
<event>
 7    1  0.7029100E-006  0.1154090E+03  0.7818608E-02  0.1385331E+00
          2   -1    0    0  502    0  0.00000000000E+00  0.00000000000E+00  0.86583285715E+02  0.86583285715E+02  0.00000000000E+00 0. -1.
          1   -1    0    0  501    0 -0.00000000000E+00 -0.00000000000E+00 -0.12745171283E+04  0.12745171283E+04  0.00000000000E+00 0. -1.
         25    2    1    2    0    0  0.11811250965E+03 -0.70934362044E+02 -0.75698464916E+03  0.77950818502E+03  0.12500001120E+03 0.  0.
          2    1    1    2  501    0 -0.33896808925E+02 -0.63228217024E+01 -0.46190436841E+03  0.46318961267E+03  0.00000000000E+00 0. -1.
          1    1    1    2  502    0 -0.84215700729E+02  0.77257183746E+02  0.30955174997E+02  0.11840261631E+03  0.00000000000E+00 0. -1.
         22    1    3    3    0    0 -0.11068107442E+02 -0.43737541906E+02 -0.10482861414E+03  0.11412499251E+03  0.00000000000E+00 0.  1.
         22    1    3    3    0    0  0.12918061710E+03 -0.27196820137E+02 -0.65215603502E+03  0.66538319251E+03  0.00000000000E+00 0.  1.
</event>
<event>
 7    1  0.7029100E-006  0.3449524E+02  0.7818608E-02  0.1625518E+00
          2   -1    0    0  502    0  0.00000000000E+00  0.00000000000E+00  0.60868521303E+03  0.60868521303E+03  0.00000000000E+00 0. -1.
          1   -1    0    0  501    0 -0.00000000000E+00 -0.00000000000E+00 -0.19926518040E+03  0.19926518040E+03  0.00000000000E+00 0. -1.
         25    2    1    2    0    0  0.35627646496E+02 -0.39652317794E+01 -0.54523696622E+02  0.14101046760E+03  0.12500426482E+03 0.  0.
          2    1    1    2  501    0 -0.25547613423E+02  0.23717985718E+02 -0.98279830252E+02  0.10427918504E+03  0.00000000000E+00 0. -1.
          1    1    1    2  502    0 -0.10080033072E+02 -0.19752753939E+02  0.56222355950E+03  0.56266074078E+03  0.00000000000E+00 0. -1.
         22    1    3    3    0    0  0.84498359770E+01 -0.30362130359E+02  0.33004052054E+02  0.45634703242E+02  0.00000000000E+00 0. -1.
         22    1    3    3    0    0  0.27177810519E+02  0.26396898580E+02 -0.87527748676E+02  0.95375764362E+02  0.00000000000E+00 0. -1.
</event>
<event>
 7    1  0.7029100E-006  0.8367769E+02  0.7818608E-02  0.1367519E+00
          2   -1    0    0  502    0  0.00000000000E+00  0.00000000000E+00  0.37216864413E+03  0.37216864413E+03  0.00000000000E+00 0. -1.
          1   -1    0    0  501    0 -0.00000000000E+00 -0.00000000000E+00 -0.58636136700E+03  0.58636136700E+03  0.00000000000E+00 0. -1.
         25    2    1    2    0    0 -0.56608741577E+01  0.34677286289E+02 -0.47496106270E+02  0.13825778558E+03  0.12499910192E+03 0.  0.
          2    1    1    2  501    0  0.21349137782E+02  0.50725451544E+02 -0.48613614851E+03  0.48924146596E+03  0.00000000000E+00 0. -1.
          1    1    1    2  502    0 -0.15688263625E+02 -0.85402737833E+02  0.31943953192E+03  0.33103075960E+03  0.00000000000E+00 0. -1.
         22    1    3    3    0    0 -0.26226552055E+02 -0.20587542331E+02  0.27243767799E+02  0.43056960132E+02  0.00000000000E+00 0. -1.
         22    1    3    3    0    0  0.20565677897E+02  0.55264828621E+02 -0.74739874069E+02  0.95200825446E+02  0.00000000000E+00 0. -1.
</event>
<event>
 7    1  0.7029100E-006  0.7212260E+02  0.7818608E-02  0.1423092E+00
          2   -1    0    0  502    0  0.00000000000E+00  0.00000000000E+00  0.65085215934E+03  0.65085215934E+03  0.00000000000E+00 0. -1.
          1   -1    0    0  501    0 -0.00000000000E+00 -0.00000000000E+00 -0.96183717368E+03  0.96183717368E+03  0.00000000000E+00 0. -1.
         25    2    1    2    0    0 -0.59883022150E+02  0.63840201374E+02  0.27212562968E+03  0.31199138487E+03  0.12499887301E+03 0.  0.
          2    1    1    2  501    0  0.68096489784E+02 -0.23681464763E+02 -0.93934769261E+03  0.94211041355E+03  0.00000000000E+00 0. -1.
          1    1    1    2  502    0 -0.82134676339E+01 -0.40158736611E+02  0.35623704859E+03  0.35858753460E+03  0.00000000000E+00 0. -1.
         22    1    3    3    0    0 -0.58197459796E+02  0.96468920066E+02  0.16349884089E+03  0.19855746734E+03  0.00000000000E+00 0.  1.
         22    1    3    3    0    0 -0.16855623541E+01 -0.32628718692E+02  0.10862678878E+03  0.11343391753E+03  0.00000000000E+00 0.  1.
</event>
<event>
 7    1  0.7029100E-006  0.1261779E+03  0.7818608E-02  0.1273835E+00
          2   -1    0    0  502    0  0.00000000000E+00  0.00000000000E+00  0.77669104112E+03  0.77669104112E+03  0.00000000000E+00 0. -1.
          1   -1    0    0  501    0 -0.00000000000E+00 -0.00000000000E+00 -0.27748171136E+03  0.27748171136E+03  0.00000000000E+00 0. -1.
         25    2    1    2    0    0 -0.33518119028E+02 -0.13181105129E+03  0.12111068306E+03  0.22088620887E+03  0.12500120869E+03 0.  0.
          2    1    1    2  501    0 -0.49606330818E+02  0.11776708957E+03 -0.20639073812E+03  0.24274886658E+03  0.00000000000E+00 0. -1.
          1    1    1    2  502    0  0.83124449846E+02  0.14043961714E+02  0.58448938482E+03  0.59053767703E+03  0.00000000000E+00 0. -1.
         22    1    3    3    0    0 -0.70383269854E+02 -0.31649256465E+02  0.40638189157E+02  0.87217787911E+02  0.00000000000E+00 0.  1.
         22    1    3    3    0    0  0.36865150827E+02 -0.10016179482E+03  0.80472493901E+02  0.13366842096E+03  0.00000000000E+00 0.  1.
</event>
<event>
 7    1  0.7029100E-006  0.1059498E+03  0.7818608E-02  0.1332649E+00
          2   -1    0    0  502    0  0.00000000000E+00  0.00000000000E+00  0.13376386665E+04  0.13376386665E+04  0.00000000000E+00 0. -1.
          1   -1    0    0  501    0 -0.00000000000E+00 -0.00000000000E+00 -0.43695672250E+02  0.43695672250E+02  0.00000000000E+00 0. -1.
         25    2    1    2    0    0 -0.11467296382E+02 -0.64737407732E+02  0.29245882632E+03  0.32477503058E+03  0.12499689814E+03 0.  0.
          2    1    1    2  501    0 -0.47698409283E+02 -0.33915202651E+02  0.11165985106E+02  0.59582366875E+02  0.00000000000E+00 0. -1.
          1    1    1    2  502    0  0.59165705665E+02  0.98652610383E+02  0.99031818282E+03  0.99697694131E+03  0.00000000000E+00 0. -1.
         22    1    3    3    0    0  0.76223772002E+01 -0.93217739360E+02  0.26445180751E+03  0.28050384322E+03  0.00000000000E+00 0. -1.
         22    1    3    3    0    0 -0.19089673582E+02  0.28480331628E+02  0.28007018816E+02  0.44271187358E+02  0.00000000000E+00 0. -1.
</event>
<event>
 7    1  0.7029100E-006  0.1241685E+03  0.7818608E-02  0.1246065E+00
          2   -1    0    0  502    0  0.00000000000E+00  0.00000000000E+00  0.41351991426E+03  0.41351991426E+03  0.00000000000E+00 0. -1.
          1   -1    0    0  501    0 -0.00000000000E+00 -0.00000000000E+00 -0.10617635351E+04  0.10617635351E+04  0.00000000000E+00 0. -1.
         25    2    1    2    0    0 -0.80749036107E+01  0.23888267433E+02  0.39026173585E+02  0.13335877967E+03  0.12500267397E+03 0.  0.
          2    1    1    2  501    0 -0.55518120822E+02 -0.11675541202E+03 -0.10006385356E+04  0.10089556813E+04  0.00000000000E+00 0. -1.
          1    1    1    2  502    0  0.63593024433E+02  0.92867144582E+02  0.31336874114E+03  0.33296898838E+03  0.00000000000E+00 0. -1.
         22    1    3    3    0    0  0.11245684585E+02  0.65912524916E+02 -0.80677991474E+01  0.67349949856E+02  0.00000000000E+00 0. -1.
         22    1    3    3    0    0 -0.19320588196E+02 -0.42024257482E+02  0.47093972732E+02  0.66008829810E+02  0.00000000000E+00 0. -1.
</event>
<event>
 7    1  0.7029100E-006  0.4759008E+02  0.7818608E-02  0.1501919E+00
          2   -1    0    0  502    0  0.00000000000E+00  0.00000000000E+00  0.84803368739E+03  0.84803368739E+03  0.00000000000E+00 0. -1.
          1   -1    0    0  501    0 -0.00000000000E+00 -0.00000000000E+00 -0.69081360233E+02  0.69081360233E+02  0.00000000000E+00 0. -1.
         25    2    1    2    0    0  0.21221187963E+02  0.20283831882E+02  0.35355065163E+02  0.13317805827E+03  0.12499856767E+03 0.  0.
          2    1    1    2  501    0 -0.56052409423E+02 -0.15985653174E+02  0.23278639600E+02  0.62763912969E+02  0.00000000000E+00 0. -1.
          1    1    1    2  502    0  0.34831221461E+02 -0.42981787078E+01  0.72031862239E+03  0.72117307638E+03  0.00000000000E+00 0. -1.
         22    1    3    3    0    0  0.54147224155E+02 -0.11537084742E+01 -0.26191170296E+02  0.60160039299E+02  0.00000000000E+00 0. -1.
         22    1    3    3    0    0 -0.32926036192E+02  0.21437540356E+02  0.61546235459E+02  0.73018018975E+02  0.00000000000E+00 0. -1.
</event>
<event>
 7    1  0.7029100E-006  0.6694274E+02  0.7818608E-02  0.1398341E+00
          2   -1    0    0  502    0  0.00000000000E+00  0.00000000000E+00  0.23853912048E+03  0.23853912048E+03  0.00000000000E+00 0. -1.
          1   -1    0    0  501    0 -0.00000000000E+00 -0.00000000000E+00 -0.10234395005E+04  0.10234395005E+04  0.00000000000E+00 0. -1.
         25    2    1    2    0    0 -0.30686707770E+02 -0.50084507328E+02  0.16851705117E+03  0.21788158164E+03  0.12499702067E+03 0.  0.
          2    1    1    2  501    0  0.34534397089E+02 -0.40940180555E+02 -0.95146378195E+03  0.95297012090E+03  0.00000000000E+00 0. -1.
          1    1    1    2  502    0 -0.38476893198E+01  0.91024687882E+02 -0.19536492363E+01  0.91126918430E+02  0.00000000000E+00 0. -1.
         22    1    3    3    0    0 -0.31676563113E+02 -0.80877308963E+02  0.61263796471E+02  0.10629109329E+03  0.00000000000E+00 0. -1.
         22    1    3    3    0    0  0.98985534326E+00  0.30792801635E+02  0.10725325470E+03  0.11159048835E+03  0.00000000000E+00 0. -1.
</event>
<event>
 7    1  0.7029100E-006  0.4593909E+02  0.7818608E-02  0.1490643E+00
          2   -1    0    0  502    0  0.00000000000E+00  0.00000000000E+00  0.45571202586E+03  0.45571202586E+03  0.00000000000E+00 0. -1.
          1   -1    0    0  501    0 -0.00000000000E+00 -0.00000000000E+00 -0.12665618611E+04  0.12665618611E+04  0.00000000000E+00 0. -1.
         25    2    1    2    0    0 -0.71671940972E+01 -0.91614686018E+01 -0.17465317550E+03  0.21509478830E+03  0.12500694006E+03 0.  0.
          2    1    1    2  501    0 -0.38883013543E+02  0.57195797484E+01 -0.10701019578E+04  0.10708234227E+04  0.00000000000E+00 0. -1.
          1    1    1    2  502    0  0.46050207640E+02  0.34418888534E+01  0.43390529812E+03  0.43635567598E+03  0.00000000000E+00 0. -1.
         22    1    3    3    0    0  0.17230773548E+02 -0.54940478411E+02 -0.14341184681E+03  0.15453903562E+03  0.00000000000E+00 0. -1.
         22    1    3    3    0    0 -0.24397967645E+02  0.45779009810E+02 -0.31241328688E+02  0.60555752679E+02  0.00000000000E+00 0. -1.
</event>
<event>
 7    1  0.7029100E-006  0.1523550E+03  0.7818608E-02  0.1227294E+00
          2   -1    0    0  502    0  0.00000000000E+00  0.00000000000E+00  0.90013350051E+03  0.90013350051E+03  0.00000000000E+00 0. -1.
          1   -1    0    0  501    0 -0.00000000000E+00 -0.00000000000E+00 -0.24354561831E+04  0.24354561831E+04  0.00000000000E+00 0. -1.
         25    2    1    2    0    0 -0.17389259018E+03  0.10420294567E+03 -0.27090962746E+02  0.23969899398E+03  0.12499920259E+03 0.  0.
          2    1    1    2  501    0  0.15183042635E+03  0.46963412321E+01 -0.22956507133E+04  0.23006709307E+04  0.00000000000E+00 0. -1.
          1    1    1    2  502    0  0.22062163824E+02 -0.10889928691E+03  0.78741899343E+03  0.79521975892E+03  0.00000000000E+00 0. -1.
         22    1    3    3    0    0 -0.15587379870E+03  0.11305703968E+03 -0.59529903133E+02  0.20154985663E+03  0.00000000000E+00 0. -1.
         22    1    3    3    0    0 -0.18018791480E+02 -0.88540940072E+01  0.32438940387E+02  0.38149137350E+02  0.00000000000E+00 0. -1.
</event>
<event>
 7    1  0.7029100E-006  0.1864985E+03  0.7818608E-02  0.1291223E+00
          2   -1    0    0  502    0  0.00000000000E+00  0.00000000000E+00  0.80008641398E+02  0.80008641398E+02  0.00000000000E+00 0. -1.
          1   -1    0    0  501    0 -0.00000000000E+00 -0.00000000000E+00 -0.14448315078E+04  0.14448315078E+04  0.00000000000E+00 0. -1.
         25    2    1    2    0    0 -0.20484393925E+03 -0.67352905465E+02 -0.24209389293E+03  0.34746431247E+03  0.12499816848E+03 0.  0.
          2    1    1    2  501    0  0.18104372823E+03  0.25242747868E+02 -0.11131587640E+04  0.11280675785E+04  0.00000000000E+00 0. -1.
          1    1    1    2  502    0  0.23800211021E+02  0.42110157597E+02 -0.95702094712E+01  0.49308258201E+02  0.00000000000E+00 0. -1.
         22    1    3    3    0    0  0.12481361079E+02  0.10167306874E+02 -0.30056816924E+02  0.34096491712E+02  0.00000000000E+00 0. -1.
         22    1    3    3    0    0 -0.21732530033E+03 -0.77520212339E+02 -0.21203707601E+03  0.31336782076E+03  0.00000000000E+00 0. -1.
</event>
<event>
 7    1  0.7029100E-006  0.1085813E+03  0.7818608E-02  0.1360599E+00
          2   -1    0    0  502    0  0.00000000000E+00  0.00000000000E+00  0.50955889233E+02  0.50955889233E+02  0.00000000000E+00 0. -1.
          1   -1    0    0  501    0 -0.00000000000E+00 -0.00000000000E+00 -0.10186033205E+04  0.10186033205E+04  0.00000000000E+00 0. -1.
         25    2    1    2    0    0  0.11458986497E+02 -0.10485841866E+03 -0.24213206607E+03  0.29220273270E+03  0.12501161244E+03 0.  0.
          2    1    1    2  501    0 -0.44833233576E+02 -0.30392030578E+01 -0.62363974948E+03  0.62525658151E+03  0.00000000000E+00 0. -1.
          1    1    1    2  502    0  0.33374247079E+02  0.10789762172E+03 -0.10187561573E+03  0.15209989553E+03  0.00000000000E+00 0. -1.
         22    1    3    3    0    0 -0.56656143042E+02 -0.56042872270E+02 -0.11358887101E+03  0.13875573391E+03  0.00000000000E+00 0. -1.
         22    1    3    3    0    0  0.68115129539E+02 -0.48815546392E+02 -0.12854319506E+03  0.15344699879E+03  0.00000000000E+00 0. -1.
</event>
<event>
 7    1  0.7029100E-006  0.1399882E+03  0.7818608E-02  0.1220052E+00
          2   -1    0    0  502    0  0.00000000000E+00  0.00000000000E+00  0.78631323744E+03  0.78631323744E+03  0.00000000000E+00 0. -1.
          1   -1    0    0  501    0 -0.00000000000E+00 -0.00000000000E+00 -0.87528432581E+03  0.87528432581E+03  0.00000000000E+00 0. -1.
         25    2    1    2    0    0 -0.18122053889E+03  0.17770121540E+02 -0.73068736302E+02  0.23264413582E+03  0.12501037066E+03 0.  0.
          2    1    1    2  501    0  0.92967849903E+02  0.91465744399E+02 -0.70944656064E+03  0.72133447576E+03  0.00000000000E+00 0. -1.
          1    1    1    2  502    0  0.88252688987E+02 -0.10923586594E+03  0.69354420857E+03  0.70761895167E+03  0.00000000000E+00 0. -1.
         22    1    3    3    0    0  0.79473165455E+01  0.11813400370E+02  0.17721610086E+02  0.22732613854E+02  0.00000000000E+00 0.  1.
         22    1    3    3    0    0 -0.18916785544E+03  0.59567211699E+01 -0.90790346388E+02  0.20991152197E+03  0.00000000000E+00 0.  1.
</event>
<event>
 7    1  0.7029100E-006  0.1402686E+03  0.7818608E-02  0.1269166E+00
          2   -1    0    0  502    0  0.00000000000E+00  0.00000000000E+00  0.24205984341E+04  0.24205984341E+04  0.00000000000E+00 0. -1.
          1   -1    0    0  501    0 -0.00000000000E+00 -0.00000000000E+00 -0.79893881151E+03  0.79893881151E+03  0.00000000000E+00 0. -1.
         25    2    1    2    0    0  0.11151613576E+03 -0.61211024672E+01  0.77163370827E+03  0.78963034988E+03  0.12499677304E+03 0.  0.
          2    1    1    2  501    0 -0.12040303155E+03 -0.72707229954E+02 -0.78270887955E+03  0.79524613889E+03  0.00000000000E+00 0. -1.
          1    1    1    2  502    0  0.88868957906E+01  0.78828332421E+02  0.16327347938E+04  0.16346607568E+04  0.00000000000E+00 0. -1.
         22    1    3    3    0    0  0.23620831308E+02  0.19926382436E+02  0.53451118631E+03  0.53540378471E+03  0.00000000000E+00 0. -1.
         22    1    3    3    0    0  0.87895304453E+02 -0.26047484903E+02  0.23712252196E+03  0.25422656517E+03  0.00000000000E+00 0. -1.
</event>
<event>
 7    1  0.7029100E-006  0.7782137E+02  0.7818608E-02  0.1419515E+00
          2   -1    0    0  502    0  0.00000000000E+00  0.00000000000E+00  0.23458042344E+04  0.23458042344E+04  0.00000000000E+00 0. -1.
          1   -1    0    0  501    0 -0.00000000000E+00 -0.00000000000E+00 -0.92260947418E+02  0.92260947418E+02  0.00000000000E+00 0. -1.
         25    2    1    2    0    0 -0.97835590322E+02  0.17755633543E+01  0.50473669012E+03  0.52911361485E+03  0.12500854252E+03 0.  0.
          2    1    1    2  501    0  0.72216498769E+02  0.27690639032E+02 -0.61135871261E+02  0.98587975633E+02  0.00000000000E+00 0. -1.
          1    1    1    2  502    0  0.25619091553E+02 -0.29466202386E+02  0.18099424681E+04  0.18103635913E+04  0.00000000000E+00 0. -1.
         22    1    3    3    0    0 -0.16950122884E+02  0.64431284286E+01  0.37963434242E+03  0.38006717106E+03  0.00000000000E+00 0.  1.
         22    1    3    3    0    0 -0.80885467438E+02 -0.46675650743E+01  0.12510234770E+03  0.14904644379E+03  0.00000000000E+00 0.  1.
</event>
<event>
 7    1  0.7029100E-006  0.3248567E+03  0.7818608E-02  0.1131355E+00
          2   -1    0    0  502    0  0.00000000000E+00  0.00000000000E+00  0.50861626225E+03  0.50861626225E+03  0.00000000000E+00 0. -1.
          1   -1    0    0  501    0 -0.00000000000E+00 -0.00000000000E+00 -0.13160790890E+04  0.13160790890E+04  0.00000000000E+00 0. -1.
         25    2    1    2    0    0 -0.34074149787E+03 -0.27168886104E+03 -0.56484091011E+03  0.72428542285E+03  0.12499805777E+03 0.  0.
          2    1    1    2  501    0  0.22688362887E+03  0.16849582438E+03 -0.62629763749E+03  0.68710680000E+03  0.00000000000E+00 0. -1.
          1    1    1    2  502    0  0.11385786899E+03  0.10319303665E+03  0.38367572086E+03  0.41330312837E+03  0.00000000000E+00 0. -1.
         22    1    3    3    0    0 -0.46641271004E+02 -0.96214379388E+02 -0.17786404230E+03  0.20752887150E+03  0.00000000000E+00 0.  1.
         22    1    3    3    0    0 -0.29410022686E+03 -0.17547448165E+03 -0.38697686781E+03  0.51675655136E+03  0.00000000000E+00 0.  1.
</event>
<event>
 7    1  0.7029100E-006  0.1113107E+03  0.7818608E-02  0.1264694E+00
          2   -1    0    0  502    0  0.00000000000E+00  0.00000000000E+00  0.14905419763E+04  0.14905419763E+04  0.00000000000E+00 0. -1.
          1   -1    0    0  501    0 -0.00000000000E+00 -0.00000000000E+00 -0.10514892293E+03  0.10514892293E+03  0.00000000000E+00 0. -1.
         25    2    1    2    0    0  0.99539280496E+02 -0.27043312186E+02  0.95901030106E+03  0.97260716970E+03  0.12499815965E+03 0.  0.
          2    1    1    2  501    0 -0.33758077959E+02  0.10811915967E+03 -0.58225704892E+02  0.12735616681E+03  0.00000000000E+00 0. -1.
          1    1    1    2  502    0 -0.65781202538E+02 -0.81075847483E+02  0.48460845715E+03  0.49572756267E+03  0.00000000000E+00 0. -1.
         22    1    3    3    0    0  0.34416687886E+02 -0.69312831447E+02  0.62053415869E+03  0.62534104224E+03  0.00000000000E+00 0. -1.
         22    1    3    3    0    0  0.65122592611E+02  0.42269519262E+02  0.33847614237E+03  0.34726612746E+03  0.00000000000E+00 0. -1.
</event>
<event>
 7    1  0.7029100E-006  0.9412522E+02  0.7818608E-02  0.1300498E+00
          2   -1    0    0  502    0  0.00000000000E+00  0.00000000000E+00  0.40023656737E+03  0.40023656737E+03  0.00000000000E+00 0. -1.
          1   -1    0    0  501    0 -0.00000000000E+00 -0.00000000000E+00 -0.31148867999E+03  0.31148867999E+03  0.00000000000E+00 0. -1.
         25    2    1    2    0    0  0.94981971155E+01  0.87439462710E+02  0.16018971059E+03  0.22140769317E+03  0.12499899132E+03 0.  0.
          2    1    1    2  501    0  0.82839741103E+02 -0.44689309994E+02 -0.25974874727E+03  0.27627697849E+03  0.00000000000E+00 0. -1.
          1    1    1    2  502    0 -0.92337938219E+02 -0.42750152717E+02  0.18830692406E+03  0.21404057569E+03  0.00000000000E+00 0. -1.
         22    1    3    3    0    0  0.44904107684E+02  0.27932983750E+02  0.70627199747E+01  0.53352717658E+02  0.00000000000E+00 0.  1.
         22    1    3    3    0    0 -0.35405910569E+02  0.59506478961E+02  0.15312699061E+03  0.16805497552E+03  0.00000000000E+00 0.  1.
</event>
<event>
 7    1  0.7029100E-006  0.7335068E+02  0.7818608E-02  0.1429159E+00
          2   -1    0    0  502    0  0.00000000000E+00  0.00000000000E+00  0.16422310978E+04  0.16422310978E+04  0.00000000000E+00 0. -1.
          1   -1    0    0  501    0 -0.00000000000E+00 -0.00000000000E+00 -0.38499460378E+03  0.38499460378E+03  0.00000000000E+00 0. -1.
         25    2    1    2    0    0 -0.93722633177E+02 -0.20685190779E+02  0.44004931472E+03  0.46741802782E+03  0.12499761701E+03 0.  0.
          2    1    1    2  501    0  0.33548398189E+02 -0.18851986071E+02 -0.36921883823E+03  0.37121886119E+03  0.00000000000E+00 0. -1.
          1    1    1    2  502    0  0.60174234988E+02  0.39537176850E+02  0.11864060175E+04  0.11885888125E+04  0.00000000000E+00 0. -1.
         22    1    3    3    0    0  0.82590456159E+01  0.22827267064E+02  0.21676487877E+03  0.21811994092E+03  0.00000000000E+00 0.  1.
         22    1    3    3    0    0 -0.10198167879E+03 -0.43512457843E+02  0.22328443595E+03  0.24929808690E+03  0.00000000000E+00 0.  1.
</event>
<event>
 7    1  0.7029100E-006  0.8315775E+02  0.7818608E-02  0.1342213E+00
          2   -1    0    0  502    0  0.00000000000E+00  0.00000000000E+00  0.43627759654E+03  0.43627759654E+03  0.00000000000E+00 0. -1.
          1   -1    0    0  501    0 -0.00000000000E+00 -0.00000000000E+00 -0.72347839762E+03  0.72347839762E+03  0.00000000000E+00 0. -1.
         25    2    1    2    0    0 -0.11974367113E+03 -0.45828292879E+02  0.33978511701E+03  0.38408107169E+03  0.12500225872E+03 0.  0.
          2    1    1    2  501    0  0.82144432311E+02 -0.11569823910E+02 -0.68243255864E+03  0.68745601000E+03  0.00000000000E+00 0. -1.
          1    1    1    2  502    0  0.37599238814E+02  0.57398116789E+02  0.55446640554E+02  0.88218912479E+02  0.00000000000E+00 0. -1.
         22    1    3    3    0    0 -0.77642268329E+02 -0.82632367778E+02  0.28066774376E+03  0.30270581828E+03  0.00000000000E+00 0. -1.
         22    1    3    3    0    0 -0.42101402796E+02  0.36804074899E+02  0.59117373246E+02  0.81375253401E+02  0.00000000000E+00 0. -1.
</event>
<event>
 7    1  0.7029100E-006  0.5112743E+02  0.7818608E-02  0.1457317E+00
          2   -1    0    0  502    0  0.00000000000E+00  0.00000000000E+00  0.63430414326E+03  0.63430414326E+03  0.00000000000E+00 0. -1.
          1   -1    0    0  501    0 -0.00000000000E+00 -0.00000000000E+00 -0.91422751248E+03  0.91422751248E+03  0.00000000000E+00 0. -1.
         25    2    1    2    0    0  0.11272429406E+02  0.32381983449E+02  0.82450319887E+02  0.15362341692E+03  0.12500575371E+03 0.  0.
          2    1    1    2  501    0  0.39736283060E+02 -0.20636948198E+02 -0.87674143621E+03  0.87788404803E+03  0.00000000000E+00 0. -1.
          1    1    1    2  502    0 -0.51008712466E+02 -0.11745035251E+02  0.51436774710E+03  0.51702419078E+03  0.00000000000E+00 0. -1.
         22    1    3    3    0    0  0.73874792180E+01  0.51435653758E+02  0.10897747121E+03  0.12073230950E+03  0.00000000000E+00 0.  1.
         22    1    3    3    0    0  0.38849501881E+01 -0.19053670308E+02 -0.26527151320E+02  0.32891107420E+02  0.00000000000E+00 0.  1.
</event>
<event>
 7    1  0.7029100E-006  0.6717293E+02  0.7818608E-02  0.1442409E+00
          2   -1    0    0  502    0  0.00000000000E+00  0.00000000000E+00  0.16063067225E+03  0.16063067225E+03  0.00000000000E+00 0. -1.
          1   -1    0    0  501    0 -0.00000000000E+00 -0.00000000000E+00 -0.30959247830E+03  0.30959247830E+03  0.00000000000E+00 0. -1.
         25    2    1    2    0    0 -0.87688661934E+02  0.70833098011E+01 -0.72411031659E+02  0.16914113553E+03  0.12500356600E+03 0.  0.
          2    1    1    2  501    0  0.25234301386E+02 -0.28461591632E+02 -0.17691329028E+03  0.18095619481E+03  0.00000000000E+00 0. -1.
          1    1    1    2  502    0  0.62454360548E+02  0.21378281830E+02  0.10036251588E+03  0.12012582021E+03  0.00000000000E+00 0. -1.
         22    1    3    3    0    0 -0.54772652788E+02 -0.34358632091E+02  0.15536552233E+02  0.66497695808E+02  0.00000000000E+00 0. -1.
         22    1    3    3    0    0 -0.32916009146E+02  0.41441941892E+02 -0.87947583891E+02  0.10264343972E+03  0.00000000000E+00 0. -1.
</event>
<event>
 7    1  0.7029100E-006  0.1367689E+03  0.7818608E-02  0.1338718E+00
          2   -1    0    0  502    0  0.00000000000E+00  0.00000000000E+00  0.19563051424E+04  0.19563051424E+04  0.00000000000E+00 0. -1.
          1   -1    0    0  501    0 -0.00000000000E+00 -0.00000000000E+00 -0.13986704326E+04  0.13986704326E+04  0.00000000000E+00 0. -1.
         25    2    1    2    0    0 -0.88138562410E+02 -0.14709535219E+03 -0.15058082406E+03  0.26020202508E+03  0.12500024185E+03 0.  0.
          2    1    1    2  501    0  0.51797762936E+02  0.12410675297E+03 -0.11892456006E+04  0.11968252140E+04  0.00000000000E+00 0. -1.
          1    1    1    2  502    0  0.36340799474E+02  0.22988599217E+02  0.18974611344E+04  0.18979483360E+04  0.00000000000E+00 0. -1.
         22    1    3    3    0    0 -0.83846834927E+02 -0.16534190175E+03 -0.15417197701E+03  0.24111664127E+03  0.00000000000E+00 0. -1.
         22    1    3    3    0    0 -0.42917274830E+01  0.18246549563E+02  0.35911529514E+01  0.19085383812E+02  0.00000000000E+00 0. -1.
</event>
<event>
 7    1  0.7029100E-006  0.6275045E+02  0.7818608E-02  0.1400863E+00
          2   -1    0    0  502    0  0.00000000000E+00  0.00000000000E+00  0.24280864814E+04  0.24280864814E+04  0.00000000000E+00 0. -1.
          1   -1    0    0  501    0 -0.00000000000E+00 -0.00000000000E+00 -0.63972088264E+02  0.63972088264E+02  0.00000000000E+00 0. -1.
         25    2    1    2    0    0  0.58467755582E+02  0.69987056726E+01  0.15128214838E+03  0.20488712759E+03  0.12499994523E+03 0.  0.
          2    1    1    2  501    0 -0.34215520304E+02 -0.57483899866E+02 -0.64282245680E+01  0.67204335013E+02  0.00000000000E+00 0. -1.
          1    1    1    2  502    0 -0.24252235279E+02  0.50485194194E+02  0.22192604693E+04  0.22199671070E+04  0.00000000000E+00 0. -1.
         22    1    3    3    0    0  0.49146982067E+02  0.38614262219E+01 -0.38453626342E+01  0.49448187758E+02  0.00000000000E+00 0.  1.
         22    1    3    3    0    0  0.93207735154E+01  0.31372794506E+01  0.15512751101E+03  0.15543893983E+03  0.00000000000E+00 0.  1.
</event>
<event>
 7    1  0.7029100E-006  0.5299976E+02  0.7818608E-02  0.1449782E+00
          2   -1    0    0  502    0  0.00000000000E+00  0.00000000000E+00  0.36712116539E+03  0.36712116539E+03  0.00000000000E+00 0. -1.
          1   -1    0    0  501    0 -0.00000000000E+00 -0.00000000000E+00 -0.12650336496E+03  0.12650336496E+03  0.00000000000E+00 0. -1.
         25    2    1    2    0    0  0.62320966615E+02  0.55040403383E+02  0.12852059266E+02  0.15068159133E+03  0.12500567049E+03 0.  0.
          2    1    1    2  501    0 -0.17416724123E+02 -0.46841222084E+02 -0.44476811731E+02  0.66900143104E+02  0.00000000000E+00 0. -1.
          1    1    1    2  502    0 -0.44904242492E+02 -0.81991812996E+01  0.27224255290E+03  0.27604279592E+03  0.00000000000E+00 0. -1.
         22    1    3    3    0    0 -0.26153303164E+02 -0.16013645496E+02 -0.14554043031E+02  0.33944841684E+02  0.00000000000E+00 0.  1.
         22    1    3    3    0    0  0.88474269779E+02  0.71054048879E+02  0.27406102297E+02  0.11673674965E+03  0.00000000000E+00 0.  1.
</event>
<event>
 7    1  0.7029100E-006  0.9977107E+02  0.7818608E-02  0.1351269E+00
          2   -1    0    0  502    0  0.00000000000E+00  0.00000000000E+00  0.26962975847E+04  0.26962975847E+04  0.00000000000E+00 0. -1.
          1   -1    0    0  501    0 -0.00000000000E+00 -0.00000000000E+00 -0.30981300154E+03  0.30981300154E+03  0.00000000000E+00 0. -1.
         25    2    1    2    0    0  0.75712763216E+02  0.12984746469E+03  0.69446604619E+03  0.72145736649E+03  0.12499942298E+03 0.  0.
          2    1    1    2  501    0 -0.40066136914E+02 -0.90736455285E+02 -0.28765328954E+03  0.30427424247E+03  0.00000000000E+00 0. -1.
          1    1    1    2  502    0 -0.35646626301E+02 -0.39111009405E+02  0.19796718265E+04  0.19803789773E+04  0.00000000000E+00 0. -1.
         22    1    3    3    0    0  0.59981271365E+02  0.10374285555E+03  0.67440594124E+03  0.68496985815E+03  0.00000000000E+00 0. -1.
         22    1    3    3    0    0  0.15731491851E+02  0.26104609141E+02  0.20060104957E+02  0.36487508344E+02  0.00000000000E+00 0. -1.
</event>
<event>
 7    1  0.7029100E-006  0.5243316E+02  0.7818608E-02  0.1528969E+00
          2   -1    0    0  502    0  0.00000000000E+00  0.00000000000E+00  0.80147433793E+03  0.80147433793E+03  0.00000000000E+00 0. -1.
          1   -1    0    0  501    0 -0.00000000000E+00 -0.00000000000E+00 -0.27999056885E+02  0.27999056885E+02  0.00000000000E+00 0. -1.
         25    2    1    2    0    0 -0.26622672475E+02  0.21034614065E+02  0.25920096469E+03  0.28976188705E+03  0.12500235764E+03 0.  0.
          2    1    1    2  501    0 -0.25781578990E+02 -0.63551145453E+01  0.43690812386E+01  0.26910335690E+02  0.00000000000E+00 0. -1.
          1    1    1    2  502    0  0.52404251464E+02 -0.14679499519E+02  0.50990523511E+03  0.51280117207E+03  0.00000000000E+00 0. -1.
         22    1    3    3    0    0 -0.24882028246E+02  0.63956605880E+02  0.79616568363E+02  0.10511118268E+03  0.00000000000E+00 0. -1.
         22    1    3    3    0    0 -0.17406442286E+01 -0.42921991816E+02  0.17958439633E+03  0.18465070438E+03  0.00000000000E+00 0. -1.
</event>
<event>
 7    1  0.7029100E-006  0.1188789E+03  0.7818608E-02  0.1388518E+00
          2   -1    0    0  502    0  0.00000000000E+00  0.00000000000E+00  0.24258003588E+03  0.24258003588E+03  0.00000000000E+00 0. -1.
          1   -1    0    0  501    0 -0.00000000000E+00 -0.00000000000E+00 -0.61320235545E+03  0.61320235545E+03  0.00000000000E+00 0. -1.
         25    2    1    2    0    0  0.79716247780E+02 -0.42930995666E+02  0.14405268608E+03  0.21112975248E+03  0.12500738164E+03 0.  0.
          2    1    1    2  501    0 -0.96846023999E+02  0.70696891212E+02 -0.56888424221E+03  0.58138325038E+03  0.00000000000E+00 0. -1.
          1    1    1    2  502    0  0.17129776219E+02 -0.27765895546E+02  0.54209236560E+02  0.63269388469E+02  0.00000000000E+00 0. -1.
         22    1    3    3    0    0  0.72254579472E+01 -0.46287059986E+02 -0.32102030956E+01  0.46957476174E+02  0.00000000000E+00 0.  1.
         22    1    3    3    0    0  0.72490789833E+02  0.33560643199E+01  0.14726288918E+03  0.16417227631E+03  0.00000000000E+00 0.  1.
</event>
<event>
 7    1  0.7029100E-006  0.6976941E+02  0.7818608E-02  0.1370946E+00
          2   -1    0    0  502    0  0.00000000000E+00  0.00000000000E+00  0.35952020079E+04  0.35952020079E+04  0.00000000000E+00 0. -1.
          1   -1    0    0  501    0 -0.00000000000E+00 -0.00000000000E+00 -0.20547608736E+03  0.20547608736E+03  0.00000000000E+00 0. -1.
         25    2    1    2    0    0  0.54351741871E+02  0.89827002873E+02  0.15096995389E+03  0.22235038671E+03  0.12499906080E+03 0.  0.
          2    1    1    2  501    0 -0.60792876505E+02 -0.20505076845E+02 -0.16335607455E+03  0.17550338772E+03  0.00000000000E+00 0. -1.
          1    1    1    2  502    0  0.64411346341E+01 -0.69321926028E+02  0.34021120412E+04  0.34028243208E+04  0.00000000000E+00 0. -1.
         22    1    3    3    0    0  0.93017614907E+02  0.64540385801E+02  0.83928750613E+02  0.14093180359E+03  0.00000000000E+00 0. -1.
         22    1    3    3    0    0 -0.38665873036E+02  0.25286617073E+02  0.67041203280E+02  0.81418583123E+02  0.00000000000E+00 0. -1.
</event>
<event>
 7    1  0.7029100E-006  0.5702575E+02  0.7818608E-02  0.1520322E+00
          2   -1    0    0  502    0  0.00000000000E+00  0.00000000000E+00  0.19330338052E+04  0.19330338052E+04  0.00000000000E+00 0. -1.
          1   -1    0    0  501    0 -0.00000000000E+00 -0.00000000000E+00 -0.46254817385E+03  0.46254817385E+03  0.00000000000E+00 0. -1.
         25    2    1    2    0    0 -0.77973667029E+02  0.23986312804E+02  0.19972977082E+03  0.24934428459E+03  0.12500141982E+03 0.  0.
          2    1    1    2  501    0  0.25764078728E+02 -0.22094714635E+01 -0.43689025814E+03  0.43765484936E+03  0.00000000000E+00 0. -1.
          1    1    1    2  502    0  0.52209588302E+02 -0.21776841340E+02  0.17076461187E+04  0.17085828451E+04  0.00000000000E+00 0. -1.
         22    1    3    3    0    0 -0.28234547896E+02  0.71708403956E+02  0.79275592811E+02  0.11056176784E+03  0.00000000000E+00 0. -1.
         22    1    3    3    0    0 -0.49739119133E+02 -0.47722091153E+02  0.12045417801E+03  0.13878251675E+03  0.00000000000E+00 0. -1.
</event>
<event>
 7    1  0.7029100E-006  0.7270089E+02  0.7818608E-02  0.1373939E+00
          2   -1    0    0  502    0  0.00000000000E+00  0.00000000000E+00  0.21598364070E+03  0.21598364070E+03  0.00000000000E+00 0. -1.
          1   -1    0    0  501    0 -0.00000000000E+00 -0.00000000000E+00 -0.11612906009E+04  0.11612906009E+04  0.00000000000E+00 0. -1.
         25    2    1    2    0    0 -0.95650053822E+01 -0.17887756560E+02 -0.48022397255E+03  0.49664008888E+03  0.12499941163E+03 0.  0.
          2    1    1    2  501    0  0.27661144438E+02 -0.53322168198E+02 -0.66496674140E+03  0.66767444140E+03  0.00000000000E+00 0. -1.
          1    1    1    2  502    0 -0.18096139056E+02  0.71209924758E+02  0.19988375375E+03  0.21295971132E+03  0.00000000000E+00 0. -1.
         22    1    3    3    0    0  0.19441461758E+02 -0.66337254505E+02 -0.23234238667E+03  0.24240789264E+03  0.00000000000E+00 0. -1.
         22    1    3    3    0    0 -0.29006467140E+02  0.48449497945E+02 -0.24788158588E+03  0.25423219624E+03  0.00000000000E+00 0. -1.
</event>
<event>
 7    1  0.7029100E-006  0.4061140E+02  0.7818608E-02  0.1577415E+00
          2   -1    0    0  502    0  0.00000000000E+00  0.00000000000E+00  0.85368885536E+02  0.85368885536E+02  0.00000000000E+00 0. -1.
          1   -1    0    0  501    0 -0.00000000000E+00 -0.00000000000E+00 -0.14760151435E+04  0.14760151435E+04  0.00000000000E+00 0. -1.
         25    2    1    2    0    0  0.20959026230E+02  0.30329114909E+02 -0.26808438490E+03  0.29808301018E+03  0.12500043016E+03 0.  0.
          2    1    1    2  501    0  0.18908016990E+01 -0.40828240168E+02 -0.11903229224E+04  0.11910244246E+04  0.00000000000E+00 0. -1.
          1    1    1    2  502    0 -0.22849827929E+02  0.10499125259E+02  0.67761049360E+02  0.72276594261E+02  0.00000000000E+00 0. -1.
         22    1    3    3    0    0 -0.52112783377E+01 -0.85714519666E+00 -0.25538029331E+03  0.25543489646E+03  0.00000000000E+00 0.  1.
         22    1    3    3    0    0  0.26170304567E+02  0.31186260105E+02 -0.12704091584E+02  0.42648113715E+02  0.00000000000E+00 0.  1.
</event>
<event>
 7    1  0.7029100E-006  0.9207146E+02  0.7818608E-02  0.1400336E+00
          2   -1    0    0  502    0  0.00000000000E+00  0.00000000000E+00  0.23284244869E+04  0.23284244869E+04  0.00000000000E+00 0. -1.
          1   -1    0    0  501    0 -0.00000000000E+00 -0.00000000000E+00 -0.18070965865E+03  0.18070965865E+03  0.00000000000E+00 0. -1.
         25    2    1    2    0    0 -0.49715616433E+02  0.99767274794E+02  0.49677041404E+03  0.52424240469E+03  0.12499641188E+03 0.  0.
          2    1    1    2  501    0  0.12426979949E+02 -0.90887840915E+02 -0.15415548691E+03  0.17938490349E+03  0.00000000000E+00 0. -1.
          1    1    1    2  502    0  0.37288636484E+02 -0.88794338789E+01  0.18050999011E+04  0.18055068373E+04  0.00000000000E+00 0. -1.
         22    1    3    3    0    0  0.28260700618E+01  0.88198647390E+02  0.42761016910E+03  0.43662048142E+03  0.00000000000E+00 0.  1.
         22    1    3    3    0    0 -0.52541686495E+02  0.11568627405E+02  0.69160244935E+02  0.87621923280E+02  0.00000000000E+00 0.  1.
</event>
<event>
 7    1  0.7029100E-006  0.5797343E+02  0.7818608E-02  0.1489929E+00
          2   -1    0    0  502    0  0.00000000000E+00  0.00000000000E+00  0.10423159100E+02  0.10423159100E+02  0.00000000000E+00 0. -1.
          1   -1    0    0  501    0 -0.00000000000E+00 -0.00000000000E+00 -0.25815222326E+04  0.25815222326E+04  0.00000000000E+00 0. -1.
         25    2    1    2    0    0 -0.80590052635E+02 -0.97153395496E+01 -0.75061792225E+03  0.76527316027E+03  0.12500640071E+03 0.  0.
          2    1    1    2  501    0  0.52032616112E+02  0.22523502100E+02 -0.17300363834E+04  0.17309652190E+04  0.00000000000E+00 0. -1.
          1    1    1    2  502    0  0.28557436523E+02 -0.12808162551E+02 -0.90444767838E+02  0.95707012480E+02  0.00000000000E+00 0. -1.
         22    1    3    3    0    0 -0.29082881296E+02  0.29113437385E+02 -0.60018941937E+03  0.60159849180E+03  0.00000000000E+00 0.  1.
         22    1    3    3    0    0 -0.51507171339E+02 -0.38828776935E+02 -0.15042850288E+03  0.16367466847E+03  0.00000000000E+00 0.  1.
</event>
<event>
 7    1  0.7029100E-006  0.4949479E+02  0.7818608E-02  0.1550705E+00
          2   -1    0    0  502    0  0.00000000000E+00  0.00000000000E+00  0.18245880745E+03  0.18245880745E+03  0.00000000000E+00 0. -1.
          1   -1    0    0  501    0 -0.00000000000E+00 -0.00000000000E+00 -0.17571562730E+03  0.17571562730E+03  0.00000000000E+00 0. -1.
         25    2    1    2    0    0  0.54255682508E+01 -0.29854305407E+02 -0.15202886249E+02  0.12952566351E+03  0.12500021366E+03 0.  0.
          2    1    1    2  501    0  0.58610667857E+01  0.51506806978E+02 -0.95515459632E+02  0.10867615331E+03  0.00000000000E+00 0. -1.
          1    1    1    2  502    0 -0.11286635036E+02 -0.21652501571E+02  0.11746152603E+03  0.11997261793E+03  0.00000000000E+00 0. -1.
         22    1    3    3    0    0  0.37633373307E+02 -0.20306428986E+02 -0.59908826192E+02  0.73604954319E+02  0.00000000000E+00 0. -1.
         22    1    3    3    0    0 -0.32207805056E+02 -0.95478764203E+01  0.44705939942E+02  0.55920709194E+02  0.00000000000E+00 0. -1.
</event>
<event>
 7    1  0.7029100E-006  0.3485730E+02  0.7818608E-02  0.1624513E+00
          2   -1    0    0  502    0  0.00000000000E+00  0.00000000000E+00  0.54298101577E+03  0.54298101577E+03  0.00000000000E+00 0. -1.
          1   -1    0    0  501    0 -0.00000000000E+00 -0.00000000000E+00 -0.87356472508E+02  0.87356472508E+02  0.00000000000E+00 0. -1.
         25    2    1    2    0    0 -0.41341972044E+02  0.63609142708E+01  0.13972807249E+03  0.19209089154E+03  0.12500142595E+03 0.  0.
          2    1    1    2  501    0  0.26453150277E+02 -0.22658644208E+02 -0.55863146541E+02  0.65832168872E+02  0.00000000000E+00 0. -1.
          1    1    1    2  502    0  0.14888821767E+02  0.16297729937E+02  0.37175961731E+03  0.37241442786E+03  0.00000000000E+00 0. -1.
         22    1    3    3    0    0 -0.81133868412E+02  0.75668369904E+01  0.12585746959E+03  0.14993353286E+03  0.00000000000E+00 0.  1.
         22    1    3    3    0    0  0.39791896368E+02 -0.12059227196E+01  0.13870602900E+02  0.42157358681E+02  0.00000000000E+00 0.  1.
</event>
<event>
 7    1  0.7029100E-006  0.1067712E+03  0.7818608E-02  0.1278135E+00
          2   -1    0    0  502    0  0.00000000000E+00  0.00000000000E+00  0.35477443189E+04  0.35477443189E+04  0.00000000000E+00 0. -1.
          1   -1    0    0  501    0 -0.00000000000E+00 -0.00000000000E+00 -0.35505892845E+03  0.35505892845E+03  0.00000000000E+00 0. -1.
         25    2    1    2    0    0 -0.32620470489E+02  0.41323692030E+02 -0.72310974222E+02  0.15374570491E+03  0.12504847927E+03 0.  0.
          2    1    1    2  501    0  0.12820153777E+03 -0.43520763305E+02 -0.22239082661E+03  0.26036007928E+03  0.00000000000E+00 0. -1.
          1    1    1    2  502    0 -0.95581067277E+02  0.21970712750E+01  0.34873871912E+04  0.34886974631E+04  0.00000000000E+00 0. -1.
         22    1    3    3    0    0 -0.63671829860E+02 -0.52580239619E+01 -0.73966908266E+02  0.97738693730E+02  0.00000000000E+00 0. -1.
         22    1    3    3    0    0  0.31051359371E+02  0.46581715992E+02  0.16559340441E+01  0.56007011178E+02  0.00000000000E+00 0. -1.
</event>
<event>
 7    1  0.7029100E-006  0.4947698E+02  0.7818608E-02  0.1493790E+00
          2   -1    0    0  502    0  0.00000000000E+00  0.00000000000E+00  0.88703509381E+03  0.88703509381E+03  0.00000000000E+00 0. -1.
          1   -1    0    0  501    0 -0.00000000000E+00 -0.00000000000E+00 -0.53643933924E+03  0.53643933924E+03  0.00000000000E+00 0. -1.
         25    2    1    2    0    0 -0.84265042082E+02  0.10585412469E+02 -0.94258766174E+02  0.17810698634E+03  0.12499894123E+03 0.  0.
          2    1    1    2  501    0  0.35182251499E+02 -0.60709689124E+01 -0.39873951363E+03  0.40033466902E+03  0.00000000000E+00 0. -1.
          1    1    1    2  502    0  0.49082790583E+02 -0.45144435566E+01  0.84359403438E+03  0.84503277769E+03  0.00000000000E+00 0. -1.
         22    1    3    3    0    0 -0.51247891656E+02  0.42742626987E+02  0.67565408898E+01  0.67074059111E+02  0.00000000000E+00 0. -1.
         22    1    3    3    0    0 -0.33017150426E+02 -0.32157214518E+02 -0.10101530706E+03  0.11103292723E+03  0.00000000000E+00 0. -1.
</event>
<event>
 7    1  0.7029100E-006  0.2159507E+03  0.7818608E-02  0.1232323E+00
          2   -1    0    0  502    0  0.00000000000E+00  0.00000000000E+00  0.25517830786E+04  0.25517830786E+04  0.00000000000E+00 0. -1.
          1   -1    0    0  501    0 -0.00000000000E+00 -0.00000000000E+00 -0.35617175477E+03  0.35617175477E+03  0.00000000000E+00 0. -1.
         25    2    1    2    0    0 -0.41965384623E+02  0.19051609363E+03  0.21423030866E+03  0.31555800262E+03  0.12499900972E+03 0.  0.
          2    1    1    2  501    0  0.11632263880E+03 -0.18740431439E+03 -0.26499936555E+03  0.34478398613E+03  0.00000000000E+00 0. -1.
          1    1    1    2  502    0 -0.74357254178E+02 -0.31117792413E+01  0.22463803807E+04  0.22476128446E+04  0.00000000000E+00 0. -1.
         22    1    3    3    0    0  0.94503472565E+01  0.37318056309E+02  0.12535844885E+03  0.13113613952E+03  0.00000000000E+00 0. -1.
         22    1    3    3    0    0 -0.51415731879E+02  0.15319803732E+03  0.88871859813E+02  0.18442186310E+03  0.00000000000E+00 0. -1.
</event>
<event>
 7    1  0.7029100E-006  0.8912445E+02  0.7818608E-02  0.1465954E+00
          2   -1    0    0  502    0  0.00000000000E+00  0.00000000000E+00  0.19243622629E+04  0.19243622629E+04  0.00000000000E+00 0. -1.
          1   -1    0    0  501    0 -0.00000000000E+00 -0.00000000000E+00 -0.61880958440E+02  0.61880958440E+02  0.00000000000E+00 0. -1.
         25    2    1    2    0    0 -0.66552166883E+02 -0.60267134155E+02  0.75058189867E+02  0.17123051695E+03  0.12499935877E+03 0.  0.
          2    1    1    2  501    0  0.18836457627E+02 -0.15077369477E+02 -0.12097311155E+01  0.24157869435E+02  0.00000000000E+00 0. -1.
          1    1    1    2  502    0  0.47715709257E+02  0.75344503632E+02  0.17886328457E+04  0.17908548349E+04  0.00000000000E+00 0. -1.
         22    1    3    3    0    0 -0.16269931045E+02  0.14595526217E+01  0.88928792158E+02  0.90416652364E+02  0.00000000000E+00 0. -1.
         22    1    3    3    0    0 -0.50282235838E+02 -0.61726686777E+02 -0.13870602291E+02  0.80813864585E+02  0.00000000000E+00 0. -1.
</event>
<event>
 7    1  0.7029100E-006  0.7068702E+02  0.7818608E-02  0.1489675E+00
          2   -1    0    0  502    0  0.00000000000E+00  0.00000000000E+00  0.16963211004E+04  0.16963211004E+04  0.00000000000E+00 0. -1.
          1   -1    0    0  501    0 -0.00000000000E+00 -0.00000000000E+00 -0.18515228004E+02  0.18515228004E+02  0.00000000000E+00 0. -1.
         25    2    1    2    0    0 -0.56692242763E+02 -0.51880539605E+02  0.76165471783E+03  0.77565793389E+03  0.12498688111E+03 0.  0.
          2    1    1    2  501    0  0.33089822042E+02  0.62086559426E+02  0.98082263132E+02  0.12070545773E+03  0.00000000000E+00 0. -1.
          1    1    1    2  502    0  0.23602420721E+02 -0.10206019822E+02  0.81806889145E+03  0.81847293680E+03  0.00000000000E+00 0. -1.
         22    1    3    3    0    0 -0.96665126618E+02 -0.42143466775E+02  0.53306227356E+03  0.54339268120E+03  0.00000000000E+00 0.  1.
         22    1    3    3    0    0  0.39972883855E+02 -0.97370728297E+01  0.22859244427E+03  0.23226525269E+03  0.00000000000E+00 0.  1.
</event>
<event>
 7    1  0.7029100E-006  0.6917835E+02  0.7818608E-02  0.1418741E+00
          2   -1    0    0  502    0  0.00000000000E+00  0.00000000000E+00  0.15422553343E+04  0.15422553343E+04  0.00000000000E+00 0. -1.
          1   -1    0    0  501    0 -0.00000000000E+00 -0.00000000000E+00 -0.43030156216E+03  0.43030156216E+03  0.00000000000E+00 0. -1.
         25    2    1    2    0    0 -0.32729644558E+01  0.98150302243E+02  0.22580677908E+02  0.16055927444E+03  0.12500079787E+03 0.  0.
          2    1    1    2  501    0 -0.24578403343E+02 -0.63845992608E+02 -0.35773352974E+03  0.36421653860E+03  0.00000000000E+00 0. -1.
          1    1    1    2  502    0  0.27851367798E+02 -0.34304309636E+02  0.14471066239E+04  0.14477810834E+04  0.00000000000E+00 0. -1.
         22    1    3    3    0    0  0.47760751843E+02  0.70517790225E+02 -0.21312032843E+02  0.87795506142E+02  0.00000000000E+00 0. -1.
         22    1    3    3    0    0 -0.51033716299E+02  0.27632512018E+02  0.43892710752E+02  0.72763768298E+02  0.00000000000E+00 0. -1.
</event>
<event>
 7    1  0.7029100E-006  0.9148633E+02  0.7818608E-02  0.1364609E+00
          2   -1    0    0  502    0  0.00000000000E+00  0.00000000000E+00  0.53449761917E+03  0.53449761917E+03  0.00000000000E+00 0. -1.
          1   -1    0    0  501    0 -0.00000000000E+00 -0.00000000000E+00 -0.14879206189E+04  0.14879206189E+04  0.00000000000E+00 0. -1.
         25    2    1    2    0    0 -0.48765829629E+02  0.16133684404E+02 -0.21697483228E+03  0.25561982001E+03  0.12500005052E+03 0.  0.
          2    1    1    2  501    0  0.95435844410E+02  0.58125774631E+01 -0.12485001278E+04  0.12521558831E+04  0.00000000000E+00 0. -1.
          1    1    1    2  502    0 -0.46670014781E+02 -0.21946261867E+02  0.51205196035E+03  0.51464253495E+03  0.00000000000E+00 0. -1.
         22    1    3    3    0    0 -0.44378015942E+02 -0.42130015084E+02 -0.50989525860E+02  0.79650977504E+02  0.00000000000E+00 0.  1.
         22    1    3    3    0    0 -0.43878136869E+01  0.58263699488E+02 -0.16598530642E+03  0.17596884251E+03  0.00000000000E+00 0.  1.
</event>
<event>
 7    1  0.7029100E-006  0.4898326E+02  0.7818608E-02  0.1538024E+00
          2   -1    0    0  502    0  0.00000000000E+00  0.00000000000E+00  0.77110121381E+03  0.77110121381E+03  0.00000000000E+00 0. -1.
          1   -1    0    0  501    0 -0.00000000000E+00 -0.00000000000E+00 -0.16198844759E+04  0.16198844759E+04  0.00000000000E+00 0. -1.
         25    2    1    2    0    0  0.72445506204E+02  0.20574566750E+02  0.49991878989E+02  0.15425883370E+03  0.12499974258E+03 0.  0.
          2    1    1    2  501    0 -0.25924594703E+02 -0.67251470722E+01 -0.15667559471E+04  0.15669848468E+04  0.00000000000E+00 0. -1.
          1    1    1    2  502    0 -0.46520911501E+02 -0.13849419677E+02  0.66798080606E+03  0.66974200921E+03  0.00000000000E+00 0. -1.
         22    1    3    3    0    0 -0.25914683626E+02 -0.17762535671E+02  0.35978664512E+02  0.47765498019E+02  0.00000000000E+00 0. -1.
         22    1    3    3    0    0  0.98360189830E+02  0.38337102421E+02  0.14013214477E+02  0.10649333569E+03  0.00000000000E+00 0. -1.
</event>
<event>
 7    1  0.7029100E-006  0.2219790E+03  0.7818608E-02  0.1366082E+00
          2   -1    0    0  502    0  0.00000000000E+00  0.00000000000E+00  0.29131685256E+04  0.29131685256E+04  0.00000000000E+00 0. -1.
          1   -1    0    0  501    0 -0.00000000000E+00 -0.00000000000E+00 -0.85828481567E+02  0.85828481567E+02  0.00000000000E+00 0. -1.
         25    2    1    2    0    0  0.22520297155E+03 -0.80236524689E+02  0.26739571884E+04  0.26875306667E+04  0.12497904093E+03 0.  0.
          2    1    1    2  501    0 -0.21139081815E+03  0.64423898106E+02  0.79815714163E+02  0.23496183705E+03  0.00000000000E+00 0. -1.
          1    1    1    2  502    0 -0.13812153402E+02  0.15812626584E+02  0.73567141467E+02  0.76504503427E+02  0.00000000000E+00 0. -1.
         22    1    3    3    0    0  0.23173222054E+03 -0.95008826128E+02  0.25862661417E+04  0.25983646885E+04  0.00000000000E+00 0.  1.
         22    1    3    3    0    0 -0.65292489914E+01  0.14772301439E+02  0.87691046693E+02  0.89165978109E+02  0.00000000000E+00 0.  1.
</event>
<event>
 7    1  0.7029100E-006  0.9092944E+02  0.7818608E-02  0.1362353E+00
          2   -1    0    0  502    0  0.00000000000E+00  0.00000000000E+00  0.11166007658E+04  0.11166007658E+04  0.00000000000E+00 0. -1.
          1   -1    0    0  501    0 -0.00000000000E+00 -0.00000000000E+00 -0.28921315063E+03  0.28921315063E+03  0.00000000000E+00 0. -1.
         25    2    1    2    0    0  0.10646444820E+03 -0.81281126940E+02 -0.22280084072E+03  0.28845617821E+03  0.12500180717E+03 0.  0.
          2    1    1    2  501    0 -0.22148114366E+02  0.48013851904E+02 -0.95657238769E+01  0.53734272284E+02  0.00000000000E+00 0. -1.
          1    1    1    2  502    0 -0.84316333832E+02  0.33267275036E+02  0.10597541798E+04  0.10636234660E+04  0.00000000000E+00 0. -1.
         22    1    3    3    0    0  0.13338752438E+03 -0.58276536223E+02 -0.15960189332E+03  0.21601192255E+03  0.00000000000E+00 0. -1.
         22    1    3    3    0    0 -0.26923076184E+02 -0.23004590717E+02 -0.63198947400E+02  0.72444255657E+02  0.00000000000E+00 0. -1.
</event>
<event>
 7    1  0.7029100E-006  0.5983840E+02  0.7818608E-02  0.1453260E+00
          2   -1    0    0  502    0  0.00000000000E+00  0.00000000000E+00  0.13031537418E+04  0.13031537418E+04  0.00000000000E+00 0. -1.
          1   -1    0    0  501    0 -0.00000000000E+00 -0.00000000000E+00 -0.32345266707E+03  0.32345266707E+03  0.00000000000E+00 0. -1.
         25    2    1    2    0    0 -0.30264077448E+02 -0.19916972793E+02  0.10270483722E+03  0.16577860782E+03  0.12498665141E+03 0.  0.
          2    1    1    2  501    0 -0.30106802360E+02  0.25429774864E+02 -0.28979520775E+03  0.29246257099E+03  0.00000000000E+00 0. -1.
          1    1    1    2  502    0  0.60370879808E+02 -0.55128020711E+01  0.11667914452E+04  0.11683652300E+04  0.00000000000E+00 0. -1.
         22    1    3    3    0    0 -0.77749981343E+01  0.24435327575E+02 -0.20556004796E+02  0.32864649137E+02  0.00000000000E+00 0. -1.
         22    1    3    3    0    0 -0.22489079314E+02 -0.44352300368E+02  0.12326084202E+03  0.13291395868E+03  0.00000000000E+00 0. -1.
</event>
<event>
 7    1  0.7029100E-006  0.4745403E+02  0.7818608E-02  0.1486659E+00
          2   -1    0    0  502    0  0.00000000000E+00  0.00000000000E+00  0.12723659301E+03  0.12723659301E+03  0.00000000000E+00 0. -1.
          1   -1    0    0  501    0 -0.00000000000E+00 -0.00000000000E+00 -0.10720595325E+04  0.10720595325E+04  0.00000000000E+00 0. -1.
         25    2    1    2    0    0  0.35633399140E+02  0.42085504269E+01 -0.38165415913E+03  0.40319229698E+03  0.12496671610E+03 0.  0.
          2    1    1    2  501    0 -0.28969126252E+01 -0.39011926020E+02 -0.67414489603E+03  0.67527895222E+03  0.00000000000E+00 0. -1.
          1    1    1    2  502    0 -0.32736486515E+02  0.34803375593E+02  0.11097611563E+03  0.12082487634E+03  0.00000000000E+00 0. -1.
         22    1    3    3    0    0  0.11689182118E+02 -0.60164677514E+02 -0.17474176198E+03  0.18517858618E+03  0.00000000000E+00 0.  1.
         22    1    3    3    0    0  0.23944217022E+02  0.64373227941E+02 -0.20691239715E+03  0.21801371081E+03  0.00000000000E+00 0.  1.
</event>
<event>
 7    1  0.7029100E-006  0.1206381E+03  0.7818608E-02  0.1245623E+00
          2   -1    0    0  502    0  0.00000000000E+00  0.00000000000E+00  0.10358759131E+04  0.10358759131E+04  0.00000000000E+00 0. -1.
          1   -1    0    0  501    0 -0.00000000000E+00 -0.00000000000E+00 -0.28102087964E+03  0.28102087964E+03  0.00000000000E+00 0. -1.
         25    2    1    2    0    0 -0.60149870611E+02  0.32224234665E+02  0.14937212948E+03  0.20638302101E+03  0.12500204022E+03 0.  0.
          2    1    1    2  501    0  0.68478836948E+02  0.99318669978E+02 -0.23265652444E+03  0.26207366842E+03  0.00000000000E+00 0. -1.
          1    1    1    2  502    0 -0.83289663372E+01 -0.13154290464E+03  0.83813942837E+03  0.84844010327E+03  0.00000000000E+00 0. -1.
         22    1    3    3    0    0 -0.77259358650E+01 -0.37188149684E+02  0.98604901110E+02  0.10566728484E+03  0.00000000000E+00 0. -1.
         22    1    3    3    0    0 -0.52423934746E+02  0.69412384349E+02  0.50767228375E+02  0.10071573617E+03  0.00000000000E+00 0. -1.
</event>
<event>
 7    1  0.7029100E-006  0.6363764E+02  0.7818608E-02  0.1426825E+00
          2   -1    0    0  502    0  0.00000000000E+00  0.00000000000E+00  0.12805400221E+04  0.12805400221E+04  0.00000000000E+00 0. -1.
          1   -1    0    0  501    0 -0.00000000000E+00 -0.00000000000E+00 -0.24216994476E+02  0.24216994476E+02  0.00000000000E+00 0. -1.
         25    2    1    2    0    0 -0.27813911591E+02 -0.12891482930E+00  0.29573603891E+03  0.32227106541E+03  0.12500081838E+03 0.  0.
          2    1    1    2  501    0 -0.30978242868E+02  0.32846101130E+02  0.42723000780E+02  0.62159252620E+02  0.00000000000E+00 0. -1.
          1    1    1    2  502    0  0.58792154459E+02 -0.32717186301E+02  0.91786398794E+03  0.92032669855E+03  0.00000000000E+00 0. -1.
         22    1    3    3    0    0 -0.73380189544E+02 -0.17922729173E+02  0.14061422722E+03  0.15961903814E+03  0.00000000000E+00 0. -1.
         22    1    3    3    0    0  0.45566277953E+02  0.17793814343E+02  0.15512181169E+03  0.16265202727E+03  0.00000000000E+00 0. -1.
</event>
<event>
 7    1  0.7029100E-006  0.9581088E+02  0.7818608E-02  0.1370096E+00
          2   -1    0    0  502    0  0.00000000000E+00  0.00000000000E+00  0.26064608435E+04  0.26064608435E+04  0.00000000000E+00 0. -1.
          1   -1    0    0  501    0 -0.00000000000E+00 -0.00000000000E+00 -0.50895651377E+03  0.50895651377E+03  0.00000000000E+00 0. -1.
         25    2    1    2    0    0  0.97163407523E+02 -0.22507260440E+02  0.95123779381E+03  0.96458603300E+03  0.12500228060E+03 0.  0.
          2    1    1    2  501    0 -0.23606702900E+02 -0.40698615120E+02 -0.49975015938E+03  0.50196003376E+03  0.00000000000E+00 0. -1.
          1    1    1    2  502    0 -0.73556704623E+02  0.63205875560E+02  0.16460166952E+04  0.16488712905E+04  0.00000000000E+00 0. -1.
         22    1    3    3    0    0  0.97169641579E+02  0.33719878332E+02  0.56651984071E+03  0.57578094737E+03  0.00000000000E+00 0.  1.
         22    1    3    3    0    0 -0.62340563383E-02 -0.56227138772E+02  0.38471795310E+03  0.38880508563E+03  0.00000000000E+00 0.  1.
</event>
<event>
 7    1  0.1002471E-005  0.6339048E+02  0.7818608E-02  0.1394376E+00
          2   -1    0    0  502    0  0.00000000000E+00  0.00000000000E+00  0.58860891359E+03  0.58860891359E+03  0.00000000000E+00 0. -1.
          1   -1    0    0  501    0 -0.00000000000E+00 -0.00000000000E+00 -0.13086753771E+04  0.13086753771E+04  0.00000000000E+00 0. -1.
         25    2    1    2    0    0 -0.54389762111E+02 -0.69670634588E+02 -0.37942639048E+03  0.40914736646E+03  0.12499975256E+03 0.  0.
          2    1    1    2  501    0 -0.78730037504E+01  0.57842000656E+02 -0.91170203029E+03  0.91356897565E+03  0.00000000000E+00 0. -1.
          1    1    1    2  502    0  0.62262765861E+02  0.11828633932E+02  0.57106195722E+03  0.57456794862E+03  0.00000000000E+00 0. -1.
         22    1    3    3    0    0 -0.17315896044E+01 -0.45661156062E+02 -0.29324309277E+02  0.54294149685E+02  0.00000000000E+00 0.  1.
         22    1    3    3    0    0 -0.52658172506E+02 -0.24009478526E+02 -0.35010208120E+03  0.35485321677E+03  0.00000000000E+00 0.  1.
</event>
<event>
 7    1  0.7029100E-006  0.3141265E+02  0.7818608E-02  0.1641717E+00
          2   -1    0    0  502    0  0.00000000000E+00  0.00000000000E+00  0.20658665335E+04  0.20658665335E+04  0.00000000000E+00 0. -1.
          1   -1    0    0  501    0 -0.00000000000E+00 -0.00000000000E+00 -0.10018863876E+03  0.10018863876E+03  0.00000000000E+00 0. -1.
         25    2    1    2    0    0 -0.22291710448E+02 -0.34221003979E+02  0.15663572391E+03  0.20451406215E+03  0.12499301638E+03 0.  0.
          2    1    1    2  501    0 -0.63067463018E+01  0.21265923371E+02 -0.74502701348E+02  0.77734593675E+02  0.00000000000E+00 0. -1.
          1    1    1    2  502    0  0.28598456749E+02  0.12955080608E+02  0.18835448721E+04  0.18838065164E+04  0.00000000000E+00 0. -1.
         22    1    3    3    0    0  0.12563417424E+02  0.22036266020E+02 -0.83862473666E+01  0.26716392391E+02  0.00000000000E+00 0.  1.
         22    1    3    3    0    0 -0.34855127871E+02 -0.56257269999E+02  0.16502197128E+03  0.17779766976E+03  0.00000000000E+00 0.  1.
</event>
<event>
 7    1  0.7029100E-006  0.5555500E+02  0.7818608E-02  0.1427061E+00
          2   -1    0    0  502    0  0.00000000000E+00  0.00000000000E+00  0.79300325151E+03  0.79300325151E+03  0.00000000000E+00 0. -1.
          1   -1    0    0  501    0 -0.00000000000E+00 -0.00000000000E+00 -0.96477024519E+03  0.96477024519E+03  0.00000000000E+00 0. -1.
         25    2    1    2    0    0 -0.38889614099E+02  0.61721245636E+02  0.37234072895E+03  0.39947952425E+03  0.12499743042E+03 0.  0.
          2    1    1    2  501    0  0.51094007903E+02 -0.73922649826E+01 -0.94859155625E+03  0.94999535989E+03  0.00000000000E+00 0. -1.
          1    1    1    2  502    0 -0.12204393804E+02 -0.54328980654E+02  0.40448383361E+03  0.40829861256E+03  0.00000000000E+00 0. -1.
         22    1    3    3    0    0 -0.34596539550E+02 -0.27569473175E+02  0.59664748831E+02  0.74275693555E+02  0.00000000000E+00 0.  1.
         22    1    3    3    0    0 -0.42930745484E+01  0.89290718811E+02  0.31267598012E+03  0.32520383070E+03  0.00000000000E+00 0.  1.
</event>
<event>
 7    1  0.7029100E-006  0.9964303E+02  0.7818608E-02  0.1285844E+00
          2   -1    0    0  502    0  0.00000000000E+00  0.00000000000E+00  0.71644175814E+03  0.71644175814E+03  0.00000000000E+00 0. -1.
          1   -1    0    0  501    0 -0.00000000000E+00 -0.00000000000E+00 -0.92917938658E+03  0.92917938658E+03  0.00000000000E+00 0. -1.
         25    2    1    2    0    0  0.19019814342E+02  0.10905671014E+02 -0.43944396066E+03  0.45740115648E+03  0.12499654552E+03 0.  0.
          2    1    1    2  501    0  0.57435917530E+02 -0.75949444871E+02 -0.47242159820E+03  0.48192257598E+03  0.00000000000E+00 0. -1.
          1    1    1    2  502    0 -0.76455731872E+02  0.65043773857E+02  0.69912793042E+03  0.70629741225E+03  0.00000000000E+00 0. -1.
         22    1    3    3    0    0  0.15506291727E+02  0.65324044295E+02 -0.30533126995E+03  0.31262575111E+03  0.00000000000E+00 0.  1.
         22    1    3    3    0    0  0.35135226149E+01 -0.54418373282E+02 -0.13411269071E+03  0.14477540538E+03  0.00000000000E+00 0.  1.
</event>
<event>
 7    1  0.7029100E-006  0.4186065E+02  0.7818608E-02  0.1527802E+00
          2   -1    0    0  502    0  0.00000000000E+00  0.00000000000E+00  0.41322196710E+03  0.41322196710E+03  0.00000000000E+00 0. -1.
          1   -1    0    0  501    0 -0.00000000000E+00 -0.00000000000E+00 -0.33271324115E+03  0.33271324115E+03  0.00000000000E+00 0. -1.
         25    2    1    2    0    0 -0.41639507690E+01  0.13978689270E+02 -0.16457421827E+03  0.20717582277E+03  0.12499762390E+03 0.  0.
          2    1    1    2  501    0  0.28097469990E+02 -0.37443435095E+02 -0.14236510913E+03  0.14986428177E+03  0.00000000000E+00 0. -1.
          1    1    1    2  502    0 -0.23933519221E+02  0.23464745825E+02  0.38744805335E+03  0.38889510371E+03  0.00000000000E+00 0. -1.
         22    1    3    3    0    0  0.50603618763E+02 -0.12324496310E+02 -0.12295582816E+03  0.13353185059E+03  0.00000000000E+00 0. -1.
         22    1    3    3    0    0 -0.54767569532E+02  0.26303185580E+02 -0.41618390110E+02  0.73643972187E+02  0.00000000000E+00 0. -1.
</event>
<event>
 7    1  0.7029100E-006  0.1551970E+03  0.7818608E-02  0.1385869E+00
          2   -1    0    0  502    0  0.00000000000E+00  0.00000000000E+00  0.31349360399E+04  0.31349360399E+04  0.00000000000E+00 0. -1.
          1   -1    0    0  501    0 -0.00000000000E+00 -0.00000000000E+00 -0.49413329239E+02  0.49413329239E+02  0.00000000000E+00 0. -1.
         25    2    1    2    0    0  0.11498787257E+03  0.13158506825E+03  0.11701914391E+04  0.11897517574E+04  0.12499759629E+03 0.  0.
          2    1    1    2  501    0 -0.91042403017E+02 -0.12273053183E+03  0.10809055248E+03  0.18717657472E+03  0.00000000000E+00 0. -1.
          1    1    1    2  502    0 -0.23945469555E+02 -0.88545364267E+01  0.18072407191E+04  0.18074210371E+04  0.00000000000E+00 0. -1.
         22    1    3    3    0    0  0.80314075853E+02  0.47828392645E+02  0.89821961433E+03  0.90307052963E+03  0.00000000000E+00 0. -1.
         22    1    3    3    0    0  0.34673796718E+02  0.83756675607E+02  0.27197182474E+03  0.28668122774E+03  0.00000000000E+00 0. -1.
</event>
<event>
 7    1  0.7029100E-006  0.4930480E+02  0.7818608E-02  0.1482118E+00
          2   -1    0    0  502    0  0.00000000000E+00  0.00000000000E+00  0.87746626632E+03  0.87746626632E+03  0.00000000000E+00 0. -1.
          1   -1    0    0  501    0 -0.00000000000E+00 -0.00000000000E+00 -0.84740393128E+02  0.84740393128E+02  0.00000000000E+00 0. -1.
         25    2    1    2    0    0 -0.46003143815E+01 -0.29784204561E+02  0.10448804342E+03  0.16572951659E+03  0.12506102397E+03 0.  0.
          2    1    1    2  501    0 -0.38624689315E+02  0.43653284657E+01 -0.46173108917E+02  0.60356264831E+02  0.00000000000E+00 0. -1.
          1    1    1    2  502    0  0.43225003697E+02  0.25418876096E+02  0.73441093868E+03  0.73612087802E+03  0.00000000000E+00 0. -1.
         22    1    3    3    0    0  0.56737771068E+02 -0.64815418196E+01  0.73739411094E+02  0.93266745406E+02  0.00000000000E+00 0.  1.
         22    1    3    3    0    0 -0.61338085450E+02 -0.23302662742E+02  0.30748632328E+02  0.72462771183E+02  0.00000000000E+00 0.  1.
</event>
<event>
 7    1  0.7029100E-006  0.1066021E+03  0.7818608E-02  0.1367299E+00
          2   -1    0    0  502    0  0.00000000000E+00  0.00000000000E+00  0.12967112966E+03  0.12967112966E+03  0.00000000000E+00 0. -1.
          1   -1    0    0  501    0 -0.00000000000E+00 -0.00000000000E+00 -0.14384302866E+04  0.14384302866E+04  0.00000000000E+00 0. -1.
         25    2    1    2    0    0  0.42027939936E+02  0.11943243706E+03 -0.13990234867E+03  0.22632133165E+03  0.12497289002E+03 0.  0.
          2    1    1    2  501    0 -0.65596804974E+02 -0.83133960370E+02 -0.12475150120E+04  0.12520015581E+04  0.00000000000E+00 0. -1.
          1    1    1    2  502    0  0.23568865038E+02 -0.36298476694E+02  0.78658203753E+02  0.89778526537E+02  0.00000000000E+00 0. -1.
         22    1    3    3    0    0  0.84670206910E+02  0.77817601327E+02 -0.70659346614E+02  0.13497172400E+03  0.00000000000E+00 0.  1.
         22    1    3    3    0    0 -0.42642266974E+02  0.41614835736E+02 -0.69243002053E+02  0.91349607659E+02  0.00000000000E+00 0.  1.
</event>
<event>
 7    1  0.7029100E-006  0.4171996E+02  0.7818608E-02  0.1520264E+00
          2   -1    0    0  502    0  0.00000000000E+00  0.00000000000E+00  0.12588082015E+04  0.12588082015E+04  0.00000000000E+00 0. -1.
          1   -1    0    0  501    0 -0.00000000000E+00 -0.00000000000E+00 -0.37350927071E+03  0.37350927071E+03  0.00000000000E+00 0. -1.
         25    2    1    2    0    0 -0.49938521771E+02 -0.18011181194E+02  0.16310767886E+03  0.21224625090E+03  0.12500438998E+03 0.  0.
          2    1    1    2  501    0  0.38737107830E+02 -0.15526913305E+02 -0.34739897268E+03  0.34989669158E+03  0.00000000000E+00 0. -1.
          1    1    1    2  502    0  0.11201413941E+02  0.33538094499E+02  0.10695902246E+04  0.10701745297E+04  0.00000000000E+00 0. -1.
         22    1    3    3    0    0 -0.31599647280E+02 -0.12544936036E+02  0.18212279377E+03  0.18526906148E+03  0.00000000000E+00 0.  1.
         22    1    3    3    0    0 -0.18338874490E+02 -0.54662451586E+01 -0.19015114919E+02  0.26977189421E+02  0.00000000000E+00 0.  1.
</event>
<event>
 7    1  0.7029100E-006  0.6925279E+02  0.7818608E-02  0.1411776E+00
          2   -1    0    0  502    0  0.00000000000E+00  0.00000000000E+00  0.48109032447E+03  0.48109032447E+03  0.00000000000E+00 0. -1.
          1   -1    0    0  501    0 -0.00000000000E+00 -0.00000000000E+00 -0.17302020104E+04  0.17302020104E+04  0.00000000000E+00 0. -1.
         25    2    1    2    0    0 -0.47925182704E+02 -0.10106990769E+03 -0.18963902674E+03  0.25317867489E+03  0.12499812630E+03 0.  0.
          2    1    1    2  501    0  0.40272479555E+02  0.55117458706E+02 -0.15068108665E+04  0.15083563220E+04  0.00000000000E+00 0. -1.
          1    1    1    2  502    0  0.76527031487E+01  0.45952448982E+02  0.44733820724E+03  0.44975733800E+03  0.00000000000E+00 0. -1.
         22    1    3    3    0    0 -0.47598742576E+02  0.15928093431E+02 -0.66555770490E+02  0.83360752399E+02  0.00000000000E+00 0.  1.
         22    1    3    3    0    0 -0.32644012796E+00 -0.11699800112E+03 -0.12308325625E+03  0.16981792249E+03  0.00000000000E+00 0.  1.
</event>
<event>
 7    1  0.7029100E-006  0.3036632E+03  0.7818608E-02  0.1271965E+00
          2   -1    0    0  502    0  0.00000000000E+00  0.00000000000E+00  0.10251117500E+04  0.10251117500E+04  0.00000000000E+00 0. -1.
          1   -1    0    0  501    0 -0.00000000000E+00 -0.00000000000E+00 -0.42379750164E+03  0.42379750164E+03  0.00000000000E+00 0. -1.
         25    2    1    2    0    0 -0.21649300764E+03  0.16694593871E+03 -0.28070466946E+03  0.41129075396E+03  0.12499921613E+03 0.  0.
          2    1    1    2  501    0 -0.34937765241E+02  0.71688349974E+01 -0.47317023025E+02  0.59253188127E+02  0.00000000000E+00 0. -1.
          1    1    1    2  502    0  0.25143077288E+03 -0.17411477371E+03  0.92933594082E+03  0.97836530952E+03  0.00000000000E+00 0. -1.
         22    1    3    3    0    0 -0.15529694719E+03  0.91603701092E+02 -0.25240002153E+03  0.31018405944E+03  0.00000000000E+00 0.  1.
         22    1    3    3    0    0 -0.61196060448E+02  0.75342237616E+02 -0.28304647923E+02  0.10110669452E+03  0.00000000000E+00 0.  1.
</event>
<event>
 7    1  0.7029100E-006  0.7833625E+02  0.7818608E-02  0.1370007E+00
          2   -1    0    0  502    0  0.00000000000E+00  0.00000000000E+00  0.20219278530E+03  0.20219278530E+03  0.00000000000E+00 0. -1.
          1   -1    0    0  501    0 -0.00000000000E+00 -0.00000000000E+00 -0.81419283023E+03  0.81419283023E+03  0.00000000000E+00 0. -1.
         25    2    1    2    0    0 -0.10654790046E+03 -0.45135868004E+02 -0.20488360528E+02  0.17156577454E+03  0.12500136160E+03 0.  0.
          2    1    1    2  501    0  0.77477705354E+02 -0.45752071721E+01 -0.70939206553E+03  0.71362513267E+03  0.00000000000E+00 0. -1.
          1    1    1    2  502    0  0.29070195106E+02  0.49711075176E+02  0.11788038113E+03  0.13119470833E+03  0.00000000000E+00 0. -1.
         22    1    3    3    0    0 -0.73191340889E+02  0.12895676101E+01  0.43983109152E+02  0.85399937099E+02  0.00000000000E+00 0. -1.
         22    1    3    3    0    0 -0.33356559571E+02 -0.46425435614E+02 -0.64471469680E+02  0.86165837436E+02  0.00000000000E+00 0. -1.
</event>
<event>
 7    1  0.7029100E-006  0.6862942E+02  0.7818608E-02  0.1453053E+00
          2   -1    0    0  502    0  0.00000000000E+00  0.00000000000E+00  0.63515886318E+03  0.63515886318E+03  0.00000000000E+00 0. -1.
          1   -1    0    0  501    0 -0.00000000000E+00 -0.00000000000E+00 -0.28666255174E+03  0.28666255174E+03  0.00000000000E+00 0. -1.
         25    2    1    2    0    0 -0.86278780063E+02  0.23491969447E+02 -0.13029183195E+03  0.20148685807E+03  0.12500036794E+03 0.  0.
          2    1    1    2  501    0  0.30427654709E+02  0.16076117193E+02 -0.11631961241E+03  0.12130348695E+03  0.00000000000E+00 0. -1.
          1    1    1    2  502    0  0.55851125354E+02 -0.39568086640E+02  0.59510775580E+03  0.59903106990E+03  0.00000000000E+00 0. -1.
         22    1    3    3    0    0 -0.21218759594E+02 -0.42055969178E+02 -0.88203883535E+02  0.99994326704E+02  0.00000000000E+00 0. -1.
         22    1    3    3    0    0 -0.65060020469E+02  0.65547938625E+02 -0.42087948416E+02  0.10149253137E+03  0.00000000000E+00 0. -1.
</event>
<event>
 7    1  0.7029100E-006  0.7601240E+02  0.7818608E-02  0.1345373E+00
          2   -1    0    0  502    0  0.00000000000E+00  0.00000000000E+00  0.30717086196E+03  0.30717086196E+03  0.00000000000E+00 0. -1.
          1   -1    0    0  501    0 -0.00000000000E+00 -0.00000000000E+00 -0.12474435388E+04  0.12474435388E+04  0.00000000000E+00 0. -1.
         25    2    1    2    0    0  0.11889138726E+02 -0.28900952212E+01 -0.31283152212E+03  0.33710308908E+03  0.12500090866E+03 0.  0.
          2    1    1    2  501    0  0.16455649918E+01 -0.73032927871E+02 -0.91595738833E+03  0.91886585184E+03  0.00000000000E+00 0. -1.
          1    1    1    2  502    0 -0.13534703718E+02  0.75923023092E+02  0.28851623360E+03  0.29864545985E+03  0.00000000000E+00 0. -1.
         22    1    3    3    0    0 -0.22994422569E+02 -0.30951657121E+02 -0.27724358353E+03  0.27991204540E+03  0.00000000000E+00 0. -1.
         22    1    3    3    0    0  0.34883561295E+02  0.28061561900E+02 -0.35587938585E+02  0.57191043684E+02  0.00000000000E+00 0. -1.
</event>
<event>
 7    1  0.7029100E-006  0.9184745E+02  0.7818608E-02  0.1353822E+00
          2   -1    0    0  502    0  0.00000000000E+00  0.00000000000E+00  0.39906975562E+03  0.39906975562E+03  0.00000000000E+00 0. -1.
          1   -1    0    0  501    0 -0.00000000000E+00 -0.00000000000E+00 -0.11050690439E+04  0.11050690439E+04  0.00000000000E+00 0. -1.
         25    2    1    2    0    0  0.87750955565E+02  0.18807626797E+02  0.10304933075E+02  0.15422621307E+03  0.12500230448E+03 0.  0.
          2    1    1    2  501    0 -0.20122368531E+01 -0.56213750048E+02 -0.10254155690E+04  0.10269572162E+04  0.00000000000E+00 0. -1.
          1    1    1    2  502    0 -0.85738718712E+02  0.37406123251E+02  0.30911134763E+03  0.32295537025E+03  0.00000000000E+00 0. -1.
         22    1    3    3    0    0  0.50773379896E+02  0.68331242664E+02  0.28540278144E+02  0.89786648822E+02  0.00000000000E+00 0. -1.
         22    1    3    3    0    0  0.36977575669E+02 -0.49523615867E+02 -0.18235345069E+02  0.64439564250E+02  0.00000000000E+00 0. -1.
</event>
<event>
 7    1  0.7029100E-006  0.7153204E+02  0.7818608E-02  0.1501584E+00
          2   -1    0    0  502    0  0.00000000000E+00  0.00000000000E+00  0.61478719524E+03  0.61478719524E+03  0.00000000000E+00 0. -1.
          1   -1    0    0  501    0 -0.00000000000E+00 -0.00000000000E+00 -0.22660993894E+04  0.22660993894E+04  0.00000000000E+00 0. -1.
         25    2    1    2    0    0 -0.12463151553E+01 -0.49027736741E+02 -0.71974272285E+01  0.13447181343E+03  0.12500237349E+03 0.  0.
          2    1    1    2  501    0 -0.50698763286E+01  0.71561899581E+02 -0.21944298846E+04  0.21956022699E+04  0.00000000000E+00 0. -1.
          1    1    1    2  502    0  0.63161914839E+01 -0.22534162840E+02  0.55031511771E+03  0.55081250127E+03  0.00000000000E+00 0. -1.
         22    1    3    3    0    0  0.50753760818E+02 -0.42054289863E+02 -0.35493884999E+02  0.74862029129E+02  0.00000000000E+00 0. -1.
         22    1    3    3    0    0 -0.52000075973E+02 -0.69734468781E+01  0.28296457771E+02  0.59609784305E+02  0.00000000000E+00 0. -1.
</event>
<event>
 7    1  0.7029100E-006  0.5338036E+02  0.7818608E-02  0.1457642E+00
          2   -1    0    0  502    0  0.00000000000E+00  0.00000000000E+00  0.33248871617E+03  0.33248871617E+03  0.00000000000E+00 0. -1.
          1   -1    0    0  501    0 -0.00000000000E+00 -0.00000000000E+00 -0.17332746064E+04  0.17332746064E+04  0.00000000000E+00 0. -1.
         25    2    1    2    0    0 -0.78971479842E+02 -0.53894420534E+02 -0.15003311233E+03  0.21743303497E+03  0.12500434675E+03 0.  0.
          2    1    1    2  501    0  0.34807392748E+02  0.24878598446E+02 -0.15469070217E+04  0.15474985728E+04  0.00000000000E+00 0. -1.
          1    1    1    2  502    0  0.44164087094E+02  0.29015822087E+02  0.29615424376E+03  0.30083171478E+03  0.00000000000E+00 0. -1.
         22    1    3    3    0    0 -0.74781766816E+02 -0.91457391452E+02 -0.10034025814E+03  0.15499978872E+03  0.00000000000E+00 0. -1.
         22    1    3    3    0    0 -0.41897130260E+01  0.37562970918E+02 -0.49692854189E+02  0.62433246247E+02  0.00000000000E+00 0. -1.
</event>
<event>
 7    1  0.7029100E-006  0.9300503E+02  0.7818608E-02  0.1360578E+00
          2   -1    0    0  502    0  0.00000000000E+00  0.00000000000E+00  0.55503094333E+03  0.55503094333E+03  0.00000000000E+00 0. -1.
          1   -1    0    0  501    0 -0.00000000000E+00 -0.00000000000E+00 -0.77844860447E+02  0.77844860447E+02  0.00000000000E+00 0. -1.
         25    2    1    2    0    0 -0.76728171573E+02 -0.23826313794E+02  0.23008679138E+03  0.27389788447E+03  0.12500085603E+03 0.  0.
          2    1    1    2  501    0  0.93708477894E+02 -0.25821148217E+02 -0.89458478525E+01  0.97611673063E+02  0.00000000000E+00 0. -1.
          1    1    1    2  502    0 -0.16980306320E+02  0.49647462011E+02  0.25604513936E+03  0.26136624624E+03  0.00000000000E+00 0. -1.
         22    1    3    3    0    0 -0.36102173168E+02 -0.55627155823E+00 -0.29290854924E+01  0.36225072634E+02  0.00000000000E+00 0. -1.
         22    1    3    3    0    0 -0.40625998405E+02 -0.23270042236E+02  0.23301587687E+03  0.23767281183E+03  0.00000000000E+00 0. -1.
</event>
<event>
 7    1  0.7029100E-006  0.4838940E+02  0.7818608E-02  0.1519041E+00
          2   -1    0    0  502    0  0.00000000000E+00  0.00000000000E+00  0.36722044039E+04  0.36722044039E+04  0.00000000000E+00 0. -1.
          1   -1    0    0  501    0 -0.00000000000E+00 -0.00000000000E+00 -0.50075608459E+01  0.50075608459E+01  0.00000000000E+00 0. -1.
         25    2    1    2    0    0  0.10461538843E+02 -0.20160229077E+02  0.17734645201E+04  0.17780095069E+04  0.12500209476E+03 0.  0.
          2    1    1    2  501    0  0.21728805303E+02 -0.21738575409E+02  0.98307467452E+02  0.10300031455E+03  0.00000000000E+00 0. -1.
          1    1    1    2  502    0 -0.32190344146E+02  0.41898804486E+02  0.17954248555E+04  0.17962021434E+04  0.00000000000E+00 0. -1.
         22    1    3    3    0    0 -0.47100660077E+02 -0.25074473788E+00  0.33947187274E+03  0.34272392305E+03  0.00000000000E+00 0. -1.
         22    1    3    3    0    0  0.57562198920E+02 -0.19909484339E+02  0.14339926474E+04  0.14352855838E+04  0.00000000000E+00 0. -1.
</event>
<event>
 7    1  0.7029100E-006  0.4573686E+02  0.7818608E-02  0.1478424E+00
          2   -1    0    0  502    0  0.00000000000E+00  0.00000000000E+00  0.33410410138E+03  0.33410410138E+03  0.00000000000E+00 0. -1.
          1   -1    0    0  501    0 -0.00000000000E+00 -0.00000000000E+00 -0.30666126034E+03  0.30666126034E+03  0.00000000000E+00 0. -1.
         25    2    1    2    0    0 -0.19403674326E+02 -0.57112771799E+02 -0.20211764850E+03  0.24518119226E+03  0.12499560760E+03 0.  0.
          2    1    1    2  501    0  0.40810465536E+02  0.19808096810E+02 -0.75189475040E+02  0.87814076055E+02  0.00000000000E+00 0. -1.
          1    1    1    2  502    0 -0.21406791210E+02  0.37304674990E+02  0.30474996458E+03  0.30777009341E+03  0.00000000000E+00 0. -1.
         22    1    3    3    0    0  0.37216425120E+02 -0.70086144507E+02 -0.99558771110E+02  0.12731488073E+03  0.00000000000E+00 0. -1.
         22    1    3    3    0    0 -0.56620099446E+02  0.12973372707E+02 -0.10255887739E+03  0.11786631153E+03  0.00000000000E+00 0. -1.
</event>
<event>
 7    1  0.7029100E-006  0.1367415E+03  0.7818608E-02  0.1324686E+00
          2   -1    0    0  502    0  0.00000000000E+00  0.00000000000E+00  0.14405915422E+04  0.14405915422E+04  0.00000000000E+00 0. -1.
          1   -1    0    0  501    0 -0.00000000000E+00 -0.00000000000E+00 -0.11272702647E+04  0.11272702647E+04  0.00000000000E+00 0. -1.
         25    2    1    2    0    0 -0.17781292468E+03 -0.29678169946E+02  0.53298818232E+02  0.22575216180E+03  0.12500017830E+03 0.  0.
          2    1    1    2  501    0  0.42970401953E+02  0.22800576315E+02 -0.10369690210E+04  0.10381093740E+04  0.00000000000E+00 0. -1.
          1    1    1    2  502    0  0.13484252273E+03  0.68775936307E+01  0.12969914803E+04  0.13040002711E+04  0.00000000000E+00 0. -1.
         22    1    3    3    0    0 -0.63219603230E+02 -0.68533895219E+02 -0.71479478226E+00  0.93242286319E+02  0.00000000000E+00 0.  1.
         22    1    3    3    0    0 -0.11459332145E+03  0.38855725273E+02  0.54013613014E+02  0.13250987548E+03  0.00000000000E+00 0.  1.
</event>
<event>
 7    1  0.7029100E-006  0.5102054E+02  0.7818608E-02  0.1482676E+00
          2   -1    0    0  502    0  0.00000000000E+00  0.00000000000E+00  0.87474460720E+03  0.87474460720E+03  0.00000000000E+00 0. -1.
          1   -1    0    0  501    0 -0.00000000000E+00 -0.00000000000E+00 -0.26672022943E+03  0.26672022943E+03  0.00000000000E+00 0. -1.
         25    2    1    2    0    0  0.40402969379E+02  0.90114020868E+01  0.28744443657E+03  0.31617377443E+03  0.12501178432E+03 0.  0.
          2    1    1    2  501    0  0.42639603663E+01 -0.37172333552E+02 -0.24974234556E+03  0.25252960798E+03  0.00000000000E+00 0. -1.
          1    1    1    2  502    0 -0.44666929745E+02  0.28160931466E+02  0.57032228676E+03  0.57276145423E+03  0.00000000000E+00 0. -1.
         22    1    3    3    0    0 -0.10000732503E+02  0.47052095778E+02  0.45817867982E+02  0.66431855266E+02  0.00000000000E+00 0.  1.
         22    1    3    3    0    0  0.50403701882E+02 -0.38040693691E+02  0.24162656859E+03  0.24974191916E+03  0.00000000000E+00 0.  1.
</event>
<event>
 7    1  0.7029100E-006  0.6521058E+02  0.7818608E-02  0.1464073E+00
          2   -1    0    0  502    0  0.00000000000E+00  0.00000000000E+00  0.59354087813E+03  0.59354087813E+03  0.00000000000E+00 0. -1.
          1   -1    0    0  501    0 -0.00000000000E+00 -0.00000000000E+00 -0.54028788023E+03  0.54028788023E+03  0.00000000000E+00 0. -1.
         25    2    1    2    0    0  0.16392213137E+02  0.71586098414E+02  0.14132940272E+03  0.20246747348E+03  0.12500321438E+03 0.  0.
          2    1    1    2  501    0  0.15970318365E+02 -0.63221192261E+02 -0.50696489946E+03  0.51114125201E+03  0.00000000000E+00 0. -1.
          1    1    1    2  502    0 -0.32362531502E+02 -0.83649061532E+01  0.41888849463E+03  0.42022003288E+03  0.00000000000E+00 0. -1.
         22    1    3    3    0    0  0.55637865618E+02  0.64913924587E+02  0.41584205981E+02  0.95071740716E+02  0.00000000000E+00 0. -1.
         22    1    3    3    0    0 -0.39245652481E+02  0.66721738278E+01  0.99745196740E+02  0.10739573276E+03  0.00000000000E+00 0. -1.
</event>
<event>
 7    1  0.7029100E-006  0.6199398E+02  0.7818608E-02  0.1404322E+00
          2   -1    0    0  502    0  0.00000000000E+00  0.00000000000E+00  0.77730507509E+03  0.77730507509E+03  0.00000000000E+00 0. -1.
          1   -1    0    0  501    0 -0.00000000000E+00 -0.00000000000E+00 -0.26306276820E+03  0.26306276820E+03  0.00000000000E+00 0. -1.
         25    2    1    2    0    0 -0.19123663949E+02  0.24608687866E+02  0.37029308440E+03  0.39206032316E+03  0.12499210616E+03 0.  0.
          2    1    1    2  501    0  0.24519546552E+02  0.49417433081E+02 -0.24561581898E+03  0.25173482355E+03  0.00000000000E+00 0. -1.
          1    1    1    2  502    0 -0.53958826022E+01 -0.74026120947E+02  0.38956504147E+03  0.39657269657E+03  0.00000000000E+00 0. -1.
         22    1    3    3    0    0 -0.68859201742E+02 -0.80286116567E+01  0.20106683262E+03  0.21268267313E+03  0.00000000000E+00 0.  1.
         22    1    3    3    0    0  0.49735537792E+02  0.32637299523E+02  0.16922625178E+03  0.17937765004E+03  0.00000000000E+00 0.  1.
</event>
<event>
 7    1  0.7029100E-006  0.5297569E+02  0.7818608E-02  0.1478386E+00
          2   -1    0    0  502    0  0.00000000000E+00  0.00000000000E+00  0.22998549338E+04  0.22998549338E+04  0.00000000000E+00 0. -1.
          1   -1    0    0  501    0 -0.00000000000E+00 -0.00000000000E+00 -0.98299391254E+03  0.98299391254E+03  0.00000000000E+00 0. -1.
         25    2    1    2    0    0  0.71543148447E+02  0.18953084550E+02  0.22816145716E+03  0.27048124316E+03  0.12499924347E+03 0.  0.
          2    1    1    2  501    0 -0.32982677939E+02  0.17080678010E+02 -0.96113565850E+03  0.96185308683E+03  0.00000000000E+00 0. -1.
          1    1    1    2  502    0 -0.38560470509E+02 -0.36033762559E+02  0.20498352226E+04  0.20505145164E+04  0.00000000000E+00 0. -1.
         22    1    3    3    0    0 -0.29377350882E+02  0.26797206451E+01  0.12932098821E+02  0.32209452456E+02  0.00000000000E+00 0. -1.
         22    1    3    3    0    0  0.10092049933E+03  0.16273363905E+02  0.21522935834E+03  0.23827179071E+03  0.00000000000E+00 0. -1.
</event>
<event>
 7    1  0.7029100E-006  0.2148772E+03  0.7818608E-02  0.1185309E+00
          2   -1    0    0  502    0  0.00000000000E+00  0.00000000000E+00  0.26978682593E+04  0.26978682593E+04  0.00000000000E+00 0. -1.
          1   -1    0    0  501    0 -0.00000000000E+00 -0.00000000000E+00 -0.16695664309E+03  0.16695664309E+03  0.00000000000E+00 0. -1.
         25    2    1    2    0    0 -0.20886603703E+02 -0.14925330117E+03  0.44459971270E+03  0.48580394082E+03  0.12499506496E+03 0.  0.
          2    1    1    2  501    0  0.96172641023E+02 -0.77804922720E+02 -0.11251525883E+03  0.16721981447E+03  0.00000000000E+00 0. -1.
          1    1    1    2  502    0 -0.75286037320E+02  0.22705822389E+03  0.21988271624E+04  0.22118011471E+04  0.00000000000E+00 0. -1.
         22    1    3    3    0    0  0.45544506595E+02 -0.19352373305E+02  0.12673473335E+03  0.13605333172E+03  0.00000000000E+00 0. -1.
         22    1    3    3    0    0 -0.66431110298E+02 -0.12990092786E+03  0.31786497934E+03  0.34975060910E+03  0.00000000000E+00 0. -1.
</event>
<event>
 7    1  0.7029100E-006  0.2309911E+03  0.7818608E-02  0.1208473E+00
          2   -1    0    0  502    0  0.00000000000E+00  0.00000000000E+00  0.56021378816E+03  0.56021378816E+03  0.00000000000E+00 0. -1.
          1   -1    0    0  501    0 -0.00000000000E+00 -0.00000000000E+00 -0.23112223166E+04  0.23112223166E+04  0.00000000000E+00 0. -1.
         25    2    1    2    0    0 -0.38753624181E+02  0.31389178351E+03 -0.77606253739E+02  0.34882331697E+03  0.12500032280E+03 0.  0.
          2    1    1    2  501    0  0.32907686725E+02 -0.22472344719E+03 -0.20870760478E+04  0.20993975261E+04  0.00000000000E+00 0. -1.
          1    1    1    2  502    0  0.58459374561E+01 -0.89168336323E+02  0.41367377305E+03  0.42321526166E+03  0.00000000000E+00 0. -1.
         22    1    3    3    0    0 -0.84136761107E+02  0.20028393601E+03 -0.58739342460E+02  0.22503990745E+03  0.00000000000E+00 0. -1.
         22    1    3    3    0    0  0.45383136926E+02  0.11360784751E+03 -0.18866911278E+02  0.12378340953E+03  0.00000000000E+00 0. -1.
</event>
<event>
 7    1  0.7029100E-006  0.5998808E+02  0.7818608E-02  0.1404498E+00
          2   -1    0    0  502    0  0.00000000000E+00  0.00000000000E+00  0.36259323693E+03  0.36259323693E+03  0.00000000000E+00 0. -1.
          1   -1    0    0  501    0 -0.00000000000E+00 -0.00000000000E+00 -0.46377346441E+03  0.46377346441E+03  0.00000000000E+00 0. -1.
         25    2    1    2    0    0  0.10794693052E+03  0.88190197926E+01  0.27502342630E+02  0.16766229221E+03  0.12499580176E+03 0.  0.
          2    1    1    2  501    0 -0.53408602036E+02 -0.25152463275E+02 -0.38837934938E+03  0.39284048188E+03  0.00000000000E+00 0. -1.
          1    1    1    2  502    0 -0.54538328486E+02  0.16333443482E+02  0.25969677927E+03  0.26586392725E+03  0.00000000000E+00 0. -1.
         22    1    3    3    0    0  0.20472799135E+02 -0.23932563506E+02  0.60822262431E+02  0.68492705506E+02  0.00000000000E+00 0.  1.
         22    1    3    3    0    0  0.87474131387E+02  0.32751583299E+02 -0.33319919801E+02  0.99169586699E+02  0.00000000000E+00 0.  1.
</event>
<event>
 7    1  0.7029100E-006  0.8900441E+02  0.7818608E-02  0.1343006E+00
          2   -1    0    0  502    0  0.00000000000E+00  0.00000000000E+00  0.11277048192E+04  0.11277048192E+04  0.00000000000E+00 0. -1.
          1   -1    0    0  501    0 -0.00000000000E+00 -0.00000000000E+00 -0.45430149950E+02  0.45430149950E+02  0.00000000000E+00 0. -1.
         25    2    1    2    0    0 -0.49613481592E+02 -0.46472830977E+01  0.15538006428E+03  0.20555637711E+03  0.12500945964E+03 0.  0.
          2    1    1    2  501    0 -0.17296567569E+02 -0.61277665547E+02  0.38867725332E+02  0.74597745388E+02  0.00000000000E+00 0. -1.
          1    1    1    2  502    0  0.66910049161E+02  0.65924948644E+02  0.88802687965E+03  0.89298084667E+03  0.00000000000E+00 0. -1.
         22    1    3    3    0    0 -0.74215159997E+02  0.99668604578E+01  0.36542338849E+02  0.83322090764E+02  0.00000000000E+00 0.  1.
         22    1    3    3    0    0  0.24601678406E+02 -0.14614143556E+02  0.11883772543E+03  0.12223428634E+03  0.00000000000E+00 0.  1.
</event>
<event>
 7    1  0.7029100E-006  0.9638101E+02  0.7818608E-02  0.1412396E+00
          2   -1    0    0  502    0  0.00000000000E+00  0.00000000000E+00  0.21769807979E+03  0.21769807979E+03  0.00000000000E+00 0. -1.
          1   -1    0    0  501    0 -0.00000000000E+00 -0.00000000000E+00 -0.16933173085E+04  0.16933173085E+04  0.00000000000E+00 0. -1.
         25    2    1    2    0    0 -0.74571779972E+02  0.50060801069E+02 -0.37404971790E+01  0.15396279538E+03  0.12499406734E+03 0.  0.
          2    1    1    2  501    0 -0.21142719344E+02 -0.25742682584E+02 -0.15971716731E+04  0.15975190307E+04  0.00000000000E+00 0. -1.
          1    1    1    2  502    0  0.95714499316E+02 -0.24318118485E+02  0.12529294153E+03  0.15953356218E+03  0.00000000000E+00 0. -1.
         22    1    3    3    0    0  0.31292840889E+02  0.27228479529E+02 -0.17052589700E+02  0.44848888547E+02  0.00000000000E+00 0. -1.
         22    1    3    3    0    0 -0.10586462086E+03  0.22832321540E+02  0.13312092521E+02  0.10911390683E+03  0.00000000000E+00 0. -1.
</event>
<event>
 7    1  0.7029100E-006  0.6420266E+02  0.7818608E-02  0.1403380E+00
          2   -1    0    0  502    0  0.00000000000E+00  0.00000000000E+00  0.12682251902E+04  0.12682251902E+04  0.00000000000E+00 0. -1.
          1   -1    0    0  501    0 -0.00000000000E+00 -0.00000000000E+00 -0.38672167680E+03  0.38672167680E+03  0.00000000000E+00 0. -1.
         25    2    1    2    0    0  0.29978023530E+02  0.28503925947E+02  0.37825232412E+03  0.40051289429E+03  0.12499840841E+03 0.  0.
          2    1    1    2  501    0 -0.63001490852E+02  0.13796723187E+02 -0.37199483775E+03  0.37754429771E+03  0.00000000000E+00 0. -1.
          1    1    1    2  502    0  0.33023467322E+02 -0.42300649135E+02  0.87524602699E+03  0.87688967497E+03  0.00000000000E+00 0. -1.
         22    1    3    3    0    0  0.70829361412E+02  0.30041644008E+02  0.32145217485E+03  0.33053108708E+03  0.00000000000E+00 0. -1.
         22    1    3    3    0    0 -0.40851337882E+02 -0.15377180603E+01  0.56800149270E+02  0.69981807212E+02  0.00000000000E+00 0. -1.
</event>
<event>
 7    1  0.7029100E-006  0.5945588E+02  0.7818608E-02  0.1402115E+00
          2   -1    0    0  502    0  0.00000000000E+00  0.00000000000E+00  0.16403764310E+04  0.16403764310E+04  0.00000000000E+00 0. -1.
          1   -1    0    0  501    0 -0.00000000000E+00 -0.00000000000E+00 -0.37480427880E+03  0.37480427880E+03  0.00000000000E+00 0. -1.
         25    2    1    2    0    0 -0.78598283979E+01 -0.27912155637E+01 -0.84834101809E+02  0.15131113747E+03  0.12501466996E+03 0.  0.
          2    1    1    2  501    0  0.58785426855E+02 -0.27894049398E+02 -0.25204868707E+03  0.26031201481E+03  0.00000000000E+00 0. -1.
          1    1    1    2  502    0 -0.50925598457E+02  0.30685264962E+02  0.16024549411E+04  0.16035575576E+04  0.00000000000E+00 0. -1.
         22    1    3    3    0    0  0.41326423352E+01 -0.25497979739E+02 -0.11140442713E+03  0.11435983599E+03  0.00000000000E+00 0.  1.
         22    1    3    3    0    0 -0.11992470733E+02  0.22706764176E+02  0.26570325319E+02  0.36951301482E+02  0.00000000000E+00 0.  1.
</event>
<event>
 7    1  0.7029100E-006  0.7930722E+02  0.7818608E-02  0.1462065E+00
          2   -1    0    0  502    0  0.00000000000E+00  0.00000000000E+00  0.91327704565E+03  0.91327704565E+03  0.00000000000E+00 0. -1.
          1   -1    0    0  501    0 -0.00000000000E+00 -0.00000000000E+00 -0.80022171642E+02  0.80022171642E+02  0.00000000000E+00 0. -1.
         25    2    1    2    0    0  0.31973601000E+02  0.68428732338E+02  0.44302122432E+02  0.15258870342E+03  0.12496332178E+03 0.  0.
          2    1    1    2  501    0  0.24845357677E+02 -0.12664212200E+02 -0.15785017394E+02  0.32044357426E+02  0.00000000000E+00 0. -1.
          1    1    1    2  502    0 -0.56818958676E+02 -0.55764520138E+02  0.80473776897E+03  0.80866615644E+03  0.00000000000E+00 0. -1.
         22    1    3    3    0    0 -0.36118713755E+02 -0.10934255882E+02  0.27458691766E+02  0.46670110226E+02  0.00000000000E+00 0. -1.
         22    1    3    3    0    0  0.68092314755E+02  0.79362988220E+02  0.16843430666E+02  0.10591859320E+03  0.00000000000E+00 0. -1.
</event>
<event>
 7    1  0.7029100E-006  0.1008810E+03  0.7818608E-02  0.1370360E+00
          2   -1    0    0  502    0  0.00000000000E+00  0.00000000000E+00  0.79520603189E+03  0.79520603189E+03  0.00000000000E+00 0. -1.
          1   -1    0    0  501    0 -0.00000000000E+00 -0.00000000000E+00 -0.76185581589E+03  0.76185581589E+03  0.00000000000E+00 0. -1.
         25    2    1    2    0    0 -0.20314618319E+02 -0.14345035543E+03 -0.21464456667E+03  0.28755650394E+03  0.12500305903E+03 0.  0.
          2    1    1    2  501    0  0.56985665160E+01  0.44221581865E+02 -0.50645689736E+03  0.50841578540E+03  0.00000000000E+00 0. -1.
          1    1    1    2  502    0  0.14616051803E+02  0.99228773565E+02  0.75445168003E+03  0.76108955844E+03  0.00000000000E+00 0. -1.
         22    1    3    3    0    0 -0.25832897759E+02 -0.67096124472E+02 -0.19599235584E+03  0.20876357937E+03  0.00000000000E+00 0.  1.
         22    1    3    3    0    0  0.55182794399E+01 -0.76354230958E+02 -0.18652210834E+02  0.78792924569E+02  0.00000000000E+00 0.  1.
</event>
<event>
 7    1  0.7029100E-006  0.4200222E+02  0.7818608E-02  0.1507431E+00
          2   -1    0    0  502    0  0.00000000000E+00  0.00000000000E+00  0.30873137195E+04  0.30873137195E+04  0.00000000000E+00 0. -1.
          1   -1    0    0  501    0 -0.00000000000E+00 -0.00000000000E+00 -0.66445014214E+03  0.66445014214E+03  0.00000000000E+00 0. -1.
         25    2    1    2    0    0  0.29171508102E+02  0.12931226763E+02  0.25101687405E+03  0.28222815238E+03  0.12500026172E+03 0.  0.
          2    1    1    2  501    0  0.48695457088E+01 -0.37985116890E+02 -0.64812092088E+03  0.64925134553E+03  0.00000000000E+00 0. -1.
          1    1    1    2  502    0 -0.34041053811E+02  0.25053890128E+02  0.28199676242E+04  0.28202843637E+04  0.00000000000E+00 0. -1.
         22    1    3    3    0    0  0.68936969983E+02 -0.22179111537E+02  0.17631282272E+03  0.19060543086E+03  0.00000000000E+00 0. -1.
         22    1    3    3    0    0 -0.39765461881E+02  0.35110338300E+02  0.74704051329E+02  0.91622721522E+02  0.00000000000E+00 0. -1.
</event>
<event>
 7    1  0.7029100E-006  0.1662111E+03  0.7818608E-02  0.1242714E+00
          2   -1    0    0  502    0  0.00000000000E+00  0.00000000000E+00  0.70169238140E+03  0.70169238140E+03  0.00000000000E+00 0. -1.
          1   -1    0    0  501    0 -0.00000000000E+00 -0.00000000000E+00 -0.77988357792E+03  0.77988357792E+03  0.00000000000E+00 0. -1.
         25    2    1    2    0    0  0.42020399749E+02 -0.13520424910E+03 -0.23322099662E+03  0.30010520115E+03  0.12500078211E+03 0.  0.
          2    1    1    2  501    0 -0.12891232599E+03  0.13146135996E+03 -0.49371099012E+03  0.52692600877E+03  0.00000000000E+00 0. -1.
          1    1    1    2  502    0  0.86891926238E+02  0.37428891398E+01  0.64874079021E+03  0.65454474939E+03  0.00000000000E+00 0. -1.
         22    1    3    3    0    0  0.78897108743E+02 -0.12042787916E+03 -0.15013449809E+03  0.20800960402E+03  0.00000000000E+00 0. -1.
         22    1    3    3    0    0 -0.36876708994E+02 -0.14776369935E+02 -0.83086498523E+02  0.92095597135E+02  0.00000000000E+00 0. -1.
</event>
<event>
 7    1  0.7029100E-006  0.5834728E+02  0.7818608E-02  0.1462487E+00
          2   -1    0    0  502    0  0.00000000000E+00  0.00000000000E+00  0.14073650750E+04  0.14073650750E+04  0.00000000000E+00 0. -1.
          1   -1    0    0  501    0 -0.00000000000E+00 -0.00000000000E+00 -0.41944846770E+03  0.41944846770E+03  0.00000000000E+00 0. -1.
         25    2    1    2    0    0  0.80478084351E+01  0.93466373901E+02  0.72711961142E+02  0.17237634402E+03  0.12500337760E+03 0.  0.
          2    1    1    2  501    0  0.38148840313E+01 -0.57587892280E+02 -0.36708327507E+03  0.37159258539E+03  0.00000000000E+00 0. -1.
          1    1    1    2  502    0 -0.11862692466E+02 -0.35878481621E+02  0.12822879212E+04  0.12828446133E+04  0.00000000000E+00 0. -1.
         22    1    3    3    0    0 -0.45619383402E+02  0.68614052881E+02  0.77401193405E+02  0.11304849019E+03  0.00000000000E+00 0. -1.
         22    1    3    3    0    0  0.53667191837E+02  0.24852321020E+02 -0.46892322635E+01  0.59327853821E+02  0.00000000000E+00 0. -1.
</event>
<event>
 7    1  0.7029100E-006  0.1425160E+03  0.7818608E-02  0.1265725E+00
          2   -1    0    0  502    0  0.00000000000E+00  0.00000000000E+00  0.94632559170E+03  0.94632559170E+03  0.00000000000E+00 0. -1.
          1   -1    0    0  501    0 -0.00000000000E+00 -0.00000000000E+00 -0.14300266804E+03  0.14300266804E+03  0.00000000000E+00 0. -1.
         25    2    1    2    0    0  0.15495444668E+03 -0.26706982070E+02  0.49274588655E+02  0.20682003897E+03  0.12498959956E+03 0.  0.
          2    1    1    2  501    0 -0.13218273043E+03 -0.50743878700E+02  0.18788013923E+02  0.14282928592E+03  0.00000000000E+00 0. -1.
          1    1    1    2  502    0 -0.22771716247E+02  0.77450860770E+02  0.73526032108E+03  0.73967893484E+03  0.00000000000E+00 0. -1.
         22    1    3    3    0    0  0.15068671262E+03  0.12824456333E+02  0.64274864430E+02  0.16432349265E+03  0.00000000000E+00 0. -1.
         22    1    3    3    0    0  0.42677340614E+01 -0.39531438403E+02 -0.15000275775E+02  0.42496546325E+02  0.00000000000E+00 0. -1.
</event>
<event>
 7    1  0.7029100E-006  0.7862788E+02  0.7818608E-02  0.1400076E+00
          2   -1    0    0  502    0  0.00000000000E+00  0.00000000000E+00  0.18325706483E+04  0.18325706483E+04  0.00000000000E+00 0. -1.
          1   -1    0    0  501    0 -0.00000000000E+00 -0.00000000000E+00 -0.29382549745E+03  0.29382549745E+03  0.00000000000E+00 0. -1.
         25    2    1    2    0    0 -0.57429622849E+02 -0.10536481784E+03  0.21715378673E+03  0.27781466367E+03  0.12500125535E+03 0.  0.
          2    1    1    2  501    0  0.25946860952E+02  0.73242624435E+02 -0.25743936617E+03  0.26891029895E+03  0.00000000000E+00 0. -1.
          1    1    1    2  502    0  0.31482761897E+02  0.32122193403E+02  0.15790307303E+04  0.15796711832E+04  0.00000000000E+00 0. -1.
         22    1    3    3    0    0 -0.56520179993E+01 -0.10715167178E+03  0.19262164545E+03  0.22049155169E+03  0.00000000000E+00 0.  1.
         22    1    3    3    0    0 -0.51777604850E+02  0.17868539376E+01  0.24532141279E+02  0.57323111977E+02  0.00000000000E+00 0.  1.
</event>
<event>
 7    1  0.7029100E-006  0.1323323E+03  0.7818608E-02  0.1329499E+00
          2   -1    0    0  502    0  0.00000000000E+00  0.00000000000E+00  0.30433209052E+04  0.30433209052E+04  0.00000000000E+00 0. -1.
          1   -1    0    0  501    0 -0.00000000000E+00 -0.00000000000E+00 -0.16871279092E+03  0.16871279092E+03  0.00000000000E+00 0. -1.
         25    2    1    2    0    0 -0.11128303758E+03 -0.13985187993E+03  0.10808430169E+04  0.11026281162E+04  0.12499869057E+03 0.  0.
          2    1    1    2  501    0  0.86759935326E+02  0.98387999619E+02 -0.13020852905E+03  0.18482896387E+03  0.00000000000E+00 0. -1.
          1    1    1    2  502    0  0.24523102255E+02  0.41463880311E+02  0.19239736264E+04  0.19245766161E+04  0.00000000000E+00 0. -1.
         22    1    3    3    0    0 -0.56898629068E+02 -0.14543688250E+03  0.65872241609E+03  0.67698195119E+03  0.00000000000E+00 0. -1.
         22    1    3    3    0    0 -0.54384408512E+02  0.55850025719E+01  0.42212060083E+03  0.42564616501E+03  0.00000000000E+00 0. -1.
</event>
<event>
 7    1  0.7029100E-006  0.1821833E+03  0.7818608E-02  0.1358856E+00
          2   -1    0    0  502    0  0.00000000000E+00  0.00000000000E+00  0.12188715122E+04  0.12188715122E+04  0.00000000000E+00 0. -1.
          1   -1    0    0  501    0 -0.00000000000E+00 -0.00000000000E+00 -0.79083723573E+03  0.79083723573E+03  0.00000000000E+00 0. -1.
         25    2    1    2    0    0  0.81825354343E+01  0.17498620169E+03  0.86387466315E+02  0.23189342460E+03  0.12499856546E+03 0.  0.
          2    1    1    2  501    0 -0.26191464836E+02  0.72532704624E+01 -0.70991097201E+03  0.71043098957E+03  0.00000000000E+00 0. -1.
          1    1    1    2  502    0  0.18008929401E+02 -0.18223947215E+03  0.10515577821E+04  0.10673843337E+04  0.00000000000E+00 0. -1.
         22    1    3    3    0    0 -0.28715504084E+02  0.59192336973E+02  0.88584753573E+02  0.11034297212E+03  0.00000000000E+00 0. -1.
         22    1    3    3    0    0  0.36898039518E+02  0.11579386472E+03 -0.21972872577E+01  0.12155045248E+03  0.00000000000E+00 0. -1.
</event>
<event>
 7    1  0.7029100E-006  0.1032721E+03  0.7818608E-02  0.1458022E+00
          2   -1    0    0  502    0  0.00000000000E+00  0.00000000000E+00  0.10933563163E+04  0.10933563163E+04  0.00000000000E+00 0. -1.
          1   -1    0    0  501    0 -0.00000000000E+00 -0.00000000000E+00 -0.25504525157E+03  0.25504525157E+03  0.00000000000E+00 0. -1.
         25    2    1    2    0    0  0.80255132539E+02  0.61912630221E+02  0.13223265430E+03  0.20828971152E+03  0.12500027592E+03 0.  0.
          2    1    1    2  501    0 -0.93592786948E+02 -0.44349188873E+02 -0.20451888520E+03  0.22924754028E+03  0.00000000000E+00 0. -1.
          1    1    1    2  502    0  0.13337654409E+02 -0.17563441348E+02  0.91059729567E+03  0.91086431612E+03  0.00000000000E+00 0. -1.
         22    1    3    3    0    0 -0.22141684258E+02  0.42832707380E+02  0.12939854615E+02  0.49923289562E+02  0.00000000000E+00 0.  1.
         22    1    3    3    0    0  0.10239681680E+03  0.19079922841E+02  0.11929279969E+03  0.15836642196E+03  0.00000000000E+00 0.  1.
</event>
<event>
 7    1  0.7029100E-006  0.7829501E+02  0.7818608E-02  0.1403627E+00
          2   -1    0    0  502    0  0.00000000000E+00  0.00000000000E+00  0.12669205717E+04  0.12669205717E+04  0.00000000000E+00 0. -1.
          1   -1    0    0  501    0 -0.00000000000E+00 -0.00000000000E+00 -0.14325778562E+03  0.14325778562E+03  0.00000000000E+00 0. -1.
         25    2    1    2    0    0 -0.86743189990E+02  0.49214047408E+02  0.34479614389E+03  0.38007420512E+03  0.12500246833E+03 0.  0.
          2    1    1    2  501    0  0.77626183066E+02 -0.62507333419E+01 -0.11295615134E+03  0.13720053969E+03  0.00000000000E+00 0. -1.
          1    1    1    2  502    0  0.91170069248E+01 -0.42963314066E+02  0.89182279356E+03  0.89290361254E+03  0.00000000000E+00 0. -1.
         22    1    3    3    0    0  0.53157366799E-02 -0.22680357789E+02  0.66250802342E+01  0.23628168482E+02  0.00000000000E+00 0.  1.
         22    1    3    3    0    0 -0.86748505727E+02  0.71894405197E+02  0.33817106365E+03  0.35644603664E+03  0.00000000000E+00 0.  1.
</event>
<event>
 7    1  0.7029100E-006  0.4357355E+02  0.7818608E-02  0.1556486E+00
          2   -1    0    0  502    0  0.00000000000E+00  0.00000000000E+00  0.21313371534E+03  0.21313371534E+03  0.00000000000E+00 0. -1.
          1   -1    0    0  501    0 -0.00000000000E+00 -0.00000000000E+00 -0.37409980208E+03  0.37409980208E+03  0.00000000000E+00 0. -1.
         25    2    1    2    0    0  0.16242160119E+02  0.73469797234E+01  0.12314992377E+03  0.17637695470E+03  0.12500056219E+03 0.  0.
          2    1    1    2  501    0 -0.34919738268E+02 -0.26467955375E+02 -0.34321147630E+03  0.34599719398E+03  0.00000000000E+00 0. -1.
          1    1    1    2  502    0  0.18677578148E+02  0.19120975651E+02  0.59095465788E+02  0.64859368730E+02  0.00000000000E+00 0. -1.
         22    1    3    3    0    0  0.20438192574E+02 -0.96729362272E+01 -0.21182692110E+02  0.30983735345E+02  0.00000000000E+00 0. -1.
         22    1    3    3    0    0 -0.41960324546E+01  0.17019915951E+02  0.14433261588E+03  0.14539321936E+03  0.00000000000E+00 0. -1.
</event>
<event>
 7    1  0.7029100E-006  0.7496094E+02  0.7818608E-02  0.1370140E+00
          2   -1    0    0  502    0  0.00000000000E+00  0.00000000000E+00  0.31535319372E+04  0.31535319372E+04  0.00000000000E+00 0. -1.
          1   -1    0    0  501    0 -0.00000000000E+00 -0.00000000000E+00 -0.77315174114E+02  0.77315174114E+02  0.00000000000E+00 0. -1.
         25    2    1    2    0    0 -0.56817654535E+02  0.21466896362E+02  0.24814353754E+03  0.28441051176E+03  0.12500020186E+03 0.  0.
          2    1    1    2  501    0  0.26812957287E+02 -0.73557646416E+02 -0.32833640348E+02  0.84898232981E+02  0.00000000000E+00 0. -1.
          1    1    1    2  502    0  0.30004697249E+02  0.52090750055E+02  0.28609068659E+04  0.28615383666E+04  0.00000000000E+00 0. -1.
         22    1    3    3    0    0 -0.33825607475E+02  0.74101993494E+02  0.15026580260E+03  0.17092421886E+03  0.00000000000E+00 0.  1.
         22    1    3    3    0    0 -0.22992047060E+02 -0.52635097132E+02  0.97877734944E+02  0.11348629290E+03  0.00000000000E+00 0.  1.
</event>
<event>
 7    1  0.7029100E-006  0.1854479E+03  0.7818608E-02  0.1273292E+00
          2   -1    0    0  502    0  0.00000000000E+00  0.00000000000E+00  0.44273598926E+04  0.44273598926E+04  0.00000000000E+00 0. -1.
          1   -1    0    0  501    0 -0.00000000000E+00 -0.00000000000E+00 -0.12075568880E+03  0.12075568880E+03  0.00000000000E+00 0. -1.
         25    2    1    2    0    0 -0.32679535702E+02  0.12847877811E+03  0.25079162628E+03  0.30999336458E+03  0.12499879116E+03 0.  0.
          2    1    1    2  501    0 -0.25601300230E+02  0.51664075333E+02 -0.79648893246E+02  0.98328782403E+02  0.00000000000E+00 0. -1.
          1    1    1    2  502    0  0.58280835932E+02 -0.18014285344E+03  0.41354614708E+04  0.41397934344E+04  0.00000000000E+00 0. -1.
         22    1    3    3    0    0 -0.75740761559E+02  0.63931091685E+02  0.17728700619E+03  0.20311211192E+03  0.00000000000E+00 0. -1.
         22    1    3    3    0    0  0.43061225856E+02  0.64547686426E+02  0.73504620097E+02  0.10688125266E+03  0.00000000000E+00 0. -1.
</event>
<event>
 7    1  0.7029100E-006  0.1403167E+03  0.7818608E-02  0.1327859E+00
          2   -1    0    0  502    0  0.00000000000E+00  0.00000000000E+00  0.87685969064E+03  0.87685969064E+03  0.00000000000E+00 0. -1.
          1   -1    0    0  501    0 -0.00000000000E+00 -0.00000000000E+00 -0.15232800449E+03  0.15232800449E+03  0.00000000000E+00 0. -1.
         25    2    1    2    0    0  0.45746024114E+02  0.11244921486E+03  0.40818045194E+03  0.44381740105E+03  0.12500031793E+03 0.  0.
          2    1    1    2  501    0 -0.10467800575E+02 -0.14211452431E+03 -0.95117119696E+02  0.17132827942E+03  0.00000000000E+00 0. -1.
          1    1    1    2  502    0 -0.35278223539E+02  0.29665309447E+02  0.41146835390E+03  0.41404201466E+03  0.00000000000E+00 0. -1.
         22    1    3    3    0    0 -0.16706408173E+02  0.77925450109E+02  0.32304651966E+03  0.33273192469E+03  0.00000000000E+00 0. -1.
         22    1    3    3    0    0  0.62452432287E+02  0.34523764753E+02  0.85133932287E+02  0.11108547636E+03  0.00000000000E+00 0. -1.
</event>
<event>
 7    1  0.7029100E-006  0.2779398E+03  0.7818608E-02  0.1256959E+00
          2   -1    0    0  502    0  0.00000000000E+00  0.00000000000E+00  0.21977722361E+04  0.21977722361E+04  0.00000000000E+00 0. -1.
          1   -1    0    0  501    0 -0.00000000000E+00 -0.00000000000E+00 -0.41155528906E+03  0.41155528906E+03  0.00000000000E+00 0. -1.
         25    2    1    2    0    0 -0.48085710674E+02 -0.29154314656E+03  0.14257151600E+04  0.14613686219E+04  0.12499955934E+03 0.  0.
          2    1    1    2  501    0  0.27934705209E+02  0.35420216343E+02 -0.37044226312E+03  0.37317879064E+03  0.00000000000E+00 0. -1.
          1    1    1    2  502    0  0.20151005465E+02  0.25612293022E+03  0.73094405023E+03  0.77478011265E+03  0.00000000000E+00 0. -1.
         22    1    3    3    0    0 -0.29769896561E+02 -0.28324793225E+03  0.11433672625E+04  0.11783057052E+04  0.00000000000E+00 0. -1.
         22    1    3    3    0    0 -0.18315814113E+02 -0.82952143121E+01  0.28234789745E+03  0.28306291671E+03  0.00000000000E+00 0. -1.
</event>
<event>
 7    1  0.7029100E-006  0.1119662E+03  0.7818608E-02  0.1282703E+00
          2   -1    0    0  502    0  0.00000000000E+00  0.00000000000E+00  0.14780513074E+04  0.14780513074E+04  0.00000000000E+00 0. -1.
          1   -1    0    0  501    0 -0.00000000000E+00 -0.00000000000E+00 -0.36322859842E+03  0.36322859842E+03  0.00000000000E+00 0. -1.
         25    2    1    2    0    0 -0.77833497132E+02 -0.71863918713E+02 -0.36613092888E+02  0.16789321391E+03  0.12500054647E+03 0.  0.
          2    1    1    2  501    0  0.11869301110E+03 -0.52780669691E+01 -0.24602033582E+03  0.27320668827E+03  0.00000000000E+00 0. -1.
          1    1    1    2  502    0 -0.40859513967E+02  0.77141985683E+02  0.13974561377E+04  0.14001800036E+04  0.00000000000E+00 0. -1.
         22    1    3    3    0    0  0.20924254863E+02 -0.56621794979E+02  0.29088776267E+01  0.60434374964E+02  0.00000000000E+00 0. -1.
         22    1    3    3    0    0 -0.98757751995E+02 -0.15242123735E+02 -0.39521970515E+02  0.10745883895E+03  0.00000000000E+00 0. -1.
</event>
<event>
 7    1  0.7029100E-006  0.4841523E+02  0.7818608E-02  0.1456752E+00
          2   -1    0    0  502    0  0.00000000000E+00  0.00000000000E+00  0.29864370706E+02  0.29864370706E+02  0.00000000000E+00 0. -1.
          1   -1    0    0  501    0 -0.00000000000E+00 -0.00000000000E+00 -0.88658650750E+03  0.88658650750E+03  0.00000000000E+00 0. -1.
         25    2    1    2    0    0  0.27543244285E+02  0.23886180314E+02 -0.34687644984E+03  0.37050867799E+03  0.12499691635E+03 0.  0.
          2    1    1    2  501    0 -0.39383525311E+02  0.26517891143E+02 -0.48706914460E+03  0.48937778070E+03  0.00000000000E+00 0. -1.
          1    1    1    2  502    0  0.11840281026E+02 -0.50404071457E+02 -0.22776542354E+02  0.56564419522E+02  0.00000000000E+00 0. -1.
         22    1    3    3    0    0  0.23254126653E+02  0.45082763130E+02 -0.34510151354E+03  0.34880978281E+03  0.00000000000E+00 0. -1.
         22    1    3    3    0    0  0.42891176318E+01 -0.21196582816E+02 -0.17749363022E+01  0.21698895179E+02  0.00000000000E+00 0. -1.
</event>
<event>
 7    1  0.7029100E-006  0.1084079E+03  0.7818608E-02  0.1320208E+00
          2   -1    0    0  502    0  0.00000000000E+00  0.00000000000E+00  0.10030643720E+04  0.10030643720E+04  0.00000000000E+00 0. -1.
          1   -1    0    0  501    0 -0.00000000000E+00 -0.00000000000E+00 -0.62497567548E+02  0.62497567548E+02  0.00000000000E+00 0. -1.
         25    2    1    2    0    0  0.31174684240E+02  0.46076627947E+02  0.40727525607E+03  0.42964193877E+03  0.12499657903E+03 0.  0.
          2    1    1    2  501    0 -0.83882186625E+02 -0.82120914756E+02  0.20496217959E+02  0.11916442768E+03  0.00000000000E+00 0. -1.
          1    1    1    2  502    0  0.52707502384E+02  0.36044286808E+02  0.51279533042E+03  0.51675557309E+03  0.00000000000E+00 0. -1.
         22    1    3    3    0    0  0.50742327098E+02 -0.29177286077E+02  0.15646103059E+03  0.16705134503E+03  0.00000000000E+00 0.  1.
         22    1    3    3    0    0 -0.19567642858E+02  0.75253914024E+02  0.25081422547E+03  0.26259059374E+03  0.00000000000E+00 0.  1.
</event>
<event>
 7    1  0.7029100E-006  0.2031471E+03  0.7818608E-02  0.1233303E+00
          2   -1    0    0  502    0  0.00000000000E+00  0.00000000000E+00  0.12442640914E+03  0.12442640914E+03  0.00000000000E+00 0. -1.
          1   -1    0    0  501    0 -0.00000000000E+00 -0.00000000000E+00 -0.12786085521E+04  0.12786085521E+04  0.00000000000E+00 0. -1.
         25    2    1    2    0    0 -0.15926341977E+03  0.13873595604E+03 -0.32984897069E+03  0.41114205945E+03  0.12499978885E+03 0.  0.
          2    1    1    2  501    0  0.19254953978E+03 -0.67840764463E+02 -0.87507402428E+03  0.89857233574E+03  0.00000000000E+00 0. -1.
          1    1    1    2  502    0 -0.33286120014E+02 -0.70895191573E+02  0.50740852053E+02  0.93320566012E+02  0.00000000000E+00 0. -1.
         22    1    3    3    0    0 -0.68261033451E+02  0.89029228204E+02 -0.26768516972E+03  0.29024321224E+03  0.00000000000E+00 0. -1.
         22    1    3    3    0    0 -0.91002386315E+02  0.49706727831E+02 -0.62163800973E+02  0.12089884722E+03  0.00000000000E+00 0. -1.
</event>
<event>
 7    1  0.7029100E-006  0.2791168E+02  0.7818608E-02  0.1625435E+00
          2   -1    0    0  502    0  0.00000000000E+00  0.00000000000E+00  0.17570998450E+03  0.17570998450E+03  0.00000000000E+00 0. -1.
          1   -1    0    0  501    0 -0.00000000000E+00 -0.00000000000E+00 -0.52224725471E+03  0.52224725471E+03  0.00000000000E+00 0. -1.
         25    2    1    2    0    0 -0.30461439749E+02  0.37970193663E+02  0.94520909513E+02  0.16409779401E+03  0.12499699494E+03 0.  0.
          2    1    1    2  501    0  0.51684489315E+01 -0.27381328297E+02 -0.48297095617E+03  0.48377411517E+03  0.00000000000E+00 0. -1.
          1    1    1    2  502    0  0.25292990817E+02 -0.10588865366E+02  0.41912776454E+02  0.50085330031E+02  0.00000000000E+00 0. -1.
         22    1    3    3    0    0 -0.68177935928E+02 -0.72471159613E+01  0.76034485259E+02  0.10238161254E+03  0.00000000000E+00 0.  1.
         22    1    3    3    0    0  0.37716496179E+02  0.45217309624E+02  0.18486424254E+02  0.61716181471E+02  0.00000000000E+00 0.  1.
</event>
<event>
 7    1  0.7029100E-006  0.1493152E+03  0.7818608E-02  0.1222378E+00
          2   -1    0    0  502    0  0.00000000000E+00  0.00000000000E+00  0.14362477670E+04  0.14362477670E+04  0.00000000000E+00 0. -1.
          1   -1    0    0  501    0 -0.00000000000E+00 -0.00000000000E+00 -0.17599123686E+03  0.17599123686E+03  0.00000000000E+00 0. -1.
         25    2    1    2    0    0  0.69468941463E+02 -0.11665039086E+03  0.17522493929E+03  0.25448365296E+03  0.12499961103E+03 0.  0.
          2    1    1    2  501    0 -0.11469470143E+03 -0.32931412014E+02 -0.10412737161E+03  0.15837254166E+03  0.00000000000E+00 0. -1.
          1    1    1    2  502    0  0.45225759968E+02  0.14958180287E+03  0.11891589625E+04  0.11993828093E+04  0.00000000000E+00 0. -1.
         22    1    3    3    0    0 -0.20280030847E+02 -0.83602528354E+02  0.60754036800E+02  0.10531721315E+03  0.00000000000E+00 0. -1.
         22    1    3    3    0    0  0.89748972311E+02 -0.33047862503E+02  0.11447090249E+03  0.14916643980E+03  0.00000000000E+00 0. -1.
</event>
<event>
 7    1  0.7029100E-006  0.2613032E+03  0.7818608E-02  0.1317903E+00
          2   -1    0    0  502    0  0.00000000000E+00  0.00000000000E+00  0.95789265272E+03  0.95789265272E+03  0.00000000000E+00 0. -1.
          1   -1    0    0  501    0 -0.00000000000E+00 -0.00000000000E+00 -0.21030982477E+03  0.21030982477E+03  0.00000000000E+00 0. -1.
         25    2    1    2    0    0  0.23846568862E+03 -0.70142970360E+02  0.51160123665E+03  0.58236730227E+03  0.12501971233E+03 0.  0.
          2    1    1    2  501    0 -0.25858318887E+03  0.52070313172E+02 -0.74567280216E+02  0.27411104020E+03  0.00000000000E+00 0. -1.
          1    1    1    2  502    0  0.20117500251E+02  0.18072657189E+02  0.31054887151E+03  0.31172413502E+03  0.00000000000E+00 0. -1.
         22    1    3    3    0    0  0.64207765859E+02 -0.63074848189E+02  0.26845687064E+03  0.28314336486E+03  0.00000000000E+00 0. -1.
         22    1    3    3    0    0  0.17425792276E+03 -0.70681221709E+01  0.24314436601E+03  0.29922393741E+03  0.00000000000E+00 0. -1.
</event>
<event>
 7    1  0.7029100E-006  0.9235026E+02  0.7818608E-02  0.1424191E+00
          2   -1    0    0  502    0  0.00000000000E+00  0.00000000000E+00  0.21084892717E+04  0.21084892717E+04  0.00000000000E+00 0. -1.
          1   -1    0    0  501    0 -0.00000000000E+00 -0.00000000000E+00 -0.79551286227E+03  0.79551286227E+03  0.00000000000E+00 0. -1.
         25    2    1    2    0    0 -0.56713416821E+02 -0.86115198885E+02 -0.47940509168E+03  0.50605054536E+03  0.12500269357E+03 0.  0.
          2    1    1    2  501    0  0.68144657927E+02  0.56500824071E+02 -0.29619188622E+03  0.30913697771E+03  0.00000000000E+00 0. -1.
          1    1    1    2  502    0 -0.11431241106E+02  0.29614374814E+02  0.20885733873E+04  0.20888146109E+04  0.00000000000E+00 0. -1.
         22    1    3    3    0    0  0.28044437366E+02 -0.61373987718E+02 -0.14097388889E+03  0.15629105600E+03  0.00000000000E+00 0.  1.
         22    1    3    3    0    0 -0.84757854187E+02 -0.24741211168E+02 -0.33843120279E+03  0.34975948936E+03  0.00000000000E+00 0.  1.
</event>
<event>
 7    1  0.7029100E-006  0.1398214E+03  0.7818608E-02  0.1345275E+00
          2   -1    0    0  502    0  0.00000000000E+00  0.00000000000E+00  0.35972731381E+03  0.35972731381E+03  0.00000000000E+00 0. -1.
          1   -1    0    0  501    0 -0.00000000000E+00 -0.00000000000E+00 -0.93834729742E+03  0.93834729742E+03  0.00000000000E+00 0. -1.
         25    2    1    2    0    0  0.46883431757E+02  0.93876558728E+02 -0.84676860996E+02  0.18386442860E+03  0.12500037146E+03 0.  0.
          2    1    1    2  501    0  0.23923945538E+02  0.31740451972E+02 -0.78678624814E+03  0.78778957325E+03  0.00000000000E+00 0. -1.
          1    1    1    2  502    0 -0.70807377295E+02 -0.12561701070E+03  0.29284312552E+03  0.32642060937E+03  0.00000000000E+00 0. -1.
         22    1    3    3    0    0 -0.27136235902E+02 -0.83711881403E+01  0.52501417621E+01  0.28879336529E+02  0.00000000000E+00 0.  1.
         22    1    3    3    0    0  0.74019667659E+02  0.10224774687E+03 -0.89927002758E+02  0.15498509207E+03  0.00000000000E+00 0.  1.
</event>
<event>
 7    1  0.7029100E-006  0.1196539E+03  0.7818608E-02  0.1328543E+00
          2   -1    0    0  502    0  0.00000000000E+00  0.00000000000E+00  0.22061725314E+04  0.22061725314E+04  0.00000000000E+00 0. -1.
          1   -1    0    0  501    0 -0.00000000000E+00 -0.00000000000E+00 -0.19304676933E+02  0.19304676933E+02  0.00000000000E+00 0. -1.
         25    2    1    2    0    0 -0.40311866264E+02 -0.13439433913E+03  0.13033159775E+04  0.13167932997E+04  0.12500068856E+03 0.  0.
          2    1    1    2  501    0  0.48262578916E+02  0.23609684940E+02  0.73449625864E+02  0.91002974052E+02  0.00000000000E+00 0. -1.
          1    1    1    2  502    0 -0.79507126521E+01  0.11078465419E+03  0.81010225110E+03  0.81768093452E+03  0.00000000000E+00 0. -1.
         22    1    3    3    0    0  0.22763774235E+02 -0.20496984512E+01  0.47876097383E+03  0.47930622857E+03  0.00000000000E+00 0. -1.
         22    1    3    3    0    0 -0.63075640499E+02 -0.13234464068E+03  0.82455500365E+03  0.83748707117E+03  0.00000000000E+00 0. -1.
</event>
<event>
 7    1  0.7029100E-006  0.1201504E+03  0.7818608E-02  0.1386673E+00
          2   -1    0    0  502    0  0.00000000000E+00  0.00000000000E+00  0.61866955837E+03  0.61866955837E+03  0.00000000000E+00 0. -1.
          1   -1    0    0  501    0 -0.00000000000E+00 -0.00000000000E+00 -0.77168271510E+03  0.77168271510E+03  0.00000000000E+00 0. -1.
         25    2    1    2    0    0  0.13928740181E+03  0.28757239568E+02  0.22264282190E+01  0.18936203672E+03  0.12500025935E+03 0.  0.
          2    1    1    2  501    0 -0.11902267771E+03 -0.30128437758E+01 -0.67236643200E+03  0.68282654746E+03  0.00000000000E+00 0. -1.
          1    1    1    2  502    0 -0.20264724092E+02 -0.25744395792E+02  0.51712684705E+03  0.51816368929E+03  0.00000000000E+00 0. -1.
         22    1    3    3    0    0  0.39881857887E+02 -0.46916970927E+02 -0.14647570653E+02  0.63295466469E+02  0.00000000000E+00 0. -1.
         22    1    3    3    0    0  0.99405543918E+02  0.75674210495E+02  0.16873998872E+02  0.12606657025E+03  0.00000000000E+00 0. -1.
</event>
<event>
 7    1  0.7029100E-006  0.1512129E+03  0.7818608E-02  0.1377730E+00
          2   -1    0    0  502    0  0.00000000000E+00  0.00000000000E+00  0.97873716292E+02  0.97873716292E+02  0.00000000000E+00 0. -1.
          1   -1    0    0  501    0 -0.00000000000E+00 -0.00000000000E+00 -0.84967015014E+03  0.84967015014E+03  0.00000000000E+00 0. -1.
         25    2    1    2    0    0  0.15914001139E+03  0.48393039522E+02 -0.47037344251E+03  0.51433981063E+03  0.12500734330E+03 0.  0.
          2    1    1    2  501    0 -0.13861907528E+03 -0.29349139092E+02 -0.33996581546E+03  0.36831151988E+03  0.00000000000E+00 0. -1.
          1    1    1    2  502    0 -0.20520936112E+02 -0.19043900430E+02  0.58542824120E+02  0.64892535923E+02  0.00000000000E+00 0. -1.
         22    1    3    3    0    0  0.93803944678E+02  0.37961960102E+01 -0.10651911393E+03  0.14198560763E+03  0.00000000000E+00 0.  1.
         22    1    3    3    0    0  0.65336066712E+02  0.44596843512E+02 -0.36385432859E+03  0.37235420301E+03  0.00000000000E+00 0.  1.
</event>
<event>
 7    1  0.7029100E-006  0.1384066E+03  0.7818608E-02  0.1242281E+00
          2   -1    0    0  502    0  0.00000000000E+00  0.00000000000E+00  0.20976519334E+03  0.20976519334E+03  0.00000000000E+00 0. -1.
          1   -1    0    0  501    0 -0.00000000000E+00 -0.00000000000E+00 -0.18044776343E+04  0.18044776343E+04  0.00000000000E+00 0. -1.
         25    2    1    2    0    0  0.19733720266E+03  0.82079147951E+02 -0.22092509538E+03  0.33182595999E+03  0.12498644675E+03 0.  0.
          2    1    1    2  501    0 -0.10425779722E+03  0.11622473934E+02 -0.14976672790E+04  0.15013367540E+04  0.00000000000E+00 0. -1.
          1    1    1    2  502    0 -0.93079405440E+02 -0.93701621885E+02  0.12387993343E+03  0.18108011368E+03  0.00000000000E+00 0. -1.
         22    1    3    3    0    0  0.83398649562E+02 -0.26492429790E+02 -0.56183733758E+02  0.10398940102E+03  0.00000000000E+00 0. -1.
         22    1    3    3    0    0  0.11393855310E+03  0.10857157774E+03 -0.16474136163E+03  0.22783655898E+03  0.00000000000E+00 0. -1.
</event>
<event>
 7    1  0.7029100E-006  0.4570805E+02  0.7818608E-02  0.1472614E+00
          2   -1    0    0  502    0  0.00000000000E+00  0.00000000000E+00  0.34469928838E+03  0.34469928838E+03  0.00000000000E+00 0. -1.
          1   -1    0    0  501    0 -0.00000000000E+00 -0.00000000000E+00 -0.48550191740E+02  0.48550191740E+02  0.00000000000E+00 0. -1.
         25    2    1    2    0    0 -0.16994686783E+02  0.19518152419E+02  0.19005377563E+03  0.22894452133E+03  0.12500151424E+03 0.  0.
          2    1    1    2  501    0 -0.37508728561E+02 -0.26121283798E+02  0.98350984619E+00  0.45718633806E+02  0.00000000000E+00 0. -1.
          1    1    1    2  502    0  0.54503415343E+02  0.66031313789E+01  0.10511181116E+03  0.11858632498E+03  0.00000000000E+00 0. -1.
         22    1    3    3    0    0 -0.56575706025E+02  0.43900179510E+02  0.69726053547E+02  0.99948780965E+02  0.00000000000E+00 0.  1.
         22    1    3    3    0    0  0.39581019242E+02 -0.24382027091E+02  0.12032772209E+03  0.12899574036E+03  0.00000000000E+00 0.  1.
</event>
<event>
 7    1  0.7029100E-006  0.8344965E+02  0.7818608E-02  0.1402296E+00
          2   -1    0    0  502    0  0.00000000000E+00  0.00000000000E+00  0.25448326311E+04  0.25448326311E+04  0.00000000000E+00 0. -1.
          1   -1    0    0  501    0 -0.00000000000E+00 -0.00000000000E+00 -0.22612972566E+03  0.22612972566E+03  0.00000000000E+00 0. -1.
         25    2    1    2    0    0 -0.43018317708E+02 -0.52345467158E+00  0.37487769298E+03  0.39750389187E+03  0.12500083879E+03 0.  0.
          2    1    1    2  501    0  0.84074308904E+02 -0.64353470096E+01 -0.20633287090E+03  0.22289718868E+03  0.00000000000E+00 0. -1.
          1    1    1    2  502    0 -0.41055991196E+02  0.69588016812E+01  0.21501580834E+04  0.21505612762E+04  0.00000000000E+00 0. -1.
         22    1    3    3    0    0 -0.40903177258E+02  0.32496352812E+01  0.38464200813E+03  0.38682438452E+03  0.00000000000E+00 0.  1.
         22    1    3    3    0    0 -0.21151404499E+01 -0.37730899528E+01 -0.97643151528E+01  0.10679507354E+02  0.00000000000E+00 0.  1.
</event>
<event>
 7    1  0.7029100E-006  0.1284501E+03  0.7818608E-02  0.1241115E+00
          2   -1    0    0  502    0  0.00000000000E+00  0.00000000000E+00  0.89345599269E+03  0.89345599269E+03  0.00000000000E+00 0. -1.
          1   -1    0    0  501    0 -0.00000000000E+00 -0.00000000000E+00 -0.58081467107E+03  0.58081467107E+03  0.00000000000E+00 0. -1.
         25    2    1    2    0    0 -0.27515407317E+01  0.17743142840E+03  0.24212153326E+02  0.21841491552E+03  0.12501745555E+03 0.  0.
          2    1    1    2  501    0 -0.80988353007E+02 -0.80764325328E+02 -0.47153328129E+03  0.48520678574E+03  0.00000000000E+00 0. -1.
          1    1    1    2  502    0  0.83739893739E+02 -0.96667103073E+02  0.75996244959E+03  0.77064896250E+03  0.00000000000E+00 0. -1.
         22    1    3    3    0    0 -0.59025477881E+02  0.61019105478E+02 -0.76702033512E+01  0.85241834165E+02  0.00000000000E+00 0.  1.
         22    1    3    3    0    0  0.56273937149E+02  0.11641232292E+03  0.31882356677E+02  0.13317308136E+03  0.00000000000E+00 0.  1.
</event>
<event>
 7    1  0.7029100E-006  0.3190759E+03  0.7818608E-02  0.1129920E+00
          2   -1    0    0  502    0  0.00000000000E+00  0.00000000000E+00  0.82441666715E+03  0.82441666715E+03  0.00000000000E+00 0. -1.
          1   -1    0    0  501    0 -0.00000000000E+00 -0.00000000000E+00 -0.73992849251E+03  0.73992849251E+03  0.00000000000E+00 0. -1.
         25    2    1    2    0    0 -0.22713204890E+03  0.32734281486E+03  0.18973070719E+03  0.45865544158E+03  0.12499914706E+03 0.  0.
          2    1    1    2  501    0  0.15461576746E+03 -0.38034585637E+02 -0.54865920467E+03  0.57129641004E+03  0.00000000000E+00 0. -1.
          1    1    1    2  502    0  0.72516281441E+02 -0.28930822922E+03  0.44341667211E+03  0.53439330804E+03  0.00000000000E+00 0. -1.
         22    1    3    3    0    0 -0.53549985124E+02  0.37418631517E+02 -0.10056487379E+02  0.66097562964E+02  0.00000000000E+00 0. -1.
         22    1    3    3    0    0 -0.17358206377E+03  0.28992418334E+03  0.19978719457E+03  0.39255787862E+03  0.00000000000E+00 0. -1.
</event>
<event>
 7    1  0.7029100E-006  0.5066925E+02  0.7818608E-02  0.1457756E+00
          2   -1    0    0  502    0  0.00000000000E+00  0.00000000000E+00  0.34966850059E+03  0.34966850059E+03  0.00000000000E+00 0. -1.
          1   -1    0    0  501    0 -0.00000000000E+00 -0.00000000000E+00 -0.44207448218E+03  0.44207448218E+03  0.00000000000E+00 0. -1.
         25    2    1    2    0    0 -0.42462458610E+02  0.10288926234E+02 -0.35125944189E+03  0.37538889724E+03  0.12499882502E+03 0.  0.
          2    1    1    2  501    0  0.51186987277E+01 -0.44744379454E+02 -0.70197991300E+02  0.83402749067E+02  0.00000000000E+00 0. -1.
          1    1    1    2  502    0  0.37343759882E+02  0.34455453220E+02  0.32905145160E+03  0.33295133647E+03  0.00000000000E+00 0. -1.
         22    1    3    3    0    0 -0.18726991524E+02 -0.57557526670E+02 -0.15842893956E+03  0.16959745864E+03  0.00000000000E+00 0. -1.
         22    1    3    3    0    0 -0.23735467085E+02  0.67846452904E+02 -0.19283050233E+03  0.20579143859E+03  0.00000000000E+00 0. -1.
</event>
<event>
 7    1  0.7029100E-006  0.5287846E+02  0.7818608E-02  0.1463786E+00
          2   -1    0    0  502    0  0.00000000000E+00  0.00000000000E+00  0.13602524799E+04  0.13602524799E+04  0.00000000000E+00 0. -1.
          1   -1    0    0  501    0 -0.00000000000E+00 -0.00000000000E+00 -0.36481552434E+02  0.36481552434E+02  0.00000000000E+00 0. -1.
         25    2    1    2    0    0  0.73845404542E+02 -0.90249940770E+01  0.28535020682E+03  0.32028570494E+03  0.12499439174E+03 0.  0.
          2    1    1    2  501    0 -0.39906188658E+02  0.32570839375E+02  0.17074224418E+02  0.54266864755E+02  0.00000000000E+00 0. -1.
          1    1    1    2  502    0 -0.33939215883E+02 -0.23545845298E+02  0.10213464962E+04  0.10221814626E+04  0.00000000000E+00 0. -1.
         22    1    3    3    0    0  0.55944502477E+02  0.20510695085E+02  0.27884643846E+03  0.28514174056E+03  0.00000000000E+00 0. -1.
         22    1    3    3    0    0  0.17900902064E+02 -0.29535689162E+02  0.65037683573E+01  0.35143964372E+02  0.00000000000E+00 0. -1.
</event>
<event>
 7    1  0.7029100E-006  0.4070394E+02  0.7818608E-02  0.1521178E+00
          2   -1    0    0  502    0  0.00000000000E+00  0.00000000000E+00  0.42403794547E+03  0.42403794547E+03  0.00000000000E+00 0. -1.
          1   -1    0    0  501    0 -0.00000000000E+00 -0.00000000000E+00 -0.11042538847E+04  0.11042538847E+04  0.00000000000E+00 0. -1.
         25    2    1    2    0    0  0.28239126274E+02  0.70335489552E+02 -0.26676013187E+03  0.30418829800E+03  0.12500009338E+03 0.  0.
          2    1    1    2  501    0 -0.15733738781E+02 -0.36554656640E+02 -0.81749435150E+03  0.81846246597E+03  0.00000000000E+00 0. -1.
          1    1    1    2  502    0 -0.12505387493E+02 -0.33780832912E+02  0.40403854417E+03  0.40564106617E+03  0.00000000000E+00 0. -1.
         22    1    3    3    0    0 -0.49358106077E+00 -0.10583298009E+02 -0.18602272871E+03  0.18632419439E+03  0.00000000000E+00 0. -1.
         22    1    3    3    0    0  0.28732707334E+02  0.80918787561E+02 -0.80737403156E+02  0.11786410361E+03  0.00000000000E+00 0. -1.
</event>
<event>
 7    1  0.7029100E-006  0.8300189E+02  0.7818608E-02  0.1322371E+00
          2   -1    0    0  502    0  0.00000000000E+00  0.00000000000E+00  0.34202261376E+03  0.34202261376E+03  0.00000000000E+00 0. -1.
          1   -1    0    0  501    0 -0.00000000000E+00 -0.00000000000E+00 -0.14629987015E+03  0.14629987015E+03  0.00000000000E+00 0. -1.
         25    2    1    2    0    0 -0.80540417749E+01  0.70622988703E+02  0.53946523394E+02  0.15358315003E+03  0.12500032986E+03 0.  0.
          2    1    1    2  501    0 -0.73347902889E+02 -0.54404563435E+02 -0.64889521672E+02  0.11202866331E+03  0.00000000000E+00 0. -1.
          1    1    1    2  502    0  0.81401944664E+02 -0.16218425268E+02  0.20666574189E+03  0.22271067057E+03  0.00000000000E+00 0. -1.
         22    1    3    3    0    0  0.20035306830E+02  0.56822027140E+02  0.88436557564E+02  0.10701019111E+03  0.00000000000E+00 0. -1.
         22    1    3    3    0    0 -0.28089348605E+02  0.13800961562E+02 -0.34490034170E+02  0.46572958916E+02  0.00000000000E+00 0. -1.
</event>
<event>
 7    1  0.7029100E-006  0.3035213E+02  0.7818608E-02  0.1612952E+00
          2   -1    0    0  502    0  0.00000000000E+00  0.00000000000E+00  0.14487862116E+03  0.14487862116E+03  0.00000000000E+00 0. -1.
          1   -1    0    0  501    0 -0.00000000000E+00 -0.00000000000E+00 -0.64359577594E+03  0.64359577594E+03  0.00000000000E+00 0. -1.
         25    2    1    2    0    0  0.36497204498E+02  0.42468192378E+02 -0.24992056491E+03  0.28499223408E+03  0.12499876567E+03 0.  0.
          2    1    1    2  501    0 -0.21867200496E+02 -0.16062585877E+02 -0.37385173902E+03  0.37483503557E+03  0.00000000000E+00 0. -1.
          1    1    1    2  502    0 -0.14630004002E+02 -0.26405606501E+02  0.12505514915E+03  0.12864712745E+03  0.00000000000E+00 0. -1.
         22    1    3    3    0    0  0.49638285084E+01 -0.43532977451E+02 -0.61805110975E+02  0.75760355477E+02  0.00000000000E+00 0.  1.
         22    1    3    3    0    0  0.31533375989E+02  0.86001169829E+02 -0.18811545394E+03  0.20923187860E+03  0.00000000000E+00 0.  1.
</event>
<event>
 7    1  0.7029100E-006  0.1116463E+03  0.7818608E-02  0.1341770E+00
          2   -1    0    0  502    0  0.00000000000E+00  0.00000000000E+00  0.87652560348E+03  0.87652560348E+03  0.00000000000E+00 0. -1.
          1   -1    0    0  501    0 -0.00000000000E+00 -0.00000000000E+00 -0.36084422091E+03  0.36084422091E+03  0.00000000000E+00 0. -1.
         25    2    1    2    0    0 -0.11214222683E+03 -0.14483468397E+02 -0.17861916025E+03  0.24559242208E+03  0.12500073391E+03 0.  0.
          2    1    1    2  501    0  0.10934713929E+03 -0.36744039778E+02 -0.12544895388E+03  0.17042406332E+03  0.00000000000E+00 0. -1.
          1    1    1    2  502    0  0.27950875472E+01  0.51227508175E+02  0.81974949671E+03  0.82135333898E+03  0.00000000000E+00 0. -1.
         22    1    3    3    0    0 -0.59149895370E+02  0.36760149735E+02 -0.15203975129E+03  0.16723069307E+03  0.00000000000E+00 0. -1.
         22    1    3    3    0    0 -0.52992331464E+02 -0.51243618132E+02 -0.26579408963E+02  0.78361729014E+02  0.00000000000E+00 0. -1.
</event>
<event>
 7    1  0.7029100E-006  0.6967646E+02  0.7818608E-02  0.1508414E+00
          2   -1    0    0  502    0  0.00000000000E+00  0.00000000000E+00  0.52386914640E+03  0.52386914640E+03  0.00000000000E+00 0. -1.
          1   -1    0    0  501    0 -0.00000000000E+00 -0.00000000000E+00 -0.12942489363E+03  0.12942489363E+03  0.00000000000E+00 0. -1.
         25    2    1    2    0    0  0.16889554043E+02 -0.51404140705E+02  0.21759663452E+03  0.25671815017E+03  0.12501308153E+03 0.  0.
          2    1    1    2  501    0 -0.75338196239E+01 -0.21658888984E+02 -0.10386168209E+03  0.10636312762E+03  0.00000000000E+00 0. -1.
          1    1    1    2  502    0 -0.93557344186E+01  0.73063029689E+02  0.28070930034E+03  0.29021276225E+03  0.00000000000E+00 0. -1.
         22    1    3    3    0    0  0.24209960947E+02 -0.80391519762E+02  0.80204287925E+02  0.11611049246E+03  0.00000000000E+00 0.  1.
         22    1    3    3    0    0 -0.73204069044E+01  0.28987379057E+02  0.13739234659E+03  0.14060765770E+03  0.00000000000E+00 0.  1.
</event>
<event>
 7    1  0.7029100E-006  0.8904913E+02  0.7818608E-02  0.1385829E+00
          2   -1    0    0  502    0  0.00000000000E+00  0.00000000000E+00  0.61851643718E+03  0.61851643718E+03  0.00000000000E+00 0. -1.
          1   -1    0    0  501    0 -0.00000000000E+00 -0.00000000000E+00 -0.67256167782E+03  0.67256167782E+03  0.00000000000E+00 0. -1.
         25    2    1    2    0    0  0.74630089169E+02  0.27436345286E+02 -0.17026611564E+03  0.22569766011E+03  0.12500592142E+03 0.  0.
          2    1    1    2  501    0 -0.60222154828E+02 -0.69548611251E+02 -0.46926863985E+03  0.47820160351E+03  0.00000000000E+00 0. -1.
          1    1    1    2  502    0 -0.14407934341E+02  0.42112265966E+02  0.58548951484E+03  0.58717885138E+03  0.00000000000E+00 0. -1.
         22    1    3    3    0    0  0.38106300727E+02 -0.44815190632E+02 -0.11010128452E+03  0.12483102306E+03  0.00000000000E+00 0. -1.
         22    1    3    3    0    0  0.36523788442E+02  0.72251535918E+02 -0.60164831126E+02  0.10086663705E+03  0.00000000000E+00 0. -1.
</event>
<event>
 7    1  0.7029100E-006  0.9272053E+02  0.7818608E-02  0.1363232E+00
          2   -1    0    0  502    0  0.00000000000E+00  0.00000000000E+00  0.17125618132E+03  0.17125618132E+03  0.00000000000E+00 0. -1.
          1   -1    0    0  501    0 -0.00000000000E+00 -0.00000000000E+00 -0.23368857164E+04  0.23368857164E+04  0.00000000000E+00 0. -1.
         25    2    1    2    0    0 -0.73613781573E+02 -0.69039249823E+02 -0.11191475676E+04  0.11306198788E+04  0.12499850100E+03 0.  0.
          2    1    1    2  501    0  0.91134800975E+02  0.20638128132E+02 -0.12061487247E+04  0.12097628819E+04  0.00000000000E+00 0. -1.
          1    1    1    2  502    0 -0.17521019401E+02  0.48401121690E+02  0.15966675726E+03  0.16775913708E+03  0.00000000000E+00 0. -1.
         22    1    3    3    0    0  0.29495256288E+02 -0.46454759501E+02 -0.36736684019E+03  0.37146522058E+03  0.00000000000E+00 0.  1.
         22    1    3    3    0    0 -0.10310903786E+03 -0.22584490322E+02 -0.75178072745E+03  0.75915465820E+03  0.00000000000E+00 0.  1.
</event>
<event>
 7    1  0.7029100E-006  0.5554914E+02  0.7818608E-02  0.1483922E+00
          2   -1    0    0  502    0  0.00000000000E+00  0.00000000000E+00  0.16073200893E+04  0.16073200893E+04  0.00000000000E+00 0. -1.
          1   -1    0    0  501    0 -0.00000000000E+00 -0.00000000000E+00 -0.10004134361E+03  0.10004134361E+03  0.00000000000E+00 0. -1.
         25    2    1    2    0    0 -0.37460236753E+02 -0.28537214485E+02  0.78753068679E+03  0.79877820816E+03  0.12499760495E+03 0.  0.
          2    1    1    2  501    0  0.14598042922E+02  0.53792183341E+02 -0.85800141269E+02  0.10231503354E+03  0.00000000000E+00 0. -1.
          1    1    1    2  502    0  0.22862193831E+02 -0.25254968855E+02  0.80554820019E+03  0.80626819123E+03  0.00000000000E+00 0. -1.
         22    1    3    3    0    0 -0.55561540973E+02 -0.10834281545E+02  0.14367147001E+03  0.15442136442E+03  0.00000000000E+00 0. -1.
         22    1    3    3    0    0  0.18101304220E+02 -0.17702932941E+02  0.64385921678E+03  0.64435684374E+03  0.00000000000E+00 0. -1.
</event>
<event>
 7    1  0.7029100E-006  0.3978673E+02  0.7818608E-02  0.1567221E+00
          2   -1    0    0  502    0  0.00000000000E+00  0.00000000000E+00  0.53719080725E+03  0.53719080725E+03  0.00000000000E+00 0. -1.
          1   -1    0    0  501    0 -0.00000000000E+00 -0.00000000000E+00 -0.10301945922E+04  0.10301945922E+04  0.00000000000E+00 0. -1.
         25    2    1    2    0    0 -0.12519359338E+02 -0.17083579213E+02  0.30758701876E+02  0.13046070358E+03  0.12500125759E+03 0.  0.
          2    1    1    2  501    0  0.38777163024E+02  0.94225517256E+01 -0.97952730560E+03  0.98033983662E+03  0.00000000000E+00 0. -1.
          1    1    1    2  502    0 -0.26257803686E+02  0.76610274875E+01  0.45576481881E+03  0.45658485921E+03  0.00000000000E+00 0. -1.
         22    1    3    3    0    0 -0.68723935383E+02 -0.14925534159E+02  0.20821691503E+02  0.73343668449E+02  0.00000000000E+00 0.  1.
         22    1    3    3    0    0  0.56204576045E+02 -0.21580450542E+01  0.99370103726E+01  0.57117035130E+02  0.00000000000E+00 0.  1.
</event>
<event>
 7    1  0.7029100E-006  0.1116968E+03  0.7818608E-02  0.1301880E+00
          2   -1    0    0  502    0  0.00000000000E+00  0.00000000000E+00  0.28073454453E+04  0.28073454453E+04  0.00000000000E+00 0. -1.
          1   -1    0    0  501    0 -0.00000000000E+00 -0.00000000000E+00 -0.67226550137E+02  0.67226550137E+02  0.00000000000E+00 0. -1.
         25    2    1    2    0    0  0.18295270399E+02 -0.56476085931E+02  0.34794937424E+03  0.37446466427E+03  0.12502300808E+03 0.  0.
          2    1    1    2  501    0 -0.82992302360E+02  0.90649270162E+02  0.17303615568E+02  0.12411457426E+03  0.00000000000E+00 0. -1.
          1    1    1    2  502    0  0.64697031961E+02 -0.34173184231E+02  0.23748659053E+04  0.23759927569E+04  0.00000000000E+00 0. -1.
         22    1    3    3    0    0  0.44620313259E+02 -0.82950260559E+02  0.29503244772E+03  0.30970286290E+03  0.00000000000E+00 0. -1.
         22    1    3    3    0    0 -0.26325042860E+02  0.26474174628E+02  0.52916926520E+02  0.64761801366E+02  0.00000000000E+00 0. -1.
</event>
<event>
 7    1  0.7029100E-006  0.9623835E+02  0.7818608E-02  0.1399314E+00
          2   -1    0    0  502    0  0.00000000000E+00  0.00000000000E+00  0.77314522635E+03  0.77314522635E+03  0.00000000000E+00 0. -1.
          1   -1    0    0  501    0 -0.00000000000E+00 -0.00000000000E+00 -0.11229749384E+03  0.11229749384E+03  0.00000000000E+00 0. -1.
         25    2    1    2    0    0 -0.43814883671E+02 -0.83356213204E+02  0.18240665150E+03  0.24034225303E+03  0.12499683904E+03 0.  0.
          2    1    1    2  501    0  0.94156709209E+01  0.96900625043E+02 -0.54031947862E+02  0.11134557639E+03  0.00000000000E+00 0. -1.
          1    1    1    2  502    0  0.34399212750E+02 -0.13544411839E+02  0.53247302887E+03  0.53375489076E+03  0.00000000000E+00 0. -1.
         22    1    3    3    0    0  0.25118511680E+02 -0.69175208346E+02  0.45825754108E+02  0.86695725491E+02  0.00000000000E+00 0. -1.
         22    1    3    3    0    0 -0.68933395351E+02 -0.14181004858E+02  0.13658089739E+03  0.15364652754E+03  0.00000000000E+00 0. -1.
</event>
<event>
 7    1  0.7029100E-006  0.7824294E+02  0.7818608E-02  0.1425716E+00
          2   -1    0    0  502    0  0.00000000000E+00  0.00000000000E+00  0.22957392513E+03  0.22957392513E+03  0.00000000000E+00 0. -1.
          1   -1    0    0  501    0 -0.00000000000E+00 -0.00000000000E+00 -0.31952462432E+04  0.31952462432E+04  0.00000000000E+00 0. -1.
         25    2    1    2    0    0  0.43302046499E+02 -0.27879361812E+02 -0.98111133767E+03  0.99038172616E+03  0.12499672216E+03 0.  0.
          2    1    1    2  501    0  0.34026322621E+02  0.14619019147E+02 -0.22024979861E+04  0.22028093166E+04  0.00000000000E+00 0. -1.
          1    1    1    2  502    0 -0.77328369120E+02  0.13260342665E+02  0.21793700573E+03  0.23162912559E+03  0.00000000000E+00 0. -1.
         22    1    3    3    0    0  0.15663629084E+02  0.17467402733E+02 -0.31452820669E+02  0.39239512769E+02  0.00000000000E+00 0. -1.
         22    1    3    3    0    0  0.27638417415E+02 -0.45346764545E+02 -0.94965851700E+03  0.95114221339E+03  0.00000000000E+00 0. -1.
</event>
<event>
 7    1  0.7029100E-006  0.5332329E+02  0.7818608E-02  0.1528130E+00
          2   -1    0    0  502    0  0.00000000000E+00  0.00000000000E+00  0.65459136435E+03  0.65459136435E+03  0.00000000000E+00 0. -1.
          1   -1    0    0  501    0 -0.00000000000E+00 -0.00000000000E+00 -0.20737788296E+03  0.20737788296E+03  0.00000000000E+00 0. -1.
         25    2    1    2    0    0  0.60209257751E+02  0.10158649163E+02  0.11562946034E+03  0.18089852436E+03  0.12500300455E+03 0.  0.
          2    1    1    2  501    0 -0.43649201506E+02 -0.30532736163E+02 -0.17033271942E+03  0.17846774519E+03  0.00000000000E+00 0. -1.
          1    1    1    2  502    0 -0.16560056244E+02  0.20374087000E+02  0.50191674047E+03  0.50260297775E+03  0.00000000000E+00 0. -1.
         22    1    3    3    0    0  0.35549860079E+02  0.56581987854E+02  0.10908672431E+03  0.12792664820E+03  0.00000000000E+00 0.  1.
         22    1    3    3    0    0  0.24659397672E+02 -0.46423338691E+02  0.65427360351E+01  0.52971876157E+02  0.00000000000E+00 0.  1.
</event>
<event>
 7    1  0.7029100E-006  0.4459896E+02  0.7818608E-02  0.1578558E+00
          2   -1    0    0  502    0  0.00000000000E+00  0.00000000000E+00  0.87870334602E+03  0.87870334602E+03  0.00000000000E+00 0. -1.
          1   -1    0    0  501    0 -0.00000000000E+00 -0.00000000000E+00 -0.16769964356E+04  0.16769964356E+04  0.00000000000E+00 0. -1.
         25    2    1    2    0    0  0.21843263129E+02 -0.16057698923E+01 -0.98730349301E+03  0.99542602039E+03  0.12500027246E+03 0.  0.
          2    1    1    2  501    0  0.22736465672E+02 -0.90536961102E-01 -0.68487403391E+03  0.68525133885E+03  0.00000000000E+00 0. -1.
          1    1    1    2  502    0 -0.44579728802E+02  0.16963068534E+01  0.87388443739E+03  0.87502242234E+03  0.00000000000E+00 0. -1.
         22    1    3    3    0    0 -0.29091353053E+02 -0.32170461035E+02 -0.15352547827E+03  0.15953469173E+03  0.00000000000E+00 0. -1.
         22    1    3    3    0    0  0.50934616182E+02  0.30564691143E+02 -0.83377801474E+03  0.83589132866E+03  0.00000000000E+00 0. -1.
</event>
<event>
 7    1  0.7029100E-006  0.5031358E+02  0.7818608E-02  0.1473283E+00
          2   -1    0    0  502    0  0.00000000000E+00  0.00000000000E+00  0.21699153559E+03  0.21699153559E+03  0.00000000000E+00 0. -1.
          1   -1    0    0  501    0 -0.00000000000E+00 -0.00000000000E+00 -0.45212193309E+03  0.45212193309E+03  0.00000000000E+00 0. -1.
         25    2    1    2    0    0 -0.16048337677E+02 -0.39789734420E+02 -0.35463432487E+02  0.13683740359E+03  0.12500419141E+03 0.  0.
          2    1    1    2  501    0  0.48648322523E+02  0.15670902913E+02 -0.36167570615E+03  0.36526915131E+03  0.00000000000E+00 0. -1.
          1    1    1    2  502    0 -0.32599984846E+02  0.24118831507E+02  0.16200874114E+03  0.16700691378E+03  0.00000000000E+00 0. -1.
         22    1    3    3    0    0  0.16510477527E+02  0.40170770559E+02  0.18552700722E+00  0.43431798210E+02  0.00000000000E+00 0.  1.
         22    1    3    3    0    0 -0.32558815204E+02 -0.79960504979E+02 -0.35648959495E+02  0.93405605383E+02  0.00000000000E+00 0.  1.
</event>
<event>
 7    1  0.7029100E-006  0.7185553E+02  0.7818608E-02  0.1414434E+00
          2   -1    0    0  502    0  0.00000000000E+00  0.00000000000E+00  0.26193331080E+03  0.26193331080E+03  0.00000000000E+00 0. -1.
          1   -1    0    0  501    0 -0.00000000000E+00 -0.00000000000E+00 -0.32971268587E+04  0.32971268587E+04  0.00000000000E+00 0. -1.
         25    2    1    2    0    0  0.12417595503E+02  0.10073932470E+03 -0.88300269817E+01  0.16126332637E+03  0.12500113134E+03 0.  0.
          2    1    1    2  501    0  0.18381104439E+02 -0.69342926544E+02 -0.32090698571E+04  0.32098715947E+04  0.00000000000E+00 0. -1.
          1    1    1    2  502    0 -0.30798699943E+02 -0.31396398155E+02  0.18270633618E+03  0.18792524847E+03  0.00000000000E+00 0. -1.
         22    1    3    3    0    0  0.60489623728E+02  0.93719759549E+02  0.16779740075E+01  0.11155807235E+03  0.00000000000E+00 0.  1.
         22    1    3    3    0    0 -0.48072028224E+02  0.70195651492E+01 -0.10508000989E+02  0.49705254021E+02  0.00000000000E+00 0.  1.
</event>
<event>
 7    1  0.7029100E-006  0.1405546E+03  0.7818608E-02  0.1281334E+00
          2   -1    0    0  502    0  0.00000000000E+00  0.00000000000E+00  0.58172011246E+03  0.58172011246E+03  0.00000000000E+00 0. -1.
          1   -1    0    0  501    0 -0.00000000000E+00 -0.00000000000E+00 -0.31322998642E+03  0.31322998642E+03  0.00000000000E+00 0. -1.
         25    2    1    2    0    0  0.84246215798E+02 -0.18382302872E+01  0.24485824058E+03  0.28753872439E+03  0.12498862379E+03 0.  0.
          2    1    1    2  501    0 -0.13586810852E+03  0.49777760433E+02 -0.26952352015E+03  0.30590994796E+03  0.00000000000E+00 0. -1.
          1    1    1    2  502    0  0.51621892718E+02 -0.47939530146E+02  0.29315540561E+03  0.30150142653E+03  0.00000000000E+00 0. -1.
         22    1    3    3    0    0  0.64792288576E+02  0.42688356734E+01  0.25613551719E+03  0.26423789808E+03  0.00000000000E+00 0. -1.
         22    1    3    3    0    0  0.19453927222E+02 -0.61070659607E+01 -0.11277276608E+02  0.23300826309E+02  0.00000000000E+00 0. -1.
</event>
<event>
 7    1  0.7029100E-006  0.1076463E+03  0.7818608E-02  0.1308880E+00
          2   -1    0    0  502    0  0.00000000000E+00  0.00000000000E+00  0.56940141201E+03  0.56940141201E+03  0.00000000000E+00 0. -1.
          1   -1    0    0  501    0 -0.00000000000E+00 -0.00000000000E+00 -0.11535834676E+04  0.11535834676E+04  0.00000000000E+00 0. -1.
         25    2    1    2    0    0  0.38824306418E+02  0.13231015362E+02  0.14742994030E+03  0.19759032483E+03  0.12499585047E+03 0.  0.
          2    1    1    2  501    0 -0.10869286334E+03  0.55524771867E+00 -0.11226626199E+04  0.11279121441E+04  0.00000000000E+00 0. -1.
          1    1    1    2  502    0  0.69868556927E+02 -0.13786263080E+02  0.39105062395E+03  0.39748241067E+03  0.00000000000E+00 0. -1.
         22    1    3    3    0    0  0.47502173775E+02  0.47861098282E+02  0.14717601889E+03  0.16188860917E+03  0.00000000000E+00 0.  1.
         22    1    3    3    0    0 -0.86778673571E+01 -0.34630082920E+02  0.25392140480E+00  0.35701715659E+02  0.00000000000E+00 0.  1.
</event>
<event>
 7    1  0.7029100E-006  0.8861969E+02  0.7818608E-02  0.1351617E+00
          2   -1    0    0  502    0  0.00000000000E+00  0.00000000000E+00  0.38872652379E+03  0.38872652379E+03  0.00000000000E+00 0. -1.
          1   -1    0    0  501    0 -0.00000000000E+00 -0.00000000000E+00 -0.46064637994E+03  0.46064637994E+03  0.00000000000E+00 0. -1.
         25    2    1    2    0    0  0.80093499459E+02 -0.50736925180E+01  0.10364100120E+02  0.14891147881E+03  0.12500601161E+03 0.  0.
          2    1    1    2  501    0 -0.65188394846E+02  0.62574301873E+02 -0.38321475196E+03  0.39372403559E+03  0.00000000000E+00 0. -1.
          1    1    1    2  502    0 -0.14905104613E+02 -0.57500609355E+02  0.30093079569E+03  0.30673738933E+03  0.00000000000E+00 0. -1.
         22    1    3    3    0    0  0.13656710530E+02  0.56039863417E+02  0.10573366907E+02  0.58641010582E+02  0.00000000000E+00 0. -1.
         22    1    3    3    0    0  0.66436788929E+02 -0.61113555935E+02 -0.20926678643E+00  0.90270468232E+02  0.00000000000E+00 0. -1.
</event>
<event>
 7    1  0.7029100E-006  0.1377147E+03  0.7818608E-02  0.1270312E+00
          2   -1    0    0  502    0  0.00000000000E+00  0.00000000000E+00  0.77444994795E+03  0.77444994795E+03  0.00000000000E+00 0. -1.
          1   -1    0    0  501    0 -0.00000000000E+00 -0.00000000000E+00 -0.53346003224E+03  0.53346003224E+03  0.00000000000E+00 0. -1.
         25    2    1    2    0    0  0.84542486524E+01  0.65322997951E+02 -0.12875125554E+02  0.14187508744E+03  0.12499681274E+03 0.  0.
          2    1    1    2  501    0 -0.96831770821E+01  0.79319033481E+02 -0.44512229630E+03  0.45223791488E+03  0.00000000000E+00 0. -1.
          1    1    1    2  502    0  0.12289284297E+01 -0.14464203143E+03  0.69898733758E+03  0.71379697787E+03  0.00000000000E+00 0. -1.
         22    1    3    3    0    0  0.26476572051E+02 -0.28423192412E+02 -0.24164186565E+02  0.45747072549E+02  0.00000000000E+00 0. -1.
         22    1    3    3    0    0 -0.18022323398E+02  0.93746190362E+02  0.11289061011E+02  0.96128014890E+02  0.00000000000E+00 0. -1.
</event>
<event>
 7    1  0.7029100E-006  0.9612844E+02  0.7818608E-02  0.1398480E+00
          2   -1    0    0  502    0  0.00000000000E+00  0.00000000000E+00  0.84737033901E+03  0.84737033901E+03  0.00000000000E+00 0. -1.
          1   -1    0    0  501    0 -0.00000000000E+00 -0.00000000000E+00 -0.75937860655E+03  0.75937860655E+03  0.00000000000E+00 0. -1.
         25    2    1    2    0    0  0.24665034144E+02  0.54831928349E+02 -0.30358953196E+02  0.14199194364E+03  0.12500056698E+03 0.  0.
          2    1    1    2  501    0  0.15620319297E+02  0.33825132227E+02 -0.66968834311E+03  0.67072394534E+03  0.00000000000E+00 0. -1.
          1    1    1    2  502    0 -0.40285353442E+02 -0.88657060577E+02  0.78803902877E+03  0.79403305659E+03  0.00000000000E+00 0. -1.
         22    1    3    3    0    0  0.19737911011E+02  0.94279830341E+02 -0.86886859994E+01  0.96714863411E+02  0.00000000000E+00 0. -1.
         22    1    3    3    0    0  0.49271231339E+01 -0.39447901991E+02 -0.21670267197E+02  0.45277080231E+02  0.00000000000E+00 0. -1.
</event>
<event>
 7    1  0.7029100E-006  0.3331823E+03  0.7818608E-02  0.1307576E+00
          2   -1    0    0  502    0  0.00000000000E+00  0.00000000000E+00  0.18421268287E+04  0.18421268287E+04  0.00000000000E+00 0. -1.
          1   -1    0    0  501    0 -0.00000000000E+00 -0.00000000000E+00 -0.28133447361E+03  0.28133447361E+03  0.00000000000E+00 0. -1.
         25    2    1    2    0    0 -0.30198679113E+03 -0.99397578836E+02  0.11540787393E+04  0.12035775593E+04  0.12500121569E+03 0.  0.
          2    1    1    2  501    0  0.31226055530E+03  0.12029158082E+03 -0.14713344637E+03  0.36554749329E+03  0.00000000000E+00 0. -1.
          1    1    1    2  502    0 -0.10273764173E+02 -0.20894001986E+02  0.55384706208E+03  0.55433624969E+03  0.00000000000E+00 0. -1.
         22    1    3    3    0    0 -0.34816323174E+02  0.15137349241E+02  0.27684900563E+03  0.27943995352E+03  0.00000000000E+00 0. -1.
         22    1    3    3    0    0 -0.26717046795E+03 -0.11453492808E+03  0.87722973370E+03  0.92413760576E+03  0.00000000000E+00 0. -1.
</event>
<event>
 7    1  0.7029100E-006  0.8239912E+02  0.7818608E-02  0.1355905E+00
          2   -1    0    0  502    0  0.00000000000E+00  0.00000000000E+00  0.19584141224E+04  0.19584141224E+04  0.00000000000E+00 0. -1.
          1   -1    0    0  501    0 -0.00000000000E+00 -0.00000000000E+00 -0.16420802843E+03  0.16420802843E+03  0.00000000000E+00 0. -1.
         25    2    1    2    0    0 -0.33598075354E+02 -0.40162123605E+02  0.21395318737E+02  0.13720347900E+03  0.12500083258E+03 0.  0.
          2    1    1    2  501    0  0.91012865101E+02  0.17834393286E+02 -0.85467609410E+02  0.12611946502E+03  0.00000000000E+00 0. -1.
          1    1    1    2  502    0 -0.57414789747E+02  0.22327730319E+02  0.18582783846E+04  0.18592992068E+04  0.00000000000E+00 0. -1.
         22    1    3    3    0    0  0.16964117769E+02  0.25485644326E+01 -0.42114553172E+02  0.45474301108E+02  0.00000000000E+00 0.  1.
         22    1    3    3    0    0 -0.50562193123E+02 -0.42710688037E+02  0.63509871910E+02  0.91729177888E+02  0.00000000000E+00 0.  1.
</event>
<event>
 7    1  0.7029100E-006  0.1818994E+03  0.7818608E-02  0.1268095E+00
          2   -1    0    0  502    0  0.00000000000E+00  0.00000000000E+00  0.13170161942E+04  0.13170161942E+04  0.00000000000E+00 0. -1.
          1   -1    0    0  501    0 -0.00000000000E+00 -0.00000000000E+00 -0.22065631668E+03  0.22065631668E+03  0.00000000000E+00 0. -1.
         25    2    1    2    0    0 -0.11388249293E+03  0.83124972002E+02  0.29051271058E+03  0.34626906166E+03  0.12500257953E+03 0.  0.
          2    1    1    2  501    0 -0.61531387379E+02  0.58657740118E+01 -0.17782350275E+03  0.18825970644E+03  0.00000000000E+00 0. -1.
          1    1    1    2  502    0  0.17541388031E+03 -0.88990746014E+02  0.98367066967E+03  0.10031437428E+04  0.00000000000E+00 0. -1.
         22    1    3    3    0    0 -0.49252781660E+02  0.10158993129E+03  0.12958441670E+03  0.17186759931E+03  0.00000000000E+00 0. -1.
         22    1    3    3    0    0 -0.64629711272E+02 -0.18464959284E+02  0.16092829388E+03  0.17440146235E+03  0.00000000000E+00 0. -1.
</event>
<event>
 7    1  0.7029100E-006  0.6507231E+02  0.7818608E-02  0.1476553E+00
          2   -1    0    0  502    0  0.00000000000E+00  0.00000000000E+00  0.12836250984E+04  0.12836250984E+04  0.00000000000E+00 0. -1.
          1   -1    0    0  501    0 -0.00000000000E+00 -0.00000000000E+00 -0.63913167563E+03  0.63913167563E+03  0.00000000000E+00 0. -1.
         25    2    1    2    0    0 -0.81846488757E+02  0.48083733209E+02  0.13735666007E+03  0.20857662891E+03  0.12500585963E+03 0.  0.
          2    1    1    2  501    0  0.26465243937E+02 -0.15428204443E+02 -0.60220162125E+03  0.60298029094E+03  0.00000000000E+00 0. -1.
          1    1    1    2  502    0  0.55381244820E+02 -0.32655528766E+02  0.11093383840E+04  0.11111998542E+04  0.00000000000E+00 0. -1.
         22    1    3    3    0    0 -0.30101895871E+02 -0.42457767338E+02  0.54732528888E+02  0.75527715846E+02  0.00000000000E+00 0.  1.
         22    1    3    3    0    0 -0.51744592887E+02  0.90541500547E+02  0.82624131178E+02  0.13304891306E+03  0.00000000000E+00 0.  1.
</event>
<event>
 7    1  0.7029100E-006  0.1214515E+03  0.7818608E-02  0.1386857E+00
          2   -1    0    0  502    0  0.00000000000E+00  0.00000000000E+00  0.12795682034E+04  0.12795682034E+04  0.00000000000E+00 0. -1.
          1   -1    0    0  501    0 -0.00000000000E+00 -0.00000000000E+00 -0.26139592329E+03  0.26139592329E+03  0.00000000000E+00 0. -1.
         25    2    1    2    0    0 -0.10273797791E+03 -0.48448900771E+02  0.14235210333E+03  0.22088753999E+03  0.12499918363E+03 0.  0.
          2    1    1    2  501    0 -0.17826104523E+02  0.27012578107E+02 -0.21751280287E+03  0.21990740958E+03  0.00000000000E+00 0. -1.
          1    1    1    2  502    0  0.12056408243E+03  0.21436322664E+02  0.10933329797E+04  0.11001691771E+04  0.00000000000E+00 0. -1.
         22    1    3    3    0    0 -0.30781434345E+02 -0.56497783392E+02  0.36719953461E+01  0.64443617049E+02  0.00000000000E+00 0.  1.
         22    1    3    3    0    0 -0.71956543564E+02  0.80488826215E+01  0.13868010799E+03  0.15644392294E+03  0.00000000000E+00 0.  1.
</event>
<event>
 7    1  0.7029100E-006  0.1450016E+03  0.7818608E-02  0.1285973E+00
          2   -1    0    0  502    0  0.00000000000E+00  0.00000000000E+00  0.15899857228E+04  0.15899857228E+04  0.00000000000E+00 0. -1.
          1   -1    0    0  501    0 -0.00000000000E+00 -0.00000000000E+00 -0.18105515454E+04  0.18105515454E+04  0.00000000000E+00 0. -1.
         25    2    1    2    0    0  0.12214350956E+03 -0.12429796743E+03  0.38066587081E+03  0.43692145939E+03  0.12499933938E+03 0.  0.
          2    1    1    2  501    0 -0.57373879782E+02  0.13302979404E+03 -0.17785721190E+04  0.17844627961E+04  0.00000000000E+00 0. -1.
          1    1    1    2  502    0 -0.64769629778E+02 -0.87318266088E+01  0.11773404256E+04  0.11791530127E+04  0.00000000000E+00 0. -1.
         22    1    3    3    0    0  0.38411016593E+02 -0.68346917659E+02  0.54292701885E+02  0.95364588958E+02  0.00000000000E+00 0. -1.
         22    1    3    3    0    0  0.83732492966E+02 -0.55951049769E+02  0.32637316892E+03  0.34155687044E+03  0.00000000000E+00 0. -1.
</event>
<event>
 7    1  0.7029100E-006  0.4479660E+02  0.7818608E-02  0.1557570E+00
          2   -1    0    0  502    0  0.00000000000E+00  0.00000000000E+00  0.19741782578E+04  0.19741782578E+04  0.00000000000E+00 0. -1.
          1   -1    0    0  501    0 -0.00000000000E+00 -0.00000000000E+00 -0.95575233023E+03  0.95575233023E+03  0.00000000000E+00 0. -1.
         25    2    1    2    0    0  0.45307819018E+02 -0.23145053299E+02  0.31532044682E+03  0.34298851230E+03  0.12500257369E+03 0.  0.
          2    1    1    2  501    0 -0.24046661936E+02  0.37797209221E+02 -0.94128422794E+03  0.94234965313E+03  0.00000000000E+00 0. -1.
          1    1    1    2  502    0 -0.21261157082E+02 -0.14652155922E+02  0.16443897087E+04  0.16445924226E+04  0.00000000000E+00 0. -1.
         22    1    3    3    0    0  0.53552835114E+02  0.42743991775E+02  0.15611192690E+03  0.17048720979E+03  0.00000000000E+00 0. -1.
         22    1    3    3    0    0 -0.82450160957E+01 -0.65889045074E+02  0.15920851993E+03  0.17250130251E+03  0.00000000000E+00 0. -1.
</event>
<event>
 7    1  0.7029100E-006  0.3975047E+02  0.7818608E-02  0.1515872E+00
          2   -1    0    0  502    0  0.00000000000E+00  0.00000000000E+00  0.10197997174E+04  0.10197997174E+04  0.00000000000E+00 0. -1.
          1   -1    0    0  501    0 -0.00000000000E+00 -0.00000000000E+00 -0.16859126016E+04  0.16859126016E+04  0.00000000000E+00 0. -1.
         25    2    1    2    0    0 -0.69771055282E+02 -0.55806779323E+01  0.43111529233E+03  0.45429644968E+03  0.12500289913E+03 0.  0.
          2    1    1    2  501    0  0.34360147674E+02  0.19962200584E+02 -0.16734530827E+04  0.16739248278E+04  0.00000000000E+00 0. -1.
          1    1    1    2  502    0  0.35410907608E+02 -0.14381522652E+02  0.57622490618E+03  0.57749104156E+03  0.00000000000E+00 0. -1.
         22    1    3    3    0    0 -0.25832784803E+02  0.59301779435E+02  0.20756176704E+03  0.21740726977E+03  0.00000000000E+00 0.  1.
         22    1    3    3    0    0 -0.43938270479E+02 -0.64882457367E+02  0.22355352529E+03  0.23688917991E+03  0.00000000000E+00 0.  1.
</event>
<event>
 7    1  0.7029100E-006  0.9635216E+02  0.7818608E-02  0.1422216E+00
          2   -1    0    0  502    0  0.00000000000E+00  0.00000000000E+00  0.10590176954E+03  0.10590176954E+03  0.00000000000E+00 0. -1.
          1   -1    0    0  501    0 -0.00000000000E+00 -0.00000000000E+00 -0.21938564988E+04  0.21938564988E+04  0.00000000000E+00 0. -1.
         25    2    1    2    0    0  0.57410314353E+02  0.37710142233E+02 -0.24980028932E+03  0.28765182216E+03  0.12500154890E+03 0.  0.
          2    1    1    2  501    0  0.22652230903E+02  0.21000338370E+02 -0.18966313276E+04  0.18968828458E+04  0.00000000000E+00 0. -1.
          1    1    1    2  502    0 -0.80062545255E+02 -0.58710480603E+02  0.58476887701E+02  0.11522360036E+03  0.00000000000E+00 0. -1.
         22    1    3    3    0    0 -0.15295205108E+02 -0.10571587144E+02  0.42117831868E+01  0.19064125253E+02  0.00000000000E+00 0. -1.
         22    1    3    3    0    0  0.72705519461E+02  0.48281729377E+02 -0.25401207250E+03  0.26858769691E+03  0.00000000000E+00 0. -1.
</event>
<event>
 7    1  0.7029100E-006  0.8215705E+02  0.7818608E-02  0.1435463E+00
          2   -1    0    0  502    0  0.00000000000E+00  0.00000000000E+00  0.21737013459E+03  0.21737013459E+03  0.00000000000E+00 0. -1.
          1   -1    0    0  501    0 -0.00000000000E+00 -0.00000000000E+00 -0.85752388871E+02  0.85752388871E+02  0.00000000000E+00 0. -1.
         25    2    1    2    0    0  0.68233857386E+02 -0.33133040067E+01  0.48832533747E+02  0.15060841445E+03  0.12502576084E+03 0.  0.
          2    1    1    2  501    0 -0.92605956166E+02 -0.18576753479E+02  0.53369753041E+02  0.10848635595E+03  0.00000000000E+00 0. -1.
          1    1    1    2  502    0  0.24372098780E+02  0.21890057486E+02  0.29415458935E+02  0.44027753066E+02  0.00000000000E+00 0. -1.
         22    1    3    3    0    0  0.57084126285E+02 -0.31790275665E+02 -0.25571190219E+02  0.70164840695E+02  0.00000000000E+00 0.  1.
         22    1    3    3    0    0  0.11149731101E+02  0.28476971658E+02  0.74403723967E+02  0.80443573755E+02  0.00000000000E+00 0.  1.
</event>
<event>
 7    1  0.7029100E-006  0.3133177E+03  0.7818608E-02  0.1133681E+00
          2   -1    0    0  502    0  0.00000000000E+00  0.00000000000E+00  0.17982986406E+04  0.17982986406E+04  0.00000000000E+00 0. -1.
          1   -1    0    0  501    0 -0.00000000000E+00 -0.00000000000E+00 -0.11520265233E+04  0.11520265233E+04  0.00000000000E+00 0. -1.
         25    2    1    2    0    0  0.42286272268E+02 -0.16744129636E+03  0.33198667637E+03  0.39454285585E+03  0.12499678103E+03 0.  0.
          2    1    1    2  501    0 -0.12978017064E+03  0.29521270562E+03 -0.10932162492E+04  0.11397873494E+04  0.00000000000E+00 0. -1.
          1    1    1    2  502    0  0.87493898373E+02 -0.12777140926E+03  0.14075016901E+04  0.14159949587E+04  0.00000000000E+00 0. -1.
         22    1    3    3    0    0 -0.36794167317E+02 -0.12168491951E+02  0.54281592101E+02  0.66696133215E+02  0.00000000000E+00 0. -1.
         22    1    3    3    0    0  0.79080439585E+02 -0.15527280441E+03  0.27770508427E+03  0.32784672263E+03  0.00000000000E+00 0. -1.
</event>
<event>
 7    1  0.7029100E-006  0.5403432E+02  0.7818608E-02  0.1448648E+00
          2   -1    0    0  502    0  0.00000000000E+00  0.00000000000E+00  0.19023755192E+04  0.19023755192E+04  0.00000000000E+00 0. -1.
          1   -1    0    0  501    0 -0.00000000000E+00 -0.00000000000E+00 -0.23853680284E+02  0.23853680284E+02  0.00000000000E+00 0. -1.
         25    2    1    2    0    0  0.36262481631E+02 -0.47359375745E+02  0.69063574114E+03  0.70438797585E+03  0.12500726194E+03 0.  0.
          2    1    1    2  501    0  0.18481105200E+02  0.41193088966E+02  0.14873485397E+02  0.47535696018E+02  0.00000000000E+00 0. -1.
          1    1    1    2  502    0 -0.54743586831E+02  0.61662867786E+01  0.11730126124E+04  0.11743055277E+04  0.00000000000E+00 0. -1.
         22    1    3    3    0    0  0.27777839445E+02  0.61161840287E+01  0.29284292508E+02  0.40823839347E+02  0.00000000000E+00 0.  1.
         22    1    3    3    0    0  0.84846421869E+01 -0.53475559774E+02  0.66135144863E+03  0.66356413651E+03  0.00000000000E+00 0.  1.
</event>
<event>
 7    1  0.7029100E-006  0.4806380E+02  0.7818608E-02  0.1500102E+00
          2   -1    0    0  502    0  0.00000000000E+00  0.00000000000E+00  0.16528073185E+04  0.16528073185E+04  0.00000000000E+00 0. -1.
          1   -1    0    0  501    0 -0.00000000000E+00 -0.00000000000E+00 -0.49870255593E+03  0.49870255593E+03  0.00000000000E+00 0. -1.
         25    2    1    2    0    0 -0.19414266496E+02  0.17553522585E+02  0.12822228331E+03  0.18097226792E+03  0.12499987168E+03 0.  0.
          2    1    1    2  501    0  0.16862209116E+02  0.30881763713E+02 -0.47127902153E+03  0.47259066173E+03  0.00000000000E+00 0. -1.
          1    1    1    2  502    0  0.25520573795E+01 -0.48435286298E+02  0.14971615008E+04  0.14979469448E+04  0.00000000000E+00 0. -1.
         22    1    3    3    0    0 -0.11639276797E+02  0.64857932526E+02  0.11275892406E+03  0.13060091550E+03  0.00000000000E+00 0. -1.
         22    1    3    3    0    0 -0.77749896984E+01 -0.47304409941E+02  0.15463359253E+02  0.50371352414E+02  0.00000000000E+00 0. -1.
</event>
<event>
 7    1  0.7029100E-006  0.3604171E+02  0.7818608E-02  0.1601264E+00
          2   -1    0    0  502    0  0.00000000000E+00  0.00000000000E+00  0.93740671041E+03  0.93740671041E+03  0.00000000000E+00 0. -1.
          1   -1    0    0  501    0 -0.00000000000E+00 -0.00000000000E+00 -0.10994988316E+03  0.10994988316E+03  0.00000000000E+00 0. -1.
         25    2    1    2    0    0  0.21939101396E+02 -0.16703398002E+02  0.29314171893E+03  0.31987072864E+03  0.12499955194E+03 0.  0.
          2    1    1    2  501    0 -0.36063830548E+02 -0.33132055568E+01 -0.92942974509E+02  0.99749554964E+02  0.00000000000E+00 0. -1.
          1    1    1    2  502    0  0.14124729152E+02  0.20016603559E+02  0.62725808282E+03  0.62773630997E+03  0.00000000000E+00 0. -1.
         22    1    3    3    0    0  0.67428217286E+02 -0.25465710163E+02  0.23337976716E+03  0.24425638702E+03  0.00000000000E+00 0. -1.
         22    1    3    3    0    0 -0.45489115891E+02  0.87623121612E+01  0.59761951779E+02  0.75614341625E+02  0.00000000000E+00 0. -1.
</event>
<event>
 7    1  0.7029100E-006  0.8434728E+02  0.7818608E-02  0.1449829E+00
          2   -1    0    0  502    0  0.00000000000E+00  0.00000000000E+00  0.13992596308E+03  0.13992596308E+03  0.00000000000E+00 0. -1.
          1   -1    0    0  501    0 -0.00000000000E+00 -0.00000000000E+00 -0.11732680117E+04  0.11732680117E+04  0.00000000000E+00 0. -1.
         25    2    1    2    0    0 -0.64073284279E+02  0.92005459472E+02 -0.15052730089E+02  0.16858816574E+03  0.12499997845E+03 0.  0.
          2    1    1    2  501    0  0.50829738276E+02 -0.66575050486E+02 -0.10764805056E+04  0.10797343093E+04  0.00000000000E+00 0. -1.
          1    1    1    2  502    0  0.13243546003E+02 -0.25430408987E+02  0.58191187150E+02  0.64871499704E+02  0.00000000000E+00 0. -1.
         22    1    3    3    0    0 -0.25044920767E+02  0.76580311858E+02 -0.64877318403E+02  0.10344495475E+03  0.00000000000E+00 0.  1.
         22    1    3    3    0    0 -0.39028363512E+02  0.15425147615E+02  0.49824588314E+02  0.65143210989E+02  0.00000000000E+00 0.  1.
</event>
<event>
 7    1  0.7029100E-006  0.9983326E+02  0.7818608E-02  0.1395744E+00
          2   -1    0    0  502    0  0.00000000000E+00  0.00000000000E+00  0.50721099976E+03  0.50721099976E+03  0.00000000000E+00 0. -1.
          1   -1    0    0  501    0 -0.00000000000E+00 -0.00000000000E+00 -0.15856126208E+04  0.15856126208E+04  0.00000000000E+00 0. -1.
         25    2    1    2    0    0  0.69766020730E+02  0.90762730456E+02  0.13597931192E+02  0.17004439272E+03  0.12500008350E+03 0.  0.
          2    1    1    2  501    0 -0.36569703751E+02  0.26281012373E+01 -0.15012499570E+04  0.15016976006E+04  0.00000000000E+00 0. -1.
          1    1    1    2  502    0 -0.33196316980E+02 -0.93390831694E+02  0.40925040484E+03  0.42108162720E+03  0.00000000000E+00 0. -1.
         22    1    3    3    0    0  0.24448196552E+02  0.18474436933E+02  0.63994520078E+02  0.70952926188E+02  0.00000000000E+00 0. -1.
         22    1    3    3    0    0  0.45317824178E+02  0.72288293524E+02 -0.50396588886E+02  0.99091466535E+02  0.00000000000E+00 0. -1.
</event>
<event>
 7    1  0.7029100E-006  0.9092405E+02  0.7818608E-02  0.1356278E+00
          2   -1    0    0  502    0  0.00000000000E+00  0.00000000000E+00  0.47579750655E+03  0.47579750655E+03  0.00000000000E+00 0. -1.
          1   -1    0    0  501    0 -0.00000000000E+00 -0.00000000000E+00 -0.14245180927E+04  0.14245180927E+04  0.00000000000E+00 0. -1.
         25    2    1    2    0    0  0.60438218708E+02 -0.23141819755E+02  0.23875893625E+02  0.14276814886E+03  0.12499745570E+03 0.  0.
          2    1    1    2  501    0  0.31232293631E+02  0.46061476046E+02 -0.13588066303E+04  0.13599457983E+04  0.00000000000E+00 0. -1.
          1    1    1    2  502    0 -0.91670512339E+02 -0.22919656291E+02  0.38621015046E+03  0.39760165216E+03  0.00000000000E+00 0. -1.
         22    1    3    3    0    0  0.72112519240E+02 -0.64657442430E+02  0.23393505199E+02  0.99639632567E+02  0.00000000000E+00 0. -1.
         22    1    3    3    0    0 -0.11674300531E+02  0.41515622675E+02  0.48238842659E+00  0.43128516293E+02  0.00000000000E+00 0. -1.
</event>
<event>
 7    1  0.7029100E-006  0.6992270E+02  0.7818608E-02  0.1486184E+00
          2   -1    0    0  502    0  0.00000000000E+00  0.00000000000E+00  0.17612605955E+04  0.17612605955E+04  0.00000000000E+00 0. -1.
          1   -1    0    0  501    0 -0.00000000000E+00 -0.00000000000E+00 -0.10655254361E+02  0.10655254361E+02  0.00000000000E+00 0. -1.
         25    2    1    2    0    0  0.47048580483E+02 -0.80149502670E+02  0.13167082238E+04  0.13258896875E+04  0.12500162018E+03 0.  0.
          2    1    1    2  501    0 -0.33014453778E+02  0.57508946763E+02  0.20203788366E+03  0.21264181045E+03  0.00000000000E+00 0. -1.
          1    1    1    2  502    0 -0.14034126705E+02  0.22640555908E+02  0.23185923370E+03  0.23338435195E+03  0.00000000000E+00 0. -1.
         22    1    3    3    0    0 -0.16408909030E+02 -0.43961660195E+02  0.99011701519E+03  0.99122832064E+03  0.00000000000E+00 0. -1.
         22    1    3    3    0    0  0.63457489513E+02 -0.36187842475E+02  0.32659120858E+03  0.33466136682E+03  0.00000000000E+00 0. -1.
</event>
<event>
 7    1  0.7029100E-006  0.3068723E+02  0.7818608E-02  0.1627968E+00
          2   -1    0    0  502    0  0.00000000000E+00  0.00000000000E+00  0.56157864408E+03  0.56157864408E+03  0.00000000000E+00 0. -1.
          1   -1    0    0  501    0 -0.00000000000E+00 -0.00000000000E+00 -0.98701620651E+03  0.98701620651E+03  0.00000000000E+00 0. -1.
         25    2    1    2    0    0  0.26498191394E+02 -0.21031587147E+02  0.25169380747E+03  0.28304757711E+03  0.12498670484E+03 0.  0.
          2    1    1    2  501    0 -0.30524652527E+02 -0.32117719032E+01 -0.97058310080E+03  0.97106829083E+03  0.00000000000E+00 0. -1.
          1    1    1    2  502    0  0.40264611329E+01  0.24243359050E+02  0.29345173091E+03  0.29447898265E+03  0.00000000000E+00 0. -1.
         22    1    3    3    0    0  0.43562319297E+02  0.38244959651E+02  0.17658185147E+03  0.18585344460E+03  0.00000000000E+00 0.  1.
         22    1    3    3    0    0 -0.17064127902E+02 -0.59276546798E+02  0.75111955999E+02  0.97194132515E+02  0.00000000000E+00 0.  1.
</event>
<event>
 7    1  0.7029100E-006  0.1510381E+03  0.7818608E-02  0.1210760E+00
          2   -1    0    0  502    0  0.00000000000E+00  0.00000000000E+00  0.79804023058E+03  0.79804023058E+03  0.00000000000E+00 0. -1.
          1   -1    0    0  501    0 -0.00000000000E+00 -0.00000000000E+00 -0.78323950614E+03  0.78323950614E+03  0.00000000000E+00 0. -1.
         25    2    1    2    0    0  0.10607603341E+02  0.79221698371E+02 -0.34327989920E+02  0.15228773780E+03  0.12499818179E+03 0.  0.
          2    1    1    2  501    0 -0.13030837042E+03  0.28389639444E+02 -0.67456094378E+03  0.68761814251E+03  0.00000000000E+00 0. -1.
          1    1    1    2  502    0  0.11970076708E+03 -0.10761133782E+03  0.72368965814E+03  0.74137385641E+03  0.00000000000E+00 0. -1.
         22    1    3    3    0    0 -0.29252195199E+02 -0.23918403727E+02 -0.94305807851E+01  0.38945048655E+02  0.00000000000E+00 0.  1.
         22    1    3    3    0    0  0.39859798541E+02  0.10314010210E+03 -0.24897409135E+02  0.11334268914E+03  0.00000000000E+00 0.  1.
</event>
<event>
 7    1  0.7029100E-006  0.1176758E+03  0.7818608E-02  0.1371522E+00
          2   -1    0    0  502    0  0.00000000000E+00  0.00000000000E+00  0.21603456466E+04  0.21603456466E+04  0.00000000000E+00 0. -1.
          1   -1    0    0  501    0 -0.00000000000E+00 -0.00000000000E+00 -0.21502120214E+03  0.21502120214E+03  0.00000000000E+00 0. -1.
         25    2    1    2    0    0 -0.12900982778E+03  0.17013555098E+02  0.14043324071E+04  0.14158768621E+04  0.12499912824E+03 0.  0.
          2    1    1    2  501    0  0.10732816983E+03 -0.48048480624E+02 -0.19220096516E+03  0.22532022443E+03  0.00000000000E+00 0. -1.
          1    1    1    2  502    0  0.21681657952E+02  0.31034925527E+02  0.73319300252E+03  0.73416976227E+03  0.00000000000E+00 0. -1.
         22    1    3    3    0    0 -0.23419144025E+01 -0.17765048627E+01  0.69951781079E+03  0.69952398683E+03  0.00000000000E+00 0.  1.
         22    1    3    3    0    0 -0.12666791338E+03  0.18790059960E+02  0.70481459636E+03  0.71635287524E+03  0.00000000000E+00 0.  1.
</event>
<event>
 7    1  0.7029100E-006  0.5033748E+02  0.7818608E-02  0.1467663E+00
          2   -1    0    0  502    0  0.00000000000E+00  0.00000000000E+00  0.56651638013E+03  0.56651638013E+03  0.00000000000E+00 0. -1.
          1   -1    0    0  501    0 -0.00000000000E+00 -0.00000000000E+00 -0.89968334462E+02  0.89968334462E+02  0.00000000000E+00 0. -1.
         25    2    1    2    0    0 -0.12971270211E+02  0.82144420153E+01  0.83902521062E+02  0.15132621929E+03  0.12499704275E+03 0.  0.
          2    1    1    2  501    0  0.54582450315E+02 -0.12076782633E+01 -0.41742908863E+02  0.68725343284E+02  0.00000000000E+00 0. -1.
          1    1    1    2  502    0 -0.41611180103E+02 -0.70067637520E+01  0.43438843347E+03  0.43643315202E+03  0.00000000000E+00 0. -1.
         22    1    3    3    0    0 -0.21370305665E+02 -0.91781488953E+01  0.11356920896E+03  0.11592624209E+03  0.00000000000E+00 0. -1.
         22    1    3    3    0    0  0.83990354535E+01  0.17392590911E+02 -0.29666687898E+02  0.35399977203E+02  0.00000000000E+00 0. -1.
</event>
<event>
 7    1  0.7029100E-006  0.3712649E+02  0.7818608E-02  0.1560781E+00
          2   -1    0    0  502    0  0.00000000000E+00  0.00000000000E+00  0.16325183238E+03  0.16325183238E+03  0.00000000000E+00 0. -1.
          1   -1    0    0  501    0 -0.00000000000E+00 -0.00000000000E+00 -0.83960734024E+03  0.83960734024E+03  0.00000000000E+00 0. -1.
         25    2    1    2    0    0  0.24499433094E+02  0.22036951946E+02  0.57849235150E+02  0.14162403888E+03  0.12499993964E+03 0.  0.
          2    1    1    2  501    0 -0.36721393008E+02  0.59368629321E+01 -0.79359088159E+03  0.79446220451E+03  0.00000000000E+00 0. -1.
          1    1    1    2  502    0  0.12221959914E+02 -0.27973814878E+02  0.59386138574E+02  0.66772929228E+02  0.00000000000E+00 0. -1.
         22    1    3    3    0    0 -0.18244961631E+02  0.29690396260E+01 -0.33907803136E+02  0.38619074753E+02  0.00000000000E+00 0.  1.
         22    1    3    3    0    0  0.42744394724E+02  0.19067912320E+02  0.91757038286E+02  0.10300496413E+03  0.00000000000E+00 0.  1.
</event>
<event>
 7    1  0.7029100E-006  0.1011024E+03  0.7818608E-02  0.1368999E+00
          2   -1    0    0  502    0  0.00000000000E+00  0.00000000000E+00  0.35816839328E+03  0.35816839328E+03  0.00000000000E+00 0. -1.
          1   -1    0    0  501    0 -0.00000000000E+00 -0.00000000000E+00 -0.24740950221E+04  0.24740950221E+04  0.00000000000E+00 0. -1.
         25    2    1    2    0    0  0.57922019874E+02 -0.27774211406E+02 -0.45595594351E+01  0.14061301045E+03  0.12499944768E+03 0.  0.
          2    1    1    2  501    0 -0.74023490207E+02  0.69788345883E+02 -0.23986796493E+04  0.24008360940E+04  0.00000000000E+00 0. -1.
          1    1    1    2  502    0  0.16101470333E+02 -0.42014134477E+02  0.28731257993E+03  0.29081431091E+03  0.00000000000E+00 0. -1.
         22    1    3    3    0    0  0.28649230641E+02 -0.38564248624E+02 -0.60081017704E+02  0.76926642827E+02  0.00000000000E+00 0. -1.
         22    1    3    3    0    0  0.29272789233E+02  0.10790037218E+02  0.55521458269E+02  0.63686367623E+02  0.00000000000E+00 0. -1.
</event>
<event>
 7    1  0.7029100E-006  0.5980559E+02  0.7818608E-02  0.1435224E+00
          2   -1    0    0  502    0  0.00000000000E+00  0.00000000000E+00  0.56276894193E+02  0.56276894193E+02  0.00000000000E+00 0. -1.
          1   -1    0    0  501    0 -0.00000000000E+00 -0.00000000000E+00 -0.92390944880E+03  0.92390944880E+03  0.00000000000E+00 0. -1.
         25    2    1    2    0    0  0.70121546087E+02  0.29621227161E+02 -0.29043817197E+03  0.32522831196E+03  0.12499869935E+03 0.  0.
          2    1    1    2  501    0 -0.57944256546E+02  0.13786960142E+02 -0.60102108538E+03  0.60396519950E+03  0.00000000000E+00 0. -1.
          1    1    1    2  502    0 -0.12177289542E+02 -0.43408187303E+02  0.23826702734E+02  0.50992831542E+02  0.00000000000E+00 0. -1.
         22    1    3    3    0    0  0.46860379288E+01 -0.45783296602E+02 -0.10439090574E+03  0.11408562749E+03  0.00000000000E+00 0. -1.
         22    1    3    3    0    0  0.65435508159E+02  0.75404523763E+02 -0.18604726623E+03  0.21114268446E+03  0.00000000000E+00 0. -1.
</event>
<event>
 7    1  0.7029100E-006  0.7278233E+02  0.7818608E-02  0.1440218E+00
          2   -1    0    0  502    0  0.00000000000E+00  0.00000000000E+00  0.50245254585E+04  0.50245254585E+04  0.00000000000E+00 0. -1.
          1   -1    0    0  501    0 -0.00000000000E+00 -0.00000000000E+00 -0.27141727618E+03  0.27141727618E+03  0.00000000000E+00 0. -1.
         25    2    1    2    0    0  0.25465622451E+02 -0.68832422345E+02  0.13078634038E+04  0.13158716189E+04  0.12500013596E+03 0.  0.
          2    1    1    2  501    0  0.29487601037E+02  0.20095637910E+02 -0.26585770276E+03  0.26824181515E+03  0.00000000000E+00 0. -1.
          1    1    1    2  502    0 -0.54953223488E+02  0.48736784435E+02  0.37111024812E+04  0.37118293006E+04  0.00000000000E+00 0. -1.
         22    1    3    3    0    0  0.72562919610E+02 -0.18549907920E+02  0.76386091748E+03  0.76752392643E+03  0.00000000000E+00 0.  1.
         22    1    3    3    0    0 -0.47097297159E+02 -0.50282514425E+02  0.54400248636E+03  0.54834769246E+03  0.00000000000E+00 0.  1.
</event>
<event>
 7    1  0.7029100E-006  0.1124457E+03  0.7818608E-02  0.1435074E+00
          2   -1    0    0  502    0  0.00000000000E+00  0.00000000000E+00  0.67443276407E+02  0.67443276407E+02  0.00000000000E+00 0. -1.
          1   -1    0    0  501    0 -0.00000000000E+00 -0.00000000000E+00 -0.36633576377E+03  0.36633576377E+03  0.00000000000E+00 0. -1.
         25    2    1    2    0    0 -0.81390473348E+02 -0.54364445600E+02 -0.20858948245E+03  0.26213480403E+03  0.12500072478E+03 0.  0.
          2    1    1    2  501    0 -0.24005417992E+02 -0.10706390123E-01 -0.30528893030E+02  0.38836497232E+02  0.00000000000E+00 0. -1.
          1    1    1    2  502    0  0.10539589134E+03  0.54375151990E+02 -0.59774111881E+02  0.13280773892E+03  0.00000000000E+00 0. -1.
         22    1    3    3    0    0  0.10622619889E+02 -0.64079890522E+02 -0.10270026827E+03  0.12151714910E+03  0.00000000000E+00 0.  1.
         22    1    3    3    0    0 -0.92013093237E+02  0.97154449222E+01 -0.10588921418E+03  0.14061765492E+03  0.00000000000E+00 0.  1.
</event>
<event>
 7    1  0.7029100E-006  0.3778465E+02  0.7818608E-02  0.1527386E+00
          2   -1    0    0  502    0  0.00000000000E+00  0.00000000000E+00  0.15069139620E+04  0.15069139620E+04  0.00000000000E+00 0. -1.
          1   -1    0    0  501    0 -0.00000000000E+00 -0.00000000000E+00 -0.57415018057E+03  0.57415018057E+03  0.00000000000E+00 0. -1.
         25    2    1    2    0    0 -0.65463626755E+01  0.64511669674E+01  0.98715830291E+02  0.15954211592E+03  0.12499759671E+03 0.  0.
          2    1    1    2  501    0 -0.25360800449E+02 -0.27263540794E+02 -0.54283580855E+03  0.54411137270E+03  0.00000000000E+00 0. -1.
          1    1    1    2  502    0  0.31907163124E+02  0.20812373827E+02  0.13768837597E+04  0.13774106540E+04  0.00000000000E+00 0. -1.
         22    1    3    3    0    0 -0.56222435179E+02  0.24695824602E+01  0.93902484129E+02  0.10947482624E+03  0.00000000000E+00 0.  1.
         22    1    3    3    0    0  0.49676072504E+02  0.39815845072E+01  0.48133461620E+01  0.50067289680E+02  0.00000000000E+00 0.  1.
</event>
<event>
 7    1  0.7029100E-006  0.7401666E+02  0.7818608E-02  0.1395743E+00
          2   -1    0    0  502    0  0.00000000000E+00  0.00000000000E+00  0.75816030818E+03  0.75816030818E+03  0.00000000000E+00 0. -1.
          1   -1    0    0  501    0 -0.00000000000E+00 -0.00000000000E+00 -0.30007172179E+03  0.30007172179E+03  0.00000000000E+00 0. -1.
         25    2    1    2    0    0  0.35487392036E+02 -0.10697449222E+03 -0.76105844840E+02  0.18470901077E+03  0.12498968782E+03 0.  0.
          2    1    1    2  501    0  0.92123846515E+01  0.48586806463E+02 -0.16408876168E+03  0.17137872535E+03  0.00000000000E+00 0. -1.
          1    1    1    2  502    0 -0.44699776687E+02  0.58387685756E+02  0.69828319291E+03  0.70214429385E+03  0.00000000000E+00 0. -1.
         22    1    3    3    0    0  0.60053033598E+02 -0.21128265352E+02  0.52961888801E+01  0.63881296619E+02  0.00000000000E+00 0. -1.
         22    1    3    3    0    0 -0.24565641562E+02 -0.85846226866E+02 -0.81402033720E+02  0.12082771415E+03  0.00000000000E+00 0. -1.
</event>
<event>
 7    1  0.7029100E-006  0.1237424E+03  0.7818608E-02  0.1400384E+00
          2   -1    0    0  502    0  0.00000000000E+00  0.00000000000E+00  0.34325332136E+03  0.34325332136E+03  0.00000000000E+00 0. -1.
          1   -1    0    0  501    0 -0.00000000000E+00 -0.00000000000E+00 -0.72227591917E+03  0.72227591917E+03  0.00000000000E+00 0. -1.
         25    2    1    2    0    0  0.26166253119E+02 -0.14702852439E+03  0.37108792945E+01  0.19478202351E+03  0.12499682504E+03 0.  0.
          2    1    1    2  501    0 -0.29204562066E+02  0.11868085797E+03 -0.61991993087E+03  0.63185344280E+03  0.00000000000E+00 0. -1.
          1    1    1    2  502    0  0.30383089470E+01  0.28347666424E+02  0.23718645376E+03  0.23889377422E+03  0.00000000000E+00 0. -1.
         22    1    3    3    0    0  0.55685490955E+02 -0.14506831153E+03  0.26249530025E+02  0.15759037641E+03  0.00000000000E+00 0. -1.
         22    1    3    3    0    0 -0.29519237836E+02 -0.19602128664E+01 -0.22538650731E+02  0.37191647095E+02  0.00000000000E+00 0. -1.
</event>
<event>
 7    1  0.7029100E-006  0.9790027E+02  0.7818608E-02  0.1285906E+00
          2   -1    0    0  502    0  0.00000000000E+00  0.00000000000E+00  0.39168716864E+03  0.39168716864E+03  0.00000000000E+00 0. -1.
          1   -1    0    0  501    0 -0.00000000000E+00 -0.00000000000E+00 -0.65076578123E+03  0.65076578123E+03  0.00000000000E+00 0. -1.
         25    2    1    2    0    0  0.67582680416E+02  0.89571534211E+02 -0.34855505652E+02  0.17155488295E+03  0.12500277260E+03 0.  0.
          2    1    1    2  501    0  0.32498767953E+02 -0.91246152800E+02 -0.53536254125E+03  0.54405429958E+03  0.00000000000E+00 0. -1.
          1    1    1    2  502    0 -0.10008144837E+03  0.16746185894E+01  0.31113943432E+03  0.32684376733E+03  0.00000000000E+00 0. -1.
         22    1    3    3    0    0  0.83070502912E+02  0.87159920689E+01 -0.39513414013E+01  0.83619914319E+02  0.00000000000E+00 0. -1.
         22    1    3    3    0    0 -0.15487822496E+02  0.80855542142E+02 -0.30904164251E+02  0.87934968635E+02  0.00000000000E+00 0. -1.
</event>
<event>
 7    1  0.7029100E-006  0.1411973E+03  0.7818608E-02  0.1275317E+00
          2   -1    0    0  502    0  0.00000000000E+00  0.00000000000E+00  0.19364445341E+04  0.19364445341E+04  0.00000000000E+00 0. -1.
          1   -1    0    0  501    0 -0.00000000000E+00 -0.00000000000E+00 -0.13788114166E+03  0.13788114166E+03  0.00000000000E+00 0. -1.
         25    2    1    2    0    0  0.45026017833E+02 -0.10673827039E+03  0.50672489925E+03  0.53461039159E+03  0.12497098316E+03 0.  0.
          2    1    1    2  501    0  0.19698677090E+02  0.14316491990E+03 -0.80463874801E+02  0.16540455651E+03  0.00000000000E+00 0. -1.
          1    1    1    2  502    0 -0.64724694923E+02 -0.36426649503E+02  0.13723023680E+04  0.13743107277E+04  0.00000000000E+00 0. -1.
         22    1    3    3    0    0  0.16316807009E+02  0.21099062209E+01  0.97245121462E+00  0.16481369985E+02  0.00000000000E+00 0.  1.
         22    1    3    3    0    0  0.28709210824E+02 -0.10884817661E+03  0.50575244804E+03  0.51812902161E+03  0.00000000000E+00 0.  1.
</event>
<event>
 7    1  0.7029100E-006  0.6779329E+02  0.7818608E-02  0.1530289E+00
          2   -1    0    0  502    0  0.00000000000E+00  0.00000000000E+00  0.67972109225E+03  0.67972109225E+03  0.00000000000E+00 0. -1.
          1   -1    0    0  501    0 -0.00000000000E+00 -0.00000000000E+00 -0.14081872870E+04  0.14081872870E+04  0.00000000000E+00 0. -1.
         25    2    1    2    0    0  0.47618732300E+02 -0.13965722364E+02  0.42518715736E+02  0.14104773886E+03  0.12499615347E+03 0.  0.
          2    1    1    2  501    0 -0.67366360489E+02  0.90146060099E+01 -0.13578963218E+04  0.13595962306E+04  0.00000000000E+00 0. -1.
          1    1    1    2  502    0  0.19747628189E+02  0.49511163544E+01  0.58691141125E+03  0.58726440981E+03  0.00000000000E+00 0. -1.
         22    1    3    3    0    0  0.11722337418E+01  0.52875276273E+02  0.20556348662E+02  0.56742686253E+02  0.00000000000E+00 0.  1.
         22    1    3    3    0    0  0.46446498558E+02 -0.66840998638E+02  0.21962367074E+02  0.84305052605E+02  0.00000000000E+00 0.  1.
</event>
<event>
 7    1  0.7029100E-006  0.1327199E+03  0.7818608E-02  0.1284243E+00
          2   -1    0    0  502    0  0.00000000000E+00  0.00000000000E+00  0.10768872064E+04  0.10768872064E+04  0.00000000000E+00 0. -1.
          1   -1    0    0  501    0 -0.00000000000E+00 -0.00000000000E+00 -0.19276554334E+03  0.19276554334E+03  0.00000000000E+00 0. -1.
         25    2    1    2    0    0 -0.18802684673E+03  0.16644673848E+02  0.15006098038E+03  0.27161390764E+03  0.12499870693E+03 0.  0.
          2    1    1    2  501    0  0.61253451053E+02 -0.38932097486E+02 -0.11679112465E+03  0.13750585543E+03  0.00000000000E+00 0. -1.
          1    1    1    2  502    0  0.12677339567E+03  0.22287423639E+02  0.85085180734E+03  0.86053298667E+03  0.00000000000E+00 0. -1.
         22    1    3    3    0    0 -0.13564324557E+03 -0.47372390648E+02  0.94657402589E+02  0.17205597150E+03  0.00000000000E+00 0. -1.
         22    1    3    3    0    0 -0.52383601160E+02  0.64017064496E+02  0.55403577787E+02  0.99557936141E+02  0.00000000000E+00 0. -1.
</event>
<event>
 7    1  0.7029100E-006  0.9660005E+02  0.7818608E-02  0.1386366E+00
          2   -1    0    0  502    0  0.00000000000E+00  0.00000000000E+00  0.83641855184E+03  0.83641855184E+03  0.00000000000E+00 0. -1.
          1   -1    0    0  501    0 -0.00000000000E+00 -0.00000000000E+00 -0.63948111020E+03  0.63948111020E+03  0.00000000000E+00 0. -1.
         25    2    1    2    0    0 -0.34856525217E+02  0.11192509932E+03 -0.54043201681E+01  0.17145382696E+03  0.12500001158E+03 0.  0.
          2    1    1    2  501    0 -0.26891601677E+01 -0.95825382678E+02 -0.54632176945E+03  0.55466855988E+03  0.00000000000E+00 0. -1.
          1    1    1    2  502    0  0.37545685385E+02 -0.16099716642E+02  0.74866353125E+03  0.74977727519E+03  0.00000000000E+00 0. -1.
         22    1    3    3    0    0  0.52858436857E+01  0.12173088888E+03 -0.27039842833E+02  0.12480986561E+03  0.00000000000E+00 0. -1.
         22    1    3    3    0    0 -0.40142368903E+02 -0.98057895652E+01  0.21635522665E+02  0.46643961357E+02  0.00000000000E+00 0. -1.
</event>
<event>
 7    1  0.7029100E-006  0.1640481E+03  0.7818608E-02  0.1245270E+00
          2   -1    0    0  502    0  0.00000000000E+00  0.00000000000E+00  0.97861415118E+03  0.97861415118E+03  0.00000000000E+00 0. -1.
          1   -1    0    0  501    0 -0.00000000000E+00 -0.00000000000E+00 -0.96574809254E+03  0.96574809254E+03  0.00000000000E+00 0. -1.
         25    2    1    2    0    0 -0.19954621232E+03 -0.22257770858E+02  0.68351492077E+03  0.72327512130E+03  0.12498061831E+03 0.  0.
          2    1    1    2  501    0  0.76781511576E+02 -0.38462251695E+02 -0.92671973399E+03  0.93069017976E+03  0.00000000000E+00 0. -1.
          1    1    1    2  502    0  0.12276470075E+03  0.60720022553E+02  0.25607087187E+03  0.29039694266E+03  0.00000000000E+00 0. -1.
         22    1    3    3    0    0 -0.35100113173E+02  0.26599311258E+02  0.29901753158E+03  0.30224332168E+03  0.00000000000E+00 0. -1.
         22    1    3    3    0    0 -0.16444609915E+03 -0.48857082116E+02  0.38449738919E+03  0.42103179962E+03  0.00000000000E+00 0. -1.
</event>
<event>
 7    1  0.7029100E-006  0.6130469E+02  0.7818608E-02  0.1427303E+00
          2   -1    0    0  502    0  0.00000000000E+00  0.00000000000E+00  0.11651493695E+04  0.11651493695E+04  0.00000000000E+00 0. -1.
          1   -1    0    0  501    0 -0.00000000000E+00 -0.00000000000E+00 -0.82108634132E+03  0.82108634132E+03  0.00000000000E+00 0. -1.
         25    2    1    2    0    0  0.57486643545E+02  0.38983607090E+00  0.62667954704E+03  0.64160480345E+03  0.12499841184E+03 0.  0.
          2    1    1    2  501    0 -0.42205626757E+02 -0.44516872241E+02 -0.81143705488E+03  0.81375251820E+03  0.00000000000E+00 0. -1.
          1    1    1    2  502    0 -0.15281016788E+02  0.44127036170E+02  0.52882053603E+03  0.53087838920E+03  0.00000000000E+00 0. -1.
         22    1    3    3    0    0  0.24661257295E+02  0.62550129765E+02  0.31528830212E+03  0.32237774396E+03  0.00000000000E+00 0.  1.
         22    1    3    3    0    0  0.32825386250E+02 -0.62160293694E+02  0.31139124492E+03  0.31922705949E+03  0.00000000000E+00 0.  1.
</event>
<event>
 7    1  0.7029100E-006  0.8521208E+02  0.7818608E-02  0.1441947E+00
          2   -1    0    0  502    0  0.00000000000E+00  0.00000000000E+00  0.42258746963E+03  0.42258746963E+03  0.00000000000E+00 0. -1.
          1   -1    0    0  501    0 -0.00000000000E+00 -0.00000000000E+00 -0.17080152583E+03  0.17080152583E+03  0.00000000000E+00 0. -1.
         25    2    1    2    0    0 -0.48294655490E+02 -0.82197160538E+02  0.73516152867E+02  0.17354581042E+03  0.12499910653E+03 0.  0.
          2    1    1    2  501    0 -0.14914085896E+02  0.26131913823E+02 -0.11280759847E+03  0.11675127901E+03  0.00000000000E+00 0. -1.
          1    1    1    2  502    0  0.63208741385E+02  0.56065246715E+02  0.29107738940E+03  0.30309190603E+03  0.00000000000E+00 0. -1.
         22    1    3    3    0    0 -0.48117952669E+02 -0.11023749722E+03  0.80392487073E+02  0.14467409975E+03  0.00000000000E+00 0.  1.
         22    1    3    3    0    0 -0.17670282066E+00  0.28040336678E+02 -0.68763342058E+01  0.28871710670E+02  0.00000000000E+00 0.  1.
</event>
<event>
 7    1  0.8051902E-006  0.8804199E+02  0.7818608E-02  0.1328922E+00
          2   -1    0    0  502    0  0.00000000000E+00  0.00000000000E+00  0.78730761176E+03  0.78730761176E+03  0.00000000000E+00 0. -1.
          1   -1    0    0  501    0 -0.00000000000E+00 -0.00000000000E+00 -0.14348082819E+04  0.14348082819E+04  0.00000000000E+00 0. -1.
         25    2    1    2    0    0 -0.10611745606E+03 -0.73409698489E+02 -0.12019951593E+03  0.21615588844E+03  0.12500218464E+03 0.  0.
          2    1    1    2  501    0  0.18451847051E+02  0.70397471295E+02 -0.12629775920E+04  0.12650725957E+04  0.00000000000E+00 0. -1.
          1    1    1    2  502    0  0.87665609005E+02  0.30122271938E+01  0.73567643775E+03  0.74088740951E+03  0.00000000000E+00 0. -1.
         22    1    3    3    0    0  0.16803923631E+02 -0.52256230309E+02 -0.34808495920E+02  0.64997821838E+02  0.00000000000E+00 0. -1.
         22    1    3    3    0    0 -0.12292137969E+03 -0.21153468180E+02 -0.85391020012E+02  0.15115806660E+03  0.00000000000E+00 0. -1.
</event>
<event>
 7    1  0.7029100E-006  0.6695264E+02  0.7818608E-02  0.1422990E+00
          2   -1    0    0  502    0  0.00000000000E+00  0.00000000000E+00  0.69759580292E+03  0.69759580292E+03  0.00000000000E+00 0. -1.
          1   -1    0    0  501    0 -0.00000000000E+00 -0.00000000000E+00 -0.32301977675E+04  0.32301977675E+04  0.00000000000E+00 0. -1.
         25    2    1    2    0    0 -0.58912781438E+02  0.32105812568E+02 -0.11892003727E+04  0.11976310377E+04  0.12498430727E+03 0.  0.
          2    1    1    2  501    0  0.27320693478E+02 -0.63003911024E+02 -0.20354983603E+04  0.20366564482E+04  0.00000000000E+00 0. -1.
          1    1    1    2  502    0  0.31592087960E+02  0.30898098456E+02  0.69209676839E+03  0.69350608456E+03  0.00000000000E+00 0. -1.
         22    1    3    3    0    0 -0.86769766733E+00 -0.42480783260E+02 -0.23953165978E+03  0.24327101324E+03  0.00000000000E+00 0.  1.
         22    1    3    3    0    0 -0.58045083770E+02  0.74586595828E+02 -0.94966871287E+03  0.95436002444E+03  0.00000000000E+00 0.  1.
</event>
<event>
 7    1  0.7029100E-006  0.1615490E+03  0.7818608E-02  0.1260158E+00
          2   -1    0    0  502    0  0.00000000000E+00  0.00000000000E+00  0.43075570612E+02  0.43075570612E+02  0.00000000000E+00 0. -1.
          1   -1    0    0  501    0 -0.00000000000E+00 -0.00000000000E+00 -0.20549859565E+04  0.20549859565E+04  0.00000000000E+00 0. -1.
         25    2    1    2    0    0  0.85605075527E+02  0.10863139742E+03 -0.72419150313E+03  0.74780216690E+03  0.12500295255E+03 0.  0.
          2    1    1    2  501    0 -0.15688553928E+03 -0.84658210674E+02 -0.12560861630E+04  0.12686735333E+04  0.00000000000E+00 0. -1.
          1    1    1    2  502    0  0.71280463755E+02 -0.23973186742E+02 -0.31632719677E+02  0.81585826893E+02  0.00000000000E+00 0. -1.
         22    1    3    3    0    0  0.12463896057E+02  0.39673775349E+02 -0.45238998920E+02  0.61448549036E+02  0.00000000000E+00 0.  1.
         22    1    3    3    0    0  0.73141179470E+02  0.68957622067E+02 -0.67895250421E+03  0.68635361786E+03  0.00000000000E+00 0.  1.
</event>
<event>
 7    1  0.7029100E-006  0.1075675E+03  0.7818608E-02  0.1444280E+00
          2   -1    0    0  502    0  0.00000000000E+00  0.00000000000E+00  0.17134528266E+04  0.17134528266E+04  0.00000000000E+00 0. -1.
          1   -1    0    0  501    0 -0.00000000000E+00 -0.00000000000E+00 -0.27917936734E+03  0.27917936734E+03  0.00000000000E+00 0. -1.
         25    2    1    2    0    0  0.67869054307E+02  0.78530930106E+02 -0.18979386550E+03  0.24983431543E+03  0.12498863257E+03 0.  0.
          2    1    1    2  501    0 -0.16881705330E+02  0.16240169974E+02 -0.55263064621E+02  0.60022840710E+02  0.00000000000E+00 0. -1.
          1    1    1    2  502    0 -0.50987348977E+02 -0.94771100080E+02  0.16793303894E+04  0.16827750378E+04  0.00000000000E+00 0. -1.
         22    1    3    3    0    0  0.48063142501E+02 -0.25376288411E+02 -0.85320405964E+02  0.10116122456E+03  0.00000000000E+00 0.  1.
         22    1    3    3    0    0  0.19805911806E+02  0.10390721852E+03 -0.10447345953E+03  0.14867309087E+03  0.00000000000E+00 0.  1.
</event>
<event>
 7    1  0.7029100E-006  0.8062467E+02  0.7818608E-02  0.1456948E+00
          2   -1    0    0  502    0  0.00000000000E+00  0.00000000000E+00  0.26879021930E+03  0.26879021930E+03  0.00000000000E+00 0. -1.
          1   -1    0    0  501    0 -0.00000000000E+00 -0.00000000000E+00 -0.29092294638E+03  0.29092294638E+03  0.00000000000E+00 0. -1.
         25    2    1    2    0    0  0.20123936214E+02 -0.98366922904E+02 -0.53614327408E+02  0.16905382660E+03  0.12499470330E+03 0.  0.
          2    1    1    2  501    0 -0.27847836190E+00  0.77952949370E+02 -0.17008185436E+03  0.18709510162E+03  0.00000000000E+00 0. -1.
          1    1    1    2  502    0 -0.19845457852E+02  0.20413973534E+02  0.20156345469E+03  0.20356423747E+03  0.00000000000E+00 0. -1.
         22    1    3    3    0    0  0.23114699822E+02 -0.12163711167E+03 -0.16168405669E+02  0.12486510171E+03  0.00000000000E+00 0.  1.
         22    1    3    3    0    0 -0.29907636081E+01  0.23270188765E+02 -0.37445921740E+02  0.44188724886E+02  0.00000000000E+00 0.  1.
</event>
<event>
 7    1  0.7029100E-006  0.1024149E+03  0.7818608E-02  0.1350042E+00
          2   -1    0    0  502    0  0.00000000000E+00  0.00000000000E+00  0.26729139125E+04  0.26729139125E+04  0.00000000000E+00 0. -1.
          1   -1    0    0  501    0 -0.00000000000E+00 -0.00000000000E+00 -0.23274916838E+03  0.23274916838E+03  0.00000000000E+00 0. -1.
         25    2    1    2    0    0 -0.92649032621E+02  0.91422872563E+02 -0.88406549660E+02  0.20095497642E+03  0.12500079861E+03 0.  0.
          2    1    1    2  501    0  0.52036096279E+02  0.24566650430E+01 -0.79273423916E+02  0.94858137545E+02  0.00000000000E+00 0. -1.
          1    1    1    2  502    0  0.40612936342E+02 -0.93879537606E+02  0.26078447176E+04  0.26098499669E+04  0.00000000000E+00 0. -1.
         22    1    3    3    0    0  0.27575093975E+02  0.81275554975E+01  0.23191957928E+01  0.28841318195E+02  0.00000000000E+00 0. -1.
         22    1    3    3    0    0 -0.12022412660E+03  0.83295317066E+02 -0.90725745453E+02  0.17211365823E+03  0.00000000000E+00 0. -1.
</event>
<event>
 7    1  0.7029100E-006  0.8565934E+02  0.7818608E-02  0.1474870E+00
          2   -1    0    0  502    0  0.00000000000E+00  0.00000000000E+00  0.35393034048E+03  0.35393034048E+03  0.00000000000E+00 0. -1.
          1   -1    0    0  501    0 -0.00000000000E+00 -0.00000000000E+00 -0.27695176518E+03  0.27695176518E+03  0.00000000000E+00 0. -1.
         25    2    1    2    0    0  0.28660001452E+02  0.68252898953E+02  0.67976976599E+02  0.16039051934E+03  0.12499758177E+03 0.  0.
          2    1    1    2  501    0 -0.12828068926E+02 -0.85689018453E+02 -0.22199145792E+03  0.23830101684E+03  0.00000000000E+00 0. -1.
          1    1    1    2  502    0 -0.15831932526E+02  0.17436119499E+02  0.23099305662E+03  0.23219056949E+03  0.00000000000E+00 0. -1.
         22    1    3    3    0    0  0.70571856238E+02  0.74575342536E+02  0.44119751966E+02  0.11175160456E+03  0.00000000000E+00 0. -1.
         22    1    3    3    0    0 -0.41911854786E+02 -0.63224435825E+01  0.23857224633E+02  0.48638914787E+02  0.00000000000E+00 0. -1.
</event>
<event>
 7    1  0.7029100E-006  0.1160117E+03  0.7818608E-02  0.1403679E+00
          2   -1    0    0  502    0  0.00000000000E+00  0.00000000000E+00  0.10668987202E+04  0.10668987202E+04  0.00000000000E+00 0. -1.
          1   -1    0    0  501    0 -0.00000000000E+00 -0.00000000000E+00 -0.15402339836E+03  0.15402339836E+03  0.00000000000E+00 0. -1.
         25    2    1    2    0    0 -0.13616545824E+03  0.15447848967E+02  0.41282325569E+03  0.45257826791E+03  0.12499752034E+03 0.  0.
          2    1    1    2  501    0  0.11073777942E+03 -0.30656642122E+02 -0.10911452034E+03  0.15845713630E+03  0.00000000000E+00 0. -1.
          1    1    1    2  502    0  0.25427678819E+02  0.15208793154E+02  0.60916658647E+03  0.60988671432E+03  0.00000000000E+00 0. -1.
         22    1    3    3    0    0 -0.34718763479E+01 -0.22401744137E+02  0.66771974931E+01  0.23632118654E+02  0.00000000000E+00 0. -1.
         22    1    3    3    0    0 -0.13269358189E+03  0.37849593104E+02  0.40614605820E+03  0.42894614926E+03  0.00000000000E+00 0. -1.
</event>
<event>
 7    1  0.7029100E-006  0.2479364E+03  0.7818608E-02  0.1268956E+00
          2   -1    0    0  502    0  0.00000000000E+00  0.00000000000E+00  0.23316313042E+04  0.23316313042E+04  0.00000000000E+00 0. -1.
          1   -1    0    0  501    0 -0.00000000000E+00 -0.00000000000E+00 -0.24135763834E+04  0.24135763834E+04  0.00000000000E+00 0. -1.
         25    2    1    2    0    0  0.24353776149E+03 -0.10794298392E+03 -0.55317862611E+03  0.62657328165E+03  0.12500062337E+03 0.  0.
          2    1    1    2  501    0 -0.35845990773E+02 -0.27155655074E+02 -0.18167340791E+04  0.18172905873E+04  0.00000000000E+00 0. -1.
          1    1    1    2  502    0 -0.20769177072E+03  0.13509863900E+03  0.22879676260E+04  0.23013438186E+04  0.00000000000E+00 0. -1.
         22    1    3    3    0    0  0.11439364115E+02 -0.38820230407E+02 -0.15793473139E+03  0.16303756843E+03  0.00000000000E+00 0.  1.
         22    1    3    3    0    0  0.23209839737E+03 -0.69122753517E+02 -0.39524389473E+03  0.46353571323E+03  0.00000000000E+00 0.  1.
</event>
<event>
 7    1  0.7029100E-006  0.2078856E+03  0.7818608E-02  0.1270161E+00
          2   -1    0    0  502    0  0.00000000000E+00  0.00000000000E+00  0.22894494535E+04  0.22894494535E+04  0.00000000000E+00 0. -1.
          1   -1    0    0  501    0 -0.00000000000E+00 -0.00000000000E+00 -0.41042104933E+03  0.41042104933E+03  0.00000000000E+00 0. -1.
         25    2    1    2    0    0 -0.12805211807E+03  0.13372846567E+03 -0.94278772831E+02  0.24247428196E+03  0.12499857171E+03 0.  0.
          2    1    1    2  501    0  0.12589468688E+03 -0.18669726225E+03 -0.18927739352E+03  0.29416198193E+03  0.00000000000E+00 0. -1.
          1    1    1    2  502    0  0.21574311947E+01  0.52968796582E+02  0.21625845705E+04  0.21632342390E+04  0.00000000000E+00 0. -1.
         22    1    3    3    0    0 -0.18941711535E+01  0.78578819966E+02 -0.64326913803E+02  0.10156855158E+03  0.00000000000E+00 0. -1.
         22    1    3    3    0    0 -0.12615794692E+03  0.55149645701E+02 -0.29951859028E+02  0.14090573037E+03  0.00000000000E+00 0. -1.
</event>
<event>
 7    1  0.8237245E-006  0.1184344E+03  0.7818608E-02  0.1296766E+00
          2   -1    0    0  502    0  0.00000000000E+00  0.00000000000E+00  0.19059380514E+04  0.19059380514E+04  0.00000000000E+00 0. -1.
          1   -1    0    0  501    0 -0.00000000000E+00 -0.00000000000E+00 -0.10566652649E+04  0.10566652649E+04  0.00000000000E+00 0. -1.
         25    2    1    2    0    0  0.14395404898E+02 -0.13563047334E+03 -0.66400259503E+02  0.19656065369E+03  0.12499697252E+03 0.  0.
          2    1    1    2  501    0 -0.66228245828E+02  0.29101084357E+02 -0.92186030056E+03  0.92469425618E+03  0.00000000000E+00 0. -1.
          1    1    1    2  502    0  0.51832840930E+02  0.10652938898E+03  0.18375333466E+04  0.18413484065E+04  0.00000000000E+00 0. -1.
         22    1    3    3    0    0 -0.50614125757E+02 -0.88724048759E+02 -0.53682215973E+02  0.11539292381E+03  0.00000000000E+00 0.  1.
         22    1    3    3    0    0  0.65009530655E+02 -0.46906424579E+02 -0.12718043530E+02  0.81167729881E+02  0.00000000000E+00 0.  1.
</event>
<event>
 7    1  0.7029100E-006  0.2558314E+02  0.7818608E-02  0.1685134E+00
          2   -1    0    0  502    0  0.00000000000E+00  0.00000000000E+00  0.20681228680E+04  0.20681228680E+04  0.00000000000E+00 0. -1.
          1   -1    0    0  501    0 -0.00000000000E+00 -0.00000000000E+00 -0.67497603478E+02  0.67497603478E+02  0.00000000000E+00 0. -1.
         25    2    1    2    0    0 -0.16602481670E+02 -0.23408083856E+00  0.78658169395E+03  0.79661990247E+03  0.12496723802E+03 0.  0.
          2    1    1    2  501    0  0.14002645989E+02  0.21475609442E+02 -0.59754827407E+02  0.65022421472E+02  0.00000000000E+00 0. -1.
          1    1    1    2  502    0  0.25998356814E+01 -0.21241528603E+02  0.12737983980E+04  0.12739781475E+04  0.00000000000E+00 0. -1.
         22    1    3    3    0    0 -0.65774429197E+02 -0.42489013157E+01  0.28053276531E+03  0.28817175627E+03  0.00000000000E+00 0. -1.
         22    1    3    3    0    0  0.49171947527E+02  0.40148204771E+01  0.50604892864E+03  0.50844814621E+03  0.00000000000E+00 0. -1.
</event>
<event>
 7    1  0.7029100E-006  0.7613912E+02  0.7818608E-02  0.1371686E+00
          2   -1    0    0  502    0  0.00000000000E+00  0.00000000000E+00  0.43690030801E+03  0.43690030801E+03  0.00000000000E+00 0. -1.
          1   -1    0    0  501    0 -0.00000000000E+00 -0.00000000000E+00 -0.18486616495E+04  0.18486616495E+04  0.00000000000E+00 0. -1.
         25    2    1    2    0    0 -0.10562323104E+03  0.40852560961E+02  0.74804552228E+02  0.18452339000E+03  0.12501184644E+03 0.  0.
          2    1    1    2  501    0  0.56575679546E+02  0.14611583822E+02 -0.17888575768E+04  0.17898116482E+04  0.00000000000E+00 0. -1.
          1    1    1    2  502    0  0.49047551497E+02 -0.55464144783E+02  0.30229168307E+03  0.31122691933E+03  0.00000000000E+00 0. -1.
         22    1    3    3    0    0  0.20193964792E+02  0.86530747048E+01  0.46751026786E+02  0.51655884674E+02  0.00000000000E+00 0.  1.
         22    1    3    3    0    0 -0.12581719584E+03  0.32199486257E+02  0.28053525442E+02  0.13286750533E+03  0.00000000000E+00 0.  1.
</event>
<event>
 7    1  0.7029100E-006  0.2294463E+03  0.7818608E-02  0.1142933E+00
          2   -1    0    0  502    0  0.00000000000E+00  0.00000000000E+00  0.17438308861E+04  0.17438308861E+04  0.00000000000E+00 0. -1.
          1   -1    0    0  501    0 -0.00000000000E+00 -0.00000000000E+00 -0.83954365721E+03  0.83954365721E+03  0.00000000000E+00 0. -1.
         25    2    1    2    0    0  0.21423835319E+02 -0.85381817437E+02 -0.87442582648E+02  0.17611739170E+03  0.12498837918E+03 0.  0.
          2    1    1    2  501    0  0.17904314408E+03  0.19699984787E+03 -0.67458967337E+03  0.72521487500E+03  0.00000000000E+00 0. -1.
          1    1    1    2  502    0 -0.20046697940E+03 -0.11161803043E+03  0.16663194850E+04  0.16820422767E+04  0.00000000000E+00 0. -1.
         22    1    3    3    0    0  0.54038223741E+02 -0.89147140938E+02 -0.27564364382E+02  0.10782920080E+03  0.00000000000E+00 0.  1.
         22    1    3    3    0    0 -0.32614388422E+02  0.37653235006E+01 -0.59878218266E+02  0.68288190897E+02  0.00000000000E+00 0.  1.
</event>
<event>
 7    1  0.7029100E-006  0.2381683E+03  0.7818608E-02  0.1209582E+00
          2   -1    0    0  502    0  0.00000000000E+00  0.00000000000E+00  0.21942450421E+04  0.21942450421E+04  0.00000000000E+00 0. -1.
          1   -1    0    0  501    0 -0.00000000000E+00 -0.00000000000E+00 -0.14879856600E+04  0.14879856600E+04  0.00000000000E+00 0. -1.
         25    2    1    2    0    0 -0.22219951871E+03  0.10848256551E+03  0.81989371869E+02  0.28893233591E+03  0.12497417533E+03 0.  0.
          2    1    1    2  501    0 -0.15091881301E+02 -0.84304764679E+02 -0.13760978132E+04  0.13787604034E+04  0.00000000000E+00 0. -1.
          1    1    1    2  502    0  0.23729140001E+03 -0.24177800836E+02  0.20003678235E+04  0.20145379629E+04  0.00000000000E+00 0. -1.
         22    1    3    3    0    0 -0.23478604579E+03  0.91278614964E+02  0.87917843682E+02  0.26680670922E+03  0.00000000000E+00 0. -1.
         22    1    3    3    0    0  0.12586527079E+02  0.17203950550E+02 -0.59284718130E+01  0.22125626692E+02  0.00000000000E+00 0. -1.
</event>
<event>
 7    1  0.7029100E-006  0.9488797E+02  0.7818608E-02  0.1393036E+00
          2   -1    0    0  502    0  0.00000000000E+00  0.00000000000E+00  0.53762761524E+03  0.53762761524E+03  0.00000000000E+00 0. -1.
          1   -1    0    0  501    0 -0.00000000000E+00 -0.00000000000E+00 -0.13911411819E+03  0.13911411819E+03  0.00000000000E+00 0. -1.
         25    2    1    2    0    0 -0.39891284855E+02 -0.65220304230E+02  0.90758352637E+02  0.17235913469E+03  0.12500236016E+03 0.  0.
          2    1    1    2  501    0  0.17613698309E+02  0.97739298949E+02 -0.71949473320E+02  0.12263743164E+03  0.00000000000E+00 0. -1.
          1    1    1    2  502    0  0.22277586546E+02 -0.32518994719E+02  0.37970461773E+03  0.38174516710E+03  0.00000000000E+00 0. -1.
         22    1    3    3    0    0  0.94178972523E+01 -0.86144045327E+02  0.79550847213E+02  0.11763430888E+03  0.00000000000E+00 0. -1.
         22    1    3    3    0    0 -0.49309182107E+02  0.20923741097E+02  0.11207505424E+02  0.54724825805E+02  0.00000000000E+00 0. -1.
</event>
<event>
 7    1  0.7029100E-006  0.1075639E+03  0.7818608E-02  0.1286213E+00
          2   -1    0    0  502    0  0.00000000000E+00  0.00000000000E+00  0.28571336999E+03  0.28571336999E+03  0.00000000000E+00 0. -1.
          1   -1    0    0  501    0 -0.00000000000E+00 -0.00000000000E+00 -0.10736614307E+04  0.10736614307E+04  0.00000000000E+00 0. -1.
         25    2    1    2    0    0  0.38174239869E+02 -0.16891215368E+02  0.16296608506E+02  0.13279210191E+03  0.12500230852E+03 0.  0.
          2    1    1    2  501    0 -0.10177753133E+03 -0.43785903623E+02 -0.10030813489E+04  0.10091818785E+04  0.00000000000E+00 0. -1.
          1    1    1    2  502    0  0.63603291462E+02  0.60677118991E+02  0.19883667974E+03  0.21740082029E+03  0.00000000000E+00 0. -1.
         22    1    3    3    0    0  0.80342398532E+02  0.74821371149E+01 -0.21285429814E+01  0.80718114900E+02  0.00000000000E+00 0. -1.
         22    1    3    3    0    0 -0.42168158664E+02 -0.24373352482E+02  0.18425151488E+02  0.52073987015E+02  0.00000000000E+00 0. -1.
</event>
<event>
 7    1  0.7029100E-006  0.9474275E+02  0.7818608E-02  0.1304280E+00
          2   -1    0    0  502    0  0.00000000000E+00  0.00000000000E+00  0.14960925878E+03  0.14960925878E+03  0.00000000000E+00 0. -1.
          1   -1    0    0  501    0 -0.00000000000E+00 -0.00000000000E+00 -0.14078432960E+04  0.14078432960E+04  0.00000000000E+00 0. -1.
         25    2    1    2    0    0 -0.40093646916E+02  0.96958797533E+02 -0.42657373556E+03  0.45672557827E+03  0.12499837213E+03 0.  0.
          2    1    1    2  501    0 -0.43809479956E+02 -0.87977650737E+02 -0.95017319538E+03  0.95524260729E+03  0.00000000000E+00 0. -1.
          1    1    1    2  502    0  0.83903126873E+02 -0.89811467960E+01  0.11851289374E+03  0.14548436919E+03  0.00000000000E+00 0. -1.
         22    1    3    3    0    0 -0.71634535931E+02  0.20480402371E+02 -0.14183622828E+03  0.16021382360E+03  0.00000000000E+00 0.  1.
         22    1    3    3    0    0  0.31540889014E+02  0.76478395162E+02 -0.28473750728E+03  0.29651175468E+03  0.00000000000E+00 0.  1.
</event>
<event>
 7    1  0.7029100E-006  0.9865593E+02  0.7818608E-02  0.1398427E+00
          2   -1    0    0  502    0  0.00000000000E+00  0.00000000000E+00  0.20311674663E+04  0.20311674663E+04  0.00000000000E+00 0. -1.
          1   -1    0    0  501    0 -0.00000000000E+00 -0.00000000000E+00 -0.52506541108E+03  0.52506541108E+03  0.00000000000E+00 0. -1.
         25    2    1    2    0    0  0.51609849153E+02  0.98863368260E+02  0.20030784030E+03  0.26112455254E+03  0.12500103575E+03 0.  0.
          2    1    1    2  501    0 -0.36276984244E+02 -0.17333895428E+01 -0.49264547975E+03  0.49398238120E+03  0.00000000000E+00 0. -1.
          1    1    1    2  502    0 -0.15332864908E+02 -0.97129978717E+02  0.17984396947E+04  0.18011259436E+04  0.00000000000E+00 0. -1.
         22    1    3    3    0    0 -0.11596221717E+02 -0.20524199493E+02  0.68275383242E+02  0.72230485806E+02  0.00000000000E+00 0.  1.
         22    1    3    3    0    0  0.63206070870E+02  0.11938756775E+03  0.13203245706E+03  0.18889406673E+03  0.00000000000E+00 0.  1.
</event>
<event>
 7    1  0.7029100E-006  0.1355048E+03  0.7818608E-02  0.1275554E+00
          2   -1    0    0  502    0  0.00000000000E+00  0.00000000000E+00  0.31486279740E+03  0.31486279740E+03  0.00000000000E+00 0. -1.
          1   -1    0    0  501    0 -0.00000000000E+00 -0.00000000000E+00 -0.77641320507E+03  0.77641320507E+03  0.00000000000E+00 0. -1.
         25    2    1    2    0    0  0.64135617223E+02  0.18162736617E+03  0.10868152135E+03  0.25404486784E+03  0.12500097700E+03 0.  0.
          2    1    1    2  501    0 -0.29163571157E+02 -0.71496836799E+02 -0.67611217987E+03  0.68050715744E+03  0.00000000000E+00 0. -1.
          1    1    1    2  502    0 -0.34972046067E+02 -0.11013052937E+03  0.10588025086E+03  0.15672397719E+03  0.00000000000E+00 0. -1.
         22    1    3    3    0    0  0.74962269164E+02  0.58157580010E+02  0.85979175339E+02  0.12803930843E+03  0.00000000000E+00 0.  1.
         22    1    3    3    0    0 -0.10826651941E+02  0.12346978616E+03  0.22702346012E+02  0.12600555941E+03  0.00000000000E+00 0.  1.
</event>
<event>
 7    1  0.7029100E-006  0.3947926E+02  0.7818608E-02  0.1552131E+00
          2   -1    0    0  502    0  0.00000000000E+00  0.00000000000E+00  0.76768521823E+02  0.76768521823E+02  0.00000000000E+00 0. -1.
          1   -1    0    0  501    0 -0.00000000000E+00 -0.00000000000E+00 -0.20706592093E+03  0.20706592093E+03  0.00000000000E+00 0. -1.
         25    2    1    2    0    0 -0.66268267389E+02 -0.15179449086E+02 -0.37630193243E+02  0.14718222383E+03  0.12499870651E+03 0.  0.
          2    1    1    2  501    0  0.36910271422E+02  0.75484348642E+01 -0.98769680629E+02  0.10571091153E+03  0.00000000000E+00 0. -1.
          1    1    1    2  502    0  0.29357995967E+02  0.76310142218E+01  0.61024747613E+01  0.30941307398E+02  0.00000000000E+00 0. -1.
         22    1    3    3    0    0 -0.79985572688E+02 -0.90429051238E+00  0.23138426093E+02  0.83270020666E+02  0.00000000000E+00 0.  1.
         22    1    3    3    0    0  0.13717305299E+02 -0.14275158574E+02 -0.60768619336E+02  0.63912203162E+02  0.00000000000E+00 0.  1.
</event>
<event>
 7    1  0.7029100E-006  0.3709229E+02  0.7818608E-02  0.1565437E+00
          2   -1    0    0  502    0  0.00000000000E+00  0.00000000000E+00  0.13519948011E+04  0.13519948011E+04  0.00000000000E+00 0. -1.
          1   -1    0    0  501    0 -0.00000000000E+00 -0.00000000000E+00 -0.29711475522E+03  0.29711475522E+03  0.00000000000E+00 0. -1.
         25    2    1    2    0    0  0.46311145915E+01 -0.66000961917E+01  0.24311723500E+03  0.27348615534E+03  0.12499471475E+03 0.  0.
          2    1    1    2  501    0  0.18846867190E+02 -0.22915629788E+02 -0.28082339734E+03  0.28238645680E+03  0.00000000000E+00 0. -1.
          1    1    1    2  502    0 -0.23477981781E+02  0.29515725980E+02  0.10925862082E+04  0.10932369441E+04  0.00000000000E+00 0. -1.
         22    1    3    3    0    0 -0.49588825268E+02 -0.31965362377E+02  0.77628163807E+02  0.97503680954E+02  0.00000000000E+00 0. -1.
         22    1    3    3    0    0  0.54219939860E+02  0.25365266185E+02  0.16548907119E+03  0.17598247439E+03  0.00000000000E+00 0. -1.
</event>
<event>
 7    1  0.7029100E-006  0.7130825E+02  0.7818608E-02  0.1430628E+00
          2   -1    0    0  502    0  0.00000000000E+00  0.00000000000E+00  0.48783607852E+03  0.48783607852E+03  0.00000000000E+00 0. -1.
          1   -1    0    0  501    0 -0.00000000000E+00 -0.00000000000E+00 -0.17741491799E+04  0.17741491799E+04  0.00000000000E+00 0. -1.
         25    2    1    2    0    0 -0.77038382494E+02  0.32900522290E+01 -0.36823416504E+03  0.39644320517E+03  0.12500031119E+03 0.  0.
          2    1    1    2  501    0  0.60239868453E+02 -0.38648811433E+02 -0.13900795539E+04  0.13919208809E+04  0.00000000000E+00 0. -1.
          1    1    1    2  502    0  0.16798514042E+02  0.35358759204E+02  0.47200061758E+03  0.47362117238E+03  0.00000000000E+00 0. -1.
         22    1    3    3    0    0 -0.34751560438E+02  0.58483931065E+02 -0.25180038009E+03  0.26082843511E+03  0.00000000000E+00 0. -1.
         22    1    3    3    0    0 -0.42286822056E+02 -0.55193878836E+02 -0.11643378495E+03  0.13561477006E+03  0.00000000000E+00 0. -1.
</event>
<event>
 7    1  0.7029100E-006  0.2967605E+02  0.7818608E-02  0.1668816E+00
          2   -1    0    0  502    0  0.00000000000E+00  0.00000000000E+00  0.78393427505E+03  0.78393427505E+03  0.00000000000E+00 0. -1.
          1   -1    0    0  501    0 -0.00000000000E+00 -0.00000000000E+00 -0.18190100606E+03  0.18190100606E+03  0.00000000000E+00 0. -1.
         25    2    1    2    0    0  0.11077364031E+02  0.22538577890E+02  0.79718356162E+02  0.15036712572E+03  0.12499824280E+03 0.  0.
          2    1    1    2  501    0  0.81292968673E+01 -0.28691109336E+02 -0.14490594923E+03  0.14794255421E+03  0.00000000000E+00 0. -1.
          1    1    1    2  502    0 -0.19206660898E+02  0.61525314457E+01  0.66722086206E+03  0.66752560118E+03  0.00000000000E+00 0. -1.
         22    1    3    3    0    0  0.92238297785E+01  0.54571860086E+02  0.98647583727E+02  0.11311283183E+03  0.00000000000E+00 0.  1.
         22    1    3    3    0    0  0.18535342524E+01 -0.32033282196E+02 -0.18929227565E+02  0.37254293896E+02  0.00000000000E+00 0.  1.
</event>
<event>
 7    1  0.7029100E-006  0.7841567E+02  0.7818608E-02  0.1432477E+00
          2   -1    0    0  502    0  0.00000000000E+00  0.00000000000E+00  0.97309542010E+03  0.97309542010E+03  0.00000000000E+00 0. -1.
          1   -1    0    0  501    0 -0.00000000000E+00 -0.00000000000E+00 -0.16421253616E+03  0.16421253616E+03  0.00000000000E+00 0. -1.
         25    2    1    2    0    0  0.25859082649E+01 -0.52997924568E+02  0.56401491538E+02  0.14702841537E+03  0.12498303784E+03 0.  0.
          2    1    1    2  501    0  0.20114431808E+02  0.79774155459E+02 -0.10426487280E+03  0.13281441920E+03  0.00000000000E+00 0. -1.
          1    1    1    2  502    0 -0.22700340073E+02 -0.26776230891E+02  0.85674626521E+03  0.85746512170E+03  0.00000000000E+00 0. -1.
         22    1    3    3    0    0  0.58038018517E+01 -0.76277297965E+02 -0.94780771767E+01  0.77082710433E+02  0.00000000000E+00 0.  1.
         22    1    3    3    0    0 -0.32178935867E+01  0.23279373397E+02  0.65879568715E+02  0.69945704935E+02  0.00000000000E+00 0.  1.
</event>
<event>
 7    1  0.7029100E-006  0.1396160E+03  0.7818608E-02  0.1298164E+00
          2   -1    0    0  502    0  0.00000000000E+00  0.00000000000E+00  0.29375153521E+04  0.29375153521E+04  0.00000000000E+00 0. -1.
          1   -1    0    0  501    0 -0.00000000000E+00 -0.00000000000E+00 -0.36365072313E+03  0.36365072313E+03  0.00000000000E+00 0. -1.
         25    2    1    2    0    0 -0.85620702310E+02 -0.13086561717E+03  0.16959262579E+02  0.20092156885E+03  0.12500058328E+03 0.  0.
          2    1    1    2  501    0 -0.29929813841E+02  0.52665892232E+02 -0.26654857988E+03  0.27334526774E+03  0.00000000000E+00 0. -1.
          1    1    1    2  502    0  0.11555051615E+03  0.78199724935E+02  0.28234539463E+04  0.28268992387E+04  0.00000000000E+00 0. -1.
         22    1    3    3    0    0  0.12757030270E+02 -0.53670164165E+02 -0.35190441627E+02  0.65433901953E+02  0.00000000000E+00 0. -1.
         22    1    3    3    0    0 -0.98377732580E+02 -0.77195453002E+02  0.52149704206E+02  0.13548766689E+03  0.00000000000E+00 0. -1.
</event>
<event>
 7    1  0.7029100E-006  0.1089908E+03  0.7818608E-02  0.1286101E+00
          2   -1    0    0  502    0  0.00000000000E+00  0.00000000000E+00  0.10670203605E+04  0.10670203605E+04  0.00000000000E+00 0. -1.
          1   -1    0    0  501    0 -0.00000000000E+00 -0.00000000000E+00 -0.28872797593E+03  0.28872797593E+03  0.00000000000E+00 0. -1.
         25    2    1    2    0    0  0.45482412446E+02  0.32707914241E+02  0.11067397615E+03  0.17610248661E+03  0.12499959719E+03 0.  0.
          2    1    1    2  501    0  0.69770921152E+02 -0.51710347073E+02 -0.24481697997E+03  0.25976392189E+03  0.00000000000E+00 0. -1.
          1    1    1    2  502    0 -0.11525333360E+03  0.19002432833E+02  0.91243538834E+03  0.91988192789E+03  0.00000000000E+00 0. -1.
         22    1    3    3    0    0  0.78325505174E+02  0.14430424311E+01  0.10410010119E+03  0.13028353004E+03  0.00000000000E+00 0.  1.
         22    1    3    3    0    0 -0.32843092729E+02  0.31264871809E+02  0.65738749669E+01  0.45818956572E+02  0.00000000000E+00 0.  1.
</event>
<event>
 7    1  0.7029100E-006  0.8707595E+02  0.7818608E-02  0.1488051E+00
          2   -1    0    0  502    0  0.00000000000E+00  0.00000000000E+00  0.22330605564E+03  0.22330605564E+03  0.00000000000E+00 0. -1.
          1   -1    0    0  501    0 -0.00000000000E+00 -0.00000000000E+00 -0.56430487268E+03  0.56430487268E+03  0.00000000000E+00 0. -1.
         25    2    1    2    0    0 -0.71425307120E+02 -0.17790423754E+02  0.71432127464E+02  0.16169517306E+03  0.12499882592E+03 0.  0.
          2    1    1    2  501    0  0.79135973826E+02  0.37444547479E+02 -0.51439344718E+03  0.52179039373E+03  0.00000000000E+00 0. -1.
          1    1    1    2  502    0 -0.77106667053E+01 -0.19654123725E+02  0.10196250268E+03  0.10412536153E+03  0.00000000000E+00 0. -1.
         22    1    3    3    0    0  0.46006190002E+01 -0.46907757431E+02  0.64643193841E+02  0.80001536938E+02  0.00000000000E+00 0.  1.
         22    1    3    3    0    0 -0.76025926121E+02  0.29117333677E+02  0.67889336233E+01  0.81693636121E+02  0.00000000000E+00 0.  1.
</event>
<event>
 7    1  0.7029100E-006  0.8514554E+02  0.7818608E-02  0.1427487E+00
          2   -1    0    0  502    0  0.00000000000E+00  0.00000000000E+00  0.38536074121E+04  0.38536074121E+04  0.00000000000E+00 0. -1.
          1   -1    0    0  501    0 -0.00000000000E+00 -0.00000000000E+00 -0.36140359028E+03  0.36140359028E+03  0.00000000000E+00 0. -1.
         25    2    1    2    0    0 -0.42469626597E+02  0.88722332878E+02  0.26666840108E+03  0.31050332750E+03  0.12499983489E+03 0.  0.
          2    1    1    2  501    0 -0.17575669405E+02 -0.28607917996E+02 -0.33814835369E+03  0.33981116260E+03  0.00000000000E+00 0. -1.
          1    1    1    2  502    0  0.60045296002E+02 -0.60114414882E+02  0.35636837744E+04  0.35646965122E+04  0.00000000000E+00 0. -1.
         22    1    3    3    0    0 -0.58395305420E+02  0.11364919840E+03  0.19691857131E+03  0.23474044330E+03  0.00000000000E+00 0. -1.
         22    1    3    3    0    0  0.15925678823E+02 -0.24926865524E+02  0.69749829766E+02  0.75762884206E+02  0.00000000000E+00 0. -1.
</event>
<event>
 7    1  0.7029100E-006  0.4556496E+02  0.7818608E-02  0.1473784E+00
          2   -1    0    0  502    0  0.00000000000E+00  0.00000000000E+00  0.94443420007E+03  0.94443420007E+03  0.00000000000E+00 0. -1.
          1   -1    0    0  501    0 -0.00000000000E+00 -0.00000000000E+00 -0.11757373171E+04  0.11757373171E+04  0.00000000000E+00 0. -1.
         25    2    1    2    0    0 -0.43549077222E+02 -0.63652114437E+02 -0.15851044960E+02  0.14773466956E+03  0.12500465257E+03 0.  0.
          2    1    1    2  501    0  0.40681189162E+02  0.18327365482E+02 -0.10929019809E+04  0.10938124114E+04  0.00000000000E+00 0. -1.
          1    1    1    2  502    0  0.28678880604E+01  0.45324748955E+02  0.87744990876E+03  0.87862443628E+03  0.00000000000E+00 0. -1.
         22    1    3    3    0    0 -0.83699123911E+02 -0.31281919399E+02  0.10236668602E+02  0.89938263319E+02  0.00000000000E+00 0. -1.
         22    1    3    3    0    0  0.40150046688E+02 -0.32370195038E+02 -0.26087713562E+02  0.57796406244E+02  0.00000000000E+00 0. -1.
</event>
<event>
 7    1  0.7029100E-006  0.8097832E+02  0.7818608E-02  0.1376627E+00
          2   -1    0    0  502    0  0.00000000000E+00  0.00000000000E+00  0.23764427702E+04  0.23764427702E+04  0.00000000000E+00 0. -1.
          1   -1    0    0  501    0 -0.00000000000E+00 -0.00000000000E+00 -0.33729449949E+02  0.33729449949E+02  0.00000000000E+00 0. -1.
         25    2    1    2    0    0  0.22743988973E+01 -0.12824071644E+03  0.11648360924E+04  0.11785240385E+04  0.12499973206E+03 0.  0.
          2    1    1    2  501    0  0.12714870415E+02  0.77663087495E+02  0.32641154782E+02  0.85197817310E+02  0.00000000000E+00 0. -1.
          1    1    1    2  502    0 -0.14989269312E+02  0.50577628944E+02  0.11452360730E+04  0.11464503643E+04  0.00000000000E+00 0. -1.
         22    1    3    3    0    0  0.12965315554E+02 -0.33597734908E+02  0.81959467489E+03  0.82038548153E+03  0.00000000000E+00 0.  1.
         22    1    3    3    0    0 -0.10690916657E+02 -0.94642981531E+02  0.34524141752E+03  0.35813855702E+03  0.00000000000E+00 0.  1.
</event>
<event>
 7    1  0.7029100E-006  0.1817226E+03  0.7818608E-02  0.1240596E+00
          2   -1    0    0  502    0  0.00000000000E+00  0.00000000000E+00  0.17828729682E+04  0.17828729682E+04  0.00000000000E+00 0. -1.
          1   -1    0    0  501    0 -0.00000000000E+00 -0.00000000000E+00 -0.43006877162E+03  0.43006877162E+03  0.00000000000E+00 0. -1.
         25    2    1    2    0    0  0.86065014173E+02  0.59945605725E+02 -0.43669179901E+02  0.16891760810E+03  0.12500199496E+03 0.  0.
          2    1    1    2  501    0  0.74160964197E+02  0.33250997531E+02 -0.31358663811E+03  0.32394761466E+03  0.00000000000E+00 0. -1.
          1    1    1    2  502    0 -0.16022597837E+03 -0.93196603256E+02  0.17100600146E+04  0.17200765171E+04  0.00000000000E+00 0. -1.
         22    1    3    3    0    0  0.46870237902E+02  0.91127469378E+02 -0.56767737630E+02  0.11714781650E+03  0.00000000000E+00 0. -1.
         22    1    3    3    0    0  0.39194776271E+02 -0.31181863653E+02  0.13098557728E+02  0.51769791601E+02  0.00000000000E+00 0. -1.
</event>
<event>
 7    1  0.7029100E-006  0.1451887E+03  0.7818608E-02  0.1270784E+00
          2   -1    0    0  502    0  0.00000000000E+00  0.00000000000E+00  0.54470814196E+03  0.54470814196E+03  0.00000000000E+00 0. -1.
          1   -1    0    0  501    0 -0.00000000000E+00 -0.00000000000E+00 -0.26455824895E+03  0.26455824895E+03  0.00000000000E+00 0. -1.
         25    2    1    2    0    0  0.18230081419E+02 -0.14808257307E+03 -0.13115232049E+03  0.23470628269E+03  0.12500129458E+03 0.  0.
          2    1    1    2  501    0  0.68869287795E+02  0.30816264989E+02 -0.50112552591E+02  0.90575321786E+02  0.00000000000E+00 0. -1.
          1    1    1    2  502    0 -0.87099369214E+02  0.11726630808E+03  0.46141476609E+03  0.48398478643E+03  0.00000000000E+00 0. -1.
         22    1    3    3    0    0 -0.49176310348E+02 -0.72683383853E+02 -0.89448620593E+02  0.12530857718E+03  0.00000000000E+00 0. -1.
         22    1    3    3    0    0  0.67406391767E+02 -0.75399189222E+02 -0.41703699902E+02  0.10939770551E+03  0.00000000000E+00 0. -1.
</event>
<event>
 7    1  0.7029100E-006  0.7623135E+02  0.7818608E-02  0.1493058E+00
          2   -1    0    0  502    0  0.00000000000E+00  0.00000000000E+00  0.43039788411E+04  0.43039788411E+04  0.00000000000E+00 0. -1.
          1   -1    0    0  501    0 -0.00000000000E+00 -0.00000000000E+00 -0.21847087468E+02  0.21847087468E+02  0.00000000000E+00 0. -1.
         25    2    1    2    0    0 -0.53554330336E+02 -0.10067890597E+02  0.57055269766E+03  0.58662076049E+03  0.12499642838E+03 0.  0.
          2    1    1    2  501    0 -0.21243019453E+02 -0.95475058336E+01 -0.32989907819E+01  0.23522416612E+02  0.00000000000E+00 0. -1.
          1    1    1    2  502    0  0.74797349789E+02  0.19615396430E+02  0.37148780468E+04  0.37156827515E+04  0.00000000000E+00 0. -1.
         22    1    3    3    0    0 -0.35386099850E+02  0.40022396650E+02  0.46811844454E+03  0.47115692334E+03  0.00000000000E+00 0. -1.
         22    1    3    3    0    0 -0.18168230486E+02 -0.50090287247E+02  0.10243425312E+03  0.11546383715E+03  0.00000000000E+00 0. -1.
</event>
<event>
 7    1  0.7029100E-006  0.5398585E+02  0.7818608E-02  0.1481565E+00
          2   -1    0    0  502    0  0.00000000000E+00  0.00000000000E+00  0.12911318738E+04  0.12911318738E+04  0.00000000000E+00 0. -1.
          1   -1    0    0  501    0 -0.00000000000E+00 -0.00000000000E+00 -0.12951281998E+03  0.12951281998E+03  0.00000000000E+00 0. -1.
         25    2    1    2    0    0 -0.67262857542E+02 -0.34412436375E+02  0.61912000230E+03  0.63611582567E+03  0.12500103457E+03 0.  0.
          2    1    1    2  501    0  0.15214213251E+02  0.32228195902E+02 -0.11734193097E+03  0.12263465114E+03  0.00000000000E+00 0. -1.
          1    1    1    2  502    0  0.52048644291E+02  0.21842404727E+01  0.65984098251E+03  0.66189421699E+03  0.00000000000E+00 0. -1.
         22    1    3    3    0    0  0.21204815445E+02 -0.10985467344E+02  0.36911715247E+03  0.36988889810E+03  0.00000000000E+00 0. -1.
         22    1    3    3    0    0 -0.88467672986E+02 -0.23426969031E+02  0.25000284983E+03  0.26622692757E+03  0.00000000000E+00 0. -1.
</event>
<event>
 7    1  0.7029100E-006  0.1184212E+03  0.7818608E-02  0.1355599E+00
          2   -1    0    0  502    0  0.00000000000E+00  0.00000000000E+00  0.85907161538E+03  0.85907161538E+03  0.00000000000E+00 0. -1.
          1   -1    0    0  501    0 -0.00000000000E+00 -0.00000000000E+00 -0.41596734199E+03  0.41596734199E+03  0.00000000000E+00 0. -1.
         25    2    1    2    0    0  0.13696042090E+03  0.55635629866E+02 -0.98923562918E+02  0.21740284328E+03  0.12499857903E+03 0.  0.
          2    1    1    2  501    0 -0.41070949443E+02  0.12651997679E+02 -0.25164105488E+03  0.25528438345E+03  0.00000000000E+00 0. -1.
          1    1    1    2  502    0 -0.95889471457E+02 -0.68287627546E+02  0.79366889119E+03  0.80235173064E+03  0.00000000000E+00 0. -1.
         22    1    3    3    0    0  0.37945163923E+02  0.15201235968E+02  0.29400564199E+02  0.50351824349E+02  0.00000000000E+00 0.  1.
         22    1    3    3    0    0  0.99015256977E+02  0.40434393898E+02 -0.12832412712E+03  0.16705101893E+03  0.00000000000E+00 0.  1.
</event>
<event>
 7    1  0.7029100E-006  0.9563066E+02  0.7818608E-02  0.1301290E+00
          2   -1    0    0  502    0  0.00000000000E+00  0.00000000000E+00  0.58985301109E+03  0.58985301109E+03  0.00000000000E+00 0. -1.
          1   -1    0    0  501    0 -0.00000000000E+00 -0.00000000000E+00 -0.13992643868E+03  0.13992643868E+03  0.00000000000E+00 0. -1.
         25    2    1    2    0    0  0.56310213216E+02  0.12624291297E+03  0.24278380903E+03  0.30606724859E+03  0.12500027819E+03 0.  0.
          2    1    1    2  501    0  0.23573511552E+02 -0.82627712437E+02 -0.83099106229E+02  0.11953455888E+03  0.00000000000E+00 0. -1.
          1    1    1    2  502    0 -0.79883724768E+02 -0.43615200530E+02  0.29024186961E+03  0.30417764230E+03  0.00000000000E+00 0. -1.
         22    1    3    3    0    0 -0.14977982796E+02  0.11167624239E+03  0.16218367013E+03  0.19748282442E+03  0.00000000000E+00 0. -1.
         22    1    3    3    0    0  0.71288196012E+02  0.14566670574E+02  0.80600138899E+02  0.10858442417E+03  0.00000000000E+00 0. -1.
</event>
<event>
 7    1  0.7029100E-006  0.8194773E+02  0.7818608E-02  0.1411362E+00
          2   -1    0    0  502    0  0.00000000000E+00  0.00000000000E+00  0.37692721619E+03  0.37692721619E+03  0.00000000000E+00 0. -1.
          1   -1    0    0  501    0 -0.00000000000E+00 -0.00000000000E+00 -0.14422469919E+04  0.14422469919E+04  0.00000000000E+00 0. -1.
         25    2    1    2    0    0  0.46550753809E+02 -0.73698027878E+02 -0.23460891895E+03  0.27976195023E+03  0.12500812756E+03 0.  0.
          2    1    1    2  501    0 -0.70468320738E+02  0.42267582978E+02 -0.11825307627E+04  0.11853823593E+04  0.00000000000E+00 0. -1.
          1    1    1    2  502    0  0.23917566929E+02  0.31430444900E+02  0.35181990597E+03  0.35402989861E+03  0.00000000000E+00 0. -1.
         22    1    3    3    0    0  0.71091840063E+02 -0.94299609733E+02 -0.16274281171E+03  0.20107632601E+03  0.00000000000E+00 0. -1.
         22    1    3    3    0    0 -0.24541086254E+02  0.20601581855E+02 -0.71866107237E+02  0.78685624220E+02  0.00000000000E+00 0. -1.
</event>
<event>
 7    1  0.7029100E-006  0.8867390E+02  0.7818608E-02  0.1413996E+00
          2   -1    0    0  502    0  0.00000000000E+00  0.00000000000E+00  0.15183258664E+03  0.15183258664E+03  0.00000000000E+00 0. -1.
          1   -1    0    0  501    0 -0.00000000000E+00 -0.00000000000E+00 -0.78325744895E+03  0.78325744895E+03  0.00000000000E+00 0. -1.
         25    2    1    2    0    0 -0.76923584690E+02  0.15615301080E+02  0.74234665127E+02  0.16521756486E+03  0.12499993089E+03 0.  0.
          2    1    1    2  501    0 -0.34331182260E+02 -0.10007926522E+02 -0.63911381545E+03  0.64011347257E+03  0.00000000000E+00 0. -1.
          1    1    1    2  502    0  0.11125476695E+03 -0.56073745579E+01 -0.66545711991E+02  0.12975899816E+03  0.00000000000E+00 0. -1.
         22    1    3    3    0    0 -0.10961497972E+03 -0.35999930426E+01  0.55840874828E+02  0.12307155249E+03  0.00000000000E+00 0.  1.
         22    1    3    3    0    0  0.32691395035E+02  0.19215294122E+02  0.18393790299E+02  0.42146012375E+02  0.00000000000E+00 0.  1.
</event>
<event>
 7    1  0.7029100E-006  0.1398740E+03  0.7818608E-02  0.1250378E+00
          2   -1    0    0  502    0  0.00000000000E+00  0.00000000000E+00  0.15593560127E+04  0.15593560127E+04  0.00000000000E+00 0. -1.
          1   -1    0    0  501    0 -0.00000000000E+00 -0.00000000000E+00 -0.38371370943E+03  0.38371370943E+03  0.00000000000E+00 0. -1.
         25    2    1    2    0    0  0.12378843208E+02 -0.77802246950E+02  0.26837756307E+03  0.30636087493E+03  0.12499617568E+03 0.  0.
          2    1    1    2  501    0  0.70823003381E+02  0.12506973238E+03 -0.34867064702E+03  0.37713333962E+03  0.00000000000E+00 0. -1.
          1    1    1    2  502    0 -0.83201846590E+02 -0.47267485429E+02  0.12559353872E+04  0.12595755076E+04  0.00000000000E+00 0. -1.
         22    1    3    3    0    0 -0.51689487904E+00 -0.63807607060E+02  0.36117006958E+02  0.73322002773E+02  0.00000000000E+00 0. -1.
         22    1    3    3    0    0  0.12895738088E+02 -0.13994639890E+02  0.23226055612E+03  0.23303887215E+03  0.00000000000E+00 0. -1.
</event>
<event>
 7    1  0.7029100E-006  0.7266389E+02  0.7818608E-02  0.1383099E+00
          2   -1    0    0  502    0  0.00000000000E+00  0.00000000000E+00  0.11729798133E+04  0.11729798133E+04  0.00000000000E+00 0. -1.
          1   -1    0    0  501    0 -0.00000000000E+00 -0.00000000000E+00 -0.76604696663E+02  0.76604696663E+02  0.00000000000E+00 0. -1.
         25    2    1    2    0    0  0.10750182522E+03  0.41513408663E+02  0.68123864990E+03  0.70213300558E+03  0.12499861553E+03 0.  0.
          2    1    1    2  501    0 -0.43549926876E+02 -0.34830584267E+02 -0.51798063890E+02  0.76110479923E+02  0.00000000000E+00 0. -1.
          1    1    1    2  502    0 -0.63951898348E+02 -0.66828243964E+01  0.46693453063E+03  0.47134102446E+03  0.00000000000E+00 0. -1.
         22    1    3    3    0    0  0.47084707938E+02  0.82844357413E+02  0.33800008896E+03  0.35117547952E+03  0.00000000000E+00 0.  1.
         22    1    3    3    0    0  0.60417117285E+02 -0.41330948750E+02  0.34323856094E+03  0.35095752606E+03  0.00000000000E+00 0.  1.
</event>
<event>
 7    1  0.7029100E-006  0.1066730E+03  0.7818608E-02  0.1340434E+00
          2   -1    0    0  502    0  0.00000000000E+00  0.00000000000E+00  0.14569340115E+04  0.14569340115E+04  0.00000000000E+00 0. -1.
          1   -1    0    0  501    0 -0.00000000000E+00 -0.00000000000E+00 -0.59449149287E+02  0.59449149287E+02  0.00000000000E+00 0. -1.
         25    2    1    2    0    0  0.63645031509E+02  0.10244416688E+03  0.24522373756E+03  0.30050809620E+03  0.12499974822E+03 0.  0.
          2    1    1    2  501    0  0.27256983678E+02 -0.46985705321E+02 -0.42376030281E+01  0.54484465154E+02  0.00000000000E+00 0. -1.
          1    1    1    2  502    0 -0.90902015187E+02 -0.55458461563E+02  0.11564987277E+04  0.11613905995E+04  0.00000000000E+00 0. -1.
         22    1    3    3    0    0  0.85242935410E+02  0.91095624470E+02  0.12060432678E+03  0.17352283559E+03  0.00000000000E+00 0. -1.
         22    1    3    3    0    0 -0.21597903900E+02  0.11348542414E+02  0.12461941078E+03  0.12698526061E+03  0.00000000000E+00 0. -1.
</event>
<event>
 7    1  0.7029100E-006  0.5190291E+02  0.7818608E-02  0.1446734E+00
          2   -1    0    0  502    0  0.00000000000E+00  0.00000000000E+00  0.79331607778E+02  0.79331607778E+02  0.00000000000E+00 0. -1.
          1   -1    0    0  501    0 -0.00000000000E+00 -0.00000000000E+00 -0.16495340119E+04  0.16495340119E+04  0.00000000000E+00 0. -1.
         25    2    1    2    0    0 -0.15914127060E+02 -0.95223797671E+01 -0.10570706014E+03  0.16475168627E+03  0.12500080164E+03 0.  0.
          2    1    1    2  501    0 -0.50342249683E+01  0.52345581799E+02 -0.15023314504E+04  0.15032515392E+04  0.00000000000E+00 0. -1.
          1    1    1    2  502    0  0.20948352028E+02 -0.42823202032E+02  0.37836106369E+02  0.60862394219E+02  0.00000000000E+00 0. -1.
         22    1    3    3    0    0  0.58967708618E+01  0.31591191240E+02 -0.11314491551E+03  0.11762035188E+03  0.00000000000E+00 0. -1.
         22    1    3    3    0    0 -0.21810897921E+02 -0.41113571007E+02  0.74378553703E+01  0.47131334392E+02  0.00000000000E+00 0. -1.
</event>
<event>
 7    1  0.7029100E-006  0.4735307E+02  0.7818608E-02  0.1475293E+00
          2   -1    0    0  502    0  0.00000000000E+00  0.00000000000E+00  0.24950186287E+03  0.24950186287E+03  0.00000000000E+00 0. -1.
          1   -1    0    0  501    0 -0.00000000000E+00 -0.00000000000E+00 -0.73219341674E+03  0.73219341674E+03  0.00000000000E+00 0. -1.
         25    2    1    2    0    0  0.46842865066E+02 -0.24286696297E+02  0.72889694134E+01  0.13587697462E+03  0.12500130213E+03 0.  0.
          2    1    1    2  501    0 -0.43929698414E+02 -0.18088664243E+02 -0.66450413424E+03  0.66620024212E+03  0.00000000000E+00 0. -1.
          1    1    1    2  502    0 -0.29131666521E+01  0.42375360540E+02  0.17452361096E+03  0.17961806286E+03  0.00000000000E+00 0. -1.
         22    1    3    3    0    0 -0.12270596612E+02  0.34578975785E+02  0.32195668477E+02  0.48814282503E+02  0.00000000000E+00 0. -1.
         22    1    3    3    0    0  0.59113461678E+02 -0.58865672082E+02 -0.24906699064E+02  0.87062692122E+02  0.00000000000E+00 0. -1.
</event>
<event>
 7    1  0.7029100E-006  0.1325939E+03  0.7818608E-02  0.1308986E+00
          2   -1    0    0  502    0  0.00000000000E+00  0.00000000000E+00  0.65959704216E+03  0.65959704216E+03  0.00000000000E+00 0. -1.
          1   -1    0    0  501    0 -0.00000000000E+00 -0.00000000000E+00 -0.19513351810E+03  0.19513351810E+03  0.00000000000E+00 0. -1.
         25    2    1    2    0    0 -0.21612679316E+02  0.15729783739E+03  0.10520826247E+03  0.22782284594E+03  0.12499901235E+03 0.  0.
          2    1    1    2  501    0  0.60120883858E+02 -0.11424667041E+03 -0.10045759161E+03  0.16358040863E+03  0.00000000000E+00 0. -1.
          1    1    1    2  502    0 -0.38508204542E+02 -0.43051166985E+02  0.45971285320E+03  0.46332730568E+03  0.00000000000E+00 0. -1.
         22    1    3    3    0    0  0.47291371440E+02  0.26429831181E+02  0.28400957039E+02  0.61168816808E+02  0.00000000000E+00 0.  1.
         22    1    3    3    0    0 -0.68904050756E+02  0.13086800621E+03  0.76807305427E+02  0.16665402914E+03  0.00000000000E+00 0.  1.
</event>
<event>
 7    1  0.7029100E-006  0.6016512E+02  0.7818608E-02  0.1413916E+00
          2   -1    0    0  502    0  0.00000000000E+00  0.00000000000E+00  0.11769614220E+03  0.11769614220E+03  0.00000000000E+00 0. -1.
          1   -1    0    0  501    0 -0.00000000000E+00 -0.00000000000E+00 -0.13727710036E+04  0.13727710036E+04  0.00000000000E+00 0. -1.
         25    2    1    2    0    0 -0.82815837339E+02 -0.71612380550E+02 -0.36784898768E+03  0.40363868864E+03  0.12499806904E+03 0.  0.
          2    1    1    2  501    0  0.31530989311E+02  0.42273746016E+02 -0.97750903471E+03  0.97893063382E+03  0.00000000000E+00 0. -1.
          1    1    1    2  502    0  0.51284848028E+02  0.29338634535E+02  0.90283161012E+02  0.10789782331E+03  0.00000000000E+00 0. -1.
         22    1    3    3    0    0 -0.85994334853E+02  0.39950817031E+01 -0.14907264871E+03  0.17214424445E+03  0.00000000000E+00 0. -1.
         22    1    3    3    0    0  0.31784975136E+01 -0.75607462253E+02 -0.21877633897E+03  0.23149444418E+03  0.00000000000E+00 0. -1.
</event>
<event>
 7    1  0.7029100E-006  0.6048125E+02  0.7818608E-02  0.1516023E+00
          2   -1    0    0  502    0  0.00000000000E+00  0.00000000000E+00  0.41060485373E+02  0.41060485373E+02  0.00000000000E+00 0. -1.
          1   -1    0    0  501    0 -0.00000000000E+00 -0.00000000000E+00 -0.82966796243E+03  0.82966796243E+03  0.00000000000E+00 0. -1.
         25    2    1    2    0    0  0.30224540866E+02  0.29472017030E+02 -0.15910086764E+03  0.20668721829E+03  0.12499758982E+03 0.  0.
          2    1    1    2  501    0  0.15046451500E+02  0.20082655814E+02 -0.58023572171E+03  0.58077810007E+03  0.00000000000E+00 0. -1.
          1    1    1    2  502    0 -0.45270992367E+02 -0.49554672844E+02 -0.49270887712E+02  0.83263129454E+02  0.00000000000E+00 0. -1.
         22    1    3    3    0    0  0.40648868406E+02 -0.79560291054E+01  0.15061999290E+01  0.41447527550E+02  0.00000000000E+00 0. -1.
         22    1    3    3    0    0 -0.10424327539E+02  0.37428046135E+02 -0.16060706757E+03  0.16523969074E+03  0.00000000000E+00 0. -1.
</event>
<event>
 7    1  0.7029100E-006  0.7480696E+02  0.7818608E-02  0.1473656E+00
          2   -1    0    0  502    0  0.00000000000E+00  0.00000000000E+00  0.21712651825E+04  0.21712651825E+04  0.00000000000E+00 0. -1.
          1   -1    0    0  501    0 -0.00000000000E+00 -0.00000000000E+00 -0.32697853850E+02  0.32697853850E+02  0.00000000000E+00 0. -1.
         25    2    1    2    0    0 -0.78559271795E+02  0.51417635432E+02  0.66840329804E+03  0.68644289173E+03  0.12500216937E+03 0.  0.
          2    1    1    2  501    0  0.51373830796E+02 -0.52372148177E+02  0.33587358822E+02  0.80685953350E+02  0.00000000000E+00 0. -1.
          1    1    1    2  502    0  0.27185440999E+02  0.95451274545E+00  0.14365766718E+04  0.14368341913E+04  0.00000000000E+00 0. -1.
         22    1    3    3    0    0 -0.10625883721E+03  0.58910178497E+02  0.60146322128E+03  0.61361173079E+03  0.00000000000E+00 0.  1.
         22    1    3    3    0    0  0.27699565413E+02 -0.74925430656E+01  0.66940076768E+02  0.72831160937E+02  0.00000000000E+00 0.  1.
</event>
<event>
 7    1  0.7029100E-006  0.3420906E+03  0.7818608E-02  0.1173631E+00
          2   -1    0    0  502    0  0.00000000000E+00  0.00000000000E+00  0.25190672546E+04  0.25190672546E+04  0.00000000000E+00 0. -1.
          1   -1    0    0  501    0 -0.00000000000E+00 -0.00000000000E+00 -0.40045839346E+03  0.40045839346E+03  0.00000000000E+00 0. -1.
         25    2    1    2    0    0  0.30436476602E+03 -0.27431267298E+03  0.19981240203E+03  0.47268773189E+03  0.12499336990E+03 0.  0.
          2    1    1    2  501    0 -0.23069192629E+03  0.22507433714E+03 -0.16436580409E+03  0.36179184574E+03  0.00000000000E+00 0. -1.
          1    1    1    2  502    0 -0.73672839731E+02  0.49238335841E+02  0.20831622632E+04  0.20850460704E+04  0.00000000000E+00 0. -1.
         22    1    3    3    0    0  0.17316866973E+03 -0.20339426095E+03  0.72992506240E+02  0.27691969871E+03  0.00000000000E+00 0.  1.
         22    1    3    3    0    0  0.13119609629E+03 -0.70918412023E+02  0.12681989579E+03  0.19576803318E+03  0.00000000000E+00 0.  1.
</event>
<event>
 7    1  0.7029100E-006  0.1105243E+03  0.7818608E-02  0.1370752E+00
          2   -1    0    0  502    0  0.00000000000E+00  0.00000000000E+00  0.13878401585E+04  0.13878401585E+04  0.00000000000E+00 0. -1.
          1   -1    0    0  501    0 -0.00000000000E+00 -0.00000000000E+00 -0.35242179602E+03  0.35242179602E+03  0.00000000000E+00 0. -1.
         25    2    1    2    0    0 -0.84949749326E+02  0.85963928351E+02 -0.32600517305E+02  0.17690269807E+03  0.12500205586E+03 0.  0.
          2    1    1    2  501    0  0.98799953778E+02 -0.47836377618E+02 -0.23517597126E+03  0.25953321050E+03  0.00000000000E+00 0. -1.
          1    1    1    2  502    0 -0.13850204451E+02 -0.38127550733E+02  0.13031948511E+04  0.13038260460E+04  0.00000000000E+00 0. -1.
         22    1    3    3    0    0 -0.10595918739E+03  0.94714198052E+02 -0.64935944268E+01  0.14226839239E+03  0.00000000000E+00 0.  1.
         22    1    3    3    0    0  0.21009438066E+02 -0.87502697011E+01 -0.26106922878E+02  0.34634305679E+02  0.00000000000E+00 0.  1.
</event>
<event>
 7    1  0.7029100E-006  0.1593432E+03  0.7818608E-02  0.1399989E+00
          2   -1    0    0  502    0  0.00000000000E+00  0.00000000000E+00  0.49472721837E+03  0.49472721837E+03  0.00000000000E+00 0. -1.
          1   -1    0    0  501    0 -0.00000000000E+00 -0.00000000000E+00 -0.52946571580E+03  0.52946571580E+03  0.00000000000E+00 0. -1.
         25    2    1    2    0    0 -0.15307049721E+02 -0.13829000193E+03  0.86890886478E+02  0.20623587372E+03  0.12499911620E+03 0.  0.
          2    1    1    2  501    0  0.19880191241E+02  0.16002360529E+03 -0.45557613706E+03  0.48327258655E+03  0.00000000000E+00 0. -1.
          1    1    1    2  502    0 -0.45731415203E+01 -0.21733603357E+02  0.33394675314E+03  0.33468447390E+03  0.00000000000E+00 0. -1.
         22    1    3    3    0    0  0.38390789784E+00 -0.14981126403E+03  0.39394071871E+02  0.15490466460E+03  0.00000000000E+00 0. -1.
         22    1    3    3    0    0 -0.15690957619E+02  0.11521262103E+02  0.47496814607E+02  0.51331209116E+02  0.00000000000E+00 0. -1.
</event>
<event>
 7    1  0.7029100E-006  0.3802487E+02  0.7818608E-02  0.1562660E+00
          2   -1    0    0  502    0  0.00000000000E+00  0.00000000000E+00  0.82208058322E+03  0.82208058322E+03  0.00000000000E+00 0. -1.
          1   -1    0    0  501    0 -0.00000000000E+00 -0.00000000000E+00 -0.44430359204E+03  0.44430359204E+03  0.00000000000E+00 0. -1.
         25    2    1    2    0    0 -0.50322889245E+02 -0.35853834016E+02 -0.13942922121E+03  0.19719077437E+03  0.12500321264E+03 0.  0.
          2    1    1    2  501    0  0.13621873242E+02  0.26114551019E+02 -0.27475159454E+03  0.27632582924E+03  0.00000000000E+00 0. -1.
          1    1    1    2  502    0  0.36701016003E+02  0.97392829966E+01  0.79195780694E+03  0.79286757165E+03  0.00000000000E+00 0. -1.
         22    1    3    3    0    0 -0.31772340755E+02  0.45296374634E+02 -0.66610845617E+02  0.86592424298E+02  0.00000000000E+00 0. -1.
         22    1    3    3    0    0 -0.18550548490E+02 -0.81150208650E+02 -0.72818375596E+02  0.11059835007E+03  0.00000000000E+00 0. -1.
</event>
<event>
 7    1  0.7029100E-006  0.5729597E+02  0.7818608E-02  0.1527714E+00
          2   -1    0    0  502    0  0.00000000000E+00  0.00000000000E+00  0.16437711443E+04  0.16437711443E+04  0.00000000000E+00 0. -1.
          1   -1    0    0  501    0 -0.00000000000E+00 -0.00000000000E+00 -0.33204014558E+03  0.33204014558E+03  0.00000000000E+00 0. -1.
         25    2    1    2    0    0  0.28695219315E+02  0.34082099372E+02  0.85425062132E+02  0.15781961523E+03  0.12499833840E+03 0.  0.
          2    1    1    2  501    0 -0.51682266942E+02 -0.25599665954E+02 -0.29293219291E+03  0.29855597341E+03  0.00000000000E+00 0. -1.
          1    1    1    2  502    0  0.22987047627E+02 -0.84824334186E+01  0.15192381295E+04  0.15194357012E+04  0.00000000000E+00 0. -1.
         22    1    3    3    0    0 -0.17000494906E+02  0.18443909151E+01 -0.27168980994E+02  0.32102525338E+02  0.00000000000E+00 0.  1.
         22    1    3    3    0    0  0.45695714221E+02  0.32237708457E+02  0.11259404313E+03  0.12571708990E+03  0.00000000000E+00 0.  1.
</event>
<event>
 7    1  0.7029100E-006  0.1146484E+03  0.7818608E-02  0.1380198E+00
          2   -1    0    0  502    0  0.00000000000E+00  0.00000000000E+00  0.75217547092E+03  0.75217547092E+03  0.00000000000E+00 0. -1.
          1   -1    0    0  501    0 -0.00000000000E+00 -0.00000000000E+00 -0.17707142219E+03  0.17707142219E+03  0.00000000000E+00 0. -1.
         25    2    1    2    0    0 -0.12854196197E+02  0.79316260327E+02 -0.36867351290E+02  0.15312406617E+03  0.12502591146E+03 0.  0.
          2    1    1    2  501    0 -0.23355513617E+01  0.36112313695E+02 -0.72920473263E+02  0.81406077300E+02  0.00000000000E+00 0. -1.
          1    1    1    2  502    0  0.15189747559E+02 -0.11542857402E+03  0.68489187329E+03  0.69471674964E+03  0.00000000000E+00 0. -1.
         22    1    3    3    0    0 -0.23492284072E+02  0.55615866800E+02 -0.81533211825E+02  0.10145282983E+03  0.00000000000E+00 0.  1.
         22    1    3    3    0    0  0.10638087874E+02  0.23700393527E+02  0.44665860535E+02  0.51671236334E+02  0.00000000000E+00 0.  1.
</event>
<event>
 7    1  0.7029100E-006  0.9471625E+02  0.7818608E-02  0.1362005E+00
          2   -1    0    0  502    0  0.00000000000E+00  0.00000000000E+00  0.97629887100E+02  0.97629887100E+02  0.00000000000E+00 0. -1.
          1   -1    0    0  501    0 -0.00000000000E+00 -0.00000000000E+00 -0.66598667668E+03  0.66598667668E+03  0.00000000000E+00 0. -1.
         25    2    1    2    0    0 -0.41660491381E+02  0.10216921274E+03 -0.15523058351E+03  0.22780624433E+03  0.12500002529E+03 0.  0.
          2    1    1    2  501    0 -0.85388203161E+01 -0.93691255654E+02 -0.45823369184E+03  0.46779170490E+03  0.00000000000E+00 0. -1.
          1    1    1    2  502    0  0.50199311697E+02 -0.84779570895E+01  0.45107485779E+02  0.68018614545E+02  0.00000000000E+00 0. -1.
         22    1    3    3    0    0 -0.37546771197E+02  0.53764414813E+02 -0.44746912277E+00  0.65578750797E+02  0.00000000000E+00 0. -1.
         22    1    3    3    0    0 -0.41137201840E+01  0.48404797930E+02 -0.15478311439E+03  0.16222749353E+03  0.00000000000E+00 0. -1.
</event>
<event>
 7    1  0.7029100E-006  0.7097732E+02  0.7818608E-02  0.1367937E+00
          2   -1    0    0  502    0  0.00000000000E+00  0.00000000000E+00  0.32868561086E+04  0.32868561086E+04  0.00000000000E+00 0. -1.
          1   -1    0    0  501    0 -0.00000000000E+00 -0.00000000000E+00 -0.48518034098E+02  0.48518034098E+02  0.00000000000E+00 0. -1.
         25    2    1    2    0    0  0.72169752148E+01  0.89339912069E+02  0.43045566158E+03  0.45711124768E+03  0.12499964620E+03 0.  0.
          2    1    1    2  501    0  0.47555722282E+02 -0.43807694758E+02 -0.46534610747E+01  0.64825269315E+02  0.00000000000E+00 0. -1.
          1    1    1    2  502    0 -0.54772697497E+02 -0.45532217311E+02  0.28125358740E+04  0.28134376257E+04  0.00000000000E+00 0. -1.
         22    1    3    3    0    0  0.18459843559E+02  0.11280474575E+03  0.40457470498E+03  0.42041214111E+03  0.00000000000E+00 0. -1.
         22    1    3    3    0    0 -0.11242868344E+02 -0.23464833679E+02  0.25880956604E+02  0.36699106568E+02  0.00000000000E+00 0. -1.
</event>
<event>
 7    1  0.7029100E-006  0.7059832E+02  0.7818608E-02  0.1470077E+00
          2   -1    0    0  502    0  0.00000000000E+00  0.00000000000E+00  0.41154401014E+03  0.41154401014E+03  0.00000000000E+00 0. -1.
          1   -1    0    0  501    0 -0.00000000000E+00 -0.00000000000E+00 -0.12699241031E+04  0.12699241031E+04  0.00000000000E+00 0. -1.
         25    2    1    2    0    0  0.97426378531E+02  0.14412636789E+02 -0.11516185609E+03  0.19643630256E+03  0.12500137813E+03 0.  0.
          2    1    1    2  501    0 -0.67918927397E+02 -0.16339085914E+02 -0.11124383117E+04  0.11146295097E+04  0.00000000000E+00 0. -1.
          1    1    1    2  502    0 -0.29507451134E+02  0.19264491246E+01  0.36922007488E+03  0.37040230098E+03  0.00000000000E+00 0. -1.
         22    1    3    3    0    0  0.99216874314E+02  0.28594204982E+02 -0.13625307028E+03  0.17095764349E+03  0.00000000000E+00 0. -1.
         22    1    3    3    0    0 -0.17904957831E+01 -0.14181568193E+02  0.21091214197E+02  0.25478659067E+02  0.00000000000E+00 0. -1.
</event>
<event>
 7    1  0.7029100E-006  0.1035543E+03  0.7818608E-02  0.1316848E+00
          2   -1    0    0  502    0  0.00000000000E+00  0.00000000000E+00  0.44573797044E+04  0.44573797044E+04  0.00000000000E+00 0. -1.
          1   -1    0    0  501    0 -0.00000000000E+00 -0.00000000000E+00 -0.15083289516E+02  0.15083289516E+02  0.00000000000E+00 0. -1.
         25    2    1    2    0    0  0.39969036243E+02 -0.14170577086E+02  0.21081996551E+04  0.21123278788E+04  0.12499981167E+03 0.  0.
          2    1    1    2  501    0 -0.10825725417E+03  0.23244708407E+02  0.23364033038E+03  0.25854932514E+03  0.00000000000E+00 0. -1.
          1    1    1    2  502    0  0.68288217931E+02 -0.90741313212E+01  0.21004564294E+04  0.21015857900E+04  0.00000000000E+00 0. -1.
         22    1    3    3    0    0  0.88715793033E+01  0.31285942168E+02  0.17130312384E+04  0.17133398784E+04  0.00000000000E+00 0. -1.
         22    1    3    3    0    0  0.31097456940E+02 -0.45456519253E+02  0.39516841668E+03  0.39898800046E+03  0.00000000000E+00 0. -1.
</event>
<event>
 7    1  0.7029100E-006  0.5179007E+02  0.7818608E-02  0.1531444E+00
          2   -1    0    0  502    0  0.00000000000E+00  0.00000000000E+00  0.17708163989E+04  0.17708163989E+04  0.00000000000E+00 0. -1.
          1   -1    0    0  501    0 -0.00000000000E+00 -0.00000000000E+00 -0.53304976685E+03  0.53304976685E+03  0.00000000000E+00 0. -1.
         25    2    1    2    0    0  0.63732219593E+02  0.36552934208E+02  0.90953614643E+03  0.92102083686E+03  0.12500186975E+03 0.  0.
          2    1    1    2  501    0 -0.25980355848E+02 -0.49501756398E+01 -0.52626676265E+03  0.52693091445E+03  0.00000000000E+00 0. -1.
          1    1    1    2  502    0 -0.37751863745E+02 -0.31602758568E+02  0.85449724824E+03  0.85591441442E+03  0.00000000000E+00 0. -1.
         22    1    3    3    0    0  0.15295485926E+02 -0.42998117396E+02  0.18610987989E+03  0.19162379127E+03  0.00000000000E+00 0.  1.
         22    1    3    3    0    0  0.48436733667E+02  0.79551051604E+02  0.72342626654E+03  0.72939704558E+03  0.00000000000E+00 0.  1.
</event>
<event>
 7    1  0.7029100E-006  0.5377165E+02  0.7818608E-02  0.1533559E+00
          2   -1    0    0  502    0  0.00000000000E+00  0.00000000000E+00  0.84391607174E+02  0.84391607174E+02  0.00000000000E+00 0. -1.
          1   -1    0    0  501    0 -0.00000000000E+00 -0.00000000000E+00 -0.19362271106E+04  0.19362271106E+04  0.00000000000E+00 0. -1.
         25    2    1    2    0    0 -0.43162047613E+01 -0.40731726772E+02 -0.13764454279E+04  0.13827159763E+04  0.12499500778E+03 0.  0.
          2    1    1    2  501    0  0.23151295106E+02 -0.97518432554E+01 -0.54739386577E+03  0.54797000391E+03  0.00000000000E+00 0. -1.
          1    1    1    2  502    0 -0.18835090345E+02  0.50483570028E+02  0.72003790249E+02  0.89932737539E+02  0.00000000000E+00 0. -1.
         22    1    3    3    0    0  0.34710990261E+02 -0.20971161373E+01 -0.11661913074E+03  0.12169335395E+03  0.00000000000E+00 0. -1.
         22    1    3    3    0    0 -0.39027195022E+02 -0.38634610635E+02 -0.12598262972E+04  0.12610226224E+04  0.00000000000E+00 0. -1.
</event>
<event>
 7    1  0.7029100E-006  0.3054033E+02  0.7818608E-02  0.1630367E+00
          2   -1    0    0  502    0  0.00000000000E+00  0.00000000000E+00  0.11364860200E+04  0.11364860200E+04  0.00000000000E+00 0. -1.
          1   -1    0    0  501    0 -0.00000000000E+00 -0.00000000000E+00 -0.81991200011E+03  0.81991200011E+03  0.00000000000E+00 0. -1.
         25    2    1    2    0    0 -0.15741555021E+02 -0.51999893082E+02 -0.12157656161E+03  0.18263754713E+03  0.12499531133E+03 0.  0.
          2    1    1    2  501    0  0.10588404142E+02  0.21930259496E+02 -0.66737242636E+03  0.66781659612E+03  0.00000000000E+00 0. -1.
          1    1    1    2  502    0  0.51531508790E+01  0.30069633587E+02  0.11055230079E+04  0.11059438769E+04  0.00000000000E+00 0. -1.
         22    1    3    3    0    0 -0.40374759361E+02  0.20313664568E+02 -0.82148966308E+01  0.45937464974E+02  0.00000000000E+00 0. -1.
         22    1    3    3    0    0  0.24633204339E+02 -0.72313557650E+02 -0.11336166498E+03  0.13670008216E+03  0.00000000000E+00 0. -1.
</event>
<event>
 7    1  0.7029100E-006  0.9695455E+02  0.7818608E-02  0.1358976E+00
          2   -1    0    0  502    0  0.00000000000E+00  0.00000000000E+00  0.33070395107E+04  0.33070395107E+04  0.00000000000E+00 0. -1.
          1   -1    0    0  501    0 -0.00000000000E+00 -0.00000000000E+00 -0.10579316842E+03  0.10579316842E+03  0.00000000000E+00 0. -1.
         25    2    1    2    0    0  0.27647934395E+02  0.43170506032E+02  0.18749190136E+04  0.18797802178E+04  0.12499703551E+03 0.  0.
          2    1    1    2  501    0 -0.74828730963E+02 -0.62577126858E+02 -0.79782298609E+02  0.12601766128E+03  0.00000000000E+00 0. -1.
          1    1    1    2  502    0  0.47180796569E+02  0.19406620826E+02  0.14061096273E+04  0.14070348001E+04  0.00000000000E+00 0. -1.
         22    1    3    3    0    0 -0.41677291800E+01 -0.42492630591E+02  0.70995659044E+03  0.71123930848E+03  0.00000000000E+00 0. -1.
         22    1    3    3    0    0  0.31815663575E+02  0.85663136623E+02  0.11649624231E+04  0.11685409093E+04  0.00000000000E+00 0. -1.
</event>
<event>
 7    1  0.7029100E-006  0.7061407E+02  0.7818608E-02  0.1419999E+00
          2   -1    0    0  502    0  0.00000000000E+00  0.00000000000E+00  0.20034207299E+03  0.20034207299E+03  0.00000000000E+00 0. -1.
          1   -1    0    0  501    0 -0.00000000000E+00 -0.00000000000E+00 -0.15454126482E+04  0.15454126482E+04  0.00000000000E+00 0. -1.
         25    2    1    2    0    0  0.64760676015E+02  0.73982437463E+02 -0.38390165925E+03  0.41553849589E+03  0.12499764550E+03 0.  0.
          2    1    1    2  501    0 -0.42223942997E+02 -0.74223624826E+01 -0.11385840939E+04  0.11393909301E+04  0.00000000000E+00 0. -1.
          1    1    1    2  502    0 -0.22536733017E+02 -0.66560074980E+02  0.17741517792E+03  0.19082529516E+03  0.00000000000E+00 0. -1.
         22    1    3    3    0    0  0.85131048011E+01 -0.13483321608E+02 -0.22543127154E+03  0.22599453778E+03  0.00000000000E+00 0.  1.
         22    1    3    3    0    0  0.56247571213E+02  0.87465759071E+02 -0.15847038771E+03  0.18954395811E+03  0.00000000000E+00 0.  1.
</event>
<event>
 7    1  0.7029100E-006  0.7913511E+02  0.7818608E-02  0.1439662E+00
          2   -1    0    0  502    0  0.00000000000E+00  0.00000000000E+00  0.26174626648E+04  0.26174626648E+04  0.00000000000E+00 0. -1.
          1   -1    0    0  501    0 -0.00000000000E+00 -0.00000000000E+00 -0.25040896423E+03  0.25040896423E+03  0.00000000000E+00 0. -1.
         25    2    1    2    0    0  0.39009090046E+02  0.33910053518E+02  0.58093160396E+03  0.59647168161E+03  0.12500135060E+03 0.  0.
          2    1    1    2  501    0  0.32172984237E+02  0.71425994898E+01 -0.24068348338E+03  0.24292932473E+03  0.00000000000E+00 0. -1.
          1    1    1    2  502    0 -0.71182074283E+02 -0.41052653008E+02  0.20268055799E+04  0.20284706226E+04  0.00000000000E+00 0. -1.
         22    1    3    3    0    0  0.26495344991E+02  0.33402717866E+02  0.51352330437E+02  0.66744338399E+02  0.00000000000E+00 0. -1.
         22    1    3    3    0    0  0.12513745054E+02  0.50733565234E+00  0.52957927352E+03  0.52972734322E+03  0.00000000000E+00 0. -1.
</event>
<event>
 7    1  0.7029100E-006  0.1289084E+03  0.7818608E-02  0.1299032E+00
          2   -1    0    0  502    0  0.00000000000E+00  0.00000000000E+00  0.78558242342E+03  0.78558242342E+03  0.00000000000E+00 0. -1.
          1   -1    0    0  501    0 -0.00000000000E+00 -0.00000000000E+00 -0.43367543312E+03  0.43367543312E+03  0.00000000000E+00 0. -1.
         25    2    1    2    0    0  0.15520079187E+03 -0.90248163406E+02  0.63313480922E+03  0.66986373494E+03  0.12500287979E+03 0.  0.
          2    1    1    2  501    0 -0.12384051596E+03  0.33218079650E+02 -0.39666547022E+03  0.41687337342E+03  0.00000000000E+00 0. -1.
          1    1    1    2  502    0 -0.31360275911E+02  0.57030083756E+02  0.11543765130E+03  0.13252074817E+03  0.00000000000E+00 0. -1.
         22    1    3    3    0    0 -0.90364803175E+01 -0.46960581189E+02  0.11308407468E+03  0.12278013727E+03  0.00000000000E+00 0. -1.
         22    1    3    3    0    0  0.16423727218E+03 -0.43287582217E+02  0.52005073454E+03  0.54708359767E+03  0.00000000000E+00 0. -1.
</event>
<event>
 7    1  0.7029100E-006  0.8150471E+02  0.7818608E-02  0.1474659E+00
          2   -1    0    0  502    0  0.00000000000E+00  0.00000000000E+00  0.12890500323E+04  0.12890500323E+04  0.00000000000E+00 0. -1.
          1   -1    0    0  501    0 -0.00000000000E+00 -0.00000000000E+00 -0.11341437326E+03  0.11341437326E+03  0.00000000000E+00 0. -1.
         25    2    1    2    0    0  0.69467993163E+02  0.94103581917E+01  0.39777053091E+03  0.42280389471E+03  0.12500952447E+03 0.  0.
          2    1    1    2  501    0  0.13433657937E+02 -0.20833649753E+02 -0.97348505483E+02  0.10045514246E+03  0.00000000000E+00 0. -1.
          1    1    1    2  502    0 -0.82901651100E+02  0.11423291561E+02  0.87521363361E+03  0.87920536839E+03  0.00000000000E+00 0. -1.
         22    1    3    3    0    0  0.37942262782E+02 -0.11042640073E+02  0.37852704676E+03  0.38058413042E+03  0.00000000000E+00 0. -1.
         22    1    3    3    0    0  0.31525730381E+02  0.20452998265E+02  0.19243484152E+02  0.42219764286E+02  0.00000000000E+00 0. -1.
</event>
<event>
 7    1  0.7029100E-006  0.1602210E+03  0.7818608E-02  0.1275424E+00
          2   -1    0    0  502    0  0.00000000000E+00  0.00000000000E+00  0.46390755588E+04  0.46390755588E+04  0.00000000000E+00 0. -1.
          1   -1    0    0  501    0 -0.00000000000E+00 -0.00000000000E+00 -0.47677414337E+02  0.47677414337E+02  0.00000000000E+00 0. -1.
         25    2    1    2    0    0 -0.18110763872E+02 -0.20226550843E+03  0.91435142992E+03  0.94493571904E+03  0.12500256020E+03 0.  0.
          2    1    1    2  501    0  0.49021297553E+02  0.14464744987E+03  0.14968447148E+03  0.21384904342E+03  0.00000000000E+00 0. -1.
          1    1    1    2  502    0 -0.30910533681E+02  0.57618058563E+02  0.35273622430E+04  0.35279682106E+04  0.00000000000E+00 0. -1.
         22    1    3    3    0    0 -0.60173745215E+02 -0.12911696366E+03  0.42169319054E+03  0.44510360239E+03  0.00000000000E+00 0. -1.
         22    1    3    3    0    0  0.42062981344E+02 -0.73148544770E+02  0.49265823939E+03  0.49983211665E+03  0.00000000000E+00 0. -1.
</event>
<event>
 7    1  0.7029100E-006  0.5627862E+02  0.7818608E-02  0.1548024E+00
          2   -1    0    0  502    0  0.00000000000E+00  0.00000000000E+00  0.72547545012E+01  0.72547545012E+01  0.00000000000E+00 0. -1.
          1   -1    0    0  501    0 -0.00000000000E+00 -0.00000000000E+00 -0.26861443863E+04  0.26861443863E+04  0.00000000000E+00 0. -1.
         25    2    1    2    0    0  0.47102509191E+02  0.10013697882E+02 -0.85725116424E+03  0.86765414164E+03  0.12500092160E+03 0.  0.
          2    1    1    2  501    0  0.63968684093E+01  0.20890220668E+02 -0.13377185493E+04  0.13378969461E+04  0.00000000000E+00 0. -1.
          1    1    1    2  502    0 -0.53499377600E+02 -0.30903918549E+02 -0.48391991828E+03  0.48784805308E+03  0.00000000000E+00 0. -1.
         22    1    3    3    0    0 -0.34361329710E+02  0.34415302313E+02 -0.28523494248E+03  0.28935114727E+03  0.00000000000E+00 0. -1.
         22    1    3    3    0    0  0.81463838901E+02 -0.24401604431E+02 -0.57201622176E+03  0.57830299437E+03  0.00000000000E+00 0. -1.
</event>
<event>
 7    1  0.7029100E-006  0.3314477E+03  0.7818608E-02  0.1265513E+00
          2   -1    0    0  502    0  0.00000000000E+00  0.00000000000E+00  0.14017318592E+04  0.14017318592E+04  0.00000000000E+00 0. -1.
          1   -1    0    0  501    0 -0.00000000000E+00 -0.00000000000E+00 -0.35060368383E+03  0.35060368383E+03  0.00000000000E+00 0. -1.
         25    2    1    2    0    0  0.31214807107E+03 -0.16604439712E+02  0.14090107627E+02  0.33695061263E+03  0.12500023411E+03 0.  0.
          2    1    1    2  501    0  0.18954301624E+02 -0.29165939142E+02 -0.16454316944E+03  0.16817958309E+03  0.00000000000E+00 0. -1.
          1    1    1    2  502    0 -0.33110237269E+03  0.45770378854E+02  0.12015812372E+04  0.12472053473E+04  0.00000000000E+00 0. -1.
         22    1    3    3    0    0  0.19464171796E+03 -0.56960650760E+02  0.47500606150E+02  0.20829359494E+03  0.00000000000E+00 0. -1.
         22    1    3    3    0    0  0.11750635311E+03  0.40356211049E+02 -0.33410498523E+02  0.12865701769E+03  0.00000000000E+00 0. -1.
</event>
<event>
 7    1  0.7029100E-006  0.3767404E+03  0.7818608E-02  0.1259738E+00
          2   -1    0    0  502    0  0.00000000000E+00  0.00000000000E+00  0.14101586864E+04  0.14101586864E+04  0.00000000000E+00 0. -1.
          1   -1    0    0  501    0 -0.00000000000E+00 -0.00000000000E+00 -0.19657211574E+04  0.19657211574E+04  0.00000000000E+00 0. -1.
         25    2    1    2    0    0  0.26626417386E+03 -0.26248371044E+03  0.93185067969E+03  0.10118125537E+04  0.12499858445E+03 0.  0.
          2    1    1    2  501    0 -0.24465286833E+03  0.28659800622E+03 -0.19066763210E+04  0.19435555141E+04  0.00000000000E+00 0. -1.
          1    1    1    2  502    0 -0.21611305536E+02 -0.24114295788E+02  0.41926317029E+03  0.42051177599E+03  0.00000000000E+00 0. -1.
         22    1    3    3    0    0  0.42209097064E+02 -0.57018421830E+02  0.77887859763E+02  0.10535286898E+03  0.00000000000E+00 0. -1.
         22    1    3    3    0    0  0.22405507680E+03 -0.20546528861E+03  0.85396281992E+03  0.90645968475E+03  0.00000000000E+00 0. -1.
</event>
<event>
 7    1  0.7029100E-006  0.5658046E+02  0.7818608E-02  0.1463099E+00
          2   -1    0    0  502    0  0.00000000000E+00  0.00000000000E+00  0.11626433847E+04  0.11626433847E+04  0.00000000000E+00 0. -1.
          1   -1    0    0  501    0 -0.00000000000E+00 -0.00000000000E+00 -0.62895671610E+02  0.62895671610E+02  0.00000000000E+00 0. -1.
         25    2    1    2    0    0 -0.79318611950E+02 -0.39011876626E+02  0.46417765943E+03  0.48877535733E+03  0.12500832649E+03 0.  0.
          2    1    1    2  501    0  0.40531332584E+02  0.38158397221E+02 -0.34552572988E+02  0.65518947638E+02  0.00000000000E+00 0. -1.
          1    1    1    2  502    0  0.38787279365E+02  0.85347940447E+00  0.67012262663E+03  0.67124475133E+03  0.00000000000E+00 0. -1.
         22    1    3    3    0    0 -0.26413066657E+02 -0.77744644493E+02  0.19217017792E+03  0.20897669037E+03  0.00000000000E+00 0.  1.
         22    1    3    3    0    0 -0.52905545292E+02  0.38732767867E+02  0.27200748151E+03  0.27979866695E+03  0.00000000000E+00 0.  1.
</event>
<event>
 7    1  0.7029100E-006  0.1040532E+03  0.7818608E-02  0.1468267E+00
          2   -1    0    0  502    0  0.00000000000E+00  0.00000000000E+00  0.35641689788E+03  0.35641689788E+03  0.00000000000E+00 0. -1.
          1   -1    0    0  501    0 -0.00000000000E+00 -0.00000000000E+00 -0.25908321244E+03  0.25908321244E+03  0.00000000000E+00 0. -1.
         25    2    1    2    0    0 -0.68429301518E+02  0.94386782103E+02  0.14944714746E+02  0.17157477926E+03  0.12499250553E+03 0.  0.
          2    1    1    2  501    0  0.48593389929E+02 -0.89954413800E+02 -0.16586304754E+03  0.19484266639E+03  0.00000000000E+00 0. -1.
          1    1    1    2  502    0  0.19835911589E+02 -0.44323683034E+01  0.24825201823E+03  0.24908266466E+03  0.00000000000E+00 0. -1.
         22    1    3    3    0    0  0.94884446197E+01  0.54522170581E+02  0.52548206673E+02  0.76315212708E+02  0.00000000000E+00 0.  1.
         22    1    3    3    0    0 -0.77917746138E+02  0.39864611522E+02 -0.37603491926E+02  0.95259566554E+02  0.00000000000E+00 0.  1.
</event>
<event>
 7    1  0.7029100E-006  0.4572165E+02  0.7818608E-02  0.1481603E+00
          2   -1    0    0  502    0  0.00000000000E+00  0.00000000000E+00  0.11213115137E+04  0.11213115137E+04  0.00000000000E+00 0. -1.
          1   -1    0    0  501    0 -0.00000000000E+00 -0.00000000000E+00 -0.15625980948E+03  0.15625980948E+03  0.00000000000E+00 0. -1.
         25    2    1    2    0    0 -0.66581239676E+02 -0.20291837608E+01  0.44233839609E+02  0.14838727571E+03  0.12499988785E+03 0.  0.
          2    1    1    2  501    0  0.34578995420E+02  0.29336443413E+02 -0.98794275733E+02  0.10870438240E+03  0.00000000000E+00 0. -1.
          1    1    1    2  502    0  0.32002244256E+02 -0.27307259652E+02  0.10196121403E+04  0.10204796650E+04  0.00000000000E+00 0. -1.
         22    1    3    3    0    0 -0.34328665152E+02  0.60287467506E+02  0.92769973712E+01  0.69993561630E+02  0.00000000000E+00 0.  1.
         22    1    3    3    0    0 -0.32252574523E+02 -0.62316651267E+02  0.34956842238E+02  0.78393714083E+02  0.00000000000E+00 0.  1.
</event>
<event>
 7    1  0.7029100E-006  0.9144470E+02  0.7818608E-02  0.1326679E+00
          2   -1    0    0  502    0  0.00000000000E+00  0.00000000000E+00  0.15620796619E+03  0.15620796619E+03  0.00000000000E+00 0. -1.
          1   -1    0    0  501    0 -0.00000000000E+00 -0.00000000000E+00 -0.12304793856E+04  0.12304793856E+04  0.00000000000E+00 0. -1.
         25    2    1    2    0    0  0.21388530787E+02 -0.16396971170E+02 -0.21205142774E+03  0.24761515368E+03  0.12498450470E+03 0.  0.
          2    1    1    2  501    0  0.31070988470E+02 -0.64360937135E+02 -0.98244078986E+03  0.98503687349E+03  0.00000000000E+00 0. -1.
          1    1    1    2  502    0 -0.52459519256E+02  0.80757908305E+02  0.12022079819E+03  0.15403532462E+03  0.00000000000E+00 0. -1.
         22    1    3    3    0    0 -0.91830771724E+01 -0.85810800844E+01 -0.21550558286E+03  0.21587176769E+03  0.00000000000E+00 0. -1.
         22    1    3    3    0    0  0.30571607959E+02 -0.78158910856E+01  0.34541551238E+01  0.31743385993E+02  0.00000000000E+00 0. -1.
</event>
<event>
 7    1  0.7029100E-006  0.3793670E+02  0.7818608E-02  0.1530889E+00
          2   -1    0    0  502    0  0.00000000000E+00  0.00000000000E+00  0.23926095214E+02  0.23926095214E+02  0.00000000000E+00 0. -1.
          1   -1    0    0  501    0 -0.00000000000E+00 -0.00000000000E+00 -0.25117132514E+04  0.25117132514E+04  0.00000000000E+00 0. -1.
         25    2    1    2    0    0 -0.16893496902E+00 -0.30646254268E+00 -0.47634344379E+03  0.49247630261E+03  0.12501883752E+03 0.  0.
          2    1    1    2  501    0  0.32301162938E+02 -0.19895436166E+02 -0.20041553974E+04  0.20045144176E+04  0.00000000000E+00 0. -1.
          1    1    1    2  502    0 -0.32132227969E+02  0.20201898709E+02 -0.72883149919E+01  0.38648626381E+02  0.00000000000E+00 0. -1.
         22    1    3    3    0    0 -0.42443292902E+02 -0.21391332545E+02 -0.77990823643E+02  0.91332309688E+02  0.00000000000E+00 0.  1.
         22    1    3    3    0    0  0.42274357933E+02  0.21084870002E+02 -0.39835262015E+03  0.40114399292E+03  0.00000000000E+00 0.  1.
</event>
<event>
 7    1  0.7029100E-006  0.4804756E+02  0.7818608E-02  0.1459823E+00
          2   -1    0    0  502    0  0.00000000000E+00  0.00000000000E+00  0.18805645299E+04  0.18805645299E+04  0.00000000000E+00 0. -1.
          1   -1    0    0  501    0 -0.00000000000E+00 -0.00000000000E+00 -0.60854654391E+02  0.60854654391E+02  0.00000000000E+00 0. -1.
         25    2    1    2    0    0  0.14919242206E+02  0.28340497067E+01  0.75097833124E+02  0.14661248465E+03  0.12499968196E+03 0.  0.
          2    1    1    2  501    0  0.64252979273E+01 -0.46341233470E+02 -0.26624974557E+01  0.46860252514E+02  0.00000000000E+00 0. -1.
          1    1    1    2  502    0 -0.21344540133E+02  0.43507183763E+02  0.17472745399E+04  0.17479464472E+04  0.00000000000E+00 0. -1.
         22    1    3    3    0    0  0.47737964611E+02 -0.31154957365E+01  0.95993622337E+02  0.10725388155E+03  0.00000000000E+00 0.  1.
         22    1    3    3    0    0 -0.32818722405E+02  0.59495454431E+01 -0.20895789213E+02  0.39358603101E+02  0.00000000000E+00 0.  1.
</event>
<event>
 7    1  0.7029100E-006  0.1154644E+03  0.7818608E-02  0.1300404E+00
          2   -1    0    0  502    0  0.00000000000E+00  0.00000000000E+00  0.12144577859E+04  0.12144577859E+04  0.00000000000E+00 0. -1.
          1   -1    0    0  501    0 -0.00000000000E+00 -0.00000000000E+00 -0.22842863723E+03  0.22842863723E+03  0.00000000000E+00 0. -1.
         25    2    1    2    0    0  0.10513290553E+03 -0.11874348682E+03 -0.32300948305E+02  0.20450162687E+03  0.12499848257E+03 0.  0.
          2    1    1    2  501    0 -0.93410230788E+02  0.47959413108E+02 -0.83540216698E+02  0.13418101329E+03  0.00000000000E+00 0. -1.
          1    1    1    2  502    0 -0.11722674738E+02  0.70784073711E+02  0.11018703137E+04  0.11042037830E+04  0.00000000000E+00 0. -1.
         22    1    3    3    0    0  0.26775339854E+02 -0.58369095562E+02 -0.73274776625E+02  0.97432351047E+02  0.00000000000E+00 0. -1.
         22    1    3    3    0    0  0.78357565672E+02 -0.60374391256E+02  0.40973828320E+02  0.10706927582E+03  0.00000000000E+00 0. -1.
</event>
<event>
 7    1  0.7029100E-006  0.1433108E+03  0.7818608E-02  0.1320772E+00
          2   -1    0    0  502    0  0.00000000000E+00  0.00000000000E+00  0.21300186258E+03  0.21300186258E+03  0.00000000000E+00 0. -1.
          1   -1    0    0  501    0 -0.00000000000E+00 -0.00000000000E+00 -0.32832067161E+03  0.32832067161E+03  0.00000000000E+00 0. -1.
         25    2    1    2    0    0 -0.58424693168E+02 -0.89431807431E+02 -0.91458818881E+02  0.18815100498E+03  0.12499836868E+03 0.  0.
          2    1    1    2  501    0 -0.38316717524E+02 -0.29009746235E+02 -0.14837401280E+03  0.15596340562E+03  0.00000000000E+00 0. -1.
          1    1    1    2  502    0  0.96741410692E+02  0.11844155367E+03  0.12451402265E+03  0.19720812360E+03  0.00000000000E+00 0. -1.
         22    1    3    3    0    0 -0.41018264835E+02 -0.31810897470E+02  0.24576813425E+02  0.57432142622E+02  0.00000000000E+00 0. -1.
         22    1    3    3    0    0 -0.17406428332E+02 -0.57620909961E+02 -0.11603563231E+03  0.13071886236E+03  0.00000000000E+00 0. -1.
</event>
<event>
 7    1  0.7029100E-006  0.1002299E+03  0.7818608E-02  0.1335572E+00
          2   -1    0    0  502    0  0.00000000000E+00  0.00000000000E+00  0.60119670446E+03  0.60119670446E+03  0.00000000000E+00 0. -1.
          1   -1    0    0  501    0 -0.00000000000E+00 -0.00000000000E+00 -0.57334611733E+03  0.57334611733E+03  0.00000000000E+00 0. -1.
         25    2    1    2    0    0 -0.72090359545E+02 -0.47466158498E+02  0.12227973496E+03  0.19500632856E+03  0.12500031382E+03 0.  0.
          2    1    1    2  501    0  0.34896230986E+02  0.94936508763E+02 -0.53012438365E+03  0.53968745564E+03  0.00000000000E+00 0. -1.
          1    1    1    2  502    0  0.37194128559E+02 -0.47470350265E+02  0.43569523582E+03  0.43984903759E+03  0.00000000000E+00 0. -1.
         22    1    3    3    0    0 -0.10749231638E+03 -0.31656130233E+02  0.10057659314E+03  0.15057343640E+03  0.00000000000E+00 0. -1.
         22    1    3    3    0    0  0.35401956832E+02 -0.15810028266E+02  0.21703141824E+02  0.44432892167E+02  0.00000000000E+00 0. -1.
</event>
<event>
 7    1  0.7029100E-006  0.8046043E+02  0.7818608E-02  0.1411874E+00
          2   -1    0    0  502    0  0.00000000000E+00  0.00000000000E+00  0.34755461561E+04  0.34755461561E+04  0.00000000000E+00 0. -1.
          1   -1    0    0  501    0 -0.00000000000E+00 -0.00000000000E+00 -0.53997552974E+02  0.53997552974E+02  0.00000000000E+00 0. -1.
         25    2    1    2    0    0  0.65555970848E+02 -0.10604433599E+02  0.12204851087E+04  0.12286655799E+04  0.12500066952E+03 0.  0.
          2    1    1    2  501    0 -0.76054497002E+02 -0.28061562137E+02 -0.16686876058E+02  0.82765872293E+02  0.00000000000E+00 0. -1.
          1    1    1    2  502    0  0.10498526154E+02  0.38665995736E+02  0.22177503705E+04  0.22181122569E+04  0.00000000000E+00 0. -1.
         22    1    3    3    0    0 -0.28204611600E+02  0.24654050687E+02  0.21873933049E+03  0.22192389920E+03  0.00000000000E+00 0.  1.
         22    1    3    3    0    0  0.93760582449E+02 -0.35258484286E+02  0.10017457782E+04  0.10067416807E+04  0.00000000000E+00 0.  1.
</event>
<event>
 7    1  0.7029100E-006  0.3960525E+02  0.7818608E-02  0.1520212E+00
          2   -1    0    0  502    0  0.00000000000E+00  0.00000000000E+00  0.51523617127E+02  0.51523617127E+02  0.00000000000E+00 0. -1.
          1   -1    0    0  501    0 -0.00000000000E+00 -0.00000000000E+00 -0.24264126768E+04  0.24264126768E+04  0.00000000000E+00 0. -1.
         25    2    1    2    0    0 -0.73088882343E+02  0.16747669668E+02 -0.40687294181E+03  0.43219550796E+03  0.12499958864E+03 0.  0.
          2    1    1    2  501    0  0.39058023541E+02 -0.15750362702E+01 -0.19977121565E+04  0.19980945599E+04  0.00000000000E+00 0. -1.
          1    1    1    2  502    0  0.34030858801E+02 -0.15172633398E+02  0.29696038611E+02  0.47646226127E+02  0.00000000000E+00 0. -1.
         22    1    3    3    0    0  0.31336583866E+02  0.22551872553E+02 -0.76950747882E+02  0.86092891946E+02  0.00000000000E+00 0. -1.
         22    1    3    3    0    0 -0.10442546621E+03 -0.58042028854E+01 -0.32992219393E+03  0.34610261601E+03  0.00000000000E+00 0. -1.
</event>
<event>
 7    1  0.7029100E-006  0.1499716E+03  0.7818608E-02  0.1279895E+00
          2   -1    0    0  502    0  0.00000000000E+00  0.00000000000E+00  0.78041295062E+03  0.78041295062E+03  0.00000000000E+00 0. -1.
          1   -1    0    0  501    0 -0.00000000000E+00 -0.00000000000E+00 -0.16419235065E+04  0.16419235065E+04  0.00000000000E+00 0. -1.
         25    2    1    2    0    0 -0.13177141518E+03  0.15915342000E+03 -0.34630137494E+02  0.24395388767E+03  0.12498294255E+03 0.  0.
          2    1    1    2  501    0  0.19969417321E+02 -0.63885791638E+02 -0.14938911755E+04  0.14953899211E+04  0.00000000000E+00 0. -1.
          1    1    1    2  502    0  0.11180199786E+03 -0.95267628361E+02  0.66701075704E+03  0.68299264838E+03  0.00000000000E+00 0. -1.
         22    1    3    3    0    0 -0.34171044450E+02 -0.18398344222E+02 -0.34933027215E+01  0.38966171390E+02  0.00000000000E+00 0.  1.
         22    1    3    3    0    0 -0.97600370735E+02  0.17755176422E+03 -0.31136834773E+02  0.20498771628E+03  0.00000000000E+00 0.  1.
</event>
<event>
 7    1  0.7029100E-006  0.3824814E+02  0.7818608E-02  0.1574973E+00
          2   -1    0    0  502    0  0.00000000000E+00  0.00000000000E+00  0.49160251597E+03  0.49160251597E+03  0.00000000000E+00 0. -1.
          1   -1    0    0  501    0 -0.00000000000E+00 -0.00000000000E+00 -0.10186391850E+03  0.10186391850E+03  0.00000000000E+00 0. -1.
         25    2    1    2    0    0 -0.55210854677E+02 -0.31411587387E+02  0.77005920758E+02  0.15997151308E+03  0.12500418741E+03 0.  0.
          2    1    1    2  501    0  0.29771821824E+02  0.22047188771E+02 -0.54151219152E+02  0.65610932344E+02  0.00000000000E+00 0. -1.
          1    1    1    2  502    0  0.25439032853E+02  0.93643986160E+01  0.36688389586E+03  0.36788398905E+03  0.00000000000E+00 0. -1.
         22    1    3    3    0    0 -0.93637806652E+02 -0.31849173837E+02  0.69324177958E+02  0.12078182959E+03  0.00000000000E+00 0. -1.
         22    1    3    3    0    0  0.38426951975E+02  0.43758644991E+00  0.76817427995E+01  0.39189683495E+02  0.00000000000E+00 0. -1.
</event>
<event>
 7    1  0.7029100E-006  0.1045984E+03  0.7818608E-02  0.1407073E+00
          2   -1    0    0  502    0  0.00000000000E+00  0.00000000000E+00  0.28546660226E+03  0.28546660226E+03  0.00000000000E+00 0. -1.
          1   -1    0    0  501    0 -0.00000000000E+00 -0.00000000000E+00 -0.13562492425E+04  0.13562492425E+04  0.00000000000E+00 0. -1.
         25    2    1    2    0    0  0.71963580608E+02  0.24219080105E+02 -0.10458798989E+03  0.17980814920E+03  0.12500800820E+03 0.  0.
          2    1    1    2  501    0  0.31983502315E+02  0.93990642021E+00 -0.12022915167E+04  0.12027172232E+04  0.00000000000E+00 0. -1.
          1    1    1    2  502    0 -0.10394708292E+03 -0.25158986526E+02  0.23609686636E+03  0.25919047235E+03  0.00000000000E+00 0. -1.
         22    1    3    3    0    0  0.10082230424E+03  0.31246649452E+02 -0.48118836318E+02  0.11600393331E+03  0.00000000000E+00 0.  1.
         22    1    3    3    0    0 -0.28858723632E+02 -0.70275693462E+01 -0.56469153570E+02  0.63804215891E+02  0.00000000000E+00 0.  1.
</event>
<event>
 7    1  0.7029100E-006  0.7998324E+02  0.7818608E-02  0.1450384E+00
          2   -1    0    0  502    0  0.00000000000E+00  0.00000000000E+00  0.82643999801E+03  0.82643999801E+03  0.00000000000E+00 0. -1.
          1   -1    0    0  501    0 -0.00000000000E+00 -0.00000000000E+00 -0.91607834540E+02  0.91607834540E+02  0.00000000000E+00 0. -1.
         25    2    1    2    0    0  0.16789344418E+02 -0.60009550719E+02  0.12028554266E+03  0.18432793612E+03  0.12500059199E+03 0.  0.
          2    1    1    2  501    0  0.29191133666E+02 -0.73951496312E+01 -0.53133003720E+02  0.61073125081E+02  0.00000000000E+00 0. -1.
          1    1    1    2  502    0 -0.45980478085E+02  0.67404700350E+02  0.66767962453E+03  0.67264677135E+03  0.00000000000E+00 0. -1.
         22    1    3    3    0    0 -0.59985053407E+01  0.36594263013E+02  0.16086084042E+02  0.40421334115E+02  0.00000000000E+00 0.  1.
         22    1    3    3    0    0  0.22787849759E+02 -0.96603813732E+02  0.10419945862E+03  0.14390660200E+03  0.00000000000E+00 0.  1.
</event>
<event>
 7    1  0.7029100E-006  0.1159823E+03  0.7818608E-02  0.1315357E+00
          2   -1    0    0  502    0  0.00000000000E+00  0.00000000000E+00  0.67736289100E+03  0.67736289100E+03  0.00000000000E+00 0. -1.
          1   -1    0    0  501    0 -0.00000000000E+00 -0.00000000000E+00 -0.67143921180E+02  0.67143921180E+02  0.00000000000E+00 0. -1.
         25    2    1    2    0    0  0.51668983148E+02  0.79919545626E+02  0.38949073517E+03  0.41998082146E+03  0.12499616001E+03 0.  0.
          2    1    1    2  501    0 -0.20032005598E+01  0.62304288087E+02  0.65583607892E+01  0.62680533045E+02  0.00000000000E+00 0. -1.
          1    1    1    2  502    0 -0.49665782588E+02 -0.14222383371E+03  0.21416987386E+03  0.26184545767E+03  0.00000000000E+00 0. -1.
         22    1    3    3    0    0  0.38099335388E+02  0.10425678160E+03  0.20251483945E+03  0.23094002699E+03  0.00000000000E+00 0.  1.
         22    1    3    3    0    0  0.13569647759E+02 -0.24337235971E+02  0.18697589572E+03  0.18904079448E+03  0.00000000000E+00 0.  1.
</event>
<event>
 7    1  0.7029100E-006  0.4540168E+02  0.7818608E-02  0.1557707E+00
          2   -1    0    0  502    0  0.00000000000E+00  0.00000000000E+00  0.32283283113E+04  0.32283283113E+04  0.00000000000E+00 0. -1.
          1   -1    0    0  501    0 -0.00000000000E+00 -0.00000000000E+00 -0.16163644884E+03  0.16163644884E+03  0.00000000000E+00 0. -1.
         25    2    1    2    0    0  0.26138341857E+02  0.54542864247E+01  0.96795001604E+03  0.97635297457E+03  0.12499974095E+03 0.  0.
          2    1    1    2  501    0  0.10733441862E+02  0.23081106216E+02 -0.15616350267E+03  0.15822447284E+03  0.00000000000E+00 0. -1.
          1    1    1    2  502    0 -0.36871783718E+02 -0.28535392640E+02  0.22549053491E+04  0.22553873127E+04  0.00000000000E+00 0. -1.
         22    1    3    3    0    0  0.23422059443E+02  0.64543559312E+02  0.51520409936E+03  0.51975929806E+03  0.00000000000E+00 0. -1.
         22    1    3    3    0    0  0.27162824139E+01 -0.59089272887E+02  0.45274591668E+03  0.45659367651E+03  0.00000000000E+00 0. -1.
</event>
<event>
 7    1  0.7029100E-006  0.9062889E+02  0.7818608E-02  0.1328170E+00
          2   -1    0    0  502    0  0.00000000000E+00  0.00000000000E+00  0.68635449367E+03  0.68635449367E+03  0.00000000000E+00 0. -1.
          1   -1    0    0  501    0 -0.00000000000E+00 -0.00000000000E+00 -0.39391051441E+04  0.39391051441E+04  0.00000000000E+00 0. -1.
         25    2    1    2    0    0  0.36027316375E+02 -0.14207822652E+03 -0.61766247122E+03  0.64700515169E+03  0.12499819194E+03 0.  0.
          2    1    1    2  501    0 -0.48076472899E+02  0.52474689300E+02 -0.33033439728E+04  0.33041105222E+04  0.00000000000E+00 0. -1.
          1    1    1    2  502    0  0.12049156524E+02  0.89603537217E+02  0.66825579355E+03  0.67434396392E+03  0.00000000000E+00 0. -1.
         22    1    3    3    0    0  0.87539507893E+01  0.13772370494E+02 -0.19529694149E+03  0.19597756300E+03  0.00000000000E+00 0. -1.
         22    1    3    3    0    0  0.27273365586E+02 -0.15585059701E+03 -0.42236552972E+03  0.45102758869E+03  0.00000000000E+00 0. -1.
</event>
<event>
 7    1  0.7029100E-006  0.1537037E+03  0.7818608E-02  0.1272203E+00
          2   -1    0    0  502    0  0.00000000000E+00  0.00000000000E+00  0.65341799714E+03  0.65341799714E+03  0.00000000000E+00 0. -1.
          1   -1    0    0  501    0 -0.00000000000E+00 -0.00000000000E+00 -0.14643896845E+04  0.14643896845E+04  0.00000000000E+00 0. -1.
         25    2    1    2    0    0  0.10047572531E+03 -0.82972176849E+01 -0.35326791629E+03  0.38805521520E+03  0.12499765667E+03 0.  0.
          2    1    1    2  501    0  0.48890080611E+02  0.50517451044E+02 -0.10831015206E+04  0.10853806506E+04  0.00000000000E+00 0. -1.
          1    1    1    2  502    0 -0.14936580592E+03 -0.42220233360E+02  0.62539774945E+03  0.64437181588E+03  0.00000000000E+00 0. -1.
         22    1    3    3    0    0 -0.39370572492E+01 -0.45879440253E+02 -0.69601480445E+02  0.83455314617E+02  0.00000000000E+00 0. -1.
         22    1    3    3    0    0  0.10441278256E+03  0.37582222568E+02 -0.28366643584E+03  0.30459990059E+03  0.00000000000E+00 0. -1.
</event>
<event>
 7    1  0.7029100E-006  0.5257269E+02  0.7818608E-02  0.1521977E+00
          2   -1    0    0  502    0  0.00000000000E+00  0.00000000000E+00  0.19360374134E+04  0.19360374134E+04  0.00000000000E+00 0. -1.
          1   -1    0    0  501    0 -0.00000000000E+00 -0.00000000000E+00 -0.43648442646E+03  0.43648442646E+03  0.00000000000E+00 0. -1.
         25    2    1    2    0    0 -0.26558718334E+02 -0.31462617648E+02  0.12035951359E+02  0.13215910671E+03  0.12500361408E+03 0.  0.
          2    1    1    2  501    0  0.50223594090E+02  0.16987840349E+02 -0.37445210395E+03  0.37818695678E+03  0.00000000000E+00 0. -1.
          1    1    1    2  502    0 -0.23664875756E+02  0.14474777299E+02  0.18619691396E+04  0.18621757764E+04  0.00000000000E+00 0. -1.
         22    1    3    3    0    0 -0.60454518857E+01  0.15508413323E+02 -0.49412354154E+02  0.52140570723E+02  0.00000000000E+00 0. -1.
         22    1    3    3    0    0 -0.20513266448E+02 -0.46971030971E+02  0.61448305513E+02  0.80018535985E+02  0.00000000000E+00 0. -1.
</event>
<event>
 7    1  0.7029100E-006  0.1083167E+03  0.7818608E-02  0.1358536E+00
          2   -1    0    0  502    0  0.00000000000E+00  0.00000000000E+00  0.99026979173E+03  0.99026979173E+03  0.00000000000E+00 0. -1.
          1   -1    0    0  501    0 -0.00000000000E+00 -0.00000000000E+00 -0.85098334994E+03  0.85098334994E+03  0.00000000000E+00 0. -1.
         25    2    1    2    0    0  0.63489993645E+02 -0.12789644697E+03  0.44183387525E+03  0.48086406178E+03  0.12499836859E+03 0.  0.
          2    1    1    2  501    0 -0.67385446670E+01  0.45335992789E+02 -0.82608320833E+03  0.82735374980E+03  0.00000000000E+00 0. -1.
          1    1    1    2  502    0 -0.56751448978E+02  0.82560454186E+02  0.52353577487E+03  0.53303533010E+03  0.00000000000E+00 0. -1.
         22    1    3    3    0    0 -0.21338872724E+02 -0.10657798534E+02  0.10793089635E+02  0.26180659705E+02  0.00000000000E+00 0. -1.
         22    1    3    3    0    0  0.84828866369E+02 -0.11723864844E+03  0.43104078561E+03  0.45468340207E+03  0.00000000000E+00 0. -1.
</event>
<event>
 7    1  0.7029100E-006  0.8627573E+02  0.7818608E-02  0.1417555E+00
          2   -1    0    0  502    0  0.00000000000E+00  0.00000000000E+00  0.70080122841E+02  0.70080122841E+02  0.00000000000E+00 0. -1.
          1   -1    0    0  501    0 -0.00000000000E+00 -0.00000000000E+00 -0.27541367948E+04  0.27541367948E+04  0.00000000000E+00 0. -1.
         25    2    1    2    0    0 -0.63529576174E+02 -0.61615209840E+02 -0.12656139809E+04  0.12748473213E+04  0.12499801104E+03 0.  0.
          2    1    1    2  501    0 -0.17351103019E+02  0.31263767089E+02 -0.14550903502E+04  0.14555295982E+04  0.00000000000E+00 0. -1.
          1    1    1    2  502    0  0.80880679193E+02  0.30351442751E+02  0.36647659133E+02  0.93839998208E+02  0.00000000000E+00 0. -1.
         22    1    3    3    0    0 -0.20090635881E+02 -0.76385055695E+01 -0.28014516820E+02  0.35309964176E+02  0.00000000000E+00 0. -1.
         22    1    3    3    0    0 -0.43438940292E+02 -0.53976704270E+02 -0.12375994641E+04  0.12395373571E+04  0.00000000000E+00 0. -1.
</event>
<event>
 7    1  0.7029100E-006  0.6673192E+02  0.7818608E-02  0.1408633E+00
          2   -1    0    0  502    0  0.00000000000E+00  0.00000000000E+00  0.10171177452E+04  0.10171177452E+04  0.00000000000E+00 0. -1.
          1   -1    0    0  501    0 -0.00000000000E+00 -0.00000000000E+00 -0.41986776431E+02  0.41986776431E+02  0.00000000000E+00 0. -1.
         25    2    1    2    0    0 -0.71032504168E+02  0.40963717031E+02  0.39849554964E+03  0.42561402119E+03  0.12499979678E+03 0.  0.
          2    1    1    2  501    0  0.45147066769E+02  0.20407830643E+02 -0.33825036795E+01  0.49660633510E+02  0.00000000000E+00 0. -1.
          1    1    1    2  502    0  0.25885437399E+02 -0.61371547673E+02  0.58001792281E+03  0.58382986693E+03  0.00000000000E+00 0. -1.
         22    1    3    3    0    0  0.14649744538E+02  0.14366215800E+02  0.38210785969E+01  0.20871123905E+02  0.00000000000E+00 0.  1.
         22    1    3    3    0    0 -0.85682248706E+02  0.26597501231E+02  0.39467447104E+03  0.40474289729E+03  0.00000000000E+00 0.  1.
</event>
<event>
 7    1  0.7029100E-006  0.1710186E+03  0.7818608E-02  0.1282391E+00
          2   -1    0    0  502    0  0.00000000000E+00  0.00000000000E+00  0.32853031635E+04  0.32853031635E+04  0.00000000000E+00 0. -1.
          1   -1    0    0  501    0 -0.00000000000E+00 -0.00000000000E+00 -0.19188861812E+03  0.19188861812E+03  0.00000000000E+00 0. -1.
         25    2    1    2    0    0 -0.15721649340E+03 -0.11269303051E+03  0.14457691749E+04  0.14639984990E+04  0.12500541164E+03 0.  0.
          2    1    1    2  501    0  0.10439453651E+03  0.13495459073E+03 -0.14239672895E+03  0.22223363658E+03  0.00000000000E+00 0. -1.
          1    1    1    2  502    0  0.52821956893E+02 -0.22261560211E+02  0.17900420994E+04  0.17909596461E+04  0.00000000000E+00 0. -1.
         22    1    3    3    0    0 -0.10028520167E+03  0.40986162366E+01  0.63790410379E+03  0.64575193841E+03  0.00000000000E+00 0.  1.
         22    1    3    3    0    0 -0.56931291726E+02 -0.11679164675E+03  0.80786507112E+03  0.81824656056E+03  0.00000000000E+00 0.  1.
</event>
<event>
 7    1  0.7029100E-006  0.3015289E+03  0.7818608E-02  0.1186582E+00
          2   -1    0    0  502    0  0.00000000000E+00  0.00000000000E+00  0.16647152458E+04  0.16647152458E+04  0.00000000000E+00 0. -1.
          1   -1    0    0  501    0 -0.00000000000E+00 -0.00000000000E+00 -0.24289868819E+03  0.24289868819E+03  0.00000000000E+00 0. -1.
         25    2    1    2    0    0  0.24544447215E+02 -0.23207048729E+03  0.17583957855E+03  0.31781274049E+03  0.12500495860E+03 0.  0.
          2    1    1    2  501    0  0.26353496992E+02 -0.82824412253E+02 -0.14153673605E+03  0.16609346080E+03  0.00000000000E+00 0. -1.
          1    1    1    2  502    0 -0.50897944207E+02  0.31489489955E+03  0.13875137152E+04  0.14237077327E+04  0.00000000000E+00 0. -1.
         22    1    3    3    0    0  0.63737341856E+02 -0.73693405452E+02  0.39289631157E+02  0.10505637472E+03  0.00000000000E+00 0.  1.
         22    1    3    3    0    0 -0.39192894641E+02 -0.15837708184E+03  0.13654994739E+03  0.21275636577E+03  0.00000000000E+00 0.  1.
</event>
<event>
 7    1  0.7029100E-006  0.1219091E+03  0.7818608E-02  0.1342274E+00
          2   -1    0    0  502    0  0.00000000000E+00  0.00000000000E+00  0.72796471432E+03  0.72796471432E+03  0.00000000000E+00 0. -1.
          1   -1    0    0  501    0 -0.00000000000E+00 -0.00000000000E+00 -0.51192663721E+03  0.51192663721E+03  0.00000000000E+00 0. -1.
         25    2    1    2    0    0 -0.56598632426E+02  0.15617297845E+03  0.18916417626E+03  0.28107104967E+03  0.12499777993E+03 0.  0.
          2    1    1    2  501    0  0.32781598467E+02 -0.11590923957E+03 -0.45704180149E+03  0.47264869970E+03  0.00000000000E+00 0. -1.
          1    1    1    2  502    0  0.23817033958E+02 -0.40263738880E+02  0.48391570234E+03  0.48617160216E+03  0.00000000000E+00 0. -1.
         22    1    3    3    0    0 -0.18104088972E+02  0.83491960286E+02  0.12686032457E+02  0.86368981060E+02  0.00000000000E+00 0. -1.
         22    1    3    3    0    0 -0.38494543454E+02  0.72681018168E+02  0.17647814381E+03  0.19470206861E+03  0.00000000000E+00 0. -1.
</event>
<event>
 7    1  0.7029100E-006  0.1874397E+03  0.7818608E-02  0.1180342E+00
          2   -1    0    0  502    0  0.00000000000E+00  0.00000000000E+00  0.21556794053E+04  0.21556794053E+04  0.00000000000E+00 0. -1.
          1   -1    0    0  501    0 -0.00000000000E+00 -0.00000000000E+00 -0.19389587023E+04  0.19389587023E+04  0.00000000000E+00 0. -1.
         25    2    1    2    0    0 -0.57109726028E+02 -0.61284693025E+02 -0.75358449703E+02  0.16828617908E+03  0.12499603083E+03 0.  0.
          2    1    1    2  501    0  0.74509342990E+02 -0.13008681855E+03 -0.18096537650E+04  0.18158526845E+04  0.00000000000E+00 0. -1.
          1    1    1    2  502    0 -0.17399616963E+02  0.19137151158E+03  0.21017329177E+04  0.21104992441E+04  0.00000000000E+00 0. -1.
         22    1    3    3    0    0 -0.49885837184E+02 -0.76756836156E+02 -0.54117473002E+00  0.91545079160E+02  0.00000000000E+00 0. -1.
         22    1    3    3    0    0 -0.72238888433E+01  0.15472143132E+02 -0.74817274973E+02  0.76741099924E+02  0.00000000000E+00 0. -1.
</event>
<event>
 7    1  0.7029100E-006  0.5461544E+02  0.7818608E-02  0.1473118E+00
          2   -1    0    0  502    0  0.00000000000E+00  0.00000000000E+00  0.11090563443E+04  0.11090563443E+04  0.00000000000E+00 0. -1.
          1   -1    0    0  501    0 -0.00000000000E+00 -0.00000000000E+00 -0.95338001737E+03  0.95338001737E+03  0.00000000000E+00 0. -1.
         25    2    1    2    0    0 -0.75087824265E+02  0.29319022877E+02  0.84475295087E+02  0.17105329262E+03  0.12500146792E+03 0.  0.
          2    1    1    2  501    0  0.38776173037E+02 -0.38284252303E+02 -0.90891835348E+03  0.91055030001E+03  0.00000000000E+00 0. -1.
          1    1    1    2  502    0  0.36311651229E+02  0.89652294261E+01  0.98011938533E+03  0.98083276906E+03  0.00000000000E+00 0. -1.
         22    1    3    3    0    0  0.19627836828E+02  0.47482387575E+02  0.20479644474E+02  0.55310441565E+02  0.00000000000E+00 0. -1.
         22    1    3    3    0    0 -0.94715661094E+02 -0.18163364698E+02  0.63995650612E+02  0.11574285106E+03  0.00000000000E+00 0. -1.
</event>
<event>
 7    1  0.7029100E-006  0.1192454E+03  0.7818608E-02  0.1307508E+00
          2   -1    0    0  502    0  0.00000000000E+00  0.00000000000E+00  0.12408281659E+04  0.12408281659E+04  0.00000000000E+00 0. -1.
          1   -1    0    0  501    0 -0.00000000000E+00 -0.00000000000E+00 -0.17392719810E+03  0.17392719810E+03  0.00000000000E+00 0. -1.
         25    2    1    2    0    0 -0.32999701254E+02  0.48364869273E+02  0.35435204309E+03  0.38028759584E+03  0.12500057698E+03 0.  0.
          2    1    1    2  501    0  0.78397598304E+02 -0.95018365174E+02 -0.13595966070E+03  0.18346580738E+03  0.00000000000E+00 0. -1.
          1    1    1    2  502    0 -0.45397897050E+02  0.46653495901E+02  0.84850858539E+03  0.85100196076E+03  0.00000000000E+00 0. -1.
         22    1    3    3    0    0 -0.73184207225E+02  0.10444687585E+02  0.26600343351E+03  0.27608485349E+03  0.00000000000E+00 0.  1.
         22    1    3    3    0    0  0.40184505971E+02  0.37920181688E+02  0.88348609578E+02  0.10420274235E+03  0.00000000000E+00 0.  1.
</event>
<event>
 7    1  0.7029100E-006  0.8981185E+02  0.7818608E-02  0.1307009E+00
          2   -1    0    0  502    0  0.00000000000E+00  0.00000000000E+00  0.70503216327E+03  0.70503216327E+03  0.00000000000E+00 0. -1.
          1   -1    0    0  501    0 -0.00000000000E+00 -0.00000000000E+00 -0.46203994179E+03  0.46203994179E+03  0.00000000000E+00 0. -1.
         25    2    1    2    0    0  0.15774298408E+01 -0.30223390275E+02  0.33243215534E+02  0.13283670080E+03  0.12499814437E+03 0.  0.
          2    1    1    2  501    0 -0.89763192641E+02  0.29558931767E+01 -0.40385830501E+03  0.41372418178E+03  0.00000000000E+00 0. -1.
          1    1    1    2  502    0  0.88185762800E+02  0.27267497098E+02  0.61360731096E+03  0.62051122248E+03  0.00000000000E+00 0. -1.
         22    1    3    3    0    0 -0.52796142522E+02 -0.39420566098E+02  0.40306812008E+02  0.77240227802E+02  0.00000000000E+00 0. -1.
         22    1    3    3    0    0  0.54373572362E+02  0.91971758238E+01 -0.70635964737E+01  0.55596472997E+02  0.00000000000E+00 0. -1.
</event>
<event>
 7    1  0.7029100E-006  0.1174773E+03  0.7818608E-02  0.1292958E+00
          2   -1    0    0  502    0  0.00000000000E+00  0.00000000000E+00  0.55530732097E+03  0.55530732097E+03  0.00000000000E+00 0. -1.
          1   -1    0    0  501    0 -0.00000000000E+00 -0.00000000000E+00 -0.13615701306E+03  0.13615701306E+03  0.00000000000E+00 0. -1.
         25    2    1    2    0    0 -0.29056269451E+02  0.10019055380E+03  0.74566030351E+02  0.17907278578E+03  0.12499822343E+03 0.  0.
          2    1    1    2  501    0 -0.43421766859E+02 -0.12153702001E+03 -0.28134349949E+02  0.13209178142E+03  0.00000000000E+00 0. -1.
          1    1    1    2  502    0  0.72478036310E+02  0.21346466214E+02  0.37271862750E+03  0.38029976683E+03  0.00000000000E+00 0. -1.
         22    1    3    3    0    0 -0.77623602215E+02  0.50173861941E+02  0.50468635233E+02  0.10530870422E+03  0.00000000000E+00 0.  1.
         22    1    3    3    0    0  0.48567332764E+02  0.50016691860E+02  0.24097395118E+02  0.73764081557E+02  0.00000000000E+00 0.  1.
</event>
<event>
 7    1  0.7029100E-006  0.8064789E+02  0.7818608E-02  0.1428475E+00
          2   -1    0    0  502    0  0.00000000000E+00  0.00000000000E+00  0.18448817871E+04  0.18448817871E+04  0.00000000000E+00 0. -1.
          1   -1    0    0  501    0 -0.00000000000E+00 -0.00000000000E+00 -0.24041777748E+03  0.24041777748E+03  0.00000000000E+00 0. -1.
         25    2    1    2    0    0  0.10023127924E+02 -0.58011637040E+02 -0.60955979245E+02  0.15103873517E+03  0.12502501746E+03 0.  0.
          2    1    1    2  501    0  0.87123820961E+01  0.87790792106E+02 -0.11975305384E+03  0.14874112641E+03  0.00000000000E+00 0. -1.
          1    1    1    2  502    0 -0.18735510020E+02 -0.29779155066E+02  0.17851730427E+04  0.17855197030E+04  0.00000000000E+00 0. -1.
         22    1    3    3    0    0 -0.33690239017E+02 -0.24072896413E+02  0.25322826168E+02  0.48536399453E+02  0.00000000000E+00 0. -1.
         22    1    3    3    0    0  0.43713366941E+02 -0.33938740627E+02 -0.86278805412E+02  0.10250233572E+03  0.00000000000E+00 0. -1.
</event>
<event>
 7    1  0.7029100E-006  0.1466834E+03  0.7818608E-02  0.1269169E+00
          2   -1    0    0  502    0  0.00000000000E+00  0.00000000000E+00  0.96955340187E+03  0.96955340187E+03  0.00000000000E+00 0. -1.
          1   -1    0    0  501    0 -0.00000000000E+00 -0.00000000000E+00 -0.61835556095E+03  0.61835556095E+03  0.00000000000E+00 0. -1.
         25    2    1    2    0    0 -0.50530075232E+02 -0.64404154485E+02  0.83491904755E+02  0.17116491969E+03  0.12500139182E+03 0.  0.
          2    1    1    2  501    0 -0.50712176365E+02 -0.56413711034E+02 -0.56458478748E+03  0.56965797974E+03  0.00000000000E+00 0. -1.
          1    1    1    2  502    0  0.10124225160E+03  0.12081786552E+03  0.83229072364E+03  0.84708606339E+03  0.00000000000E+00 0. -1.
         22    1    3    3    0    0  0.29793532384E+01 -0.39687943530E+02  0.10191524426E+03  0.10941081491E+03  0.00000000000E+00 0.  1.
         22    1    3    3    0    0 -0.53509428470E+02 -0.24716210955E+02 -0.18423339501E+02  0.61754104783E+02  0.00000000000E+00 0.  1.
</event>
<event>
 7    1  0.7029100E-006  0.1534488E+03  0.7818608E-02  0.1333819E+00
          2   -1    0    0  502    0  0.00000000000E+00  0.00000000000E+00  0.10725625371E+04  0.10725625371E+04  0.00000000000E+00 0. -1.
          1   -1    0    0  501    0 -0.00000000000E+00 -0.00000000000E+00 -0.84201404864E+02  0.84201404864E+02  0.00000000000E+00 0. -1.
         25    2    1    2    0    0 -0.11724916722E+03 -0.97871881492E+00  0.39464495667E+02  0.17587037023E+03  0.12499846241E+03 0.  0.
          2    1    1    2  501    0 -0.39705378625E+02  0.48317466219E+01  0.33626098741E+02  0.52254926885E+02  0.00000000000E+00 0. -1.
          1    1    1    2  502    0  0.15695454584E+03 -0.38530278070E+01  0.91527053787E+03  0.92863864488E+03  0.00000000000E+00 0. -1.
         22    1    3    3    0    0  0.10011907622E+02 -0.33915042795E+02  0.25664994150E+02  0.43693939474E+02  0.00000000000E+00 0. -1.
         22    1    3    3    0    0 -0.12726107484E+03  0.32936323981E+02  0.13799501517E+02  0.13217643076E+03  0.00000000000E+00 0. -1.
</event>
<event>
 7    1  0.7029100E-006  0.1102018E+03  0.7818608E-02  0.1282234E+00
          2   -1    0    0  502    0  0.00000000000E+00  0.00000000000E+00  0.70621982168E+02  0.70621982168E+02  0.00000000000E+00 0. -1.
          1   -1    0    0  501    0 -0.00000000000E+00 -0.00000000000E+00 -0.23832889028E+04  0.23832889028E+04  0.00000000000E+00 0. -1.
         25    2    1    2    0    0  0.11768681644E+03  0.12102083473E+03 -0.12306285953E+04  0.12484256297E+04  0.12499433595E+03 0.  0.
          2    1    1    2  501    0 -0.33221045346E+02 -0.92697331877E+02 -0.11082539942E+04  0.11126200380E+04  0.00000000000E+00 0. -1.
          1    1    1    2  502    0 -0.84465771098E+02 -0.28323502852E+02  0.26215668867E+02  0.92865217359E+02  0.00000000000E+00 0. -1.
         22    1    3    3    0    0  0.10139389684E+02  0.10955665181E+02 -0.96219480302E+01  0.17759946695E+02  0.00000000000E+00 0.  1.
         22    1    3    3    0    0  0.10754742676E+03  0.11006516955E+03 -0.12210066473E+04  0.12306656830E+04  0.00000000000E+00 0.  1.
</event>
<event>
 7    1  0.7029100E-006  0.1117541E+03  0.7818608E-02  0.1381216E+00
          2   -1    0    0  502    0  0.00000000000E+00  0.00000000000E+00  0.11624436256E+03  0.11624436256E+03  0.00000000000E+00 0. -1.
          1   -1    0    0  501    0 -0.00000000000E+00 -0.00000000000E+00 -0.13385215427E+04  0.13385215427E+04  0.00000000000E+00 0. -1.
         25    2    1    2    0    0 -0.13299039959E+03 -0.15530508685E+01 -0.31385520460E+02  0.18519923460E+03  0.12499938901E+03 0.  0.
          2    1    1    2  501    0  0.34082119814E+02  0.13928450841E+02 -0.11663230490E+04  0.11669040438E+04  0.00000000000E+00 0. -1.
          1    1    1    2  502    0  0.98908279773E+02 -0.12375399973E+02 -0.24568610632E+02  0.10266262689E+03  0.00000000000E+00 0. -1.
         22    1    3    3    0    0 -0.12868829348E+03 -0.39911868648E+02  0.11140863769E+01  0.13474002867E+03  0.00000000000E+00 0. -1.
         22    1    3    3    0    0 -0.43021061041E+01  0.38358817779E+02 -0.32499606836E+02  0.50459205928E+02  0.00000000000E+00 0. -1.
</event>
<event>
 7    1  0.7029100E-006  0.1051570E+03  0.7818608E-02  0.1301413E+00
          2   -1    0    0  502    0  0.00000000000E+00  0.00000000000E+00  0.80229691398E+03  0.80229691398E+03  0.00000000000E+00 0. -1.
          1   -1    0    0  501    0 -0.00000000000E+00 -0.00000000000E+00 -0.84094390901E+03  0.84094390901E+03  0.00000000000E+00 0. -1.
         25    2    1    2    0    0 -0.11857838978E+03 -0.10727452416E+03 -0.45517866321E+03  0.49837853353E+03  0.12499955672E+03 0.  0.
          2    1    1    2  501    0  0.83936089764E+02  0.37331221575E+02 -0.35637502912E+03  0.36802452180E+03  0.00000000000E+00 0. -1.
          1    1    1    2  502    0  0.34642300018E+02  0.69943302585E+02  0.77290669730E+03  0.77683776766E+03  0.00000000000E+00 0. -1.
         22    1    3    3    0    0 -0.13520143790E+03 -0.70915374143E+02 -0.41275562624E+03  0.44008593035E+03  0.00000000000E+00 0.  1.
         22    1    3    3    0    0  0.16623048122E+02 -0.36359150017E+02 -0.42423036969E+02  0.58292603172E+02  0.00000000000E+00 0.  1.
</event>
<event>
 7    1  0.7029100E-006  0.1309618E+03  0.7818608E-02  0.1251565E+00
          2   -1    0    0  502    0  0.00000000000E+00  0.00000000000E+00  0.82661517491E+03  0.82661517491E+03  0.00000000000E+00 0. -1.
          1   -1    0    0  501    0 -0.00000000000E+00 -0.00000000000E+00 -0.12145618156E+04  0.12145618156E+04  0.00000000000E+00 0. -1.
         25    2    1    2    0    0 -0.68942088235E+02 -0.65611539903E+02 -0.89424306618E+02  0.18077414255E+03  0.12499879321E+03 0.  0.
          2    1    1    2  501    0  0.74583254748E+02 -0.68105652709E+02 -0.10713357656E+04  0.10760861324E+04  0.00000000000E+00 0. -1.
          1    1    1    2  502    0 -0.56411665131E+01  0.13371719261E+03  0.77281343149E+03  0.78431671552E+03  0.00000000000E+00 0. -1.
         22    1    3    3    0    0 -0.46532717442E+02  0.19796481335E+02 -0.76254647293E+02  0.91498446433E+02  0.00000000000E+00 0.  1.
         22    1    3    3    0    0 -0.22409370793E+02 -0.85408021238E+02 -0.13169659325E+02  0.89275696121E+02  0.00000000000E+00 0.  1.
</event>
<event>
 7    1  0.7029100E-006  0.1276194E+03  0.7818608E-02  0.1306765E+00
          2   -1    0    0  502    0  0.00000000000E+00  0.00000000000E+00  0.44597682883E+03  0.44597682883E+03  0.00000000000E+00 0. -1.
          1   -1    0    0  501    0 -0.00000000000E+00 -0.00000000000E+00 -0.86658745281E+03  0.86658745281E+03  0.00000000000E+00 0. -1.
         25    2    1    2    0    0  0.99947275768E+02  0.61496177424E+01 -0.27605653143E+03  0.31915456146E+03  0.12500059929E+03 0.  0.
          2    1    1    2  501    0 -0.13384720255E+03  0.44849348047E+02 -0.55793608098E+03  0.57551647076E+03  0.00000000000E+00 0. -1.
          1    1    1    2  502    0  0.33899926777E+02 -0.50998965789E+02  0.41338198844E+03  0.41789324942E+03  0.00000000000E+00 0. -1.
         22    1    3    3    0    0  0.63224679524E+02 -0.58289776545E+02 -0.14865507498E+03  0.17173639529E+03  0.00000000000E+00 0.  1.
         22    1    3    3    0    0  0.36722596244E+02  0.64439394287E+02 -0.12740145644E+03  0.14741816616E+03  0.00000000000E+00 0.  1.
</event>
<event>
 7    1  0.1369821E-005  0.7475683E+02  0.7818608E-02  0.1364641E+00
          2   -1    0    0  502    0  0.00000000000E+00  0.00000000000E+00  0.17596355392E+04  0.17596355392E+04  0.00000000000E+00 0. -1.
          1   -1    0    0  501    0 -0.00000000000E+00 -0.00000000000E+00 -0.77819744407E+03  0.77819744407E+03  0.00000000000E+00 0. -1.
         25    2    1    2    0    0 -0.90170803890E+02 -0.92246306603E+02 -0.11386063742E+03  0.21267086631E+03  0.12499799065E+03 0.  0.
          2    1    1    2  501    0  0.23751891810E+02  0.58455393031E+02 -0.61249845665E+03  0.61573983527E+03  0.00000000000E+00 0. -1.
          1    1    1    2  502    0  0.66418912080E+02  0.33790913572E+02  0.17077971892E+04  0.17094222817E+04  0.00000000000E+00 0. -1.
         22    1    3    3    0    0 -0.63781968490E+02 -0.11394380121E+03 -0.49204098205E+02  0.13954344348E+03  0.00000000000E+00 0. -1.
         22    1    3    3    0    0 -0.26388835400E+02  0.21697494605E+02 -0.64656539218E+02  0.73127422829E+02  0.00000000000E+00 0. -1.
</event>
<event>
 7    1  0.7029100E-006  0.3118740E+02  0.7818608E-02  0.1613772E+00
          2   -1    0    0  502    0  0.00000000000E+00  0.00000000000E+00  0.45040766177E+03  0.45040766177E+03  0.00000000000E+00 0. -1.
          1   -1    0    0  501    0 -0.00000000000E+00 -0.00000000000E+00 -0.38108385116E+03  0.38108385116E+03  0.00000000000E+00 0. -1.
         25    2    1    2    0    0  0.38561384173E+02 -0.29985349596E+02  0.15636513450E+03  0.20606061798E+03  0.12499928582E+03 0.  0.
          2    1    1    2  501    0 -0.12319595629E+02  0.28603341449E+02 -0.35491127269E+03  0.35627508341E+03  0.00000000000E+00 0. -1.
          1    1    1    2  502    0 -0.26241788544E+02  0.13820081474E+01  0.26786994880E+03  0.26915581154E+03  0.00000000000E+00 0. -1.
         22    1    3    3    0    0  0.61337194529E+02 -0.63547691325E+02  0.13175141878E+03  0.15861587832E+03  0.00000000000E+00 0.  1.
         22    1    3    3    0    0 -0.22775810356E+02  0.33562341729E+02  0.24613715727E+02  0.47444739662E+02  0.00000000000E+00 0.  1.
</event>
<event>
 7    1  0.7029100E-006  0.8282772E+02  0.7818608E-02  0.1422772E+00
          2   -1    0    0  502    0  0.00000000000E+00  0.00000000000E+00  0.84315929192E+03  0.84315929192E+03  0.00000000000E+00 0. -1.
          1   -1    0    0  501    0 -0.00000000000E+00 -0.00000000000E+00 -0.63018563778E+03  0.63018563778E+03  0.00000000000E+00 0. -1.
         25    2    1    2    0    0 -0.42931500738E+02  0.95700924829E+02 -0.34734324491E+02  0.16683393317E+03  0.12500122875E+03 0.  0.
          2    1    1    2  501    0  0.54000651620E+02 -0.61676279567E+02 -0.52581207974E+03  0.53216386295E+03  0.00000000000E+00 0. -1.
          1    1    1    2  502    0 -0.11069150882E+02 -0.34024645262E+02  0.77352005837E+03  0.77434713358E+03  0.00000000000E+00 0. -1.
         22    1    3    3    0    0 -0.50538908158E+02  0.61770819353E+02  0.36351014409E+02  0.87699553078E+02  0.00000000000E+00 0.  1.
         22    1    3    3    0    0  0.76074074198E+01  0.33930105476E+02 -0.71085338901E+02  0.79134380088E+02  0.00000000000E+00 0.  1.
</event>
<event>
 7    1  0.7029100E-006  0.4910097E+02  0.7818608E-02  0.1459193E+00
          2   -1    0    0  502    0  0.00000000000E+00  0.00000000000E+00  0.87430127901E+03  0.87430127901E+03  0.00000000000E+00 0. -1.
          1   -1    0    0  501    0 -0.00000000000E+00 -0.00000000000E+00 -0.10595773620E+04  0.10595773620E+04  0.00000000000E+00 0. -1.
         25    2    1    2    0    0 -0.41914247997E+02 -0.13234342648E+02  0.17793188419E+03  0.22183939362E+03  0.12498403555E+03 0.  0.
          2    1    1    2  501    0  0.29410388900E+02 -0.35358312341E+02 -0.10361795706E+04  0.10371997319E+04  0.00000000000E+00 0. -1.
          1    1    1    2  502    0  0.12503859098E+02  0.48592654988E+02  0.67297160347E+03  0.67483951550E+03  0.00000000000E+00 0. -1.
         22    1    3    3    0    0 -0.66460614177E+02 -0.50028308094E+02  0.14317552803E+03  0.16558706675E+03  0.00000000000E+00 0. -1.
         22    1    3    3    0    0  0.24546366180E+02  0.36793965446E+02  0.34756356155E+02  0.56252326877E+02  0.00000000000E+00 0. -1.
</event>
<event>
 7    1  0.7029100E-006  0.3808350E+02  0.7818608E-02  0.1600551E+00
          2   -1    0    0  502    0  0.00000000000E+00  0.00000000000E+00  0.47963942938E+03  0.47963942938E+03  0.00000000000E+00 0. -1.
          1   -1    0    0  501    0 -0.00000000000E+00 -0.00000000000E+00 -0.11200521235E+04  0.11200521235E+04  0.00000000000E+00 0. -1.
         25    2    1    2    0    0 -0.17743444532E+02  0.49917693965E+02  0.14637568612E+03  0.19964298532E+03  0.12499949642E+03 0.  0.
          2    1    1    2  501    0  0.25732710226E+02 -0.28046740473E+02 -0.10926445720E+04  0.10933073460E+04  0.00000000000E+00 0. -1.
          1    1    1    2  502    0 -0.79892656944E+01 -0.21870953493E+02  0.30585619177E+03  0.30674122158E+03  0.00000000000E+00 0. -1.
         22    1    3    3    0    0  0.13582502684E+02  0.49881509380E+01  0.14409898172E+03  0.14482362571E+03  0.00000000000E+00 0.  1.
         22    1    3    3    0    0 -0.31325947216E+02  0.44929543027E+02  0.22767044001E+01  0.54819359615E+02  0.00000000000E+00 0.  1.
</event>
<event>
 7    1  0.7029100E-006  0.4394612E+02  0.7818608E-02  0.1556224E+00
          2   -1    0    0  502    0  0.00000000000E+00  0.00000000000E+00  0.31962801653E+03  0.31962801653E+03  0.00000000000E+00 0. -1.
          1   -1    0    0  501    0 -0.00000000000E+00 -0.00000000000E+00 -0.59432018254E+02  0.59432018254E+02  0.00000000000E+00 0. -1.
         25    2    1    2    0    0 -0.49478729789E+01 -0.36524254240E+02  0.21450745659E+03  0.25099262889E+03  0.12500139291E+03 0.  0.
          2    1    1    2  501    0  0.31125672570E+02  0.32111090975E+02 -0.25924958264E+02  0.51691712271E+02  0.00000000000E+00 0. -1.
          1    1    1    2  502    0 -0.26177799591E+02  0.44131632650E+01  0.71613499942E+02  0.76375693617E+02  0.00000000000E+00 0. -1.
         22    1    3    3    0    0 -0.10717525689E+02  0.31087118918E+02  0.83098082064E+01  0.33916474344E+02  0.00000000000E+00 0. -1.
         22    1    3    3    0    0  0.57696527103E+01 -0.67611373157E+02  0.20619764839E+03  0.21707615455E+03  0.00000000000E+00 0. -1.
</event>
<event>
 7    1  0.7029100E-006  0.1001171E+03  0.7818608E-02  0.1418488E+00
          2   -1    0    0  502    0  0.00000000000E+00  0.00000000000E+00  0.51011612908E+03  0.51011612908E+03  0.00000000000E+00 0. -1.
          1   -1    0    0  501    0 -0.00000000000E+00 -0.00000000000E+00 -0.95763212476E+02  0.95763212476E+02  0.00000000000E+00 0. -1.
         25    2    1    2    0    0 -0.70983568942E+02 -0.32938408570E+02 -0.15554524914E+02  0.14829277625E+03  0.12500079369E+03 0.  0.
          2    1    1    2  501    0 -0.10051008689E+02 -0.28893376678E+02  0.23456522512E+02  0.38549428528E+02  0.00000000000E+00 0. -1.
          1    1    1    2  502    0  0.81034577630E+02  0.61831785248E+02  0.40645091901E+03  0.41903713678E+03  0.00000000000E+00 0. -1.
         22    1    3    3    0    0 -0.23465554064E+02  0.46618657971E+02 -0.19049911179E+02  0.55559253185E+02  0.00000000000E+00 0.  1.
         22    1    3    3    0    0 -0.47518014877E+02 -0.79557066541E+02  0.34953862645E+01  0.92733523063E+02  0.00000000000E+00 0.  1.
</event>
<event>
 7    1  0.7029100E-006  0.5366537E+02  0.7818608E-02  0.1476978E+00
          2   -1    0    0  502    0  0.00000000000E+00  0.00000000000E+00  0.19310158903E+04  0.19310158903E+04  0.00000000000E+00 0. -1.
          1   -1    0    0  501    0 -0.00000000000E+00 -0.00000000000E+00 -0.72397035759E+01  0.72397035759E+01  0.00000000000E+00 0. -1.
         25    2    1    2    0    0  0.73307685187E+02 -0.12179243120E+02  0.11859238692E+04  0.11948068748E+04  0.12500277523E+03 0.  0.
          2    1    1    2  501    0 -0.47610958065E+02 -0.14488383813E+02  0.30698334783E+03  0.31099114527E+03  0.00000000000E+00 0. -1.
          1    1    1    2  502    0 -0.25696727122E+02  0.26667626933E+02  0.43086896967E+03  0.43245757380E+03  0.00000000000E+00 0. -1.
         22    1    3    3    0    0  0.99259318170E+01  0.16256788164E+02  0.23234793610E+02  0.30044349185E+02  0.00000000000E+00 0.  1.
         22    1    3    3    0    0  0.63381753370E+02 -0.28436031284E+02  0.11626890756E+04  0.11647625256E+04  0.00000000000E+00 0.  1.
</event>
<event>
 7    1  0.7029100E-006  0.6658239E+02  0.7818608E-02  0.1389683E+00
          2   -1    0    0  502    0  0.00000000000E+00  0.00000000000E+00  0.94726507216E+03  0.94726507216E+03  0.00000000000E+00 0. -1.
          1   -1    0    0  501    0 -0.00000000000E+00 -0.00000000000E+00 -0.27945970449E+03  0.27945970449E+03  0.00000000000E+00 0. -1.
         25    2    1    2    0    0  0.97132184535E+02 -0.76962045186E+02 -0.16065712600E+03  0.23831304880E+03  0.12499831768E+03 0.  0.
          2    1    1    2  501    0 -0.44716442361E+02  0.36475251128E+02 -0.68182214766E+02  0.89324232841E+02  0.00000000000E+00 0. -1.
          1    1    1    2  502    0 -0.52415742174E+02  0.40486794058E+02  0.89664470844E+03  0.89908749501E+03  0.00000000000E+00 0. -1.
         22    1    3    3    0    0  0.53918268748E+02 -0.53096485844E+02 -0.17178011016E+03  0.18770941042E+03  0.00000000000E+00 0. -1.
         22    1    3    3    0    0  0.43213915787E+02 -0.23865559342E+02  0.11122984165E+02  0.50603638378E+02  0.00000000000E+00 0. -1.
</event>
<event>
 7    1  0.7029100E-006  0.3987731E+02  0.7818608E-02  0.1552919E+00
          2   -1    0    0  502    0  0.00000000000E+00  0.00000000000E+00  0.19897348140E+04  0.19897348140E+04  0.00000000000E+00 0. -1.
          1   -1    0    0  501    0 -0.00000000000E+00 -0.00000000000E+00 -0.96462881503E+02  0.96462881503E+02  0.00000000000E+00 0. -1.
         25    2    1    2    0    0  0.33273700026E+02  0.46068384594E+02  0.45403867184E+03  0.47434744914E+03  0.12499980726E+03 0.  0.
          2    1    1    2  501    0  0.28402236398E+01 -0.29744477727E+02 -0.83456833086E+02  0.88644479887E+02  0.00000000000E+00 0. -1.
          1    1    1    2  502    0 -0.36113923666E+02 -0.16323906867E+02  0.15226900937E+04  0.15232057665E+04  0.00000000000E+00 0. -1.
         22    1    3    3    0    0 -0.43900912881E+02  0.12317058418E+02  0.92516125261E+02  0.10314181263E+03  0.00000000000E+00 0.  1.
         22    1    3    3    0    0  0.77174612907E+02  0.33751326176E+02  0.36152254657E+03  0.37120563651E+03  0.00000000000E+00 0.  1.
</event>
<event>
 7    1  0.7029100E-006  0.1632788E+03  0.7818608E-02  0.1329464E+00
          2   -1    0    0  502    0  0.00000000000E+00  0.00000000000E+00  0.14718618400E+04  0.14718618400E+04  0.00000000000E+00 0. -1.
          1   -1    0    0  501    0 -0.00000000000E+00 -0.00000000000E+00 -0.51547069106E+03  0.51547069106E+03  0.00000000000E+00 0. -1.
         25    2    1    2    0    0  0.12057907470E+03  0.15679402563E+03  0.32027065659E+03  0.39664096651E+03  0.12500833217E+03 0.  0.
          2    1    1    2  501    0 -0.87211167997E+02 -0.13650025692E+03 -0.46318538377E+03  0.49069217204E+03  0.00000000000E+00 0. -1.
          1    1    1    2  502    0 -0.33367906701E+02 -0.20293768717E+02  0.10993058761E+04  0.10999993925E+04  0.00000000000E+00 0. -1.
         22    1    3    3    0    0  0.12657334276E+03  0.14271793622E+03  0.32804712492E+03  0.37947876961E+03  0.00000000000E+00 0. -1.
         22    1    3    3    0    0 -0.59942680583E+01  0.14076089415E+02 -0.77764683314E+01  0.17162196901E+02  0.00000000000E+00 0. -1.
</event>
<event>
 7    1  0.7029100E-006  0.9671172E+02  0.7818608E-02  0.1298223E+00
          2   -1    0    0  502    0  0.00000000000E+00  0.00000000000E+00  0.18040597266E+04  0.18040597266E+04  0.00000000000E+00 0. -1.
          1   -1    0    0  501    0 -0.00000000000E+00 -0.00000000000E+00 -0.15313698138E+03  0.15313698138E+03  0.00000000000E+00 0. -1.
         25    2    1    2    0    0  0.25431928277E+02  0.15001094316E+03  0.19409274826E+03  0.27649019673E+03  0.12499907167E+03 0.  0.
          2    1    1    2  501    0 -0.61744184356E+02 -0.70509575419E+02 -0.90868980290E+02  0.13054162595E+03  0.00000000000E+00 0. -1.
          1    1    1    2  502    0  0.36312256080E+02 -0.79501367739E+02  0.15476989772E+04  0.15501648853E+04  0.00000000000E+00 0. -1.
         22    1    3    3    0    0  0.13617207128E+02  0.62059554609E+02  0.17436826569E+03  0.18558315852E+03  0.00000000000E+00 0.  1.
         22    1    3    3    0    0  0.11814721149E+02  0.87951388550E+02  0.19724482573E+02  0.90907038211E+02  0.00000000000E+00 0.  1.
</event>
<event>
 7    1  0.7029100E-006  0.5002288E+02  0.7818608E-02  0.1499565E+00
          2   -1    0    0  502    0  0.00000000000E+00  0.00000000000E+00  0.13731336454E+04  0.13731336454E+04  0.00000000000E+00 0. -1.
          1   -1    0    0  501    0 -0.00000000000E+00 -0.00000000000E+00 -0.91878842641E+02  0.91878842641E+02  0.00000000000E+00 0. -1.
         25    2    1    2    0    0 -0.72386967695E+01  0.15452694290E+02  0.18276780183E+03  0.22208027338E+03  0.12499757576E+03 0.  0.
          2    1    1    2  501    0 -0.11766133411E+02  0.31827202865E+02 -0.67649629508E+02  0.75682792695E+02  0.00000000000E+00 0. -1.
          1    1    1    2  502    0  0.19004830180E+02 -0.47279897155E+02  0.11661366304E+04  0.11672494220E+04  0.00000000000E+00 0. -1.
         22    1    3    3    0    0  0.85505449495E+01  0.83413949026E+01  0.19839527719E+03  0.19875456397E+03  0.00000000000E+00 0.  1.
         22    1    3    3    0    0 -0.15789241719E+02  0.71112993871E+01 -0.15627475361E+02  0.23325709404E+02  0.00000000000E+00 0.  1.
</event>
<event>
 7    1  0.7029100E-006  0.9446375E+02  0.7818608E-02  0.1329981E+00
          2   -1    0    0  502    0  0.00000000000E+00  0.00000000000E+00  0.19188688934E+04  0.19188688934E+04  0.00000000000E+00 0. -1.
          1   -1    0    0  501    0 -0.00000000000E+00 -0.00000000000E+00 -0.55776719125E+02  0.55776719125E+02  0.00000000000E+00 0. -1.
         25    2    1    2    0    0  0.12853822936E+03  0.16126525984E+02  0.15767592821E+03  0.23931247291E+03  0.12500648026E+03 0.  0.
          2    1    1    2  501    0 -0.66587060786E+02 -0.42160154270E+02  0.94652261577E+02  0.12316803925E+03  0.00000000000E+00 0. -1.
          1    1    1    2  502    0 -0.61951168576E+02  0.26033628286E+02  0.16107639845E+04  0.16121651004E+04  0.00000000000E+00 0. -1.
         22    1    3    3    0    0  0.42655891941E+01 -0.41508584105E+02  0.25198304531E+02  0.48745382928E+02  0.00000000000E+00 0. -1.
         22    1    3    3    0    0  0.12427264017E+03  0.57635110089E+02  0.13247762368E+03  0.19056708998E+03  0.00000000000E+00 0. -1.
</event>
<event>
 7    1  0.7029100E-006  0.1233460E+03  0.7818608E-02  0.1253406E+00
          2   -1    0    0  502    0  0.00000000000E+00  0.00000000000E+00  0.31146464965E+04  0.31146464965E+04  0.00000000000E+00 0. -1.
          1   -1    0    0  501    0 -0.00000000000E+00 -0.00000000000E+00 -0.90834029994E+03  0.90834029994E+03  0.00000000000E+00 0. -1.
         25    2    1    2    0    0 -0.32319297819E+02 -0.12481197184E+03  0.31733871256E+02  0.18235897366E+03  0.12500076545E+03 0.  0.
          2    1    1    2  501    0 -0.70697312386E+02  0.10305304339E+03 -0.82741249112E+03  0.83679714996E+03  0.00000000000E+00 0. -1.
          1    1    1    2  502    0  0.10301661020E+03  0.21758928456E+02  0.30019848164E+04  0.30038306728E+04  0.00000000000E+00 0. -1.
         22    1    3    3    0    0 -0.64771202115E+02 -0.78213052515E+02 -0.22303504752E+02  0.10397132552E+03  0.00000000000E+00 0. -1.
         22    1    3    3    0    0  0.32451904296E+02 -0.46598919329E+02  0.54037376008E+02  0.78387648140E+02  0.00000000000E+00 0. -1.
</event>
<event>
 7    1  0.7029100E-006  0.5051710E+02  0.7818608E-02  0.1483317E+00
          2   -1    0    0  502    0  0.00000000000E+00  0.00000000000E+00  0.60560591379E+03  0.60560591379E+03  0.00000000000E+00 0. -1.
          1   -1    0    0  501    0 -0.00000000000E+00 -0.00000000000E+00 -0.99939883370E+03  0.99939883370E+03  0.00000000000E+00 0. -1.
         25    2    1    2    0    0  0.20953105776E+02 -0.76803789384E+01  0.23581549782E+03  0.26781894230E+03  0.12498006233E+03 0.  0.
          2    1    1    2  501    0  0.12675332602E+02 -0.35419284402E+02 -0.98092266166E+03  0.98164375306E+03  0.00000000000E+00 0. -1.
          1    1    1    2  502    0 -0.33628438377E+02  0.43099663340E+02  0.35131424393E+03  0.35554205214E+03  0.00000000000E+00 0. -1.
         22    1    3    3    0    0 -0.15251422755E+02  0.53411828585E+02  0.93098778286E+02  0.10841038625E+03  0.00000000000E+00 0. -1.
         22    1    3    3    0    0  0.36204528531E+02 -0.61092207523E+02  0.14271671953E+03  0.15940855604E+03  0.00000000000E+00 0. -1.
</event>
<event>
 7    1  0.7029100E-006  0.1355985E+03  0.7818608E-02  0.1347177E+00
          2   -1    0    0  502    0  0.00000000000E+00  0.00000000000E+00  0.17963450483E+03  0.17963450483E+03  0.00000000000E+00 0. -1.
          1   -1    0    0  501    0 -0.00000000000E+00 -0.00000000000E+00 -0.39561538422E+03  0.39561538422E+03  0.00000000000E+00 0. -1.
         25    2    1    2    0    0  0.39384361667E+02 -0.11057701486E+03 -0.41370019977E+01  0.17152165127E+03  0.12499663159E+03 0.  0.
          2    1    1    2  501    0 -0.17205532331E+02 -0.36466026839E+02 -0.24753607918E+03  0.25079854854E+03  0.00000000000E+00 0. -1.
          1    1    1    2  502    0 -0.22178829336E+02  0.14704304170E+03  0.35692201788E+02  0.15292968924E+03  0.00000000000E+00 0. -1.
         22    1    3    3    0    0 -0.45615170012E+02 -0.43581276196E+02 -0.50496483140E+01  0.63289575115E+02  0.00000000000E+00 0. -1.
         22    1    3    3    0    0  0.84999531679E+02 -0.66995738664E+02  0.91264631628E+00  0.10823207615E+03  0.00000000000E+00 0. -1.
</event>
<event>
 7    1  0.7029100E-006  0.1819037E+03  0.7818608E-02  0.1268717E+00
          2   -1    0    0  502    0  0.00000000000E+00  0.00000000000E+00  0.15414543790E+04  0.15414543790E+04  0.00000000000E+00 0. -1.
          1   -1    0    0  501    0 -0.00000000000E+00 -0.00000000000E+00 -0.67413845658E+03  0.67413845658E+03  0.00000000000E+00 0. -1.
         25    2    1    2    0    0  0.89870882661E+02  0.22166977435E+03  0.59984774306E+02  0.27647217975E+03  0.12499771446E+03 0.  0.
          2    1    1    2  501    0 -0.31963246172E+02 -0.52468011235E+02 -0.55838021576E+03  0.56174995030E+03  0.00000000000E+00 0. -1.
          1    1    1    2  502    0 -0.57907636489E+02 -0.16920176311E+03  0.13657113639E+04  0.13773707055E+04  0.00000000000E+00 0. -1.
         22    1    3    3    0    0  0.86001466082E+02  0.23779857937E+03  0.52450258108E+02  0.25825461486E+03  0.00000000000E+00 0. -1.
         22    1    3    3    0    0  0.38694165787E+01 -0.16128805027E+02  0.75345161985E+01  0.18217564893E+02  0.00000000000E+00 0. -1.
</event>
<event>
 7    1  0.7029100E-006  0.7323006E+02  0.7818608E-02  0.1356471E+00
          2   -1    0    0  502    0  0.00000000000E+00  0.00000000000E+00  0.19899598977E+04  0.19899598977E+04  0.00000000000E+00 0. -1.
          1   -1    0    0  501    0 -0.00000000000E+00 -0.00000000000E+00 -0.15297692487E+03  0.15297692487E+03  0.00000000000E+00 0. -1.
         25    2    1    2    0    0 -0.22992798210E+02  0.29562778405E+02  0.41385345173E+02  0.13689405490E+03  0.12499843533E+03 0.  0.
          2    1    1    2  501    0  0.74477027015E+02  0.22514242398E+02 -0.90030910703E+02  0.11899278779E+03  0.00000000000E+00 0. -1.
          1    1    1    2  502    0 -0.51484228804E+02 -0.52077020803E+02  0.18856285384E+04  0.18870499799E+04  0.00000000000E+00 0. -1.
         22    1    3    3    0    0  0.31382517631E+02  0.35373522345E+02  0.62414340565E+02  0.78305162053E+02  0.00000000000E+00 0.  1.
         22    1    3    3    0    0 -0.54375315842E+02 -0.58107439400E+01 -0.21028995392E+02  0.58588892849E+02  0.00000000000E+00 0.  1.
</event>
<event>
 7    1  0.7029100E-006  0.1007157E+03  0.7818608E-02  0.1379314E+00
          2   -1    0    0  502    0  0.00000000000E+00  0.00000000000E+00  0.92312808420E+02  0.92312808420E+02  0.00000000000E+00 0. -1.
          1   -1    0    0  501    0 -0.00000000000E+00 -0.00000000000E+00 -0.64997339973E+03  0.64997339973E+03  0.00000000000E+00 0. -1.
         25    2    1    2    0    0 -0.22074517202E+02 -0.13050702005E+03 -0.17972374621E+03  0.25582543746E+03  0.12500665145E+03 0.  0.
          2    1    1    2  501    0 -0.82499545578E+01  0.40663570405E+02 -0.38880879211E+03  0.39101645046E+03  0.00000000000E+00 0. -1.
          1    1    1    2  502    0  0.30324471760E+02  0.89843449646E+02  0.10871947015E+02  0.95444320228E+02  0.00000000000E+00 0. -1.
         22    1    3    3    0    0  0.49119562658E+02 -0.36607101404E+02 -0.84233326765E+02  0.10415404287E+03  0.00000000000E+00 0. -1.
         22    1    3    3    0    0 -0.71194079861E+02 -0.93899918647E+02 -0.95490419443E+02  0.15167139458E+03  0.00000000000E+00 0. -1.
</event>
<event>
 7    1  0.7029100E-006  0.6753402E+02  0.7818608E-02  0.1403793E+00
          2   -1    0    0  502    0  0.00000000000E+00  0.00000000000E+00  0.46649211369E+03  0.46649211369E+03  0.00000000000E+00 0. -1.
          1   -1    0    0  501    0 -0.00000000000E+00 -0.00000000000E+00 -0.25360461325E+03  0.25360461325E+03  0.00000000000E+00 0. -1.
         25    2    1    2    0    0  0.49942444372E+02 -0.18846308356E+02 -0.70187134014E+02  0.15297233218E+03  0.12499947817E+03 0.  0.
          2    1    1    2  501    0 -0.32146491088E+02  0.66482251946E+02 -0.13076307289E+03  0.15017412542E+03  0.00000000000E+00 0. -1.
          1    1    1    2  502    0 -0.17795953285E+02 -0.47635943590E+02  0.41383770736E+03  0.41695026934E+03  0.00000000000E+00 0. -1.
         22    1    3    3    0    0  0.78299254393E+02  0.25769645142E+02 -0.49840339932E+02  0.96327085152E+02  0.00000000000E+00 0.  1.
         22    1    3    3    0    0 -0.28356810021E+02 -0.44615953498E+02 -0.20346794082E+02  0.56645247025E+02  0.00000000000E+00 0.  1.
</event>
<event>
 7    1  0.7029100E-006  0.2892966E+03  0.7818608E-02  0.1311997E+00
          2   -1    0    0  502    0  0.00000000000E+00  0.00000000000E+00  0.13298260372E+04  0.13298260372E+04  0.00000000000E+00 0. -1.
          1   -1    0    0  501    0 -0.00000000000E+00 -0.00000000000E+00 -0.83302581298E+03  0.83302581298E+03  0.00000000000E+00 0. -1.
         25    2    1    2    0    0 -0.23938565345E+03 -0.20032256136E+03  0.20933210985E+03  0.39607968809E+03  0.12499826974E+03 0.  0.
          2    1    1    2  501    0  0.21625010921E+03  0.18899330353E+03 -0.71160089049E+03  0.76737110048E+03  0.00000000000E+00 0. -1.
          1    1    1    2  502    0  0.23135544234E+02  0.11329257835E+02  0.99906900486E+03  0.99940106162E+03  0.00000000000E+00 0. -1.
         22    1    3    3    0    0 -0.24506475703E+03 -0.18633394202E+03  0.21930668013E+03  0.37798477884E+03  0.00000000000E+00 0.  1.
         22    1    3    3    0    0  0.56791035825E+01 -0.13988619344E+02 -0.99745702769E+01  0.18094909253E+02  0.00000000000E+00 0.  1.
</event>
<event>
 7    1  0.7029100E-006  0.7020555E+02  0.7818608E-02  0.1404876E+00
          2   -1    0    0  502    0  0.00000000000E+00  0.00000000000E+00  0.60574154539E+03  0.60574154539E+03  0.00000000000E+00 0. -1.
          1   -1    0    0  501    0 -0.00000000000E+00 -0.00000000000E+00 -0.11201787958E+03  0.11201787958E+03  0.00000000000E+00 0. -1.
         25    2    1    2    0    0  0.16103002134E+02  0.39496189979E+02  0.17262906726E+01  0.13208962812E+03  0.12500173629E+03 0.  0.
          2    1    1    2  501    0 -0.39448416654E+02  0.28217252843E+02 -0.31149395057E+02  0.57642655620E+02  0.00000000000E+00 0. -1.
          1    1    1    2  502    0  0.23345414520E+02 -0.67713442822E+02  0.52314677019E+03  0.52802714123E+03  0.00000000000E+00 0. -1.
         22    1    3    3    0    0 -0.25770617844E+02  0.53600253684E+01 -0.50499838406E+02  0.56948119328E+02  0.00000000000E+00 0. -1.
         22    1    3    3    0    0  0.41873619978E+02  0.34136164610E+02  0.52226129078E+02  0.75141508788E+02  0.00000000000E+00 0. -1.
</event>
<event>
 7    1  0.7029100E-006  0.7840288E+02  0.7818608E-02  0.1373536E+00
          2   -1    0    0  502    0  0.00000000000E+00  0.00000000000E+00  0.21750181720E+03  0.21750181720E+03  0.00000000000E+00 0. -1.
          1   -1    0    0  501    0 -0.00000000000E+00 -0.00000000000E+00 -0.80265140596E+03  0.80265140596E+03  0.00000000000E+00 0. -1.
         25    2    1    2    0    0 -0.90166972394E+02 -0.85480893586E+02 -0.31562959531E+03  0.36150367057E+03  0.12500318524E+03 0.  0.
          2    1    1    2  501    0  0.20248310207E+02  0.52088931912E+02 -0.45459095596E+03  0.45801330563E+03  0.00000000000E+00 0. -1.
          1    1    1    2  502    0  0.69918662187E+02  0.33391961675E+02  0.18507096251E+03  0.20063624695E+03  0.00000000000E+00 0. -1.
         22    1    3    3    0    0 -0.11935358083E+02 -0.78026960595E+02 -0.23917254500E+03  0.25186140164E+03  0.00000000000E+00 0.  1.
         22    1    3    3    0    0 -0.78231614312E+02 -0.74539329912E+01 -0.76457050309E+02  0.10964226893E+03  0.00000000000E+00 0.  1.
</event>
<event>
 7    1  0.7029100E-006  0.2300984E+03  0.7818608E-02  0.1184688E+00
          2   -1    0    0  502    0  0.00000000000E+00  0.00000000000E+00  0.34693078172E+03  0.34693078172E+03  0.00000000000E+00 0. -1.
          1   -1    0    0  501    0 -0.00000000000E+00 -0.00000000000E+00 -0.11374637681E+04  0.11374637681E+04  0.00000000000E+00 0. -1.
         25    2    1    2    0    0  0.22511461945E+03 -0.15833897234E+03 -0.21568807890E+03  0.37134132588E+03  0.12500084348E+03 0.  0.
          2    1    1    2  501    0 -0.11045137500E+03 -0.36493934347E+02 -0.79145628269E+03  0.79995897450E+03  0.00000000000E+00 0. -1.
          1    1    1    2  502    0 -0.11466324446E+03  0.19483290669E+03  0.21661137522E+03  0.31309424944E+03  0.00000000000E+00 0. -1.
         22    1    3    3    0    0  0.80197748224E+01 -0.61614344027E+02 -0.65048514335E+02  0.89955285533E+02  0.00000000000E+00 0. -1.
         22    1    3    3    0    0  0.21709484463E+03 -0.96724628311E+02 -0.15063956457E+03  0.28138604035E+03  0.00000000000E+00 0. -1.
</event>
<event>
 7    1  0.7029100E-006  0.9861652E+02  0.7818608E-02  0.1326722E+00
          2   -1    0    0  502    0  0.00000000000E+00  0.00000000000E+00  0.80091983424E+03  0.80091983424E+03  0.00000000000E+00 0. -1.
          1   -1    0    0  501    0 -0.00000000000E+00 -0.00000000000E+00 -0.38884974146E+03  0.38884974146E+03  0.00000000000E+00 0. -1.
         25    2    1    2    0    0  0.82099269282E+02  0.13044739532E+03  0.13572582297E+03  0.24042262366E+03  0.12499890393E+03 0.  0.
          2    1    1    2  501    0 -0.71634515967E+02 -0.65033500769E+02 -0.32769829349E+03  0.34168264757E+03  0.00000000000E+00 0. -1.
          1    1    1    2  502    0 -0.10464753315E+02 -0.65413894553E+02  0.60404256329E+03  0.60766430447E+03  0.00000000000E+00 0. -1.
         22    1    3    3    0    0  0.16914277445E+02  0.18433183328E+02 -0.24043559601E+02  0.34698238966E+02  0.00000000000E+00 0.  1.
         22    1    3    3    0    0  0.65184991837E+02  0.11201421199E+03  0.15976938257E+03  0.20572438469E+03  0.00000000000E+00 0.  1.
</event>
<event>
 7    1  0.7029100E-006  0.1099425E+03  0.7818608E-02  0.1309007E+00
          2   -1    0    0  502    0  0.00000000000E+00  0.00000000000E+00  0.74108863877E+02  0.74108863877E+02  0.00000000000E+00 0. -1.
          1   -1    0    0  501    0 -0.00000000000E+00 -0.00000000000E+00 -0.19884646801E+04  0.19884646801E+04  0.00000000000E+00 0. -1.
         25    2    1    2    0    0  0.29416478386E+02  0.67813975181E+02 -0.71468170560E+03  0.72928651619E+03  0.12499927183E+03 0.  0.
          2    1    1    2  501    0  0.68743175275E+02 -0.11187331676E+02 -0.12167011186E+04  0.12186929033E+04  0.00000000000E+00 0. -1.
          1    1    1    2  502    0 -0.98159653662E+02 -0.56626643505E+02  0.17027007992E+02  0.11459412447E+03  0.00000000000E+00 0. -1.
         22    1    3    3    0    0  0.69185854031E+02  0.63635259661E+02 -0.34944640842E+03  0.36186865162E+03  0.00000000000E+00 0.  1.
         22    1    3    3    0    0 -0.39769375644E+02  0.41787155194E+01 -0.36523529718E+03  0.36741786458E+03  0.00000000000E+00 0.  1.
</event>
<event>
 7    1  0.7029100E-006  0.1091818E+03  0.7818608E-02  0.1333645E+00
          2   -1    0    0  502    0  0.00000000000E+00  0.00000000000E+00  0.31059506034E+03  0.31059506034E+03  0.00000000000E+00 0. -1.
          1   -1    0    0  501    0 -0.00000000000E+00 -0.00000000000E+00 -0.54359168757E+03  0.54359168757E+03  0.00000000000E+00 0. -1.
         25    2    1    2    0    0 -0.66994989634E+02  0.93853944759E+02 -0.12410447610E+03  0.21053356487E+03  0.12500227744E+03 0.  0.
          2    1    1    2  501    0  0.54244767086E+02  0.15077290252E+02 -0.36276238882E+03  0.36710539384E+03  0.00000000000E+00 0. -1.
          1    1    1    2  502    0  0.12750222549E+02 -0.10893123501E+03  0.25387023768E+03  0.27654778921E+03  0.00000000000E+00 0. -1.
         22    1    3    3    0    0  0.78621374282E+01 -0.13301733471E+02  0.13661335884E+02  0.20624776760E+02  0.00000000000E+00 0.  1.
         22    1    3    3    0    0 -0.74857127063E+02  0.10715567823E+03 -0.13776581198E+03  0.18990878811E+03  0.00000000000E+00 0.  1.
</event>
<event>
 7    1  0.7029100E-006  0.8160030E+02  0.7818608E-02  0.1429385E+00
          2   -1    0    0  502    0  0.00000000000E+00  0.00000000000E+00  0.14783160347E+04  0.14783160347E+04  0.00000000000E+00 0. -1.
          1   -1    0    0  501    0 -0.00000000000E+00 -0.00000000000E+00 -0.74330967028E+03  0.74330967028E+03  0.00000000000E+00 0. -1.
         25    2    1    2    0    0 -0.73146864520E+02  0.15930335049E+02  0.87239659322E+03  0.88448006060E+03  0.12499968953E+03 0.  0.
          2    1    1    2  501    0 -0.12657054493E+02 -0.32129381934E+02 -0.73368205343E+03  0.73449428434E+03  0.00000000000E+00 0. -1.
          1    1    1    2  502    0  0.85803919014E+02  0.16199046884E+02  0.59629182463E+03  0.60265136004E+03  0.00000000000E+00 0. -1.
         22    1    3    3    0    0 -0.67377236693E+02 -0.35874142391E+02  0.70589360543E+03  0.71000875228E+03  0.00000000000E+00 0. -1.
         22    1    3    3    0    0 -0.57696278271E+01  0.51804477440E+02  0.16650298779E+03  0.17447130833E+03  0.00000000000E+00 0. -1.
</event>
<event>
 7    1  0.7029100E-006  0.4207422E+02  0.7818608E-02  0.1557293E+00
          2   -1    0    0  502    0  0.00000000000E+00  0.00000000000E+00  0.16233640605E+03  0.16233640605E+03  0.00000000000E+00 0. -1.
          1   -1    0    0  501    0 -0.00000000000E+00 -0.00000000000E+00 -0.15368753316E+03  0.15368753316E+03  0.00000000000E+00 0. -1.
         25    2    1    2    0    0  0.97045147020E+01 -0.43307903788E+02  0.53223490378E+02  0.14292814055E+03  0.12500384513E+03 0.  0.
          2    1    1    2  501    0  0.17428823594E+02  0.38591340039E+02 -0.10143405395E+03  0.10991779983E+03  0.00000000000E+00 0. -1.
          1    1    1    2  502    0 -0.27133338296E+02  0.47165637491E+01  0.56859436462E+02  0.63177998824E+02  0.00000000000E+00 0. -1.
         22    1    3    3    0    0 -0.36687336240E+02  0.28974614861E+02  0.17907032128E+02  0.50061469679E+02  0.00000000000E+00 0.  1.
         22    1    3    3    0    0  0.46391850942E+02 -0.72282518649E+02  0.35316458250E+02  0.92866670875E+02  0.00000000000E+00 0.  1.
</event>
<event>
 7    1  0.7029100E-006  0.6525695E+02  0.7818608E-02  0.1481012E+00
          2   -1    0    0  502    0  0.00000000000E+00  0.00000000000E+00  0.55808954178E+01  0.55808954178E+01  0.00000000000E+00 0. -1.
          1   -1    0    0  501    0 -0.00000000000E+00 -0.00000000000E+00 -0.31320211648E+04  0.31320211648E+04  0.00000000000E+00 0. -1.
         25    2    1    2    0    0  0.87002520582E+02 -0.19312834852E+02 -0.17972539182E+04  0.18037987519E+04  0.12500346682E+03 0.  0.
          2    1    1    2  501    0 -0.57567383264E+02  0.16207700313E+02 -0.11901347755E+04  0.11916364702E+04  0.00000000000E+00 0. -1.
          1    1    1    2  502    0 -0.29435137317E+02  0.31051345387E+01 -0.13905157564E+03  0.14216683811E+03  0.00000000000E+00 0. -1.
         22    1    3    3    0    0  0.46197020940E+02  0.31304155369E+02 -0.30076805664E+03  0.30590119121E+03  0.00000000000E+00 0. -1.
         22    1    3    3    0    0  0.40805499641E+02 -0.50616990221E+02 -0.14964858616E+04  0.14978975607E+04  0.00000000000E+00 0. -1.
</event>
<event>
 7    1  0.7029100E-006  0.8151030E+02  0.7818608E-02  0.1335059E+00
          2   -1    0    0  502    0  0.00000000000E+00  0.00000000000E+00  0.26657109772E+04  0.26657109772E+04  0.00000000000E+00 0. -1.
          1   -1    0    0  501    0 -0.00000000000E+00 -0.00000000000E+00 -0.25373469531E+03  0.25373469531E+03  0.00000000000E+00 0. -1.
         25    2    1    2    0    0 -0.28369377085E+02  0.31337275756E+02  0.26394088277E+03  0.29508628161E+03  0.12499711031E+03 0.  0.
          2    1    1    2  501    0 -0.53579575144E+02 -0.51747479526E+02 -0.23157018134E+03  0.24325567084E+03  0.00000000000E+00 0. -1.
          1    1    1    2  502    0  0.81948952229E+02  0.20410203770E+02  0.23796055805E+04  0.23811037201E+04  0.00000000000E+00 0. -1.
         22    1    3    3    0    0 -0.20388310784E+02  0.38245232170E+02  0.14912192951E+02  0.45833988469E+02  0.00000000000E+00 0.  1.
         22    1    3    3    0    0 -0.79810663013E+01 -0.69079564134E+01  0.24902868982E+03  0.24925229314E+03  0.00000000000E+00 0.  1.
</event>
<event>
 7    1  0.7029100E-006  0.1781863E+03  0.7818608E-02  0.1285878E+00
          2   -1    0    0  502    0  0.00000000000E+00  0.00000000000E+00  0.45241291280E+03  0.45241291280E+03  0.00000000000E+00 0. -1.
          1   -1    0    0  501    0 -0.00000000000E+00 -0.00000000000E+00 -0.80701082215E+03  0.80701082215E+03  0.00000000000E+00 0. -1.
         25    2    1    2    0    0  0.93863396612E+02  0.10123402188E+03 -0.26231917615E+03  0.32170685829E+03  0.12500115234E+03 0.  0.
          2    1    1    2  501    0  0.53035828158E+02  0.45636809013E+01 -0.49412051799E+03  0.49697958967E+03  0.00000000000E+00 0. -1.
          1    1    1    2  502    0 -0.14689922477E+03 -0.10579770278E+03  0.40184178478E+03  0.44073728699E+03  0.00000000000E+00 0. -1.
         22    1    3    3    0    0  0.18931196294E+02  0.92358591737E+02 -0.20909870546E+03  0.22937037360E+03  0.00000000000E+00 0. -1.
         22    1    3    3    0    0  0.74932200318E+02  0.88754301462E+01 -0.53220470692E+02  0.92336484693E+02  0.00000000000E+00 0. -1.
</event>
<event>
 7    1  0.7029100E-006  0.1252829E+03  0.7818608E-02  0.1311542E+00
          2   -1    0    0  502    0  0.00000000000E+00  0.00000000000E+00  0.32817088719E+04  0.32817088719E+04  0.00000000000E+00 0. -1.
          1   -1    0    0  501    0 -0.00000000000E+00 -0.00000000000E+00 -0.36939720449E+03  0.36939720449E+03  0.00000000000E+00 0. -1.
         25    2    1    2    0    0 -0.12881543343E+03 -0.10949290979E+03 -0.59898637526E+02  0.21862181650E+03  0.12500215473E+03 0.  0.
          2    1    1    2  501    0  0.10377139148E+03  0.55266203139E+02 -0.21482295777E+03  0.24489131892E+03  0.00000000000E+00 0. -1.
          1    1    1    2  502    0  0.25044041953E+02  0.54226706650E+02  0.31870332627E+04  0.31875929409E+04  0.00000000000E+00 0. -1.
         22    1    3    3    0    0 -0.12145264236E+03 -0.93100396032E+02  0.31490150269E+01  0.15306320385E+03  0.00000000000E+00 0.  1.
         22    1    3    3    0    0 -0.73627910723E+01 -0.16392513757E+02 -0.63047652553E+02  0.65558612646E+02  0.00000000000E+00 0.  1.
</event>
<event>
 7    1  0.7029100E-006  0.6031402E+02  0.7818608E-02  0.1403633E+00
          2   -1    0    0  502    0  0.00000000000E+00  0.00000000000E+00  0.70688937545E+03  0.70688937545E+03  0.00000000000E+00 0. -1.
          1   -1    0    0  501    0 -0.00000000000E+00 -0.00000000000E+00 -0.12668571033E+03  0.12668571033E+03  0.00000000000E+00 0. -1.
         25    2    1    2    0    0 -0.11822503562E+02  0.33996185191E+02 -0.10394778134E+02  0.13049412032E+03  0.12500060731E+03 0.  0.
          2    1    1    2  501    0  0.68673851317E+02 -0.29736707236E+02 -0.29446519949E+02  0.80420564218E+02  0.00000000000E+00 0. -1.
          1    1    1    2  502    0 -0.56851347755E+02 -0.42594779550E+01  0.62004496320E+03  0.62266040125E+03  0.00000000000E+00 0. -1.
         22    1    3    3    0    0  0.45321958596E+02  0.18824230142E+02 -0.40972290965E+02  0.63930901749E+02  0.00000000000E+00 0.  1.
         22    1    3    3    0    0 -0.57144462158E+02  0.15171955049E+02  0.30577512831E+02  0.66563218569E+02  0.00000000000E+00 0.  1.
</event>
<event>
 7    1  0.7029100E-006  0.5077465E+02  0.7818608E-02  0.1545434E+00
          2   -1    0    0  502    0  0.00000000000E+00  0.00000000000E+00  0.17474549886E+04  0.17474549886E+04  0.00000000000E+00 0. -1.
          1   -1    0    0  501    0 -0.00000000000E+00 -0.00000000000E+00 -0.13880771812E+03  0.13880771812E+03  0.00000000000E+00 0. -1.
         25    2    1    2    0    0 -0.53627713227E+01  0.69890571344E+02 -0.62922059104E+02  0.15652071152E+03  0.12500438526E+03 0.  0.
          2    1    1    2  501    0  0.14386513019E+02 -0.19984129059E+02 -0.23426668948E+02  0.33987438696E+02  0.00000000000E+00 0. -1.
          1    1    1    2  502    0 -0.90237416961E+01 -0.49906442285E+02  0.16949959985E+04  0.16957545565E+04  0.00000000000E+00 0. -1.
         22    1    3    3    0    0 -0.27280744938E+02  0.88264808389E+02 -0.57134912532E+01  0.92561111848E+02  0.00000000000E+00 0.  1.
         22    1    3    3    0    0  0.21917973615E+02 -0.18374237045E+02 -0.57208567851E+02  0.63959599670E+02  0.00000000000E+00 0.  1.
</event>
<event>
 7    1  0.7029100E-006  0.1763820E+03  0.7818608E-02  0.1186269E+00
          2   -1    0    0  502    0  0.00000000000E+00  0.00000000000E+00  0.23589450724E+04  0.23589450724E+04  0.00000000000E+00 0. -1.
          1   -1    0    0  501    0 -0.00000000000E+00 -0.00000000000E+00 -0.13305447376E+04  0.13305447376E+04  0.00000000000E+00 0. -1.
         25    2    1    2    0    0  0.45884309125E+02 -0.68448070354E+02  0.73698521361E+02  0.16686161544E+03  0.12498327288E+03 0.  0.
          2    1    1    2  501    0 -0.10055612468E+03 -0.11009138973E+03 -0.12757201740E+04  0.12844039904E+04  0.00000000000E+00 0. -1.
          1    1    1    2  502    0  0.54671815558E+02  0.17853946008E+03  0.22304219874E+04  0.22382242042E+04  0.00000000000E+00 0. -1.
         22    1    3    3    0    0  0.75539124423E+02 -0.34234342054E+02  0.86474841929E+02  0.11981672580E+03  0.00000000000E+00 0. -1.
         22    1    3    3    0    0 -0.29654815298E+02 -0.34213728300E+02 -0.12776320568E+02  0.47044889646E+02  0.00000000000E+00 0. -1.
</event>
<event>
 7    1  0.7029100E-006  0.4492764E+02  0.7818608E-02  0.1533322E+00
          2   -1    0    0  502    0  0.00000000000E+00  0.00000000000E+00  0.72973474165E+03  0.72973474165E+03  0.00000000000E+00 0. -1.
          1   -1    0    0  501    0 -0.00000000000E+00 -0.00000000000E+00 -0.31837472705E+04  0.31837472705E+04  0.00000000000E+00 0. -1.
         25    2    1    2    0    0 -0.23589573749E+02  0.41626922636E+02 -0.21996185654E+03  0.25748353562E+03  0.12500113642E+03 0.  0.
          2    1    1    2  501    0  0.41486847198E+02 -0.17409331974E+02 -0.29445337830E+04  0.29448774919E+04  0.00000000000E+00 0. -1.
          1    1    1    2  502    0 -0.17897273449E+02 -0.24217590662E+02  0.71048311070E+03  0.71112098456E+03  0.00000000000E+00 0. -1.
         22    1    3    3    0    0  0.35075188661E+02 -0.26438859946E+02 -0.75976030177E+02  0.87758984363E+02  0.00000000000E+00 0.  1.
         22    1    3    3    0    0 -0.58664762410E+02  0.68065782582E+02 -0.14398582636E+03  0.16972455126E+03  0.00000000000E+00 0.  1.
</event>
<event>
 7    1  0.7029100E-006  0.5122991E+02  0.7818608E-02  0.1511260E+00
          2   -1    0    0  502    0  0.00000000000E+00  0.00000000000E+00  0.10640266671E+03  0.10640266671E+03  0.00000000000E+00 0. -1.
          1   -1    0    0  501    0 -0.00000000000E+00 -0.00000000000E+00 -0.89296370498E+03  0.89296370498E+03  0.00000000000E+00 0. -1.
         25    2    1    2    0    0 -0.14583418610E+02 -0.25757384718E+02 -0.22487821128E+03  0.25898182406E+03  0.12500102527E+03 0.  0.
          2    1    1    2  501    0  0.32244791310E+00  0.52822935022E+02 -0.64730721353E+03  0.64945900188E+03  0.00000000000E+00 0. -1.
          1    1    1    2  502    0  0.14260970696E+02 -0.27065550303E+02  0.85624386541E+02  0.90925545745E+02  0.00000000000E+00 0. -1.
         22    1    3    3    0    0 -0.38466024120E+02 -0.59007344602E+02 -0.19762282937E+03  0.20980058250E+03  0.00000000000E+00 0.  1.
         22    1    3    3    0    0  0.23882605510E+02  0.33249959884E+02 -0.27255381909E+02  0.49181241558E+02  0.00000000000E+00 0.  1.
</event>
<event>
 7    1  0.7029100E-006  0.9136544E+02  0.7818608E-02  0.1373610E+00
          2   -1    0    0  502    0  0.00000000000E+00  0.00000000000E+00  0.17153827171E+04  0.17153827171E+04  0.00000000000E+00 0. -1.
          1   -1    0    0  501    0 -0.00000000000E+00 -0.00000000000E+00 -0.63957435489E+02  0.63957435489E+02  0.00000000000E+00 0. -1.
         25    2    1    2    0    0  0.10116407410E+03  0.44113142238E+02  0.31642330727E+03  0.35767076523E+03  0.12499811081E+03 0.  0.
          2    1    1    2  501    0 -0.89928867938E+02  0.24795367987E+01  0.42592117885E+01  0.90063812247E+02  0.00000000000E+00 0. -1.
          1    1    1    2  502    0 -0.11235206159E+02 -0.46592679037E+02  0.13307427625E+04  0.13316055751E+04  0.00000000000E+00 0. -1.
         22    1    3    3    0    0 -0.12765250015E+02  0.34631851483E+02  0.24875558598E+02  0.44509663677E+02  0.00000000000E+00 0.  1.
         22    1    3    3    0    0  0.11392932411E+03  0.94812907550E+01  0.29154774867E+03  0.31316110155E+03  0.00000000000E+00 0.  1.
</event>
<event>
 7    1  0.7029100E-006  0.6233913E+02  0.7818608E-02  0.1389747E+00
          2   -1    0    0  502    0  0.00000000000E+00  0.00000000000E+00  0.69015209475E+03  0.69015209475E+03  0.00000000000E+00 0. -1.
          1   -1    0    0  501    0 -0.00000000000E+00 -0.00000000000E+00 -0.16786290888E+04  0.16786290888E+04  0.00000000000E+00 0. -1.
         25    2    1    2    0    0 -0.29390574369E+02 -0.26735481889E+02 -0.34730171157E+03  0.37124902158E+03  0.12501506034E+03 0.  0.
          2    1    1    2  501    0  0.53175890993E+02 -0.31099427404E+02 -0.13171907405E+04  0.13186304625E+04  0.00000000000E+00 0. -1.
          1    1    1    2  502    0 -0.23785316624E+02  0.57834909293E+02  0.67601545804E+03  0.67890169946E+03  0.00000000000E+00 0. -1.
         22    1    3    3    0    0  0.93256830475E+00  0.33335946630E+02 -0.25418320006E+03  0.25636156930E+03  0.00000000000E+00 0. -1.
         22    1    3    3    0    0 -0.30323142673E+02 -0.60071428519E+02 -0.93118511509E+02  0.11488745228E+03  0.00000000000E+00 0. -1.
</event>
<event>
 7    1  0.7029100E-006  0.3416015E+03  0.7818608E-02  0.1221122E+00
          2   -1    0    0  502    0  0.00000000000E+00  0.00000000000E+00  0.60802789268E+03  0.60802789268E+03  0.00000000000E+00 0. -1.
          1   -1    0    0  501    0 -0.00000000000E+00 -0.00000000000E+00 -0.14895021442E+04  0.14895021442E+04  0.00000000000E+00 0. -1.
         25    2    1    2    0    0 -0.27811703806E+03 -0.11985733885E+03  0.26028814054E+03  0.41843680123E+03  0.12499828793E+03 0.  0.
          2    1    1    2  501    0  0.32826399318E+03  0.10317474456E+03 -0.13865791455E+04  0.14286371141E+04  0.00000000000E+00 0. -1.
          1    1    1    2  502    0 -0.50146955124E+02  0.16682594292E+02  0.24481675342E+03  0.25045612153E+03  0.00000000000E+00 0. -1.
         22    1    3    3    0    0 -0.22960901696E+03 -0.13252517705E+03  0.16931712383E+03  0.31456559195E+03  0.00000000000E+00 0.  1.
         22    1    3    3    0    0 -0.48508021097E+02  0.12667838194E+02  0.90971016713E+02  0.10387120928E+03  0.00000000000E+00 0.  1.
</event>
<event>
 7    1  0.7029100E-006  0.6219118E+02  0.7818608E-02  0.1462678E+00
          2   -1    0    0  502    0  0.00000000000E+00  0.00000000000E+00  0.17231276096E+03  0.17231276096E+03  0.00000000000E+00 0. -1.
          1   -1    0    0  501    0 -0.00000000000E+00 -0.00000000000E+00 -0.46027471251E+03  0.46027471251E+03  0.00000000000E+00 0. -1.
         25    2    1    2    0    0  0.35012252327E+02 -0.19246687739E+02 -0.11268408083E+03  0.17297107984E+03  0.12499999835E+03 0.  0.
          2    1    1    2  501    0 -0.23999948195E+01 -0.35322798178E+02 -0.30927972808E+03  0.31129955067E+03  0.00000000000E+00 0. -1.
          1    1    1    2  502    0 -0.32612257507E+02  0.54569485917E+02  0.13400185735E+03  0.14831684296E+03  0.00000000000E+00 0. -1.
         22    1    3    3    0    0 -0.40861675905E+02 -0.41812903080E+01 -0.78087930389E+02  0.88231993171E+02  0.00000000000E+00 0.  1.
         22    1    3    3    0    0  0.75873928232E+02 -0.15065397431E+02 -0.34596150440E+02  0.84739086674E+02  0.00000000000E+00 0.  1.
</event>
<event>
 7    1  0.7029100E-006  0.6851835E+02  0.7818608E-02  0.1464113E+00
          2   -1    0    0  502    0  0.00000000000E+00  0.00000000000E+00  0.21979097974E+03  0.21979097974E+03  0.00000000000E+00 0. -1.
          1   -1    0    0  501    0 -0.00000000000E+00 -0.00000000000E+00 -0.56015100747E+03  0.56015100747E+03  0.00000000000E+00 0. -1.
         25    2    1    2    0    0  0.87318526675E+02  0.36986157763E+02 -0.26559419649E+03  0.30847704948E+03  0.12500124750E+03 0.  0.
          2    1    1    2  501    0 -0.61067620312E+02 -0.19032612553E+02 -0.26805279901E+03  0.27557902251E+03  0.00000000000E+00 0. -1.
          1    1    1    2  502    0 -0.26250906363E+02 -0.17953545210E+02  0.19328696777E+03  0.19588591522E+03  0.00000000000E+00 0. -1.
         22    1    3    3    0    0 -0.23436848439E+02  0.30182339105E+02 -0.11659990615E+03  0.12270206834E+03  0.00000000000E+00 0.  1.
         22    1    3    3    0    0  0.11075537511E+03  0.68038186576E+01 -0.14899429034E+03  0.18577498114E+03  0.00000000000E+00 0.  1.
</event>
<event>
 7    1  0.7029100E-006  0.7536833E+02  0.7818608E-02  0.1405220E+00
          2   -1    0    0  502    0  0.00000000000E+00  0.00000000000E+00  0.26689375265E+03  0.26689375265E+03  0.00000000000E+00 0. -1.
          1   -1    0    0  501    0 -0.00000000000E+00 -0.00000000000E+00 -0.18179300764E+04  0.18179300764E+04  0.00000000000E+00 0. -1.
         25    2    1    2    0    0  0.68174161939E+02 -0.34080088469E+02 -0.51864099754E+03  0.53890774312E+03  0.12499560988E+03 0.  0.
          2    1    1    2  501    0  0.65925610587E+01  0.44572351612E+02 -0.12832016740E+04  0.12839924815E+04  0.00000000000E+00 0. -1.
          1    1    1    2  502    0 -0.74766722998E+02 -0.10492263143E+02  0.25080634780E+03  0.26192360441E+03  0.00000000000E+00 0. -1.
         22    1    3    3    0    0  0.70200646011E+02 -0.49228781633E+02 -0.51638923949E+03  0.52345912000E+03  0.00000000000E+00 0. -1.
         22    1    3    3    0    0 -0.20264840724E+01  0.15148693164E+02 -0.22517580407E+01  0.15448623128E+02  0.00000000000E+00 0. -1.
</event>
<event>
 7    1  0.7029100E-006  0.5410762E+02  0.7818608E-02  0.1456539E+00
          2   -1    0    0  502    0  0.00000000000E+00  0.00000000000E+00  0.51695258639E+03  0.51695258639E+03  0.00000000000E+00 0. -1.
          1   -1    0    0  501    0 -0.00000000000E+00 -0.00000000000E+00 -0.71135119003E+02  0.71135119003E+02  0.00000000000E+00 0. -1.
         25    2    1    2    0    0 -0.39938048832E+02 -0.85137302884E+01  0.11817759031E+03  0.17679782074E+03  0.12499598082E+03 0.  0.
          2    1    1    2  501    0  0.29228048795E+02  0.49694080014E+02 -0.20024897518E+02  0.61030950717E+02  0.00000000000E+00 0. -1.
          1    1    1    2  502    0  0.10710000036E+02 -0.41180349726E+02  0.34766477460E+03  0.35025893393E+03  0.00000000000E+00 0. -1.
         22    1    3    3    0    0  0.18028955005E+02  0.35505878716E+02  0.22123575966E+01  0.39882391705E+02  0.00000000000E+00 0.  1.
         22    1    3    3    0    0 -0.57967003837E+02 -0.44019609004E+02  0.11596523271E+03  0.13691542904E+03  0.00000000000E+00 0.  1.
</event>
<event>
 7    1  0.7029100E-006  0.1147642E+03  0.7818608E-02  0.1291506E+00
          2   -1    0    0  502    0  0.00000000000E+00  0.00000000000E+00  0.81359494764E+03  0.81359494764E+03  0.00000000000E+00 0. -1.
          1   -1    0    0  501    0 -0.00000000000E+00 -0.00000000000E+00 -0.39343975167E+03  0.39343975167E+03  0.00000000000E+00 0. -1.
         25    2    1    2    0    0  0.16011279710E+02 -0.75260897204E+02  0.10348463749E+03  0.17959669075E+03  0.12500134962E+03 0.  0.
          2    1    1    2  501    0  0.78338122721E+02 -0.30568784731E+01 -0.34536057879E+03  0.35414705329E+03  0.00000000000E+00 0. -1.
          1    1    1    2  502    0 -0.94349402430E+02  0.78317775677E+02  0.66203113727E+03  0.67329095527E+03  0.00000000000E+00 0. -1.
         22    1    3    3    0    0 -0.36659444713E+02 -0.39419198615E+02  0.10261976271E+03  0.11588185278E+03  0.00000000000E+00 0.  1.
         22    1    3    3    0    0  0.52670724423E+02 -0.35841698589E+02  0.86487478170E+00  0.63714837968E+02  0.00000000000E+00 0.  1.
</event>
<event>
 7    1  0.7029100E-006  0.6165260E+02  0.7818608E-02  0.1403388E+00
          2   -1    0    0  502    0  0.00000000000E+00  0.00000000000E+00  0.29755660212E+04  0.29755660212E+04  0.00000000000E+00 0. -1.
          1   -1    0    0  501    0 -0.00000000000E+00 -0.00000000000E+00 -0.19423362749E+03  0.19423362749E+03  0.00000000000E+00 0. -1.
         25    2    1    2    0    0 -0.43062373675E+01  0.52747090554E+01  0.10405626985E+03  0.16278319444E+03  0.12499717941E+03 0.  0.
          2    1    1    2  501    0 -0.17713330869E+02  0.52999189604E+02 -0.15978334674E+03  0.16927313457E+03  0.00000000000E+00 0. -1.
          1    1    1    2  502    0  0.22019568237E+02 -0.58273898659E+02  0.28370594706E+04  0.28377433197E+04  0.00000000000E+00 0. -1.
         22    1    3    3    0    0  0.27526488437E+02 -0.52270017153E+02  0.55285103079E+02  0.80909238541E+02  0.00000000000E+00 0. -1.
         22    1    3    3    0    0 -0.31832725804E+02  0.57544726208E+02  0.48771166774E+02  0.81873955902E+02  0.00000000000E+00 0. -1.
</event>
<event>
 7    1  0.7029100E-006  0.1188097E+03  0.7818608E-02  0.1343100E+00
          2   -1    0    0  502    0  0.00000000000E+00  0.00000000000E+00  0.67142150603E+03  0.67142150603E+03  0.00000000000E+00 0. -1.
          1   -1    0    0  501    0 -0.00000000000E+00 -0.00000000000E+00 -0.14713803498E+03  0.14713803498E+03  0.00000000000E+00 0. -1.
         25    2    1    2    0    0 -0.60216038018E+02  0.14587408836E+03  0.11802338354E+03  0.23336593812E+03  0.12499968450E+03 0.  0.
          2    1    1    2  501    0  0.32544174560E+02 -0.34819281969E+02 -0.75907088062E+02  0.89629190071E+02  0.00000000000E+00 0. -1.
          1    1    1    2  502    0  0.27671863458E+02 -0.11105480639E+03  0.48216717558E+03  0.49556441282E+03  0.00000000000E+00 0. -1.
         22    1    3    3    0    0 -0.10272983274E+02 -0.23012934739E+02  0.14398788087E+02  0.29025065874E+02  0.00000000000E+00 0.  1.
         22    1    3    3    0    0 -0.49943054744E+02  0.16888702310E+03  0.10362459545E+03  0.20434087225E+03  0.00000000000E+00 0.  1.
</event>
<event>
 7    1  0.7029100E-006  0.5923562E+02  0.7818608E-02  0.1442951E+00
          2   -1    0    0  502    0  0.00000000000E+00  0.00000000000E+00  0.20109452911E+04  0.20109452911E+04  0.00000000000E+00 0. -1.
          1   -1    0    0  501    0 -0.00000000000E+00 -0.00000000000E+00 -0.10013065119E+04  0.10013065119E+04  0.00000000000E+00 0. -1.
         25    2    1    2    0    0  0.34398923567E+02 -0.82550066830E+01  0.59721438412E+02  0.14298152414E+03  0.12500253982E+03 0.  0.
          2    1    1    2  501    0 -0.30655836673E+02  0.51052262712E+02 -0.95851071666E+03  0.96035873912E+03  0.00000000000E+00 0. -1.
          1    1    1    2  502    0 -0.37430868939E+01 -0.42797256029E+02  0.19084280575E+04  0.19089115397E+04  0.00000000000E+00 0. -1.
         22    1    3    3    0    0  0.54484633369E+02 -0.49493746930E+01  0.90694754471E+02  0.10591794027E+03  0.00000000000E+00 0.  1.
         22    1    3    3    0    0 -0.20085709802E+02 -0.33056319900E+01 -0.30973316059E+02  0.37063583864E+02  0.00000000000E+00 0.  1.
</event>
<event>
 7    1  0.7029100E-006  0.8090597E+02  0.7818608E-02  0.1450633E+00
          2   -1    0    0  502    0  0.00000000000E+00  0.00000000000E+00  0.18910879034E+04  0.18910879034E+04  0.00000000000E+00 0. -1.
          1   -1    0    0  501    0 -0.00000000000E+00 -0.00000000000E+00 -0.24518170252E+03  0.24518170252E+03  0.00000000000E+00 0. -1.
         25    2    1    2    0    0  0.54704687553E+02 -0.42406026327E+02  0.11027162316E+03  0.18048782529E+03  0.12500060117E+03 0.  0.
          2    1    1    2  501    0 -0.78137050614E+02  0.24132246170E+02 -0.20198291797E+03  0.21791021806E+03  0.00000000000E+00 0. -1.
          1    1    1    2  502    0  0.23432363062E+02  0.18273780157E+02  0.17376174957E+04  0.17378715626E+04  0.00000000000E+00 0. -1.
         22    1    3    3    0    0 -0.14305022165E+01  0.41721881775E+02  0.32581400390E+02  0.52955730632E+02  0.00000000000E+00 0. -1.
         22    1    3    3    0    0  0.56135189769E+02 -0.84127908102E+02  0.77690222773E+02  0.12753209465E+03  0.00000000000E+00 0. -1.
</event>
<event>
 7    1  0.7029100E-006  0.2398167E+03  0.7818608E-02  0.1327949E+00
          2   -1    0    0  502    0  0.00000000000E+00  0.00000000000E+00  0.59937677728E+03  0.59937677728E+03  0.00000000000E+00 0. -1.
          1   -1    0    0  501    0 -0.00000000000E+00 -0.00000000000E+00 -0.99238603821E+03  0.99238603821E+03  0.00000000000E+00 0. -1.
         25    2    1    2    0    0 -0.59886207969E+02 -0.20730614274E+03 -0.29091565775E+03  0.38317048149E+03  0.12500201295E+03 0.  0.
          2    1    1    2  501    0 -0.14634210971E+02 -0.22627859005E+02 -0.62864061807E+03  0.62921793269E+03  0.00000000000E+00 0. -1.
          1    1    1    2  502    0  0.74520418940E+02  0.22993400174E+03  0.52654701490E+03  0.57937440131E+03  0.00000000000E+00 0. -1.
         22    1    3    3    0    0 -0.75933963160E+01 -0.14016934811E+03 -0.94800663401E+02  0.16938793227E+03  0.00000000000E+00 0. -1.
         22    1    3    3    0    0 -0.52292811653E+02 -0.67136794626E+02 -0.19611499435E+03  0.21378254922E+03  0.00000000000E+00 0. -1.
</event>
<event>
 7    1  0.7029100E-006  0.7685034E+02  0.7818608E-02  0.1350342E+00
          2   -1    0    0  502    0  0.00000000000E+00  0.00000000000E+00  0.35559598705E+04  0.35559598705E+04  0.00000000000E+00 0. -1.
          1   -1    0    0  501    0 -0.00000000000E+00 -0.00000000000E+00 -0.10361635458E+04  0.10361635458E+04  0.00000000000E+00 0. -1.
         25    2    1    2    0    0 -0.88054486115E+02 -0.10017896615E+03  0.26642240864E+03  0.32310352928E+03  0.12500229206E+03 0.  0.
          2    1    1    2  501    0  0.24544224855E+02  0.72583785162E+02 -0.10059983927E+04  0.10089120829E+04  0.00000000000E+00 0. -1.
          1    1    1    2  502    0  0.63510261260E+02  0.27595180993E+02  0.32593723087E+04  0.32601078041E+04  0.00000000000E+00 0. -1.
         22    1    3    3    0    0 -0.89557091188E+02 -0.10214636053E+03  0.27898388677E+03  0.31030043608E+03  0.00000000000E+00 0.  1.
         22    1    3    3    0    0  0.15026050729E+01  0.19673943707E+01 -0.12561478132E+02  0.12803093200E+02  0.00000000000E+00 0.  1.
</event>
<event>
 7    1  0.7029100E-006  0.8641102E+02  0.7818608E-02  0.1351468E+00
          2   -1    0    0  502    0  0.00000000000E+00  0.00000000000E+00  0.20703141205E+04  0.20703141205E+04  0.00000000000E+00 0. -1.
          1   -1    0    0  501    0 -0.00000000000E+00 -0.00000000000E+00 -0.33077427992E+02  0.33077427992E+02  0.00000000000E+00 0. -1.
         25    2    1    2    0    0  0.81404519245E+02  0.58976840406E+02  0.39444157686E+03  0.42580844056E+03  0.12499482804E+03 0.  0.
          2    1    1    2  501    0 -0.25367979176E+02 -0.83070676215E+02  0.95519165763E+02  0.12910531609E+03  0.00000000000E+00 0. -1.
          1    1    1    2  502    0 -0.56036540069E+02  0.24093835809E+02  0.15472759499E+04  0.15484777919E+04  0.00000000000E+00 0. -1.
         22    1    3    3    0    0  0.17869390416E+02  0.88280737310E+02  0.20767821940E+03  0.22636927024E+03  0.00000000000E+00 0.  1.
         22    1    3    3    0    0  0.63535128829E+02 -0.29303896904E+02  0.18676335746E+03  0.19943917032E+03  0.00000000000E+00 0.  1.
</event>
<event>
 7    1  0.7029100E-006  0.9367461E+02  0.7818608E-02  0.1318125E+00
          2   -1    0    0  502    0  0.00000000000E+00  0.00000000000E+00  0.35546961539E+03  0.35546961539E+03  0.00000000000E+00 0. -1.
          1   -1    0    0  501    0 -0.00000000000E+00 -0.00000000000E+00 -0.20816870204E+03  0.20816870204E+03  0.00000000000E+00 0. -1.
         25    2    1    2    0    0  0.35638101083E+02 -0.83232211668E+02  0.11069295677E+03  0.18993654248E+03  0.12500113673E+03 0.  0.
          2    1    1    2  501    0  0.39488068500E+02  0.88142380577E+02 -0.14664086662E+03  0.17559023484E+03  0.00000000000E+00 0. -1.
          1    1    1    2  502    0 -0.75126169583E+02 -0.49101689092E+01  0.18324882320E+03  0.19811154010E+03  0.00000000000E+00 0. -1.
         22    1    3    3    0    0  0.53601293118E+02  0.12434091988E+02  0.54965515621E+02  0.77774759241E+02  0.00000000000E+00 0.  1.
         22    1    3    3    0    0 -0.17963192035E+02 -0.95666303655E+02  0.55727441150E+02  0.11216178324E+03  0.00000000000E+00 0.  1.
</event>
<event>
 7    1  0.7029100E-006  0.1108089E+03  0.7818608E-02  0.1261329E+00
          2   -1    0    0  502    0  0.00000000000E+00  0.00000000000E+00  0.26584382638E+04  0.26584382638E+04  0.00000000000E+00 0. -1.
          1   -1    0    0  501    0 -0.00000000000E+00 -0.00000000000E+00 -0.14871120230E+03  0.14871120230E+03  0.00000000000E+00 0. -1.
         25    2    1    2    0    0  0.83214465883E+01 -0.87526724192E+02  0.89855678523E+03  0.91145851035E+03  0.12498858300E+03 0.  0.
          2    1    1    2  501    0  0.96137202472E+02  0.58610122827E+02 -0.11801590461E+03  0.16311119501E+03  0.00000000000E+00 0. -1.
          1    1    1    2  502    0 -0.10445864906E+03  0.28916601365E+02  0.17291861809E+04  0.17325797608E+04  0.00000000000E+00 0. -1.
         22    1    3    3    0    0 -0.50777573810E+02 -0.40719361831E+02  0.60041699227E+03  0.60393459334E+03  0.00000000000E+00 0. -1.
         22    1    3    3    0    0  0.59099020398E+02 -0.46807362361E+02  0.29813979296E+03  0.30752391700E+03  0.00000000000E+00 0. -1.
</event>
<event>
 7    1  0.7029100E-006  0.5951022E+02  0.7818608E-02  0.1402138E+00
          2   -1    0    0  502    0  0.00000000000E+00  0.00000000000E+00  0.11604000980E+03  0.11604000980E+03  0.00000000000E+00 0. -1.
          1   -1    0    0  501    0 -0.00000000000E+00 -0.00000000000E+00 -0.12818109663E+04  0.12818109663E+04  0.00000000000E+00 0. -1.
         25    2    1    2    0    0 -0.49534081163E+02 -0.66279915783E+02 -0.86831456016E+03  0.88115503495E+03  0.12496946747E+03 0.  0.
          2    1    1    2  501    0  0.57999638185E+02  0.73684101397E+01 -0.39669403058E+03  0.40097930793E+03  0.00000000000E+00 0. -1.
          1    1    1    2  502    0 -0.84655570226E+01  0.58911505644E+02  0.99237634237E+02  0.11571663321E+03  0.00000000000E+00 0. -1.
         22    1    3    3    0    0  0.14715253696E+02  0.10550506478E+02 -0.20119796063E+02  0.27067657304E+02  0.00000000000E+00 0.  1.
         22    1    3    3    0    0 -0.64249334859E+02 -0.76830422262E+02 -0.84819476409E+03  0.85408737764E+03  0.00000000000E+00 0.  1.
</event>
<event>
 7    1  0.7029100E-006  0.1052689E+03  0.7818608E-02  0.1374440E+00
          2   -1    0    0  502    0  0.00000000000E+00  0.00000000000E+00  0.16145833700E+04  0.16145833700E+04  0.00000000000E+00 0. -1.
          1   -1    0    0  501    0 -0.00000000000E+00 -0.00000000000E+00 -0.10078262681E+04  0.10078262681E+04  0.00000000000E+00 0. -1.
         25    2    1    2    0    0  0.37311003123E+02 -0.55817572937E+02 -0.48060045947E+02  0.14979432170E+03  0.12498343248E+03 0.  0.
          2    1    1    2  501    0  0.35426240579E+02 -0.21257886753E+02 -0.90663249763E+03  0.90757335904E+03  0.00000000000E+00 0. -1.
          1    1    1    2  502    0 -0.72737243702E+02  0.77075459690E+02  0.15614496455E+04  0.15650419574E+04  0.00000000000E+00 0. -1.
         22    1    3    3    0    0  0.18861087710E+02 -0.41580020007E+02  0.38765906315E+02  0.59895193345E+02  0.00000000000E+00 0. -1.
         22    1    3    3    0    0  0.18449915412E+02 -0.14237552930E+02 -0.86825952262E+02  0.89899128352E+02  0.00000000000E+00 0. -1.
</event>
<event>
 7    1  0.7029100E-006  0.9618637E+02  0.7818608E-02  0.1451895E+00
          2   -1    0    0  502    0  0.00000000000E+00  0.00000000000E+00  0.14763956336E+04  0.14763956336E+04  0.00000000000E+00 0. -1.
          1   -1    0    0  501    0 -0.00000000000E+00 -0.00000000000E+00 -0.39137638051E+02  0.39137638051E+02  0.00000000000E+00 0. -1.
         25    2    1    2    0    0 -0.55521799090E+02  0.72406212013E+02  0.48056910453E+03  0.50487249904E+03  0.12499698535E+03 0.  0.
          2    1    1    2  501    0  0.76926723842E+02 -0.59953280525E+02  0.61869341356E+02  0.11549862374E+03  0.00000000000E+00 0. -1.
          1    1    1    2  502    0 -0.21404924752E+02 -0.12452931488E+02  0.89481954969E+03  0.89516214890E+03  0.00000000000E+00 0. -1.
         22    1    3    3    0    0 -0.23068666140E+02 -0.19943711765E+02  0.26586592296E+02  0.40456913950E+02  0.00000000000E+00 0.  1.
         22    1    3    3    0    0 -0.32453132950E+02  0.92349923778E+02  0.45398251223E+03  0.46441558509E+03  0.00000000000E+00 0.  1.
</event>
<event>
 7    1  0.7029100E-006  0.1370946E+03  0.7818608E-02  0.1309084E+00
          2   -1    0    0  502    0  0.00000000000E+00  0.00000000000E+00  0.36734101650E+03  0.36734101650E+03  0.00000000000E+00 0. -1.
          1   -1    0    0  501    0 -0.00000000000E+00 -0.00000000000E+00 -0.20471341945E+03  0.20471341945E+03  0.00000000000E+00 0. -1.
         25    2    1    2    0    0 -0.32273499327E+02  0.17837949267E+03  0.68184017608E+02  0.23050909638E+03  0.12499824436E+03 0.  0.
          2    1    1    2  501    0  0.33918923469E+02 -0.12258935562E+03 -0.85422968446E+02  0.15321790698E+03  0.00000000000E+00 0. -1.
          1    1    1    2  502    0 -0.16454241416E+01 -0.55790137052E+02  0.17986654789E+03  0.18832743258E+03  0.00000000000E+00 0. -1.
         22    1    3    3    0    0  0.74535016216E+01  0.41749850011E+02 -0.34802152618E+02  0.54861593936E+02  0.00000000000E+00 0.  1.
         22    1    3    3    0    0 -0.39727000949E+02  0.13662964266E+03  0.10298617023E+03  0.17564750245E+03  0.00000000000E+00 0.  1.
</event>
<event>
 7    1  0.7029100E-006  0.1017958E+03  0.7818608E-02  0.1290268E+00
          2   -1    0    0  502    0  0.00000000000E+00  0.00000000000E+00  0.86561146301E+03  0.86561146301E+03  0.00000000000E+00 0. -1.
          1   -1    0    0  501    0 -0.00000000000E+00 -0.00000000000E+00 -0.41544631869E+04  0.41544631869E+04  0.00000000000E+00 0. -1.
         25    2    1    2    0    0  0.18301156346E+03 -0.78686788164E+00 -0.15243203661E+04  0.15403478746E+04  0.12500057963E+03 0.  0.
          2    1    1    2  501    0 -0.85236733960E+02 -0.27009902314E+02 -0.26183511898E+04  0.26198774378E+04  0.00000000000E+00 0. -1.
          1    1    1    2  502    0 -0.97774829500E+02  0.27796770196E+02  0.85381983201E+03  0.85984933753E+03  0.00000000000E+00 0. -1.
         22    1    3    3    0    0  0.17804068939E+03  0.68249823909E+01 -0.15197756425E+04  0.15301839991E+04  0.00000000000E+00 0.  1.
         22    1    3    3    0    0  0.49708740731E+01 -0.76118502725E+01 -0.45447235417E+01  0.10163875525E+02  0.00000000000E+00 0.  1.
</event>
<event>
 7    1  0.7029100E-006  0.9488188E+02  0.7818608E-02  0.1402300E+00
          2   -1    0    0  502    0  0.00000000000E+00  0.00000000000E+00  0.76639312136E+03  0.76639312136E+03  0.00000000000E+00 0. -1.
          1   -1    0    0  501    0 -0.00000000000E+00 -0.00000000000E+00 -0.29030264226E+03  0.29030264226E+03  0.00000000000E+00 0. -1.
         25    2    1    2    0    0  0.27023365067E+02  0.11825108333E+03  0.15299454171E+03  0.23183470330E+03  0.12500567543E+03 0.  0.
          2    1    1    2  501    0 -0.26144422665E+02 -0.25646118153E+02 -0.24578139622E+03  0.24849496764E+03  0.00000000000E+00 0. -1.
          1    1    1    2  502    0 -0.87894240221E+00 -0.92604965177E+02  0.56887733360E+03  0.57636609268E+03  0.00000000000E+00 0. -1.
         22    1    3    3    0    0  0.77065852680E+02  0.76914394205E+02  0.88207639460E+02  0.14012693297E+03  0.00000000000E+00 0.  1.
         22    1    3    3    0    0 -0.50042487613E+02  0.41336689125E+02  0.64786902254E+02  0.91707770325E+02  0.00000000000E+00 0.  1.
</event>
<event>
 7    1  0.7029100E-006  0.1845736E+03  0.7818608E-02  0.1272113E+00
          2   -1    0    0  502    0  0.00000000000E+00  0.00000000000E+00  0.58200171534E+03  0.58200171534E+03  0.00000000000E+00 0. -1.
          1   -1    0    0  501    0 -0.00000000000E+00 -0.00000000000E+00 -0.34092571952E+03  0.34092571952E+03  0.00000000000E+00 0. -1.
         25    2    1    2    0    0  0.20188707100E+02 -0.18866358550E+03 -0.12550132583E+03  0.25956967083E+03  0.12499719534E+03 0.  0.
          2    1    1    2  501    0 -0.75146737399E+02  0.16834380504E+03 -0.88518959687E+02  0.20450495119E+03  0.00000000000E+00 0. -1.
          1    1    1    2  502    0  0.54958030299E+02  0.20319780464E+02  0.45509628133E+03  0.45885281284E+03  0.00000000000E+00 0. -1.
         22    1    3    3    0    0  0.24153075239E+01  0.16104838105E+02 -0.27273806805E+02  0.31765705698E+02  0.00000000000E+00 0.  1.
         22    1    3    3    0    0  0.17773399576E+02 -0.20476842361E+03 -0.98227519023E+02  0.22780396514E+03  0.00000000000E+00 0.  1.
</event>
<event>
 7    1  0.7029100E-006  0.1190810E+03  0.7818608E-02  0.1307872E+00
          2   -1    0    0  502    0  0.00000000000E+00  0.00000000000E+00  0.17867221628E+04  0.17867221628E+04  0.00000000000E+00 0. -1.
          1   -1    0    0  501    0 -0.00000000000E+00 -0.00000000000E+00 -0.14161128159E+04  0.14161128159E+04  0.00000000000E+00 0. -1.
         25    2    1    2    0    0  0.11518606397E+03 -0.14776486370E+02 -0.12270816777E+04  0.12388872645E+04  0.12500414626E+03 0.  0.
          2    1    1    2  501    0 -0.12153144765E+03  0.79435985661E+02 -0.15365344233E+03  0.21139855469E+03  0.00000000000E+00 0. -1.
          1    1    1    2  502    0  0.63453836800E+01 -0.64659499291E+02  0.17513444669E+04  0.17525491595E+04  0.00000000000E+00 0. -1.
         22    1    3    3    0    0  0.31195734329E+02 -0.47981925185E+02 -0.81583689773E+03  0.81784184454E+03  0.00000000000E+00 0. -1.
         22    1    3    3    0    0  0.83990329637E+02  0.33205438815E+02 -0.41124477995E+03  0.42104541997E+03  0.00000000000E+00 0. -1.
</event>
<event>
 7    1  0.7029100E-006  0.6468593E+02  0.7818608E-02  0.1425760E+00
          2   -1    0    0  502    0  0.00000000000E+00  0.00000000000E+00  0.11945829996E+04  0.11945829996E+04  0.00000000000E+00 0. -1.
          1   -1    0    0  501    0 -0.00000000000E+00 -0.00000000000E+00 -0.94822114460E+02  0.94822114460E+02  0.00000000000E+00 0. -1.
         25    2    1    2    0    0  0.21283444243E+02  0.56452128541E+02  0.34563034280E+03  0.37245816155E+03  0.12499968171E+03 0.  0.
          2    1    1    2  501    0 -0.44392303146E+02  0.58817001995E+01 -0.73815329119E+02  0.86336398980E+02  0.00000000000E+00 0. -1.
          1    1    1    2  502    0  0.23108858903E+02 -0.62333828741E+02  0.82794587150E+03  0.83061055357E+03  0.00000000000E+00 0. -1.
         22    1    3    3    0    0  0.12744367294E+02  0.92970859279E+02  0.29421597538E+03  0.30881878139E+03  0.00000000000E+00 0. -1.
         22    1    3    3    0    0  0.85390769481E+01 -0.36518730738E+02  0.51414367428E+02  0.63639380166E+02  0.00000000000E+00 0. -1.
</event>
<event>
 7    1  0.7029100E-006  0.4725716E+02  0.7818608E-02  0.1492687E+00
          2   -1    0    0  502    0  0.00000000000E+00  0.00000000000E+00  0.87575863931E+02  0.87575863931E+02  0.00000000000E+00 0. -1.
          1   -1    0    0  501    0 -0.00000000000E+00 -0.00000000000E+00 -0.39333202218E+03  0.39333202218E+03  0.00000000000E+00 0. -1.
         25    2    1    2    0    0  0.21897370910E+02  0.36447027413E+01 -0.65282267290E+02  0.14276242657E+03  0.12500622907E+03 0.  0.
          2    1    1    2  501    0 -0.38729770075E+02  0.30051205949E+02 -0.27958267993E+03  0.28384774965E+03  0.00000000000E+00 0. -1.
          1    1    1    2  502    0  0.16832399165E+02 -0.33695908690E+02  0.39108788968E+02  0.54297709884E+02  0.00000000000E+00 0. -1.
         22    1    3    3    0    0 -0.75602735392E+01  0.51527847504E+02 -0.68968469164E+02  0.86422951484E+02  0.00000000000E+00 0.  1.
         22    1    3    3    0    0  0.29457644449E+02 -0.47883144763E+02  0.36862018741E+01  0.56339475088E+02  0.00000000000E+00 0.  1.
</event>
<event>
 7    1  0.7029100E-006  0.5067763E+02  0.7818608E-02  0.1540698E+00
          2   -1    0    0  502    0  0.00000000000E+00  0.00000000000E+00  0.15609953480E+03  0.15609953480E+03  0.00000000000E+00 0. -1.
          1   -1    0    0  501    0 -0.00000000000E+00 -0.00000000000E+00 -0.10404109042E+04  0.10404109042E+04  0.00000000000E+00 0. -1.
         25    2    1    2    0    0  0.11975253356E+02 -0.63760908262E+02 -0.12878584500E+03  0.19083841925E+03  0.12499859309E+03 0.  0.
          2    1    1    2  501    0 -0.26537438986E+02  0.42900770924E+02 -0.87857409112E+03  0.88002110508E+03  0.00000000000E+00 0. -1.
          1    1    1    2  502    0  0.14562185630E+02  0.20860137337E+02  0.12304856673E+03  0.12565091465E+03  0.00000000000E+00 0. -1.
         22    1    3    3    0    0  0.30190301171E+02 -0.95664546159E+02 -0.11227401699E+03  0.15056099949E+03  0.00000000000E+00 0. -1.
         22    1    3    3    0    0 -0.18215047815E+02  0.31903637898E+02 -0.16511828010E+02  0.40277419757E+02  0.00000000000E+00 0. -1.
</event>
<event>
 7    1  0.7029100E-006  0.1082277E+03  0.7818608E-02  0.1313627E+00
          2   -1    0    0  502    0  0.00000000000E+00  0.00000000000E+00  0.86133691198E+02  0.86133691198E+02  0.00000000000E+00 0. -1.
          1   -1    0    0  501    0 -0.00000000000E+00 -0.00000000000E+00 -0.41131740674E+03  0.41131740674E+03  0.00000000000E+00 0. -1.
         25    2    1    2    0    0  0.53401869941E+02 -0.15048581363E+03 -0.18444468088E+03  0.27412236441E+03  0.12500196218E+03 0.  0.
          2    1    1    2  501    0 -0.30805387589E+02  0.60456350939E+02 -0.10253382415E+03  0.12295172780E+03  0.00000000000E+00 0. -1.
          1    1    1    2  502    0 -0.22596482352E+02  0.90029462695E+02 -0.38205210513E+02  0.10037700572E+03  0.00000000000E+00 0. -1.
         22    1    3    3    0    0  0.91624251322E+02 -0.10065492430E+03 -0.10006178354E+03  0.16893424088E+03  0.00000000000E+00 0.  1.
         22    1    3    3    0    0 -0.38222381381E+02 -0.49830889337E+02 -0.84382897333E+02  0.10518812353E+03  0.00000000000E+00 0.  1.
</event>
<event>
 7    1  0.7029100E-006  0.5577146E+02  0.7818608E-02  0.1435222E+00
          2   -1    0    0  502    0  0.00000000000E+00  0.00000000000E+00  0.19522164135E+03  0.19522164135E+03  0.00000000000E+00 0. -1.
          1   -1    0    0  501    0 -0.00000000000E+00 -0.00000000000E+00 -0.87268389808E+03  0.87268389808E+03  0.00000000000E+00 0. -1.
         25    2    1    2    0    0  0.10450040107E+02  0.11421408573E+02 -0.23161036424E+03  0.26364410351E+03  0.12500080232E+03 0.  0.
          2    1    1    2  501    0  0.46061608141E+02 -0.14683874662E+02 -0.61962141324E+03  0.62150461275E+03  0.00000000000E+00 0. -1.
          1    1    1    2  502    0 -0.56511648247E+02  0.32624660892E+01  0.17376952075E+03  0.18275682317E+03  0.00000000000E+00 0. -1.
         22    1    3    3    0    0 -0.22195465434E+02 -0.47323121442E+02 -0.14422193697E+03  0.15340170668E+03  0.00000000000E+00 0. -1.
         22    1    3    3    0    0  0.32645505541E+02  0.58744530015E+02 -0.87388427266E+02  0.11024239683E+03  0.00000000000E+00 0. -1.
</event>
<event>
 7    1  0.7029100E-006  0.1039795E+03  0.7818608E-02  0.1351797E+00
          2   -1    0    0  502    0  0.00000000000E+00  0.00000000000E+00  0.16435346371E+04  0.16435346371E+04  0.00000000000E+00 0. -1.
          1   -1    0    0  501    0 -0.00000000000E+00 -0.00000000000E+00 -0.25805865294E+03  0.25805865294E+03  0.00000000000E+00 0. -1.
         25    2    1    2    0    0  0.14834694900E+03  0.24191634864E+02  0.20061765639E+03  0.28011532105E+03  0.12500038623E+03 0.  0.
          2    1    1    2  501    0 -0.46584504056E+02 -0.19623222452E+02 -0.21350602142E+03  0.21940831356E+03  0.00000000000E+00 0. -1.
          1    1    1    2  502    0 -0.10176244495E+03 -0.45684124121E+01  0.13983643491E+04  0.14020696554E+04  0.00000000000E+00 0. -1.
         22    1    3    3    0    0  0.10428938643E+03  0.72456216726E+02  0.10764823437E+03  0.16647618997E+03  0.00000000000E+00 0. -1.
         22    1    3    3    0    0  0.44057562567E+02 -0.48264581862E+02  0.92969422017E+02  0.11363913108E+03  0.00000000000E+00 0. -1.
</event>
<event>
 7    1  0.7029100E-006  0.1516345E+03  0.7818608E-02  0.1257514E+00
          2   -1    0    0  502    0  0.00000000000E+00  0.00000000000E+00  0.20411107322E+03  0.20411107322E+03  0.00000000000E+00 0. -1.
          1   -1    0    0  501    0 -0.00000000000E+00 -0.00000000000E+00 -0.20067990975E+04  0.20067990975E+04  0.00000000000E+00 0. -1.
         25    2    1    2    0    0 -0.63206803724E+02 -0.87185394266E+02 -0.11450889985E+03  0.20083274181E+03  0.12500043612E+03 0.  0.
          2    1    1    2  501    0  0.16877482914E+02  0.15512664985E+03 -0.18350924934E+04  0.18417148494E+04  0.00000000000E+00 0. -1.
          1    1    1    2  502    0  0.46329320810E+02 -0.67941255588E+02  0.14691336903E+03  0.16836257951E+03  0.00000000000E+00 0. -1.
         22    1    3    3    0    0 -0.11002389705E+02  0.32549707755E+02 -0.24734293656E+02  0.42335816241E+02  0.00000000000E+00 0.  1.
         22    1    3    3    0    0 -0.52204414019E+02 -0.11973510202E+03 -0.89774606192E+02  0.15849692557E+03  0.00000000000E+00 0.  1.
</event>
<event>
 7    1  0.7029100E-006  0.5725102E+02  0.7818608E-02  0.1542835E+00
          2   -1    0    0  502    0  0.00000000000E+00  0.00000000000E+00  0.31721389027E+03  0.31721389027E+03  0.00000000000E+00 0. -1.
          1   -1    0    0  501    0 -0.00000000000E+00 -0.00000000000E+00 -0.51174664806E+03  0.51174664806E+03  0.00000000000E+00 0. -1.
         25    2    1    2    0    0  0.65206447818E+02 -0.64386295723E+01 -0.32999297618E+01  0.14117518267E+03  0.12500482342E+03 0.  0.
          2    1    1    2  501    0 -0.51778898930E+02  0.24128672969E+02 -0.43715038075E+03  0.44086698972E+03  0.00000000000E+00 0. -1.
          1    1    1    2  502    0 -0.13427548887E+02 -0.17690043397E+02  0.24591755272E+03  0.24691836595E+03  0.00000000000E+00 0. -1.
         22    1    3    3    0    0  0.51161595939E+02 -0.63778036249E+02 -0.67436796523E+01  0.82040380436E+02  0.00000000000E+00 0.  1.
         22    1    3    3    0    0  0.14044851878E+02  0.57339406677E+02  0.34437498905E+01  0.59134802237E+02  0.00000000000E+00 0.  1.
</event>
<event>
 7    1  0.7029100E-006  0.5457058E+02  0.7818608E-02  0.1441977E+00
          2   -1    0    0  502    0  0.00000000000E+00  0.00000000000E+00  0.26598086320E+03  0.26598086320E+03  0.00000000000E+00 0. -1.
          1   -1    0    0  501    0 -0.00000000000E+00 -0.00000000000E+00 -0.51788895133E+03  0.51788895133E+03  0.00000000000E+00 0. -1.
         25    2    1    2    0    0 -0.38169821488E+02 -0.28609746955E+02 -0.66879149803E+02  0.14957671715E+03  0.12499968297E+03 0.  0.
          2    1    1    2  501    0 -0.14876236951E+02  0.44554780677E+02 -0.40486775098E+03  0.40758352112E+03  0.00000000000E+00 0. -1.
          1    1    1    2  502    0  0.53046058439E+02 -0.15945033722E+02  0.21983881266E+03  0.22670957626E+03  0.00000000000E+00 0. -1.
         22    1    3    3    0    0 -0.70558866066E+02  0.63103903266E+01 -0.72803662352E+02  0.10158123773E+03  0.00000000000E+00 0.  1.
         22    1    3    3    0    0  0.32389044578E+02 -0.34920137281E+02  0.59245125490E+01  0.47995479426E+02  0.00000000000E+00 0.  1.
</event>
<event>
 7    1  0.7029100E-006  0.1036463E+03  0.7818608E-02  0.1337939E+00
          2   -1    0    0  502    0  0.00000000000E+00  0.00000000000E+00  0.45395303805E+03  0.45395303805E+03  0.00000000000E+00 0. -1.
          1   -1    0    0  501    0 -0.00000000000E+00 -0.00000000000E+00 -0.40765816289E+04  0.40765816289E+04  0.00000000000E+00 0. -1.
         25    2    1    2    0    0  0.46774323880E+02 -0.11744520987E+02 -0.12968716366E+03  0.18646696162E+03  0.12500158483E+03 0.  0.
          2    1    1    2  501    0 -0.10368680074E+03  0.16712634713E+02 -0.39158800244E+04  0.39172881730E+04  0.00000000000E+00 0. -1.
          1    1    1    2  502    0  0.56912476859E+02 -0.49681137254E+01  0.42293859723E+03  0.42677953232E+03  0.00000000000E+00 0. -1.
         22    1    3    3    0    0  0.73244903457E+02 -0.81004995217E+01 -0.24071013776E+02  0.77523207358E+02  0.00000000000E+00 0. -1.
         22    1    3    3    0    0 -0.26470579577E+02 -0.36440214655E+01 -0.10561614989E+03  0.10894375426E+03  0.00000000000E+00 0. -1.
</event>
<event>
 7    1  0.7029100E-006  0.8712284E+02  0.7818608E-02  0.1385533E+00
          2   -1    0    0  502    0  0.00000000000E+00  0.00000000000E+00  0.21940507073E+04  0.21940507073E+04  0.00000000000E+00 0. -1.
          1   -1    0    0  501    0 -0.00000000000E+00 -0.00000000000E+00 -0.51464602185E+03  0.51464602185E+03  0.00000000000E+00 0. -1.
         25    2    1    2    0    0  0.59679917818E+02  0.65050280210E+02  0.27168472202E+03  0.31181908318E+03  0.12500128364E+03 0.  0.
          2    1    1    2  501    0  0.23935465506E+02 -0.38815124172E+02 -0.49251569335E+03  0.49462230901E+03  0.00000000000E+00 0. -1.
          1    1    1    2  502    0 -0.83615383324E+02 -0.26235156039E+02  0.19002356568E+04  0.19022553370E+04  0.00000000000E+00 0. -1.
         22    1    3    3    0    0 -0.83513878039E+01  0.21358720197E+02  0.20702367366E+03  0.20829004312E+03  0.00000000000E+00 0.  1.
         22    1    3    3    0    0  0.68031305622E+02  0.43691560013E+02  0.64661048357E+02  0.10352904006E+03  0.00000000000E+00 0.  1.
</event>
<event>
 7    1  0.7029100E-006  0.2457071E+03  0.7818608E-02  0.1240190E+00
          2   -1    0    0  502    0  0.00000000000E+00  0.00000000000E+00  0.58282485542E+03  0.58282485542E+03  0.00000000000E+00 0. -1.
          1   -1    0    0  501    0 -0.00000000000E+00 -0.00000000000E+00 -0.43563438687E+03  0.43563438687E+03  0.00000000000E+00 0. -1.
         25    2    1    2    0    0  0.43565286692E+02  0.26092637763E+03  0.24153448156E+03  0.37940073738E+03  0.12500201993E+03 0.  0.
          2    1    1    2  501    0  0.14241768723E+02 -0.24356665158E+03 -0.32174072019E+03  0.40378785614E+03  0.00000000000E+00 0. -1.
          1    1    1    2  502    0 -0.57807055415E+02 -0.17359726057E+02  0.22739670717E+03  0.23527064878E+03  0.00000000000E+00 0. -1.
         22    1    3    3    0    0  0.39198276943E+02  0.11903484713E+03  0.19153970699E+03  0.22889573849E+03  0.00000000000E+00 0. -1.
         22    1    3    3    0    0  0.43670097489E+01  0.14189153051E+03  0.49994774571E+02  0.15050499888E+03  0.00000000000E+00 0. -1.
</event>
<event>
 7    1  0.7029100E-006  0.7500557E+02  0.7818608E-02  0.1433506E+00
          2   -1    0    0  502    0  0.00000000000E+00  0.00000000000E+00  0.13130820827E+04  0.13130820827E+04  0.00000000000E+00 0. -1.
          1   -1    0    0  501    0 -0.00000000000E+00 -0.00000000000E+00 -0.53239758078E+03  0.53239758078E+03  0.00000000000E+00 0. -1.
         25    2    1    2    0    0 -0.36173369841E+02 -0.42273345868E+02  0.13306106668E+03  0.19085174910E+03  0.12499437673E+03 0.  0.
          2    1    1    2  501    0  0.17328239615E+02  0.73433739709E+02 -0.50038531364E+03  0.50604174148E+03  0.00000000000E+00 0. -1.
          1    1    1    2  502    0  0.18845130225E+02 -0.31160393841E+02  0.11480087489E+04  0.11485861730E+04  0.00000000000E+00 0. -1.
         22    1    3    3    0    0  0.45823228067E+02 -0.21045550651E+02  0.35581427350E+02  0.61714839422E+02  0.00000000000E+00 0.  1.
         22    1    3    3    0    0 -0.81996597908E+02 -0.21227795217E+02  0.97479639326E+02  0.12913690968E+03  0.00000000000E+00 0.  1.
</event>
<event>
 7    1  0.7029100E-006  0.7247005E+02  0.7818608E-02  0.1387691E+00
          2   -1    0    0  502    0  0.00000000000E+00  0.00000000000E+00  0.86888666747E+03  0.86888666747E+03  0.00000000000E+00 0. -1.
          1   -1    0    0  501    0 -0.00000000000E+00 -0.00000000000E+00 -0.10402476028E+03  0.10402476028E+03  0.00000000000E+00 0. -1.
         25    2    1    2    0    0 -0.26514180621E+02  0.20182677525E+02  0.24440482096E+03  0.27653027817E+03  0.12499974396E+03 0.  0.
          2    1    1    2  501    0  0.17588580671E+02 -0.73313173104E+02 -0.70352887910E+02  0.10311987373E+03  0.00000000000E+00 0. -1.
          1    1    1    2  502    0  0.89255999498E+01  0.53130495579E+02  0.59080997413E+03  0.59326127585E+03  0.00000000000E+00 0. -1.
         22    1    3    3    0    0  0.46452250693E+01  0.44892386398E+02  0.21294504174E+02  0.49903510703E+02  0.00000000000E+00 0.  1.
         22    1    3    3    0    0 -0.31159405690E+02 -0.24709708874E+02  0.22311031679E+03  0.22662676747E+03  0.00000000000E+00 0.  1.
</event>
<event>
 7    1  0.1008350E-005  0.1306274E+03  0.7818608E-02  0.1324862E+00
          2   -1    0    0  502    0  0.00000000000E+00  0.00000000000E+00  0.16057991020E+04  0.16057991020E+04  0.00000000000E+00 0. -1.
          1   -1    0    0  501    0 -0.00000000000E+00 -0.00000000000E+00 -0.15824232453E+04  0.15824232453E+04  0.00000000000E+00 0. -1.
         25    2    1    2    0    0 -0.17133665835E+03 -0.21567661890E+02 -0.34959042261E+03  0.40946063564E+03  0.12499253589E+03 0.  0.
          2    1    1    2  501    0  0.12612730267E+03 -0.16930696300E+01 -0.11991788405E+04  0.12057946983E+04  0.00000000000E+00 0. -1.
          1    1    1    2  502    0  0.45209355680E+02  0.23260731520E+02  0.15721451198E+04  0.15729670134E+04  0.00000000000E+00 0. -1.
         22    1    3    3    0    0 -0.45853625845E+01  0.44859936321E+01  0.10201220924E+02  0.12050501950E+02  0.00000000000E+00 0.  1.
         22    1    3    3    0    0 -0.16675129577E+03 -0.26053655522E+02 -0.35979164353E+03  0.39741013369E+03  0.00000000000E+00 0.  1.
</event>
<event>
 7    1  0.7029100E-006  0.1080063E+03  0.7818608E-02  0.1344013E+00
          2   -1    0    0  502    0  0.00000000000E+00  0.00000000000E+00  0.14033293542E+04  0.14033293542E+04  0.00000000000E+00 0. -1.
          1   -1    0    0  501    0 -0.00000000000E+00 -0.00000000000E+00 -0.29975870124E+03  0.29975870124E+03  0.00000000000E+00 0. -1.
         25    2    1    2    0    0  0.34521939400E+02 -0.60491993835E+02  0.41767949800E+02  0.14907014653E+03  0.12500520524E+03 0.  0.
          2    1    1    2  501    0 -0.19277481104E+02 -0.48312583047E+02 -0.24102083639E+03  0.24657001142E+03  0.00000000000E+00 0. -1.
          1    1    1    2  502    0 -0.15244458296E+02  0.10880457688E+03  0.13028235395E+04  0.13074478975E+04  0.00000000000E+00 0. -1.
         22    1    3    3    0    0 -0.38706082024E+02 -0.14308783288E+02 -0.16789756401E+02  0.44551071646E+02  0.00000000000E+00 0. -1.
         22    1    3    3    0    0  0.73228021424E+02 -0.46183210547E+02  0.58557706201E+02  0.10451907488E+03  0.00000000000E+00 0. -1.
</event>
<event>
 7    1  0.7029100E-006  0.7778875E+02  0.7818608E-02  0.1368848E+00
          2   -1    0    0  502    0  0.00000000000E+00  0.00000000000E+00  0.17319794480E+03  0.17319794480E+03  0.00000000000E+00 0. -1.
          1   -1    0    0  501    0 -0.00000000000E+00 -0.00000000000E+00 -0.90981282449E+03  0.90981282449E+03  0.00000000000E+00 0. -1.
         25    2    1    2    0    0 -0.86830634199E+02  0.13314993732E+02 -0.34889736555E+03  0.38088208757E+03  0.12499977940E+03 0.  0.
          2    1    1    2  501    0  0.36139488282E+02  0.46068525525E+02 -0.53352735266E+03  0.53673066588E+03  0.00000000000E+00 0. -1.
          1    1    1    2  502    0  0.50691145917E+02 -0.59383519257E+02  0.14580983853E+03  0.16539801585E+03  0.00000000000E+00 0. -1.
         22    1    3    3    0    0 -0.45816946880E+02  0.61390163735E+01 -0.33318949496E+03  0.33638091458E+03  0.00000000000E+00 0.  1.
         22    1    3    3    0    0 -0.41013687320E+02  0.71759773580E+01 -0.15707870589E+02  0.44501172985E+02  0.00000000000E+00 0.  1.
</event>
<event>
 7    1  0.7029100E-006  0.7352029E+02  0.7818608E-02  0.1445975E+00
          2   -1    0    0  502    0  0.00000000000E+00  0.00000000000E+00  0.80807209456E+03  0.80807209456E+03  0.00000000000E+00 0. -1.
          1   -1    0    0  501    0 -0.00000000000E+00 -0.00000000000E+00 -0.21765184351E+04  0.21765184351E+04  0.00000000000E+00 0. -1.
         25    2    1    2    0    0 -0.56317369174E+02  0.66605378006E+00 -0.81278986160E+02  0.15938550601E+03  0.12500150494E+03 0.  0.
          2    1    1    2  501    0 -0.10477164209E+02 -0.32182354391E+02 -0.20542731812E+04  0.20545519652E+04  0.00000000000E+00 0. -1.
          1    1    1    2  502    0  0.66794533383E+02  0.31516300611E+02  0.76710582682E+03  0.77065305841E+03  0.00000000000E+00 0. -1.
         22    1    3    3    0    0 -0.23078474140E+02  0.22324975256E+02  0.28328123418E+02  0.42819423924E+02  0.00000000000E+00 0.  1.
         22    1    3    3    0    0 -0.33238895034E+02 -0.21658921475E+02 -0.10960710958E+03  0.11656608208E+03  0.00000000000E+00 0.  1.
</event>
<event>
 7    1  0.7029100E-006  0.2090649E+03  0.7818608E-02  0.1270300E+00
          2   -1    0    0  502    0  0.00000000000E+00  0.00000000000E+00  0.90300635308E+03  0.90300635308E+03  0.00000000000E+00 0. -1.
          1   -1    0    0  501    0 -0.00000000000E+00 -0.00000000000E+00 -0.25702776795E+03  0.25702776795E+03  0.00000000000E+00 0. -1.
         25    2    1    2    0    0  0.17791924126E+03  0.87489178315E+02  0.32939966950E+03  0.40427553937E+03  0.12499982693E+03 0.  0.
          2    1    1    2  501    0 -0.16070657716E+03 -0.13723882669E+03 -0.16698230558E+03  0.26934028639E+03  0.00000000000E+00 0. -1.
          1    1    1    2  502    0 -0.17212664103E+02  0.49749648379E+02  0.48356122121E+03  0.48641829527E+03  0.00000000000E+00 0. -1.
         22    1    3    3    0    0  0.10662275480E+03  0.17728432533E+02  0.26327855643E+03  0.28460201587E+03  0.00000000000E+00 0. -1.
         22    1    3    3    0    0  0.71296486458E+02  0.69760745782E+02  0.66121113072E+02  0.11967352350E+03  0.00000000000E+00 0. -1.
</event>
<event>
 7    1  0.7029100E-006  0.2690884E+03  0.7818608E-02  0.1190599E+00
          2   -1    0    0  502    0  0.00000000000E+00  0.00000000000E+00  0.14801974341E+04  0.14801974341E+04  0.00000000000E+00 0. -1.
          1   -1    0    0  501    0 -0.00000000000E+00 -0.00000000000E+00 -0.10582850276E+04  0.10582850276E+04  0.00000000000E+00 0. -1.
         25    2    1    2    0    0  0.25976699453E+03  0.18839748624E+03  0.31616268829E+03  0.46750035237E+03  0.12500091891E+03 0.  0.
          2    1    1    2  501    0 -0.18576655290E+02 -0.91285440701E+02 -0.96481200367E+03  0.96929888385E+03  0.00000000000E+00 0. -1.
          1    1    1    2  502    0 -0.24119033924E+03 -0.97112045537E+02  0.10705617219E+04  0.11016832256E+04  0.00000000000E+00 0. -1.
         22    1    3    3    0    0  0.11057835871E+03  0.13161515214E+03  0.10028865025E+03  0.19901742400E+03  0.00000000000E+00 0.  1.
         22    1    3    3    0    0  0.14918863582E+03  0.56782334101E+02  0.21587403804E+03  0.26848292836E+03  0.00000000000E+00 0.  1.
</event>
<event>
 7    1  0.7029100E-006  0.9029964E+02  0.7818608E-02  0.1376957E+00
          2   -1    0    0  502    0  0.00000000000E+00  0.00000000000E+00  0.35086018856E+03  0.35086018856E+03  0.00000000000E+00 0. -1.
          1   -1    0    0  501    0 -0.00000000000E+00 -0.00000000000E+00 -0.19294877205E+04  0.19294877205E+04  0.00000000000E+00 0. -1.
         25    2    1    2    0    0 -0.62752055475E+02 -0.16787124836E+02  0.15883664817E+03  0.21230588204E+03  0.12500031488E+03 0.  0.
          2    1    1    2  501    0 -0.32070544901E+02 -0.34602636984E+02 -0.18848326516E+04  0.18854230260E+04  0.00000000000E+00 0. -1.
          1    1    1    2  502    0  0.94822600376E+02  0.51389761820E+02  0.14736847147E+03  0.18261900106E+03  0.00000000000E+00 0. -1.
         22    1    3    3    0    0  0.23482602300E+02  0.22339195461E+02  0.66860024558E+01  0.33093426741E+02  0.00000000000E+00 0. -1.
         22    1    3    3    0    0 -0.86234657775E+02 -0.39126320297E+02  0.15215064572E+03  0.17921245530E+03  0.00000000000E+00 0. -1.
</event>
<event>
 7    1  0.7029100E-006  0.1079538E+03  0.7818608E-02  0.1463213E+00
          2   -1    0    0  502    0  0.00000000000E+00  0.00000000000E+00  0.11164128341E+03  0.11164128341E+03  0.00000000000E+00 0. -1.
          1   -1    0    0  501    0 -0.00000000000E+00 -0.00000000000E+00 -0.46076694455E+03  0.46076694455E+03  0.00000000000E+00 0. -1.
         25    2    1    2    0    0  0.10401201292E+02 -0.91861860771E+02 -0.13458184443E+03  0.20563075722E+03  0.12499979604E+03 0.  0.
          2    1    1    2  501    0 -0.13478103711E+02  0.11194471917E+03 -0.27808121527E+03  0.30007072785E+03  0.00000000000E+00 0. -1.
          1    1    1    2  502    0  0.30769024184E+01 -0.20082858403E+02  0.63537398558E+02  0.66706742880E+02  0.00000000000E+00 0. -1.
         22    1    3    3    0    0  0.27954010780E+02  0.23062299763E+02 -0.50487292408E+02  0.62147108410E+02  0.00000000000E+00 0.  1.
         22    1    3    3    0    0 -0.17552809488E+02 -0.11492416053E+03 -0.84094552024E+02  0.14348364881E+03  0.00000000000E+00 0.  1.
</event>
<event>
 7    1  0.7029100E-006  0.1293071E+03  0.7818608E-02  0.1232937E+00
          2   -1    0    0  502    0  0.00000000000E+00  0.00000000000E+00  0.36240721666E+03  0.36240721666E+03  0.00000000000E+00 0. -1.
          1   -1    0    0  501    0 -0.00000000000E+00 -0.00000000000E+00 -0.41575988145E+03  0.41575988145E+03  0.00000000000E+00 0. -1.
         25    2    1    2    0    0 -0.11047943621E+02  0.61986770071E+02  0.67106305638E+02  0.15521718582E+03  0.12499880718E+03 0.  0.
          2    1    1    2  501    0  0.25823912264E+02  0.12077799514E+03 -0.32534307565E+03  0.34799757963E+03  0.00000000000E+00 0. -1.
          1    1    1    2  502    0 -0.14775968643E+02 -0.18276476521E+03  0.20488410523E+03  0.27495233265E+03  0.00000000000E+00 0. -1.
         22    1    3    3    0    0  0.97991795855E+01  0.61412677100E+02 -0.20252004864E+02  0.65404010046E+02  0.00000000000E+00 0.  1.
         22    1    3    3    0    0 -0.20847123206E+02  0.57409297163E+00  0.87358310502E+02  0.89813175774E+02  0.00000000000E+00 0.  1.
</event>
<event>
 7    1  0.7029100E-006  0.5999439E+02  0.7818608E-02  0.1432556E+00
          2   -1    0    0  502    0  0.00000000000E+00  0.00000000000E+00  0.41912098759E+03  0.41912098759E+03  0.00000000000E+00 0. -1.
          1   -1    0    0  501    0 -0.00000000000E+00 -0.00000000000E+00 -0.54511669087E+03  0.54511669087E+03  0.00000000000E+00 0. -1.
         25    2    1    2    0    0 -0.99975139608E+01 -0.12506625705E+02 -0.40563188849E+01  0.12608748784E+03  0.12500093958E+03 0.  0.
          2    1    1    2  501    0 -0.32140728667E+02 -0.32705464260E+02 -0.47626873767E+03  0.47847109036E+03  0.00000000000E+00 0. -1.
          1    1    1    2  502    0  0.42138242628E+02  0.45212089965E+02  0.35432935327E+03  0.35967910025E+03  0.00000000000E+00 0. -1.
         22    1    3    3    0    0 -0.16573588317E+02 -0.67781495373E+02  0.37452518530E+01  0.69878765417E+02  0.00000000000E+00 0. -1.
         22    1    3    3    0    0  0.65760743563E+01  0.55274869669E+02 -0.78015707379E+01  0.56208722426E+02  0.00000000000E+00 0. -1.
</event>
<event>
 7    1  0.7029100E-006  0.4608874E+02  0.7818608E-02  0.1482828E+00
          2   -1    0    0  502    0  0.00000000000E+00  0.00000000000E+00  0.32071908911E+03  0.32071908911E+03  0.00000000000E+00 0. -1.
          1   -1    0    0  501    0 -0.00000000000E+00 -0.00000000000E+00 -0.42827765331E+03  0.42827765331E+03  0.00000000000E+00 0. -1.
         25    2    1    2    0    0  0.84181453623E+01 -0.19012551529E+02 -0.52103218641E+02  0.13701490910E+03  0.12500399048E+03 0.  0.
          2    1    1    2  501    0 -0.37325912513E+02 -0.17853238599E+02 -0.33044743213E+03  0.33302772748E+03  0.00000000000E+00 0. -1.
          1    1    1    2  502    0  0.28907767151E+02  0.36865790128E+02  0.27499208657E+03  0.27895410583E+03  0.00000000000E+00 0. -1.
         22    1    3    3    0    0 -0.19759569301E+02 -0.60200313529E+02 -0.59073073180E+02  0.86626475761E+02  0.00000000000E+00 0.  1.
         22    1    3    3    0    0  0.28177714663E+02  0.41187762000E+02  0.69698545391E+01  0.50388433340E+02  0.00000000000E+00 0.  1.
</event>
<event>
 7    1  0.7029100E-006  0.1960794E+03  0.7818608E-02  0.1325381E+00
          2   -1    0    0  502    0  0.00000000000E+00  0.00000000000E+00  0.17012265788E+04  0.17012265788E+04  0.00000000000E+00 0. -1.
          1   -1    0    0  501    0 -0.00000000000E+00 -0.00000000000E+00 -0.18308074173E+03  0.18308074173E+03  0.00000000000E+00 0. -1.
         25    2    1    2    0    0 -0.11578897494E+03 -0.14324066821E+03  0.91752548254E+02  0.24076703866E+03  0.12500104418E+03 0.  0.
          2    1    1    2  501    0  0.14918281987E+03  0.13859411129E+03 -0.12727981621E+02  0.20402412344E+03  0.00000000000E+00 0. -1.
          1    1    1    2  502    0 -0.33393844931E+02  0.46465569246E+01  0.14391212704E+04  0.14395161584E+04  0.00000000000E+00 0. -1.
         22    1    3    3    0    0 -0.27056932655E+02  0.22111183275E+02  0.14182078464E+02  0.37710918579E+02  0.00000000000E+00 0.  1.
         22    1    3    3    0    0 -0.88732042282E+02 -0.16535185149E+03  0.77570469790E+02  0.20305612008E+03  0.00000000000E+00 0.  1.
</event>
<event>
 7    1  0.7029100E-006  0.8208770E+02  0.7818608E-02  0.1411955E+00
          2   -1    0    0  502    0  0.00000000000E+00  0.00000000000E+00  0.24593490305E+04  0.24593490305E+04  0.00000000000E+00 0. -1.
          1   -1    0    0  501    0 -0.00000000000E+00 -0.00000000000E+00 -0.11124918036E+04  0.11124918036E+04  0.00000000000E+00 0. -1.
         25    2    1    2    0    0 -0.63317236987E+02  0.66706251341E+02 -0.13774355159E+02  0.15580800303E+03  0.12501041749E+03 0.  0.
          2    1    1    2  501    0 -0.13183249843E+02 -0.36966353963E+02 -0.10266203817E+04  0.10273702923E+04  0.00000000000E+00 0. -1.
          1    1    1    2  502    0  0.76500486830E+02 -0.29739897378E+02  0.23872519638E+04  0.23886625388E+04  0.00000000000E+00 0. -1.
         22    1    3    3    0    0 -0.54960913257E+02 -0.25234770853E+02  0.78631539667E+01  0.60986267605E+02  0.00000000000E+00 0. -1.
         22    1    3    3    0    0 -0.83563237298E+01  0.91941022194E+02 -0.21637509126E+02  0.94821735428E+02  0.00000000000E+00 0. -1.
</event>
<event>
 7    1  0.7029100E-006  0.6568108E+02  0.7818608E-02  0.1435722E+00
          2   -1    0    0  502    0  0.00000000000E+00  0.00000000000E+00  0.21752318775E+04  0.21752318775E+04  0.00000000000E+00 0. -1.
          1   -1    0    0  501    0 -0.00000000000E+00 -0.00000000000E+00 -0.89016205010E+02  0.89016205010E+02  0.00000000000E+00 0. -1.
         25    2    1    2    0    0 -0.30804673554E+02 -0.22301109072E+02  0.36208133683E+03  0.38493250036E+03  0.12499547182E+03 0.  0.
          2    1    1    2  501    0 -0.36610415541E+02  0.18228017687E+02 -0.71522205132E+02  0.82389374204E+02  0.00000000000E+00 0. -1.
          1    1    1    2  502    0  0.67415089096E+02  0.40730913849E+01  0.17956565407E+04  0.17969262079E+04  0.00000000000E+00 0. -1.
         22    1    3    3    0    0 -0.58168261932E+02 -0.58902393035E+02  0.26507173704E+03  0.27769779325E+03  0.00000000000E+00 0. -1.
         22    1    3    3    0    0  0.27363588378E+02  0.36601283963E+02  0.97009599790E+02  0.10723470711E+03  0.00000000000E+00 0. -1.
</event>
<event>
 7    1  0.7868486E-006  0.1213614E+03  0.7818608E-02  0.1311071E+00
          2   -1    0    0  502    0  0.00000000000E+00  0.00000000000E+00  0.28820632481E+04  0.28820632481E+04  0.00000000000E+00 0. -1.
          1   -1    0    0  501    0 -0.00000000000E+00 -0.00000000000E+00 -0.13947139550E+04  0.13947139550E+04  0.00000000000E+00 0. -1.
         25    2    1    2    0    0 -0.10985504031E+03  0.78343622959E+02 -0.17041868469E+03  0.25075460544E+03  0.12501796238E+03 0.  0.
          2    1    1    2  501    0 -0.10278600140E+02 -0.61064832048E+02 -0.11820206301E+04  0.11836415561E+04  0.00000000000E+00 0. -1.
          1    1    1    2  502    0  0.12013364045E+03 -0.17278790910E+02  0.28397886078E+04  0.28423810416E+04  0.00000000000E+00 0. -1.
         22    1    3    3    0    0 -0.13721967634E+03  0.54492520026E+02 -0.13676675427E+03  0.20125560709E+03  0.00000000000E+00 0. -1.
         22    1    3    3    0    0  0.27364636028E+02  0.23851102933E+02 -0.33651930425E+02  0.49498998347E+02  0.00000000000E+00 0. -1.
</event>
<event>
 7    1  0.7029100E-006  0.3817642E+02  0.7818608E-02  0.1578065E+00
          2   -1    0    0  502    0  0.00000000000E+00  0.00000000000E+00  0.11617303999E+04  0.11617303999E+04  0.00000000000E+00 0. -1.
          1   -1    0    0  501    0 -0.00000000000E+00 -0.00000000000E+00 -0.25981309727E+03  0.25981309727E+03  0.00000000000E+00 0. -1.
         25    2    1    2    0    0 -0.61663833107E+02  0.16423514045E+02  0.95072744759E+02  0.16951763521E+03  0.12500096690E+03 0.  0.
          2    1    1    2  501    0  0.24048496751E+02 -0.11467769293E+02 -0.22144229920E+03  0.22303930551E+03  0.00000000000E+00 0. -1.
          1    1    1    2  502    0  0.37615336356E+02 -0.49557447520E+01  0.10282868571E+04  0.10289865565E+04  0.00000000000E+00 0. -1.
         22    1    3    3    0    0 -0.11242992487E+02  0.43352929030E+02  0.10251706209E+03  0.11187327364E+03  0.00000000000E+00 0. -1.
         22    1    3    3    0    0 -0.50420840620E+02 -0.26929414985E+02 -0.74443173333E+01  0.57644361570E+02  0.00000000000E+00 0. -1.
</event>
<event>
 7    1  0.7029100E-006  0.1042009E+03  0.7818608E-02  0.1354106E+00
          2   -1    0    0  502    0  0.00000000000E+00  0.00000000000E+00  0.41096472062E+03  0.41096472062E+03  0.00000000000E+00 0. -1.
          1   -1    0    0  501    0 -0.00000000000E+00 -0.00000000000E+00 -0.72519912347E+03  0.72519912347E+03  0.00000000000E+00 0. -1.
         25    2    1    2    0    0  0.52818156697E+02  0.23005154251E+02 -0.11678881889E+03  0.18050801636E+03  0.12499808380E+03 0.  0.
          2    1    1    2  501    0  0.48315789806E+02  0.10585032147E+02 -0.56796566000E+03  0.57011529482E+03  0.00000000000E+00 0. -1.
          1    1    1    2  502    0 -0.10113394650E+03 -0.33590186398E+02  0.37052007605E+03  0.38554053290E+03  0.00000000000E+00 0. -1.
         22    1    3    3    0    0 -0.25831232237E+01 -0.19743693806E+02  0.19143205767E+02  0.27621518744E+02  0.00000000000E+00 0. -1.
         22    1    3    3    0    0  0.55401279920E+02  0.42748848057E+02 -0.13593202466E+03  0.15288649762E+03  0.00000000000E+00 0. -1.
</event>
<event>
 7    1  0.7954576E-006  0.9355559E+02  0.7818608E-02  0.1424518E+00
          2   -1    0    0  502    0  0.00000000000E+00  0.00000000000E+00  0.29151338388E+04  0.29151338388E+04  0.00000000000E+00 0. -1.
          1   -1    0    0  501    0 -0.00000000000E+00 -0.00000000000E+00 -0.13568362904E+04  0.13568362904E+04  0.00000000000E+00 0. -1.
         25    2    1    2    0    0 -0.62619472585E+02  0.10266862406E+03 -0.18328841443E+03  0.25235275450E+03  0.12500090050E+03 0.  0.
          2    1    1    2  501    0  0.26595118988E+02 -0.16422412057E+02 -0.11380428789E+04  0.11384720419E+04  0.00000000000E+00 0. -1.
          1    1    1    2  502    0  0.36024353597E+02 -0.86246212001E+02  0.28796288417E+04  0.28811453328E+04  0.00000000000E+00 0. -1.
         22    1    3    3    0    0 -0.90851760688E+02  0.42174340708E+02 -0.74962191101E+02  0.12510814334E+03  0.00000000000E+00 0. -1.
         22    1    3    3    0    0  0.28232288103E+02  0.60494283350E+02 -0.10832622333E+03  0.12724461117E+03  0.00000000000E+00 0. -1.
</event>
<event>
 7    1  0.7029100E-006  0.2882441E+03  0.7818608E-02  0.1142758E+00
          2   -1    0    0  502    0  0.00000000000E+00  0.00000000000E+00  0.39599906991E+03  0.39599906991E+03  0.00000000000E+00 0. -1.
          1   -1    0    0  501    0 -0.00000000000E+00 -0.00000000000E+00 -0.50206279839E+03  0.50206279839E+03  0.00000000000E+00 0. -1.
         25    2    1    2    0    0  0.11127892665E+03 -0.25282545851E+03 -0.83331735098E+02  0.31444041258E+03  0.12499953202E+03 0.  0.
          2    1    1    2  501    0  0.13362528595E+03  0.69933392535E+02 -0.18409292959E+03  0.23798445991E+03  0.00000000000E+00 0. -1.
          1    1    1    2  502    0 -0.24490421259E+03  0.18289206597E+03  0.16136093621E+03  0.34563699581E+03  0.00000000000E+00 0. -1.
         22    1    3    3    0    0  0.66980845532E+02 -0.90272474387E+02 -0.92697261265E+02  0.14569946996E+03  0.00000000000E+00 0.  1.
         22    1    3    3    0    0  0.44298081115E+02 -0.16255298412E+03  0.93655261671E+01  0.16874094262E+03  0.00000000000E+00 0.  1.
</event>
<event>
 7    1  0.7029100E-006  0.9993979E+02  0.7818608E-02  0.1291700E+00
          2   -1    0    0  502    0  0.00000000000E+00  0.00000000000E+00  0.22046633902E+04  0.22046633902E+04  0.00000000000E+00 0. -1.
          1   -1    0    0  501    0 -0.00000000000E+00 -0.00000000000E+00 -0.58291132889E+03  0.58291132889E+03  0.00000000000E+00 0. -1.
         25    2    1    2    0    0  0.32637149975E+02  0.14446064654E+02  0.34003313946E+03  0.36403411092E+03  0.12499770254E+03 0.  0.
          2    1    1    2  501    0 -0.79587009991E+02  0.62177287980E+02 -0.56534332312E+03  0.57429363595E+03  0.00000000000E+00 0. -1.
          1    1    1    2  502    0  0.46949860017E+02 -0.76623352633E+02  0.18470622449E+04  0.18492469722E+04  0.00000000000E+00 0. -1.
         22    1    3    3    0    0 -0.38626112025E+02 -0.24710947251E+02  0.16096968079E+03  0.16737337177E+03  0.00000000000E+00 0.  1.
         22    1    3    3    0    0  0.71263262000E+02  0.39157011904E+02  0.17906345867E+03  0.19666073915E+03  0.00000000000E+00 0.  1.
</event>
<event>
 7    1  0.7029100E-006  0.4630757E+02  0.7818608E-02  0.1510481E+00
          2   -1    0    0  502    0  0.00000000000E+00  0.00000000000E+00  0.45728317428E+03  0.45728317428E+03  0.00000000000E+00 0. -1.
          1   -1    0    0  501    0 -0.00000000000E+00 -0.00000000000E+00 -0.12512821325E+04  0.12512821325E+04  0.00000000000E+00 0. -1.
         25    2    1    2    0    0  0.19261399076E+02  0.90413229373E+01  0.24167727460E+03  0.27292699167E+03  0.12501396207E+03 0.  0.
          2    1    1    2  501    0  0.32891859551E+02 -0.87031203314E+01 -0.12320179993E+04  0.12324877157E+04  0.00000000000E+00 0. -1.
          1    1    1    2  502    0 -0.52153258628E+02 -0.33820260591E+00  0.19634176649E+03  0.20315059940E+03  0.00000000000E+00 0. -1.
         22    1    3    3    0    0  0.32091401409E+02  0.50300376742E+02  0.54441593358E+02  0.80770496050E+02  0.00000000000E+00 0.  1.
         22    1    3    3    0    0 -0.12830002333E+02 -0.41259053805E+02  0.18723568124E+03  0.19215649562E+03  0.00000000000E+00 0.  1.
</event>
<event>
 7    1  0.7029100E-006  0.4422628E+02  0.7818608E-02  0.1508359E+00
          2   -1    0    0  502    0  0.00000000000E+00  0.00000000000E+00  0.21373961232E+04  0.21373961232E+04  0.00000000000E+00 0. -1.
          1   -1    0    0  501    0 -0.00000000000E+00 -0.00000000000E+00 -0.32299922560E+02  0.32299922560E+02  0.00000000000E+00 0. -1.
         25    2    1    2    0    0  0.74954180419E+01  0.44275025068E+01  0.14919377239E+04  0.14971903525E+04  0.12499998180E+03 0.  0.
          2    1    1    2  501    0 -0.33188697404E+02 -0.29845109206E+02 -0.12066843153E+02  0.46236661672E+02  0.00000000000E+00 0. -1.
          1    1    1    2  502    0  0.25693279362E+02  0.25417606700E+02  0.62522531987E+03  0.62626903160E+03  0.00000000000E+00 0. -1.
         22    1    3    3    0    0 -0.33419475847E+02  0.43104785266E+01  0.11996165595E+03  0.12460433575E+03  0.00000000000E+00 0. -1.
         22    1    3    3    0    0  0.40914893889E+02  0.11702398023E+00  0.13719760680E+04  0.13725860167E+04  0.00000000000E+00 0. -1.
</event>
<event>
 7    1  0.7029100E-006  0.4558333E+02  0.7818608E-02  0.1470840E+00
          2   -1    0    0  502    0  0.00000000000E+00  0.00000000000E+00  0.21000439836E+04  0.21000439836E+04  0.00000000000E+00 0. -1.
          1   -1    0    0  501    0 -0.00000000000E+00 -0.00000000000E+00 -0.55908254330E+02  0.55908254330E+02  0.00000000000E+00 0. -1.
         25    2    1    2    0    0 -0.94123474269E+01 -0.15135640812E+01  0.95083879795E+03  0.95907009543E+03  0.12502057873E+03 0.  0.
          2    1    1    2  501    0 -0.16780462538E+02 -0.42344618271E+02 -0.41091171784E+02  0.61344396794E+02  0.00000000000E+00 0. -1.
          1    1    1    2  502    0  0.26192809965E+02  0.43858182352E+02  0.11343881031E+04  0.11355377457E+04  0.00000000000E+00 0. -1.
         22    1    3    3    0    0 -0.32160420317E+01  0.47997497692E+02  0.76918908072E+03  0.77069186100E+03  0.00000000000E+00 0. -1.
         22    1    3    3    0    0 -0.61963053953E+01 -0.49511061774E+02  0.18164971723E+03  0.18837823444E+03  0.00000000000E+00 0. -1.
</event>
<event>
 7    1  0.7029100E-006  0.4948641E+02  0.7818608E-02  0.1576580E+00
          2   -1    0    0  502    0  0.00000000000E+00  0.00000000000E+00  0.22576190422E+03  0.22576190422E+03  0.00000000000E+00 0. -1.
          1   -1    0    0  501    0 -0.00000000000E+00 -0.00000000000E+00 -0.69499114933E+03  0.69499114933E+03  0.00000000000E+00 0. -1.
         25    2    1    2    0    0  0.28327393050E+02 -0.96600557920E+01 -0.17364883232E+03  0.21604520540E+03  0.12500342370E+03 0.  0.
          2    1    1    2  501    0 -0.47869736166E+02  0.16616782934E+02 -0.49833012838E+03  0.50089973644E+03  0.00000000000E+00 0. -1.
          1    1    1    2  502    0  0.19542343117E+02 -0.69567271418E+01  0.20274971558E+03  0.20380811170E+03  0.00000000000E+00 0. -1.
         22    1    3    3    0    0 -0.85873779220E+01 -0.73650256419E+01  0.17781111098E+02  0.21074975069E+02  0.00000000000E+00 0. -1.
         22    1    3    3    0    0  0.36914770972E+02 -0.22950301501E+01 -0.19142994342E+03  0.19497023033E+03  0.00000000000E+00 0. -1.
</event>
<event>
 7    1  0.7029100E-006  0.7426681E+02  0.7818608E-02  0.1388122E+00
          2   -1    0    0  502    0  0.00000000000E+00  0.00000000000E+00  0.24193445464E+03  0.24193445464E+03  0.00000000000E+00 0. -1.
          1   -1    0    0  501    0 -0.00000000000E+00 -0.00000000000E+00 -0.22260788784E+03  0.22260788784E+03  0.00000000000E+00 0. -1.
         25    2    1    2    0    0 -0.60107751425E+02 -0.79531685950E+02 -0.46848912812E+02  0.16660944588E+03  0.12500262387E+03 0.  0.
          2    1    1    2  501    0  0.51969302374E+02  0.66224704140E+01 -0.10188099159E+03  0.11456178225E+03  0.00000000000E+00 0. -1.
          1    1    1    2  502    0  0.81384490514E+01  0.72909215536E+02  0.16805647121E+03  0.18337111435E+03  0.00000000000E+00 0. -1.
         22    1    3    3    0    0 -0.61185695181E+02  0.30796777416E+00  0.17963492458E+02  0.63768888968E+02  0.00000000000E+00 0. -1.
         22    1    3    3    0    0  0.10779437561E+01 -0.79839653725E+02 -0.64812405270E+02  0.10284055691E+03  0.00000000000E+00 0. -1.
</event>
<event>
 7    1  0.7029100E-006  0.8779746E+02  0.7818608E-02  0.1452488E+00
          2   -1    0    0  502    0  0.00000000000E+00  0.00000000000E+00  0.37667029425E+03  0.37667029425E+03  0.00000000000E+00 0. -1.
          1   -1    0    0  501    0 -0.00000000000E+00 -0.00000000000E+00 -0.24160245558E+03  0.24160245558E+03  0.00000000000E+00 0. -1.
         25    2    1    2    0    0 -0.34139975209E+02  0.96845075992E+02 -0.72473767245E+02  0.17726267730E+03  0.12500041269E+03 0.  0.
          2    1    1    2  501    0  0.25052932665E+02 -0.10099335707E+02 -0.10919367601E+03  0.11248513190E+03  0.00000000000E+00 0. -1.
          1    1    1    2  502    0  0.90870425434E+01 -0.86745740285E+02  0.31673528193E+03  0.32852494063E+03  0.00000000000E+00 0. -1.
         22    1    3    3    0    0  0.39895205997E+02  0.74367953032E+02 -0.37115194328E+02  0.92194129693E+02  0.00000000000E+00 0.  1.
         22    1    3    3    0    0 -0.74035181206E+02  0.22477122959E+02 -0.35358572917E+02  0.85068547604E+02  0.00000000000E+00 0.  1.
</event>
<event>
 7    1  0.7029100E-006  0.4377160E+02  0.7818608E-02  0.1546470E+00
          2   -1    0    0  502    0  0.00000000000E+00  0.00000000000E+00  0.21237707156E+04  0.21237707156E+04  0.00000000000E+00 0. -1.
          1   -1    0    0  501    0 -0.00000000000E+00 -0.00000000000E+00 -0.19005599630E+03  0.19005599630E+03  0.00000000000E+00 0. -1.
         25    2    1    2    0    0  0.49188560268E+02  0.51531703213E+02  0.24071479565E+03  0.28043218984E+03  0.12499427729E+03 0.  0.
          2    1    1    2  501    0 -0.22519550435E+02 -0.17259641963E+02 -0.16875985385E+03  0.17112835436E+03  0.00000000000E+00 0. -1.
          1    1    1    2  502    0 -0.26669009832E+02 -0.34272061250E+02  0.18617597775E+04  0.18622661677E+04  0.00000000000E+00 0. -1.
         22    1    3    3    0    0  0.18719787720E+02  0.67032540117E+02  0.47607483136E+02  0.84322383371E+02  0.00000000000E+00 0.  1.
         22    1    3    3    0    0  0.30468772548E+02 -0.15500836904E+02  0.19310731252E+03  0.19610980647E+03  0.00000000000E+00 0.  1.
</event>
<event>
 7    1  0.7029100E-006  0.1043017E+03  0.7818608E-02  0.1284194E+00
          2   -1    0    0  502    0  0.00000000000E+00  0.00000000000E+00  0.32040261437E+03  0.32040261437E+03  0.00000000000E+00 0. -1.
          1   -1    0    0  501    0 -0.00000000000E+00 -0.00000000000E+00 -0.12177267042E+03  0.12177267042E+03  0.00000000000E+00 0. -1.
         25    2    1    2    0    0 -0.66133704054E+02  0.17736591533E+02 -0.71265442779E+01  0.14271108457E+03  0.12500964976E+03 0.  0.
          2    1    1    2  501    0 -0.40026192642E+02 -0.83277482616E+02  0.96861718383E+02  0.13386346662E+03  0.00000000000E+00 0. -1.
          1    1    1    2  502    0  0.10615989670E+03  0.65540891083E+02  0.10889476985E+03  0.16560073361E+03  0.00000000000E+00 0. -1.
         22    1    3    3    0    0 -0.78991190760E+02  0.59450232372E+02 -0.60335243414E+01  0.99047169383E+02  0.00000000000E+00 0.  1.
         22    1    3    3    0    0  0.12857486706E+02 -0.41713640840E+02 -0.10930199365E+01  0.43663915182E+02  0.00000000000E+00 0.  1.
</event>
<event>
 7    1  0.7029100E-006  0.9656664E+02  0.7818608E-02  0.1361835E+00
          2   -1    0    0  502    0  0.00000000000E+00  0.00000000000E+00  0.53500008002E+03  0.53500008002E+03  0.00000000000E+00 0. -1.
          1   -1    0    0  501    0 -0.00000000000E+00 -0.00000000000E+00 -0.32539773327E+04  0.32539773327E+04  0.00000000000E+00 0. -1.
         25    2    1    2    0    0  0.83641159803E+02 -0.81742948679E+02  0.22152033518E+03  0.27995249413E+03  0.12499754717E+03 0.  0.
          2    1    1    2  501    0 -0.90982565009E+02  0.32278915092E+02 -0.32218334569E+04  0.32232794759E+04  0.00000000000E+00 0. -1.
          1    1    1    2  502    0  0.73414052062E+01  0.49464033587E+02  0.28133586903E+03  0.28574544275E+03  0.00000000000E+00 0. -1.
         22    1    3    3    0    0  0.57051557190E+01  0.27834989925E+02  0.11670425975E+02  0.30717003571E+02  0.00000000000E+00 0. -1.
         22    1    3    3    0    0  0.77936004084E+02 -0.10957793860E+03  0.20984990920E+03  0.24923549056E+03  0.00000000000E+00 0. -1.
</event>
<event>
 7    1  0.7029100E-006  0.6666902E+02  0.7818608E-02  0.1518147E+00
          2   -1    0    0  502    0  0.00000000000E+00  0.00000000000E+00  0.28778057247E+04  0.28778057247E+04  0.00000000000E+00 0. -1.
          1   -1    0    0  501    0 -0.00000000000E+00 -0.00000000000E+00 -0.31371684855E+03  0.31371684855E+03  0.00000000000E+00 0. -1.
         25    2    1    2    0    0 -0.43530366704E+02 -0.12728353134E+02  0.12764363073E+03  0.18432358968E+03  0.12500154179E+03 0.  0.
          2    1    1    2  501    0 -0.18342794035E+02 -0.12931334331E+02 -0.28452281991E+03  0.28540657412E+03  0.00000000000E+00 0. -1.
          1    1    1    2  502    0  0.61873160738E+02  0.25659687465E+02  0.27209680654E+04  0.27217924095E+04  0.00000000000E+00 0. -1.
         22    1    3    3    0    0 -0.20836703118E+02 -0.52206294762E+02  0.85959802290E+01  0.56864367451E+02  0.00000000000E+00 0. -1.
         22    1    3    3    0    0 -0.22693663586E+02  0.39477941628E+02  0.11904765050E+03  0.12745922223E+03  0.00000000000E+00 0. -1.
</event>
<event>
 7    1  0.7029100E-006  0.9062893E+02  0.7818608E-02  0.1402779E+00
          2   -1    0    0  502    0  0.00000000000E+00  0.00000000000E+00  0.46129209245E+03  0.46129209245E+03  0.00000000000E+00 0. -1.
          1   -1    0    0  501    0 -0.00000000000E+00 -0.00000000000E+00 -0.18029268890E+04  0.18029268890E+04  0.00000000000E+00 0. -1.
         25    2    1    2    0    0 -0.58652288548E+02  0.76780460737E+02  0.17478071102E+03  0.23560204158E+03  0.12499877979E+03 0.  0.
          2    1    1    2  501    0  0.22109762774E+02 -0.87901199900E+02 -0.17699258095E+04  0.17722451392E+04  0.00000000000E+00 0. -1.
          1    1    1    2  502    0  0.36542525774E+02  0.11120739164E+02  0.25351030185E+03  0.25637180066E+03  0.00000000000E+00 0. -1.
         22    1    3    3    0    0 -0.33908954748E+02  0.40821467154E+02  0.18356103710E+03  0.19107816132E+03  0.00000000000E+00 0. -1.
         22    1    3    3    0    0 -0.24743333800E+02  0.35958993583E+02 -0.87803260823E+01  0.44523880257E+02  0.00000000000E+00 0. -1.
</event>
<event>
 7    1  0.7029100E-006  0.7933495E+02  0.7818608E-02  0.1446835E+00
          2   -1    0    0  502    0  0.00000000000E+00  0.00000000000E+00  0.32675406666E+03  0.32675406666E+03  0.00000000000E+00 0. -1.
          1   -1    0    0  501    0 -0.00000000000E+00 -0.00000000000E+00 -0.91872434811E+02  0.91872434811E+02  0.00000000000E+00 0. -1.
         25    2    1    2    0    0 -0.92848194165E+01 -0.10138677216E+03  0.57949483398E+02  0.17130486975E+03  0.12498692065E+03 0.  0.
          2    1    1    2  501    0  0.18322161850E+02  0.25210590374E+02 -0.19280259226E+02  0.36647017310E+02  0.00000000000E+00 0. -1.
          1    1    1    2  502    0 -0.90373424339E+01  0.76176181787E+02  0.19621240768E+03  0.21067461441E+03  0.00000000000E+00 0. -1.
         22    1    3    3    0    0  0.27912626863E+02 -0.34378328379E+02  0.80101379484E+02  0.91527128196E+02  0.00000000000E+00 0. -1.
         22    1    3    3    0    0 -0.37197446280E+02 -0.67008443781E+02 -0.22151896086E+02  0.79777741557E+02  0.00000000000E+00 0. -1.
</event>
<event>
 7    1  0.7029100E-006  0.9622742E+02  0.7818608E-02  0.1477346E+00
          2   -1    0    0  502    0  0.00000000000E+00  0.00000000000E+00  0.34944381612E+02  0.34944381612E+02  0.00000000000E+00 0. -1.
          1   -1    0    0  501    0 -0.00000000000E+00 -0.00000000000E+00 -0.91730435210E+03  0.91730435210E+03  0.00000000000E+00 0. -1.
         25    2    1    2    0    0 -0.92232593251E+02 -0.47509038862E+02 -0.46093051382E+03  0.48871889407E+03  0.12500103529E+03 0.  0.
          2    1    1    2  501    0  0.13003604064E+01  0.20558398435E+02 -0.33369743207E+03  0.33433264103E+03  0.00000000000E+00 0. -1.
          1    1    1    2  502    0  0.90932232844E+02  0.26950640427E+02 -0.87732024597E+02  0.12919719861E+03  0.00000000000E+00 0. -1.
         22    1    3    3    0    0  0.26538549633E+02  0.96160999204E+01 -0.53314872607E+02  0.60326110727E+02  0.00000000000E+00 0.  1.
         22    1    3    3    0    0 -0.11877114288E+03 -0.57125138782E+02 -0.40761564121E+03  0.42839278335E+03  0.00000000000E+00 0.  1.
</event>
<event>
 7    1  0.7029100E-006  0.5878820E+02  0.7818608E-02  0.1479907E+00
          2   -1    0    0  502    0  0.00000000000E+00  0.00000000000E+00  0.39567124537E+02  0.39567124537E+02  0.00000000000E+00 0. -1.
          1   -1    0    0  501    0 -0.00000000000E+00 -0.00000000000E+00 -0.70527478206E+03  0.70527478206E+03  0.00000000000E+00 0. -1.
         25    2    1    2    0    0 -0.59422527426E+02 -0.23445920671E+02 -0.50377814696E+03  0.52297156786E+03  0.12500436580E+03 0.  0.
          2    1    1    2  501    0  0.23485603224E+02 -0.23342496656E+02 -0.15941751775E+03  0.16282011753E+03  0.00000000000E+00 0. -1.
          1    1    1    2  502    0  0.35936924202E+02  0.46788417327E+02 -0.25119928184E+01  0.59050221211E+02  0.00000000000E+00 0. -1.
         22    1    3    3    0    0 -0.67215255914E+01 -0.68048499214E+02 -0.30413439089E+03  0.31172665088E+03  0.00000000000E+00 0.  1.
         22    1    3    3    0    0 -0.52701001834E+02  0.44602578543E+02 -0.19964375607E+03  0.21124491697E+03  0.00000000000E+00 0.  1.
</event>
<event>
 7    1  0.7029100E-006  0.1027528E+03  0.7818608E-02  0.1408080E+00
          2   -1    0    0  502    0  0.00000000000E+00  0.00000000000E+00  0.50814719855E+03  0.50814719855E+03  0.00000000000E+00 0. -1.
          1   -1    0    0  501    0 -0.00000000000E+00 -0.00000000000E+00 -0.16905842777E+04  0.16905842777E+04  0.00000000000E+00 0. -1.
         25    2    1    2    0    0  0.24832239728E+02  0.93197885044E+02 -0.20119753900E+03  0.25575067900E+03  0.12500189680E+03 0.  0.
          2    1    1    2  501    0  0.58596245247E+01 -0.10331427504E+03 -0.14597335266E+04  0.14633967826E+04  0.00000000000E+00 0. -1.
          1    1    1    2  502    0 -0.30691864253E+02  0.10116389997E+02  0.47849398654E+03  0.47958401457E+03  0.00000000000E+00 0. -1.
         22    1    3    3    0    0 -0.17728470563E+02  0.10264640910E+03 -0.17832110028E+03  0.20651634021E+03  0.00000000000E+00 0.  1.
         22    1    3    3    0    0  0.42560710292E+02 -0.94485240567E+01 -0.22876438724E+02  0.49234338790E+02  0.00000000000E+00 0.  1.
</event>
<event>
 7    1  0.7029100E-006  0.3033429E+03  0.7818608E-02  0.1204910E+00
          2   -1    0    0  502    0  0.00000000000E+00  0.00000000000E+00  0.17579956181E+03  0.17579956181E+03  0.00000000000E+00 0. -1.
          1   -1    0    0  501    0 -0.00000000000E+00 -0.00000000000E+00 -0.22638775210E+04  0.22638775210E+04  0.00000000000E+00 0. -1.
         25    2    1    2    0    0  0.14518013912E+03  0.19240053226E+03 -0.69305989147E+02  0.28022017781E+03  0.12499916124E+03 0.  0.
          2    1    1    2  501    0 -0.17360619412E+03 -0.25713407350E+03 -0.20561905859E+04  0.20794655006E+04  0.00000000000E+00 0. -1.
          1    1    1    2  502    0  0.28426054995E+02  0.64733541237E+02  0.37418615901E+02  0.79991404411E+02  0.00000000000E+00 0. -1.
         22    1    3    3    0    0  0.15250857000E+03  0.18380871873E+03 -0.91140211975E+02  0.25563850892E+03  0.00000000000E+00 0.  1.
         22    1    3    3    0    0 -0.73284308780E+01  0.85918135279E+01  0.21834222828E+02  0.24581668888E+02  0.00000000000E+00 0.  1.
</event>
<event>
 7    1  0.7029100E-006  0.1121927E+03  0.7818608E-02  0.1431157E+00
          2   -1    0    0  502    0  0.00000000000E+00  0.00000000000E+00  0.16367377229E+04  0.16367377229E+04  0.00000000000E+00 0. -1.
          1   -1    0    0  501    0 -0.00000000000E+00 -0.00000000000E+00 -0.45471962501E+03  0.45471962501E+03  0.00000000000E+00 0. -1.
         25    2    1    2    0    0 -0.55493370742E+02  0.78921793007E+02 -0.54588976949E+02  0.16706751762E+03  0.12499374157E+03 0.  0.
          2    1    1    2  501    0  0.79983638319E+02 -0.82709467994E+02 -0.33416705461E+03  0.35342022987E+03  0.00000000000E+00 0. -1.
          1    1    1    2  502    0 -0.24490267577E+02  0.37876749866E+01  0.15707741294E+04  0.15709696004E+04  0.00000000000E+00 0. -1.
         22    1    3    3    0    0 -0.72453424978E+02  0.10421386451E+03 -0.38553620225E+02  0.13265146053E+03  0.00000000000E+00 0.  1.
         22    1    3    3    0    0  0.16960054237E+02 -0.25292071505E+02 -0.16035356724E+02  0.34416057095E+02  0.00000000000E+00 0.  1.
</event>
<event>
 7    1  0.7029100E-006  0.6643384E+02  0.7818608E-02  0.1506769E+00
          2   -1    0    0  502    0  0.00000000000E+00  0.00000000000E+00  0.31689455812E+03  0.31689455812E+03  0.00000000000E+00 0. -1.
          1   -1    0    0  501    0 -0.00000000000E+00 -0.00000000000E+00 -0.13937937556E+04  0.13937937556E+04  0.00000000000E+00 0. -1.
         25    2    1    2    0    0 -0.61663200519E+02 -0.98152000678E+01  0.13867524246E+03  0.19685636632E+03  0.12499167029E+03 0.  0.
          2    1    1    2  501    0  0.64920384868E+02 -0.14287284077E+02 -0.13628960507E+04  0.13645161882E+04  0.00000000000E+00 0. -1.
          1    1    1    2  502    0 -0.32571843494E+01  0.24102484145E+02  0.14732161069E+03  0.14931575927E+03  0.00000000000E+00 0. -1.
         22    1    3    3    0    0 -0.25101231850E+02  0.47637187052E+02  0.11095633757E+03  0.12333159481E+03  0.00000000000E+00 0.  1.
         22    1    3    3    0    0 -0.36561968669E+02 -0.57452387120E+02  0.27718904889E+02  0.73524771519E+02  0.00000000000E+00 0.  1.
</event>
<event>
 7    1  0.7029100E-006  0.6037628E+02  0.7818608E-02  0.1514985E+00
          2   -1    0    0  502    0  0.00000000000E+00  0.00000000000E+00  0.16698003833E+03  0.16698003833E+03  0.00000000000E+00 0. -1.
          1   -1    0    0  501    0 -0.00000000000E+00 -0.00000000000E+00 -0.65523570482E+03  0.65523570482E+03  0.00000000000E+00 0. -1.
         25    2    1    2    0    0  0.66703820576E+02  0.19401963188E+02 -0.88441781109E+02  0.16814458033E+03  0.12499926157E+03 0.  0.
          2    1    1    2  501    0 -0.67985938734E+01 -0.24383780086E+02 -0.51951117529E+03  0.52012753327E+03  0.00000000000E+00 0. -1.
          1    1    1    2  502    0 -0.59905226702E+02  0.49818168982E+01  0.11969728992E+03  0.13394362956E+03  0.00000000000E+00 0. -1.
         22    1    3    3    0    0  0.13677836360E+02  0.44603814211E+02  0.15167377666E+02  0.49057443828E+02  0.00000000000E+00 0. -1.
         22    1    3    3    0    0  0.53025984216E+02 -0.25201851023E+02 -0.10360915878E+03  0.11908713650E+03  0.00000000000E+00 0. -1.
</event>
<event>
 7    1  0.7029100E-006  0.6360715E+02  0.7818608E-02  0.1459697E+00
          2   -1    0    0  502    0  0.00000000000E+00  0.00000000000E+00  0.17293232011E+04  0.17293232011E+04  0.00000000000E+00 0. -1.
          1   -1    0    0  501    0 -0.00000000000E+00 -0.00000000000E+00 -0.16849652108E+04  0.16849652108E+04  0.00000000000E+00 0. -1.
         25    2    1    2    0    0  0.70319399856E+02  0.47304183280E+02  0.27987644066E+02  0.15359041519E+03  0.12499681462E+03 0.  0.
          2    1    1    2  501    0 -0.34958943558E+02  0.53924847304E+01 -0.16213563829E+04  0.16217421888E+04  0.00000000000E+00 0. -1.
          1    1    1    2  502    0 -0.35360456298E+02 -0.52696668011E+02  0.16377267291E+04  0.16389558078E+04  0.00000000000E+00 0. -1.
         22    1    3    3    0    0 -0.13414613807E+02 -0.32308172869E+02  0.11815980582E+02  0.36924074732E+02  0.00000000000E+00 0.  1.
         22    1    3    3    0    0  0.83734013663E+02  0.79612356149E+02  0.16171663484E+02  0.11666634046E+03  0.00000000000E+00 0.  1.
</event>
<event>
 7    1  0.7029100E-006  0.6803664E+02  0.7818608E-02  0.1468289E+00
          2   -1    0    0  502    0  0.00000000000E+00  0.00000000000E+00  0.19301740159E+04  0.19301740159E+04  0.00000000000E+00 0. -1.
          1   -1    0    0  501    0 -0.00000000000E+00 -0.00000000000E+00 -0.33112390392E+04  0.33112390392E+04  0.00000000000E+00 0. -1.
         25    2    1    2    0    0 -0.23608309791E+01 -0.37314218287E+02  0.86571590976E+02  0.15658150222E+03  0.12500080826E+03 0.  0.
          2    1    1    2  501    0  0.10471312340E+02  0.67316823187E+02 -0.32757463661E+04  0.32764547087E+04  0.00000000000E+00 0. -1.
          1    1    1    2  502    0 -0.81104813608E+01 -0.30002604901E+02  0.18081097518E+04  0.18083768442E+04  0.00000000000E+00 0. -1.
         22    1    3    3    0    0  0.49986524383E+02 -0.33757109392E+02  0.62483008239E+01  0.60640220297E+02  0.00000000000E+00 0.  1.
         22    1    3    3    0    0 -0.52347355363E+02 -0.35571088948E+01  0.80323290152E+02  0.95941281928E+02  0.00000000000E+00 0.  1.
</event>
<event>
 7    1  0.7029100E-006  0.3969008E+03  0.7818608E-02  0.1052061E+00
          2   -1    0    0  502    0  0.00000000000E+00  0.00000000000E+00  0.89574795606E+03  0.89574795606E+03  0.00000000000E+00 0. -1.
          1   -1    0    0  501    0 -0.00000000000E+00 -0.00000000000E+00 -0.23871929057E+04  0.23871929057E+04  0.00000000000E+00 0. -1.
         25    2    1    2    0    0  0.56786290991E+03  0.98424724260E+02 -0.50784421982E+03  0.77825819129E+03  0.12499739960E+03 0.  0.
          2    1    1    2  501    0 -0.22187347372E+03 -0.28099521527E+03 -0.16736169424E+04  0.17114846827E+04  0.00000000000E+00 0. -1.
          1    1    1    2  502    0 -0.34598943619E+03  0.18257049101E+03  0.69001621257E+03  0.79319798774E+03  0.00000000000E+00 0. -1.
         22    1    3    3    0    0  0.13043368789E+03 -0.12687451512E+02 -0.66285244713E+02  0.14685929330E+03  0.00000000000E+00 0. -1.
         22    1    3    3    0    0  0.43742922202E+03  0.11111217577E+03 -0.44155897511E+03  0.63139889798E+03  0.00000000000E+00 0. -1.
</event>
<event>
 7    1  0.7029100E-006  0.4961488E+02  0.7818608E-02  0.1487995E+00
          2   -1    0    0  502    0  0.00000000000E+00  0.00000000000E+00  0.10441764342E+03  0.10441764342E+03  0.00000000000E+00 0. -1.
          1   -1    0    0  501    0 -0.00000000000E+00 -0.00000000000E+00 -0.11946941956E+04  0.11946941956E+04  0.00000000000E+00 0. -1.
         25    2    1    2    0    0 -0.12821215946E+02  0.19406322549E+02 -0.27207328010E+03  0.30031559592E+03  0.12499839390E+03 0.  0.
          2    1    1    2  501    0 -0.36241200587E+02 -0.77844714226E+01 -0.90105041433E+03  0.90181254803E+03  0.00000000000E+00 0. -1.
          1    1    1    2  502    0  0.49062416534E+02 -0.11621851126E+02  0.82847142226E+02  0.96983695097E+02  0.00000000000E+00 0. -1.
         22    1    3    3    0    0 -0.50440634126E+02  0.51758956686E+02 -0.20131074045E+03  0.21389076976E+03  0.00000000000E+00 0.  1.
         22    1    3    3    0    0  0.37619418179E+02 -0.32352634137E+02 -0.70762539647E+02  0.86424826162E+02  0.00000000000E+00 0.  1.
</event>
<event>
 7    1  0.7029100E-006  0.3724159E+02  0.7818608E-02  0.1565098E+00
          2   -1    0    0  502    0  0.00000000000E+00  0.00000000000E+00  0.29165986663E+02  0.29165986663E+02  0.00000000000E+00 0. -1.
          1   -1    0    0  501    0 -0.00000000000E+00 -0.00000000000E+00 -0.43119674883E+03  0.43119674883E+03  0.00000000000E+00 0. -1.
         25    2    1    2    0    0 -0.32990640602E+01  0.35291416589E+02 -0.14972032142E+03  0.19823672502E+03  0.12500102637E+03 0.  0.
          2    1    1    2  501    0 -0.25530982027E+02 -0.28520554296E+02 -0.17925223230E+03  0.18329379652E+03  0.00000000000E+00 0. -1.
          1    1    1    2  502    0  0.28830046087E+02 -0.67708622931E+01 -0.73058208455E+02  0.78832213950E+02  0.00000000000E+00 0. -1.
         22    1    3    3    0    0  0.31522758169E+02 -0.36899428855E+02 -0.43524241230E+02  0.65189045913E+02  0.00000000000E+00 0.  1.
         22    1    3    3    0    0 -0.34821822229E+02  0.72190845444E+02 -0.10619608019E+03  0.13304767911E+03  0.00000000000E+00 0.  1.
</event>
<event>
 7    1  0.7029100E-006  0.8009535E+02  0.7818608E-02  0.1331916E+00
          2   -1    0    0  502    0  0.00000000000E+00  0.00000000000E+00  0.85136702076E+03  0.85136702076E+03  0.00000000000E+00 0. -1.
          1   -1    0    0  501    0 -0.00000000000E+00 -0.00000000000E+00 -0.64169633707E+03  0.64169633707E+03  0.00000000000E+00 0. -1.
         25    2    1    2    0    0  0.60406484355E+02 -0.36958111142E+02  0.26111038075E+03  0.29802141403E+03  0.12499314762E+03 0.  0.
          2    1    1    2  501    0 -0.59588496402E+02 -0.50203931483E+02 -0.61745617271E+03  0.62235307411E+03  0.00000000000E+00 0. -1.
          1    1    1    2  502    0 -0.81798795351E+00  0.87162042625E+02  0.56601647564E+03  0.57268886969E+03  0.00000000000E+00 0. -1.
         22    1    3    3    0    0  0.38230360806E+02 -0.44660361851E+02  0.26734463091E+03  0.27373209546E+03  0.00000000000E+00 0. -1.
         22    1    3    3    0    0  0.22176123549E+02  0.77022507095E+01 -0.62342501567E+01  0.24289318572E+02  0.00000000000E+00 0. -1.
</event>
<event>
 7    1  0.7029100E-006  0.7685648E+02  0.7818608E-02  0.1376660E+00
          2   -1    0    0  502    0  0.00000000000E+00  0.00000000000E+00  0.13862563719E+04  0.13862563719E+04  0.00000000000E+00 0. -1.
          1   -1    0    0  501    0 -0.00000000000E+00 -0.00000000000E+00 -0.34978251634E+03  0.34978251634E+03  0.00000000000E+00 0. -1.
         25    2    1    2    0    0  0.97626470204E+02 -0.61289506105E+02  0.26012030370E+02  0.17201423404E+03  0.12499975898E+03 0.  0.
          2    1    1    2  501    0 -0.21897367008E+02  0.51069453721E+02 -0.27284453443E+03  0.27844518985E+03  0.00000000000E+00 0. -1.
          1    1    1    2  502    0 -0.75729103196E+02  0.10220052383E+02  0.12833063596E+04  0.12855794644E+04  0.00000000000E+00 0. -1.
         22    1    3    3    0    0 -0.96474512978E+01 -0.49241626001E+02 -0.20844478476E+02  0.54335102196E+02  0.00000000000E+00 0.  1.
         22    1    3    3    0    0  0.10727392150E+03 -0.12047880104E+02  0.46856508846E+02  0.11767913184E+03  0.00000000000E+00 0.  1.
</event>
<event>
 7    1  0.7029100E-006  0.6115828E+02  0.7818608E-02  0.1401677E+00
          2   -1    0    0  502    0  0.00000000000E+00  0.00000000000E+00  0.22462717526E+04  0.22462717526E+04  0.00000000000E+00 0. -1.
          1   -1    0    0  501    0 -0.00000000000E+00 -0.00000000000E+00 -0.13235084079E+03  0.13235084079E+03  0.00000000000E+00 0. -1.
         25    2    1    2    0    0  0.33192993759E+00 -0.85489090848E+02  0.61495342896E+03  0.63332566004E+03  0.12500070818E+03 0.  0.
          2    1    1    2  501    0 -0.40783142996E+02  0.39960984553E+02 -0.11594229875E+03  0.12923916465E+03  0.00000000000E+00 0. -1.
          1    1    1    2  502    0  0.40451213059E+02  0.45528106295E+02  0.16149097816E+04  0.16160577687E+04  0.00000000000E+00 0. -1.
         22    1    3    3    0    0 -0.55026660945E+02 -0.74773694346E+01  0.24362863274E+03  0.24987748030E+03  0.00000000000E+00 0.  1.
         22    1    3    3    0    0  0.55358590883E+02 -0.78011721413E+02  0.37132479622E+03  0.38344817975E+03  0.00000000000E+00 0.  1.
</event>
<event>
 7    1  0.7029100E-006  0.1363880E+03  0.7818608E-02  0.1272514E+00
          2   -1    0    0  502    0  0.00000000000E+00  0.00000000000E+00  0.19367784814E+03  0.19367784814E+03  0.00000000000E+00 0. -1.
          1   -1    0    0  501    0 -0.00000000000E+00 -0.00000000000E+00 -0.21249819924E+04  0.21249819924E+04  0.00000000000E+00 0. -1.
         25    2    1    2    0    0  0.19409253442E+02 -0.10505366419E+03 -0.52640790701E+03  0.55149043392E+03  0.12499369049E+03 0.  0.
          2    1    1    2  501    0  0.52048470222E+02  0.13871569346E+03 -0.15737734774E+04  0.15807321231E+04  0.00000000000E+00 0. -1.
          1    1    1    2  502    0 -0.71457723664E+02 -0.33662029265E+02  0.16887724008E+03  0.18643728357E+03  0.00000000000E+00 0. -1.
         22    1    3    3    0    0  0.79502117805E+01 -0.84685753620E+02 -0.13616514456E+03  0.16054852639E+03  0.00000000000E+00 0.  1.
         22    1    3    3    0    0  0.11459041662E+02 -0.20367910574E+02 -0.39024276245E+03  0.39094190753E+03  0.00000000000E+00 0.  1.
</event>
<event>
 7    1  0.7029100E-006  0.1246237E+03  0.7818608E-02  0.1306388E+00
          2   -1    0    0  502    0  0.00000000000E+00  0.00000000000E+00  0.23314714055E+04  0.23314714055E+04  0.00000000000E+00 0. -1.
          1   -1    0    0  501    0 -0.00000000000E+00 -0.00000000000E+00 -0.37508703029E+03  0.37508703029E+03  0.00000000000E+00 0. -1.
         25    2    1    2    0    0 -0.13195153391E+03 -0.10932978516E+03 -0.51991515718E+02  0.21838538675E+03  0.12499940086E+03 0.  0.
          2    1    1    2  501    0  0.62600226970E+02  0.63953188590E+01 -0.23402626297E+03  0.24233856540E+03  0.00000000000E+00 0. -1.
          1    1    1    2  502    0  0.69351306943E+02  0.10293446630E+03  0.22424021539E+04  0.22458344837E+04  0.00000000000E+00 0. -1.
         22    1    3    3    0    0 -0.80326872059E+02 -0.76500860587E+02 -0.92983053270E+02  0.14474334610E+03  0.00000000000E+00 0.  1.
         22    1    3    3    0    0 -0.51624661855E+02 -0.32828924572E+02  0.40991537551E+02  0.73642040650E+02  0.00000000000E+00 0.  1.
</event>
<event>
 7    1  0.7029100E-006  0.4639235E+02  0.7818608E-02  0.1586131E+00
          2   -1    0    0  502    0  0.00000000000E+00  0.00000000000E+00  0.34033433567E+03  0.34033433567E+03  0.00000000000E+00 0. -1.
          1   -1    0    0  501    0 -0.00000000000E+00 -0.00000000000E+00 -0.11618640939E+04  0.11618640939E+04  0.00000000000E+00 0. -1.
         25    2    1    2    0    0  0.32586095711E+02 -0.15660402447E+02 -0.48715296451E+02  0.13894503076E+03  0.12500175849E+03 0.  0.
          2    1    1    2  501    0 -0.32317249271E+01 -0.20610439260E+02 -0.10660874810E+04  0.10662915884E+04  0.00000000000E+00 0. -1.
          1    1    1    2  502    0 -0.29354370784E+02  0.36270841707E+02  0.29327301924E+03  0.29696181044E+03  0.00000000000E+00 0. -1.
         22    1    3    3    0    0  0.68931113149E+02 -0.29515077546E+02 -0.62564018315E+02  0.97657025094E+02  0.00000000000E+00 0. -1.
         22    1    3    3    0    0 -0.36345017438E+02  0.13854675099E+02  0.13848721864E+02  0.41288005667E+02  0.00000000000E+00 0. -1.
</event>
<event>
 7    1  0.7029100E-006  0.5770849E+02  0.7818608E-02  0.1440626E+00
          2   -1    0    0  502    0  0.00000000000E+00  0.00000000000E+00  0.10715333826E+04  0.10715333826E+04  0.00000000000E+00 0. -1.
          1   -1    0    0  501    0 -0.00000000000E+00 -0.00000000000E+00 -0.82066087537E+02  0.82066087537E+02  0.00000000000E+00 0. -1.
         25    2    1    2    0    0 -0.60783129922E+02  0.61266959205E+02  0.27936416563E+03  0.31799282357E+03  0.12500747830E+03 0.  0.
          2    1    1    2  501    0  0.54316820901E+02 -0.16867061181E+02 -0.49064555320E+02  0.75114215528E+02  0.00000000000E+00 0. -1.
          1    1    1    2  502    0  0.64663090208E+01 -0.44399898024E+02  0.75916768470E+03  0.76049243099E+03  0.00000000000E+00 0. -1.
         22    1    3    3    0    0  0.12411285316E+02  0.46967154164E+02  0.28598450959E+02  0.56372200336E+02  0.00000000000E+00 0.  1.
         22    1    3    3    0    0 -0.73194415238E+02  0.14299805041E+02  0.25076571467E+03  0.26162062323E+03  0.00000000000E+00 0.  1.
</event>
<event>
 7    1  0.7029100E-006  0.6990669E+02  0.7818608E-02  0.1416911E+00
          2   -1    0    0  502    0  0.00000000000E+00  0.00000000000E+00  0.19646317062E+04  0.19646317062E+04  0.00000000000E+00 0. -1.
          1   -1    0    0  501    0 -0.00000000000E+00 -0.00000000000E+00 -0.92522083219E+01  0.92522083219E+01  0.00000000000E+00 0. -1.
         25    2    1    2    0    0  0.24411994112E+02  0.72398366258E+02  0.89051043087E+03  0.90248121677E+03  0.12500420089E+03 0.  0.
          2    1    1    2  501    0  0.19745635996E+02 -0.68290176009E+02  0.53913058287E+03  0.54379704272E+03  0.00000000000E+00 0. -1.
          1    1    1    2  502    0 -0.44157630108E+02 -0.41081902493E+01  0.52573848410E+03  0.52760565500E+03  0.00000000000E+00 0. -1.
         22    1    3    3    0    0  0.72795193877E+02  0.63872651001E+02  0.62604566840E+03  0.63349193737E+03  0.00000000000E+00 0.  1.
         22    1    3    3    0    0 -0.48383199765E+02  0.85257152575E+01  0.26446476247E+03  0.26898927939E+03  0.00000000000E+00 0.  1.
</event>
<event>
 7    1  0.7029100E-006  0.1627120E+03  0.7818608E-02  0.1186619E+00
          2   -1    0    0  502    0  0.00000000000E+00  0.00000000000E+00  0.16216027587E+04  0.16216027587E+04  0.00000000000E+00 0. -1.
          1   -1    0    0  501    0 -0.00000000000E+00 -0.00000000000E+00 -0.49985858352E+02  0.49985858352E+02  0.00000000000E+00 0. -1.
         25    2    1    2    0    0  0.97370708638E+01 -0.69038639967E+02  0.19173226973E+03  0.23924140674E+03  0.12495616466E+03 0.  0.
          2    1    1    2  501    0  0.13778896126E+03 -0.86541303360E+02  0.46401666316E+03  0.49171806833E+03  0.00000000000E+00 0. -1.
          1    1    1    2  502    0 -0.14752603213E+03  0.15557994333E+03  0.91586796748E+03  0.94062914200E+03  0.00000000000E+00 0. -1.
         22    1    3    3    0    0  0.77704859794E+01 -0.10233449099E+03  0.10739246756E+03  0.14854585348E+03  0.00000000000E+00 0. -1.
         22    1    3    3    0    0  0.19665848845E+01  0.33295851021E+02  0.84339802168E+02  0.90695553259E+02  0.00000000000E+00 0. -1.
</event>
<event>
 7    1  0.7029100E-006  0.3703285E+02  0.7818608E-02  0.1605984E+00
          2   -1    0    0  502    0  0.00000000000E+00  0.00000000000E+00  0.66167599028E+03  0.66167599028E+03  0.00000000000E+00 0. -1.
          1   -1    0    0  501    0 -0.00000000000E+00 -0.00000000000E+00 -0.30571013727E+03  0.30571013727E+03  0.00000000000E+00 0. -1.
         25    2    1    2    0    0 -0.15893205377E+02 -0.16096200048E+02  0.93919958450E+02  0.15797853930E+03  0.12499831459E+03 0.  0.
          2    1    1    2  501    0  0.10094443487E+02 -0.20864625531E+02 -0.27253513471E+03  0.27351897565E+03  0.00000000000E+00 0. -1.
          1    1    1    2  502    0  0.57987618899E+01  0.36960825579E+02  0.53458102927E+03  0.53588861261E+03  0.00000000000E+00 0. -1.
         22    1    3    3    0    0 -0.73903287108E+01 -0.85429746832E+01  0.12467617307E+03  0.12518685037E+03  0.00000000000E+00 0.  1.
         22    1    3    3    0    0 -0.85028766661E+01 -0.75532253649E+01 -0.30756214618E+02  0.32791688926E+02  0.00000000000E+00 0.  1.
</event>
<event>
 7    1  0.7029100E-006  0.9464117E+02  0.7818608E-02  0.1458345E+00
          2   -1    0    0  502    0  0.00000000000E+00  0.00000000000E+00  0.27693218781E+03  0.27693218781E+03  0.00000000000E+00 0. -1.
          1   -1    0    0  501    0 -0.00000000000E+00 -0.00000000000E+00 -0.67976824798E+03  0.67976824798E+03  0.00000000000E+00 0. -1.
         25    2    1    2    0    0 -0.42623777589E+01 -0.11652533207E+03 -0.73381705366E+02  0.18602944722E+03  0.12500303866E+03 0.  0.
          2    1    1    2  501    0  0.78217413097E+01  0.92782246221E+02 -0.54545247534E+03  0.55334268560E+03  0.00000000000E+00 0. -1.
          1    1    1    2  502    0 -0.35593635508E+01  0.23743085845E+02  0.21599812054E+03  0.21732830297E+03  0.00000000000E+00 0. -1.
         22    1    3    3    0    0  0.11406907887E+02  0.34763908369E+01  0.26535545690E+02  0.29091889349E+02  0.00000000000E+00 0.  1.
         22    1    3    3    0    0 -0.15669285646E+02 -0.12000172290E+03 -0.99917251056E+02  0.15693755787E+03  0.00000000000E+00 0.  1.
</event>
<event>
 7    1  0.7029100E-006  0.4255089E+02  0.7818608E-02  0.1550541E+00
          2   -1    0    0  502    0  0.00000000000E+00  0.00000000000E+00  0.53826011867E+03  0.53826011867E+03  0.00000000000E+00 0. -1.
          1   -1    0    0  501    0 -0.00000000000E+00 -0.00000000000E+00 -0.59058675945E+02  0.59058675945E+02  0.00000000000E+00 0. -1.
         25    2    1    2    0    0 -0.43388287694E+02  0.33066714851E+02  0.16963989648E+03  0.21766684249E+03  0.12500083481E+03 0.  0.
          2    1    1    2  501    0  0.41970454280E+02 -0.46697735559E+01 -0.21489121095E+02  0.47382572143E+02  0.00000000000E+00 0. -1.
          1    1    1    2  502    0  0.14178334144E+01 -0.28396941295E+02  0.33105066734E+03  0.33226937998E+03  0.00000000000E+00 0. -1.
         22    1    3    3    0    0 -0.75469000336E+02  0.25743436038E+02  0.16650278213E+03  0.18461167614E+03  0.00000000000E+00 0. -1.
         22    1    3    3    0    0  0.32080712642E+02  0.73232788126E+01  0.31371143521E+01  0.33055166353E+02  0.00000000000E+00 0. -1.
</event>
<event>
 7    1  0.7029100E-006  0.2173450E+03  0.7818608E-02  0.1231515E+00
          2   -1    0    0  502    0  0.00000000000E+00  0.00000000000E+00  0.44061252785E+03  0.44061252785E+03  0.00000000000E+00 0. -1.
          1   -1    0    0  501    0 -0.00000000000E+00 -0.00000000000E+00 -0.18659436457E+04  0.18659436457E+04  0.00000000000E+00 0. -1.
         25    2    1    2    0    0 -0.20781981568E+03 -0.37004414765E+02 -0.50933910174E+03  0.56533720912E+03  0.12498574697E+03 0.  0.
          2    1    1    2  501    0  0.18745557572E+02 -0.72167411554E+02 -0.12985795231E+04  0.13007183819E+04  0.00000000000E+00 0. -1.
          1    1    1    2  502    0  0.18907425811E+03  0.10917182632E+03  0.38258750696E+03  0.44050058255E+03  0.00000000000E+00 0. -1.
         22    1    3    3    0    0 -0.21962511841E+03 -0.43742965430E+02 -0.42975784580E+03  0.48460339009E+03  0.00000000000E+00 0.  1.
         22    1    3    3    0    0  0.11805302722E+02  0.67385506646E+01 -0.79581255948E+02  0.80733819033E+02  0.00000000000E+00 0.  1.
</event>
<event>
 7    1  0.7029100E-006  0.8810135E+02  0.7818608E-02  0.1377581E+00
          2   -1    0    0  502    0  0.00000000000E+00  0.00000000000E+00  0.90464487728E+03  0.90464487728E+03  0.00000000000E+00 0. -1.
          1   -1    0    0  501    0 -0.00000000000E+00 -0.00000000000E+00 -0.14774054565E+04  0.14774054565E+04  0.00000000000E+00 0. -1.
         25    2    1    2    0    0  0.36343521956E+02  0.10912785972E+03  0.14627383882E+03  0.22416494515E+03  0.12499658139E+03 0.  0.
          2    1    1    2  501    0 -0.42515791771E+02 -0.22515705463E+02 -0.14354353750E+04  0.14362413674E+04  0.00000000000E+00 0. -1.
          1    1    1    2  502    0  0.61722698144E+01 -0.86612154256E+02  0.71640095699E+03  0.72164402122E+03  0.00000000000E+00 0. -1.
         22    1    3    3    0    0  0.39080546654E+02  0.67955477033E+02  0.67663842319E+01  0.78683034646E+02  0.00000000000E+00 0.  1.
         22    1    3    3    0    0 -0.27370246973E+01  0.41172382685E+02  0.13950745458E+03  0.14548191051E+03  0.00000000000E+00 0.  1.
</event>
<event>
 7    1  0.7029100E-006  0.1375688E+03  0.7818608E-02  0.1309494E+00
          2   -1    0    0  502    0  0.00000000000E+00  0.00000000000E+00  0.45143085552E+03  0.45143085552E+03  0.00000000000E+00 0. -1.
          1   -1    0    0  501    0 -0.00000000000E+00 -0.00000000000E+00 -0.94087349573E+03  0.94087349573E+03  0.00000000000E+00 0. -1.
         25    2    1    2    0    0  0.50045280506E+02  0.16496921935E+03  0.15301560348E+03  0.26221831446E+03  0.12500118439E+03 0.  0.
          2    1    1    2  501    0 -0.74097924905E+02 -0.11504565074E+03 -0.87775184992E+03  0.88835483579E+03  0.00000000000E+00 0. -1.
          1    1    1    2  502    0  0.24052644399E+02 -0.49923568604E+02  0.23529360623E+03  0.24173120100E+03  0.00000000000E+00 0. -1.
         22    1    3    3    0    0  0.40069733658E+02  0.16834240300E+03  0.83912729135E+02  0.19231769111E+03  0.00000000000E+00 0. -1.
         22    1    3    3    0    0  0.99755468480E+01 -0.33731836514E+01  0.69102874343E+02  0.69900623355E+02  0.00000000000E+00 0. -1.
</event>
<event>
 7    1  0.7029100E-006  0.3392072E+02  0.7818608E-02  0.1603615E+00
          2   -1    0    0  502    0  0.00000000000E+00  0.00000000000E+00  0.34575175480E+03  0.34575175480E+03  0.00000000000E+00 0. -1.
          1   -1    0    0  501    0 -0.00000000000E+00 -0.00000000000E+00 -0.62440512468E+03  0.62440512468E+03  0.00000000000E+00 0. -1.
         25    2    1    2    0    0 -0.97921095891E+01  0.18342139978E+02  0.60229248685E+02  0.14030733324E+03  0.12500506331E+03 0.  0.
          2    1    1    2  501    0  0.33141133768E+02 -0.76858627678E+01 -0.58319814677E+03  0.58418959733E+03  0.00000000000E+00 0. -1.
          1    1    1    2  502    0 -0.23349024179E+02 -0.10656277210E+02  0.24431552821E+03  0.24565994891E+03  0.00000000000E+00 0. -1.
         22    1    3    3    0    0  0.54742322163E+02  0.11969782730E+02  0.71189591592E+01  0.56486078939E+02  0.00000000000E+00 0.  1.
         22    1    3    3    0    0 -0.64534431752E+02  0.63723572476E+01  0.53110289526E+02  0.83821254297E+02  0.00000000000E+00 0.  1.
</event>
<event>
 7    1  0.7029100E-006  0.1282748E+03  0.7818608E-02  0.1317711E+00
          2   -1    0    0  502    0  0.00000000000E+00  0.00000000000E+00  0.43420597809E+03  0.43420597809E+03  0.00000000000E+00 0. -1.
          1   -1    0    0  501    0 -0.00000000000E+00 -0.00000000000E+00 -0.36345102412E+04  0.36345102412E+04  0.00000000000E+00 0. -1.
         25    2    1    2    0    0  0.73269842416E+02  0.16588733810E+02 -0.11318712009E+04  0.11412279522E+04  0.12500067063E+03 0.  0.
          2    1    1    2  501    0  0.47394708738E+02  0.28266022165E+02 -0.24880024237E+04  0.24886143306E+04  0.00000000000E+00 0. -1.
          1    1    1    2  502    0 -0.12066455115E+03 -0.44854755975E+02  0.41956936144E+03  0.43887393645E+03  0.00000000000E+00 0. -1.
         22    1    3    3    0    0  0.16944506802E+02  0.34904012695E+01 -0.15107868501E+02  0.22968389200E+02  0.00000000000E+00 0. -1.
         22    1    3    3    0    0  0.56325335614E+02  0.13098332541E+02 -0.11167633324E+04  0.11182595630E+04  0.00000000000E+00 0. -1.
</event>
<event>
 7    1  0.7029100E-006  0.1603667E+03  0.7818608E-02  0.1299415E+00
          2   -1    0    0  502    0  0.00000000000E+00  0.00000000000E+00  0.70716715571E+03  0.70716715571E+03  0.00000000000E+00 0. -1.
          1   -1    0    0  501    0 -0.00000000000E+00 -0.00000000000E+00 -0.92048450732E+03  0.92048450732E+03  0.00000000000E+00 0. -1.
         25    2    1    2    0    0  0.11461723617E+03 -0.26786656995E+02 -0.20567147500E+03  0.26792576330E+03  0.12501529183E+03 0.  0.
          2    1    1    2  501    0  0.33074742508E+02 -0.40296764673E+02 -0.67293259041E+03  0.67494891590E+03  0.00000000000E+00 0. -1.
          1    1    1    2  502    0 -0.14769197868E+03  0.67083421668E+02  0.66528671380E+03  0.68477698383E+03  0.00000000000E+00 0. -1.
         22    1    3    3    0    0  0.13916444143E+03 -0.17577147580E+02 -0.14456214627E+03  0.20142967013E+03  0.00000000000E+00 0.  1.
         22    1    3    3    0    0 -0.24547205253E+02 -0.92095094154E+01 -0.61109328727E+02  0.66496093170E+02  0.00000000000E+00 0.  1.
</event>
<event>
 7    1  0.7029100E-006  0.1384627E+03  0.7818608E-02  0.1294323E+00
          2   -1    0    0  502    0  0.00000000000E+00  0.00000000000E+00  0.21000166553E+04  0.21000166553E+04  0.00000000000E+00 0. -1.
          1   -1    0    0  501    0 -0.00000000000E+00 -0.00000000000E+00 -0.11474436540E+03  0.11474436540E+03  0.00000000000E+00 0. -1.
         25    2    1    2    0    0  0.73106627937E+02 -0.84309843221E+02  0.10840952828E+04  0.10969692983E+04  0.12500532146E+03 0.  0.
          2    1    1    2  501    0  0.59468460686E+02 -0.21675475720E+02 -0.91195420966E+02  0.11100868826E+03  0.00000000000E+00 0. -1.
          1    1    1    2  502    0 -0.13257508862E+03  0.10598531894E+03  0.99237242800E+03  0.10067830341E+04  0.00000000000E+00 0. -1.
         22    1    3    3    0    0  0.48040137666E+02 -0.10432152416E+03  0.10061298921E+04  0.10126639101E+04  0.00000000000E+00 0.  1.
         22    1    3    3    0    0  0.25066490270E+02  0.20011680944E+02  0.77965390784E+02  0.84305388136E+02  0.00000000000E+00 0.  1.
</event>
<event>
 7    1  0.7029100E-006  0.1238970E+03  0.7818608E-02  0.1272336E+00
          2   -1    0    0  502    0  0.00000000000E+00  0.00000000000E+00  0.19059921913E+04  0.19059921913E+04  0.00000000000E+00 0. -1.
          1   -1    0    0  501    0 -0.00000000000E+00 -0.00000000000E+00 -0.55892083649E+03  0.55892083649E+03  0.00000000000E+00 0. -1.
         25    2    1    2    0    0 -0.24256459756E+02 -0.39242357007E+02  0.82562992765E+02  0.15674772551E+03  0.12499945302E+03 0.  0.
          2    1    1    2  501    0  0.27719499117E+02  0.12627553103E+03 -0.51273813927E+03  0.52878566531E+03  0.00000000000E+00 0. -1.
          1    1    1    2  502    0 -0.34630393600E+01 -0.87033174018E+02  0.17772465013E+04  0.17793796370E+04  0.00000000000E+00 0. -1.
         22    1    3    3    0    0 -0.72577995345E+02 -0.26578640186E+02  0.72122555765E+02  0.10571495908E+03  0.00000000000E+00 0.  1.
         22    1    3    3    0    0  0.48321535588E+02 -0.12663716821E+02  0.10440437001E+02  0.51032766436E+02  0.00000000000E+00 0.  1.
</event>
<event>
 7    1  0.7029100E-006  0.5604787E+02  0.7818608E-02  0.1483562E+00
          2   -1    0    0  502    0  0.00000000000E+00  0.00000000000E+00  0.90141837928E+01  0.90141837928E+01  0.00000000000E+00 0. -1.
          1   -1    0    0  501    0 -0.00000000000E+00 -0.00000000000E+00 -0.40366220491E+04  0.40366220491E+04  0.00000000000E+00 0. -1.
         25    2    1    2    0    0  0.78790600205E+01 -0.32082394098E+02 -0.24883979058E+04  0.24917546044E+04  0.12500204462E+03 0.  0.
          2    1    1    2  501    0 -0.60587338646E+01  0.65882035984E+02 -0.15024706147E+04  0.15039265603E+04  0.00000000000E+00 0. -1.
          1    1    1    2  502    0 -0.18203261559E+01 -0.33799641885E+02 -0.36739344793E+02  0.49955068159E+02  0.00000000000E+00 0. -1.
         22    1    3    3    0    0  0.52886976690E+02  0.74181762332E+01 -0.17892522998E+04  0.17900491205E+04  0.00000000000E+00 0.  1.
         22    1    3    3    0    0 -0.45007916669E+02 -0.39500570332E+02 -0.69914560600E+03  0.70170548381E+03  0.00000000000E+00 0.  1.
</event>
<event>
 7    1  0.7029100E-006  0.2150438E+03  0.7818608E-02  0.1243903E+00
          2   -1    0    0  502    0  0.00000000000E+00  0.00000000000E+00  0.76228985355E+03  0.76228985355E+03  0.00000000000E+00 0. -1.
          1   -1    0    0  501    0 -0.00000000000E+00 -0.00000000000E+00 -0.29702750289E+03  0.29702750289E+03  0.00000000000E+00 0. -1.
         25    2    1    2    0    0 -0.15348785349E+03  0.20345459886E+03 -0.57395050796E+02  0.28959256089E+03  0.12496945426E+03 0.  0.
          2    1    1    2  501    0  0.12334290209E+03 -0.14426903810E+03 -0.47540856843E+02  0.19567105028E+03  0.00000000000E+00 0. -1.
          1    1    1    2  502    0  0.30144951400E+02 -0.59185560766E+02  0.57019825829E+03  0.57405374527E+03  0.00000000000E+00 0. -1.
         22    1    3    3    0    0  0.13983914277E+02  0.61440570297E+02 -0.24294407467E+02  0.67533042069E+02  0.00000000000E+00 0.  1.
         22    1    3    3    0    0 -0.16747176777E+03  0.14201402857E+03 -0.33100643329E+02  0.22205951882E+03  0.00000000000E+00 0.  1.
</event>
<event>
 7    1  0.7029100E-006  0.1200744E+03  0.7818608E-02  0.1422283E+00
          2   -1    0    0  502    0  0.00000000000E+00  0.00000000000E+00  0.21060715263E+03  0.21060715263E+03  0.00000000000E+00 0. -1.
          1   -1    0    0  501    0 -0.00000000000E+00 -0.00000000000E+00 -0.72749633563E+03  0.72749633563E+03  0.00000000000E+00 0. -1.
         25    2    1    2    0    0 -0.27082410317E+02  0.13829164454E+03 -0.35081672642E+03  0.39818953858E+03  0.12499798877E+03 0.  0.
          2    1    1    2  501    0  0.14775506969E+02 -0.19885409480E+02 -0.33353322097E+03  0.33445202138E+03  0.00000000000E+00 0. -1.
          1    1    1    2  502    0  0.12306903348E+02 -0.11840623506E+03  0.16746076439E+03  0.20546192830E+03  0.00000000000E+00 0. -1.
         22    1    3    3    0    0  0.14575645270E+02  0.24759355157E+02 -0.17689064177E+01  0.28785484758E+02  0.00000000000E+00 0.  1.
         22    1    3    3    0    0 -0.41658055587E+02  0.11353228938E+03 -0.34904782001E+03  0.36940405382E+03  0.00000000000E+00 0.  1.
</event>
<event>
 7    1  0.7029100E-006  0.1112501E+03  0.7818608E-02  0.1302870E+00
          2   -1    0    0  502    0  0.00000000000E+00  0.00000000000E+00  0.13244171317E+04  0.13244171317E+04  0.00000000000E+00 0. -1.
          1   -1    0    0  501    0 -0.00000000000E+00 -0.00000000000E+00 -0.55890976435E+03  0.55890976435E+03  0.00000000000E+00 0. -1.
         25    2    1    2    0    0 -0.87803069415E+02 -0.66064997383E+01 -0.10159512327E+03  0.18356919205E+03  0.12499221719E+03 0.  0.
          2    1    1    2  501    0  0.10009582826E+03 -0.65144876691E+02 -0.40670216691E+03  0.42387460689E+03  0.00000000000E+00 0. -1.
          1    1    1    2  502    0 -0.12292758844E+02  0.71751376429E+02  0.12738046575E+04  0.12758830971E+04  0.00000000000E+00 0. -1.
         22    1    3    3    0    0 -0.18434703704E+01 -0.47274444446E+02 -0.67745296771E+02  0.82629877861E+02  0.00000000000E+00 0.  1.
         22    1    3    3    0    0 -0.85959599044E+02  0.40667944708E+02 -0.33849826503E+02  0.10093931419E+03  0.00000000000E+00 0.  1.
</event>
<event>
 7    1  0.7029100E-006  0.9183095E+02  0.7818608E-02  0.1417907E+00
          2   -1    0    0  502    0  0.00000000000E+00  0.00000000000E+00  0.67996357776E+03  0.67996357776E+03  0.00000000000E+00 0. -1.
          1   -1    0    0  501    0 -0.00000000000E+00 -0.00000000000E+00 -0.54820547089E+03  0.54820547089E+03  0.00000000000E+00 0. -1.
         25    2    1    2    0    0  0.10707752066E+03  0.14351638141E+02 -0.27061168165E+03  0.31706065066E+03  0.12500083602E+03 0.  0.
          2    1    1    2  501    0 -0.23652319692E+02  0.23726326683E+02 -0.25004536632E+03  0.25227971782E+03  0.00000000000E+00 0. -1.
          1    1    1    2  502    0 -0.83425200971E+02 -0.38077964824E+02  0.65241515483E+03  0.65882868017E+03  0.00000000000E+00 0. -1.
         22    1    3    3    0    0  0.15708181601E+02  0.11325818498E+02  0.10097671687E+02  0.21839965827E+02  0.00000000000E+00 0.  1.
         22    1    3    3    0    0  0.91369339063E+02  0.30258196431E+01 -0.28070935333E+03  0.29522068483E+03  0.00000000000E+00 0.  1.
</event>
<event>
 7    1  0.7029100E-006  0.1495012E+03  0.7818608E-02  0.1268504E+00
          2   -1    0    0  502    0  0.00000000000E+00  0.00000000000E+00  0.31390644039E+04  0.31390644039E+04  0.00000000000E+00 0. -1.
          1   -1    0    0  501    0 -0.00000000000E+00 -0.00000000000E+00 -0.65095550041E+03  0.65095550041E+03  0.00000000000E+00 0. -1.
         25    2    1    2    0    0 -0.12594419564E+03 -0.94711208105E+01  0.29180537452E+02  0.18008491592E+03  0.12500972215E+03 0.  0.
          2    1    1    2  501    0  0.13907502877E+03 -0.64276595196E+02 -0.56483436013E+03  0.58524456315E+03  0.00000000000E+00 0. -1.
          1    1    1    2  502    0 -0.13130833128E+02  0.73747716006E+02  0.30237627261E+04  0.30246904252E+04  0.00000000000E+00 0. -1.
         22    1    3    3    0    0 -0.47388275401E+02  0.57468832158E+02  0.11312243747E+02  0.75341105471E+02  0.00000000000E+00 0.  1.
         22    1    3    3    0    0 -0.78555920240E+02 -0.66939952968E+02  0.17868293705E+02  0.10474381045E+03  0.00000000000E+00 0.  1.
</event>
<event>
 7    1  0.7029100E-006  0.1417415E+03  0.7818608E-02  0.1413921E+00
          2   -1    0    0  502    0  0.00000000000E+00  0.00000000000E+00  0.21085921387E+03  0.21085921387E+03  0.00000000000E+00 0. -1.
          1   -1    0    0  501    0 -0.00000000000E+00 -0.00000000000E+00 -0.14615333703E+04  0.14615333703E+04  0.00000000000E+00 0. -1.
         25    2    1    2    0    0 -0.50389412136E+02 -0.15373295025E+03 -0.25476027293E+03  0.32665121718E+03  0.12500123270E+03 0.  0.
          2    1    1    2  501    0  0.10690096758E+02  0.19667233318E+02 -0.11427586476E+04  0.11429778672E+04  0.00000000000E+00 0. -1.
          1    1    1    2  502    0  0.39699315378E+02  0.13406571693E+03  0.14684476411E+03  0.20276349979E+03  0.00000000000E+00 0. -1.
         22    1    3    3    0    0 -0.81413649055E+02 -0.11122498128E+03 -0.23080280759E+03  0.26882915524E+03  0.00000000000E+00 0. -1.
         22    1    3    3    0    0  0.31024236919E+02 -0.42507968969E+02 -0.23957465334E+02  0.57822061945E+02  0.00000000000E+00 0. -1.
</event>
<event>
 7    1  0.7029100E-006  0.8868588E+02  0.7818608E-02  0.1373040E+00
          2   -1    0    0  502    0  0.00000000000E+00  0.00000000000E+00  0.86260770056E+02  0.86260770056E+02  0.00000000000E+00 0. -1.
          1   -1    0    0  501    0 -0.00000000000E+00 -0.00000000000E+00 -0.13624177909E+04  0.13624177909E+04  0.00000000000E+00 0. -1.
         25    2    1    2    0    0  0.65276894781E+02 -0.66254034515E+02 -0.26028522324E+03  0.30335395398E+03  0.12499821549E+03 0.  0.
          2    1    1    2  501    0 -0.20252407561E+02  0.87081680363E+02 -0.10689444318E+04  0.10726768280E+04  0.00000000000E+00 0. -1.
          1    1    1    2  502    0 -0.45024487220E+02 -0.20827645849E+02  0.53072634226E+02  0.72647778939E+02  0.00000000000E+00 0. -1.
         22    1    3    3    0    0  0.11683136147E+02 -0.27042619554E+02 -0.22731001982E+03  0.22921091608E+03  0.00000000000E+00 0. -1.
         22    1    3    3    0    0  0.53593758634E+02 -0.39211414960E+02 -0.32975203423E+02  0.74143037896E+02  0.00000000000E+00 0. -1.
</event>
<event>
 7    1  0.7029100E-006  0.4154148E+02  0.7818608E-02  0.1605505E+00
          2   -1    0    0  502    0  0.00000000000E+00  0.00000000000E+00  0.16020711436E+03  0.16020711436E+03  0.00000000000E+00 0. -1.
          1   -1    0    0  501    0 -0.00000000000E+00 -0.00000000000E+00 -0.25864170920E+04  0.25864170920E+04  0.00000000000E+00 0. -1.
         25    2    1    2    0    0  0.24828646205E+02  0.36789445325E+01 -0.15874728063E+04  0.15925846673E+04  0.12500406190E+03 0.  0.
          2    1    1    2  501    0 -0.44837100255E+02  0.17112442378E+01 -0.99519974878E+03  0.99621073768E+03  0.00000000000E+00 0. -1.
          1    1    1    2  502    0  0.20008454051E+02 -0.53901887703E+01  0.15646257749E+03  0.15782880131E+03  0.00000000000E+00 0. -1.
         22    1    3    3    0    0  0.74127382207E+02 -0.91280967153E+01 -0.80568982586E+03  0.80914416913E+03  0.00000000000E+00 0. -1.
         22    1    3    3    0    0 -0.49298736003E+02  0.12807041248E+02 -0.78178298046E+03  0.78344049819E+03  0.00000000000E+00 0. -1.
</event>
<event>
 7    1  0.7029100E-006  0.1029103E+03  0.7818608E-02  0.1286060E+00
          2   -1    0    0  502    0  0.00000000000E+00  0.00000000000E+00  0.37454802137E+03  0.37454802137E+03  0.00000000000E+00 0. -1.
          1   -1    0    0  501    0 -0.00000000000E+00 -0.00000000000E+00 -0.15928391219E+04  0.15928391219E+04  0.00000000000E+00 0. -1.
         25    2    1    2    0    0 -0.75480797780E+02 -0.32540293073E+01 -0.21280833065E+03  0.25810944709E+03  0.12500064617E+03 0.  0.
          2    1    1    2  501    0  0.16945016384E+02  0.90438127102E+02 -0.13479424621E+04  0.13510792240E+04  0.00000000000E+00 0. -1.
          1    1    1    2  502    0  0.58535781396E+02 -0.87184097794E+02  0.34245969226E+03  0.35819847213E+03  0.00000000000E+00 0. -1.
         22    1    3    3    0    0 -0.69783530528E+02  0.67945122552E+01 -0.32237812613E+02  0.77169832783E+02  0.00000000000E+00 0. -1.
         22    1    3    3    0    0 -0.56972672519E+01 -0.10048541562E+02 -0.18057051804E+03  0.18093961431E+03  0.00000000000E+00 0. -1.
</event>
<event>
 7    1  0.7029100E-006  0.1626204E+03  0.7818608E-02  0.1334580E+00
          2   -1    0    0  502    0  0.00000000000E+00  0.00000000000E+00  0.18343275043E+03  0.18343275043E+03  0.00000000000E+00 0. -1.
          1   -1    0    0  501    0 -0.00000000000E+00 -0.00000000000E+00 -0.98674908494E+03  0.98674908494E+03  0.00000000000E+00 0. -1.
         25    2    1    2    0    0  0.25287629089E+02  0.14216777764E+03 -0.24426551399E+03  0.31006575601E+03  0.12499596210E+03 0.  0.
          2    1    1    2  501    0  0.35381546110E+02  0.12402818487E+02 -0.66310015489E+03  0.66415924230E+03  0.00000000000E+00 0. -1.
          1    1    1    2  502    0 -0.60669175199E+02 -0.15457059613E+03  0.10404933438E+03  0.19595683706E+03  0.00000000000E+00 0. -1.
         22    1    3    3    0    0  0.20635684189E+02  0.42138118537E+02 -0.19092848895E+03  0.19660910556E+03  0.00000000000E+00 0. -1.
         22    1    3    3    0    0  0.46519449000E+01  0.10002965911E+03 -0.53337025046E+02  0.11345665046E+03  0.00000000000E+00 0. -1.
</event>
<event>
 7    1  0.7029100E-006  0.1620192E+03  0.7818608E-02  0.1339534E+00
          2   -1    0    0  502    0  0.00000000000E+00  0.00000000000E+00  0.26194521103E+03  0.26194521103E+03  0.00000000000E+00 0. -1.
          1   -1    0    0  501    0 -0.00000000000E+00 -0.00000000000E+00 -0.17368287739E+04  0.17368287739E+04  0.00000000000E+00 0. -1.
         25    2    1    2    0    0  0.13840980739E+03  0.28044302259E+02 -0.43507211397E+03  0.47419104366E+03  0.12500257542E+03 0.  0.
          2    1    1    2  501    0 -0.16810873339E+03 -0.76206878942E+01 -0.12752985498E+04  0.12863533777E+04  0.00000000000E+00 0. -1.
          1    1    1    2  502    0  0.29698926001E+02 -0.20423614365E+02  0.23548710096E+03  0.23822956355E+03  0.00000000000E+00 0. -1.
         22    1    3    3    0    0  0.45315892094E+02  0.17276937583E+02 -0.27021781566E+02  0.55517558731E+02  0.00000000000E+00 0.  1.
         22    1    3    3    0    0  0.93093915294E+02  0.10767364676E+02 -0.40805033241E+03  0.41867348493E+03  0.00000000000E+00 0.  1.
</event>
<event>
 7    1  0.7029100E-006  0.1439395E+03  0.7818608E-02  0.1334151E+00
          2   -1    0    0  502    0  0.00000000000E+00  0.00000000000E+00  0.37201621217E+04  0.37201621217E+04  0.00000000000E+00 0. -1.
          1   -1    0    0  501    0 -0.00000000000E+00 -0.00000000000E+00 -0.11664675108E+02  0.11664675108E+02  0.00000000000E+00 0. -1.
         25    2    1    2    0    0  0.31448265956E+01 -0.11150660034E+03  0.88649463533E+03  0.90218684928E+03  0.12499904280E+03 0.  0.
          2    1    1    2  501    0  0.82753882415E+01 -0.41704197112E+02  0.30456402237E+03  0.30751742362E+03  0.00000000000E+00 0. -1.
          1    1    1    2  502    0 -0.11420214837E+02  0.15321079745E+03  0.25174387889E+04  0.25221225239E+04  0.00000000000E+00 0. -1.
         22    1    3    3    0    0 -0.91012468221E+01 -0.28367779872E+02  0.32582411588E+02  0.44149486673E+02  0.00000000000E+00 0. -1.
         22    1    3    3    0    0  0.12246073418E+02 -0.83138820467E+02  0.85391222374E+03  0.85803736261E+03  0.00000000000E+00 0. -1.
</event>
<event>
 7    1  0.7029100E-006  0.2594625E+03  0.7818608E-02  0.1131605E+00
          2   -1    0    0  502    0  0.00000000000E+00  0.00000000000E+00  0.85893908365E+03  0.85893908365E+03  0.00000000000E+00 0. -1.
          1   -1    0    0  501    0 -0.00000000000E+00 -0.00000000000E+00 -0.33763840564E+03  0.33763840564E+03  0.00000000000E+00 0. -1.
         25    2    1    2    0    0 -0.83992422795E+02  0.26371674537E+03 -0.18409215245E+03  0.35512766223E+03  0.12499794804E+03 0.  0.
          2    1    1    2  501    0  0.19069025004E+03 -0.20643715627E+02  0.26277176816E+03  0.32532742983E+03  0.00000000000E+00 0. -1.
          1    1    1    2  502    0 -0.10669782724E+03 -0.24307302974E+03  0.44262106230E+03  0.51612239723E+03  0.00000000000E+00 0. -1.
         22    1    3    3    0    0 -0.93540615222E+02  0.12487756770E+03 -0.13864900580E+03  0.20872901192E+03  0.00000000000E+00 0.  1.
         22    1    3    3    0    0  0.95481924271E+01  0.13883917767E+03 -0.45443146654E+02  0.14639865031E+03  0.00000000000E+00 0.  1.
</event>
<event>
 7    1  0.7029100E-006  0.9507358E+02  0.7818608E-02  0.1472074E+00
          2   -1    0    0  502    0  0.00000000000E+00  0.00000000000E+00  0.58451024389E+03  0.58451024389E+03  0.00000000000E+00 0. -1.
          1   -1    0    0  501    0 -0.00000000000E+00 -0.00000000000E+00 -0.21860700834E+04  0.21860700834E+04  0.00000000000E+00 0. -1.
         25    2    1    2    0    0  0.25593902494E+02 -0.10870309227E+03 -0.10431234777E+04  0.10565053635E+04  0.12500233304E+03 0.  0.
          2    1    1    2  501    0 -0.16346092335E+02  0.89131484362E+02 -0.11342452441E+04  0.11378593455E+04  0.00000000000E+00 0. -1.
          1    1    1    2  502    0 -0.92478101590E+01  0.19571607911E+02  0.57580888232E+03  0.57621561831E+03  0.00000000000E+00 0. -1.
         22    1    3    3    0    0 -0.27895466699E+02  0.14726210238E+01 -0.65058028907E+02  0.70801644051E+02  0.00000000000E+00 0.  1.
         22    1    3    3    0    0  0.53489369193E+02 -0.11017571330E+03 -0.97806544876E+03  0.98570371942E+03  0.00000000000E+00 0.  1.
</event>
<event>
 7    1  0.7029100E-006  0.9285758E+02  0.7818608E-02  0.1418599E+00
          2   -1    0    0  502    0  0.00000000000E+00  0.00000000000E+00  0.11434648272E+04  0.11434648272E+04  0.00000000000E+00 0. -1.
          1   -1    0    0  501    0 -0.00000000000E+00 -0.00000000000E+00 -0.31705928169E+03  0.31705928169E+03  0.00000000000E+00 0. -1.
         25    2    1    2    0    0 -0.77842015163E+02  0.21559505367E+02  0.74766486159E+03  0.76233279717E+03  0.12499742710E+03 0.  0.
          2    1    1    2  501    0  0.75430335301E+02 -0.54426321444E+02 -0.30201389744E+03  0.31601321839E+03  0.00000000000E+00 0. -1.
          1    1    1    2  502    0  0.24116798614E+01  0.32866816077E+02  0.38075458141E+03  0.38217809338E+03  0.00000000000E+00 0. -1.
         22    1    3    3    0    0 -0.19289584462E+02 -0.50311811736E+02  0.21421343876E+03  0.22088631423E+03  0.00000000000E+00 0. -1.
         22    1    3    3    0    0 -0.58552430701E+02  0.71871317103E+02  0.53345142283E+03  0.54144648293E+03  0.00000000000E+00 0. -1.
</event>
<event>
 7    1  0.7029100E-006  0.1132183E+03  0.7818608E-02  0.1440816E+00
          2   -1    0    0  502    0  0.00000000000E+00  0.00000000000E+00  0.27610555021E+03  0.27610555021E+03  0.00000000000E+00 0. -1.
          1   -1    0    0  501    0 -0.00000000000E+00 -0.00000000000E+00 -0.13122212411E+04  0.13122212411E+04  0.00000000000E+00 0. -1.
         25    2    1    2    0    0 -0.81310551974E+02 -0.53160261905E+02  0.46170351272E+02  0.16490950641E+03  0.12500409857E+03 0.  0.
          2    1    1    2  501    0  0.84714204069E+02  0.75742560746E+02 -0.12494970905E+04  0.12546539009E+04  0.00000000000E+00 0. -1.
          1    1    1    2  502    0 -0.34036520953E+01 -0.22582298840E+02  0.16721104837E+03  0.16876338396E+03  0.00000000000E+00 0. -1.
         22    1    3    3    0    0 -0.15518726438E+02  0.40708561795E+02  0.15582630173E+02  0.46269171560E+02  0.00000000000E+00 0. -1.
         22    1    3    3    0    0 -0.65791825536E+02 -0.93868823701E+02  0.30587721099E+02  0.11864033485E+03  0.00000000000E+00 0. -1.
</event>
<event>
 7    1  0.7029100E-006  0.2982201E+02  0.7818608E-02  0.1629203E+00
          2   -1    0    0  502    0  0.00000000000E+00  0.00000000000E+00  0.12523778461E+04  0.12523778461E+04  0.00000000000E+00 0. -1.
          1   -1    0    0  501    0 -0.00000000000E+00 -0.00000000000E+00 -0.25575103882E+03  0.25575103882E+03  0.00000000000E+00 0. -1.
         25    2    1    2    0    0 -0.32629611797E+02 -0.41418385685E+02 -0.14998298825E+03  0.20223707354E+03  0.12499905164E+03 0.  0.
          2    1    1    2  501    0  0.20796448596E+02  0.14068245124E+02 -0.77476243192E+02  0.81443084754E+02  0.00000000000E+00 0. -1.
          1    1    1    2  502    0  0.11833163202E+02  0.27350140561E+02  0.12240860387E+04  0.12244487266E+04  0.00000000000E+00 0. -1.
         22    1    3    3    0    0 -0.60293720857E+02 -0.72152932620E+02 -0.11008657881E+03  0.14477718499E+03  0.00000000000E+00 0. -1.
         22    1    3    3    0    0  0.27664109060E+02  0.30734546934E+02 -0.39896409437E+02  0.57459888543E+02  0.00000000000E+00 0. -1.
</event>
<event>
 7    1  0.7029100E-006  0.7461678E+02  0.7818608E-02  0.1420956E+00
          2   -1    0    0  502    0  0.00000000000E+00  0.00000000000E+00  0.19639227488E+04  0.19639227488E+04  0.00000000000E+00 0. -1.
          1   -1    0    0  501    0 -0.00000000000E+00 -0.00000000000E+00 -0.21865537077E+03  0.21865537077E+03  0.00000000000E+00 0. -1.
         25    2    1    2    0    0  0.13812987759E+02  0.99389942868E+02 -0.55508289348E+02  0.16963034885E+03  0.12499650271E+03 0.  0.
          2    1    1    2  501    0 -0.30142400517E+02 -0.26710509326E+02 -0.10150822983E+03  0.10920593546E+03  0.00000000000E+00 0. -1.
          1    1    1    2  502    0  0.16329412758E+02 -0.72679433543E+02  0.19022838972E+04  0.19037418353E+04  0.00000000000E+00 0. -1.
         22    1    3    3    0    0  0.56546304017E+02  0.59878190710E+02 -0.71725238730E+02  0.10921260042E+03  0.00000000000E+00 0.  1.
         22    1    3    3    0    0 -0.42733316258E+02  0.39511752159E+02  0.16216949382E+02  0.60417748422E+02  0.00000000000E+00 0.  1.
</event>
<event>
 7    1  0.7029100E-006  0.3736664E+02  0.7818608E-02  0.1593890E+00
          2   -1    0    0  502    0  0.00000000000E+00  0.00000000000E+00  0.33103682501E+02  0.33103682501E+02  0.00000000000E+00 0. -1.
          1   -1    0    0  501    0 -0.00000000000E+00 -0.00000000000E+00 -0.23178958387E+04  0.23178958387E+04  0.00000000000E+00 0. -1.
         25    2    1    2    0    0 -0.22816089489E+02  0.24398401580E+01 -0.16252810740E+04  0.16302435997E+04  0.12501639240E+03 0.  0.
          2    1    1    2  501    0 -0.83989452100E+01 -0.23233511678E+02 -0.67833899732E+03  0.67878872532E+03  0.00000000000E+00 0. -1.
          1    1    1    2  502    0  0.31215034699E+02  0.20793671520E+02  0.18827915068E+02  0.41967196146E+02  0.00000000000E+00 0. -1.
         22    1    3    3    0    0  0.34144576965E+02  0.15253850352E+02 -0.18303835056E+03  0.18681961851E+03  0.00000000000E+00 0.  1.
         22    1    3    3    0    0 -0.56960666454E+02 -0.12814010194E+02 -0.14422427234E+04  0.14434239812E+04  0.00000000000E+00 0.  1.
</event>
<event>
 7    1  0.7029100E-006  0.9689110E+02  0.7818608E-02  0.1303224E+00
          2   -1    0    0  502    0  0.00000000000E+00  0.00000000000E+00  0.14214921954E+04  0.14214921954E+04  0.00000000000E+00 0. -1.
          1   -1    0    0  501    0 -0.00000000000E+00 -0.00000000000E+00 -0.88505694059E+03  0.88505694059E+03  0.00000000000E+00 0. -1.
         25    2    1    2    0    0 -0.15520193436E+03  0.47064068308E+02  0.10282049696E+04  0.10483956009E+04  0.12500083748E+03 0.  0.
          2    1    1    2  501    0  0.96057880469E+02  0.11614336865E+02 -0.86771210579E+03  0.87309009144E+03  0.00000000000E+00 0. -1.
          1    1    1    2  502    0  0.59144053889E+02 -0.58678405173E+02  0.37594239095E+03  0.38506344368E+03  0.00000000000E+00 0. -1.
         22    1    3    3    0    0 -0.47738237839E+02 -0.29679173647E+02  0.14754613003E+03  0.15789127014E+03  0.00000000000E+00 0.  1.
         22    1    3    3    0    0 -0.10746369652E+03  0.76743241955E+02  0.88065883960E+03  0.89050433071E+03  0.00000000000E+00 0.  1.
</event>
<event>
 7    1  0.7029100E-006  0.4072334E+02  0.7818608E-02  0.1511933E+00
          2   -1    0    0  502    0  0.00000000000E+00  0.00000000000E+00  0.38007864193E+03  0.38007864193E+03  0.00000000000E+00 0. -1.
          1   -1    0    0  501    0 -0.00000000000E+00 -0.00000000000E+00 -0.86701708203E+02  0.86701708203E+02  0.00000000000E+00 0. -1.
         25    2    1    2    0    0  0.24829485441E+02 -0.35440563532E+02  0.15769908149E+03  0.20583100622E+03  0.12499946372E+03 0.  0.
          2    1    1    2  501    0  0.13307790684E+02  0.39084441943E+02 -0.53698659797E+02  0.67736526032E+02  0.00000000000E+00 0. -1.
          1    1    1    2  502    0 -0.38137276125E+02 -0.36438784111E+01  0.18937651204E+03  0.19321281788E+03  0.00000000000E+00 0. -1.
         22    1    3    3    0    0 -0.36042189269E+02 -0.53341887683E+02  0.10585710090E+03  0.12389561010E+03  0.00000000000E+00 0. -1.
         22    1    3    3    0    0  0.60871674711E+02  0.17901324151E+02  0.51841980580E+02  0.81935396130E+02  0.00000000000E+00 0. -1.
</event>
<event>
 7    1  0.7029100E-006  0.3276609E+02  0.7818608E-02  0.1578747E+00
          2   -1    0    0  502    0  0.00000000000E+00  0.00000000000E+00  0.20086935087E+03  0.20086935087E+03  0.00000000000E+00 0. -1.
          1   -1    0    0  501    0 -0.00000000000E+00 -0.00000000000E+00 -0.13748502078E+04  0.13748502078E+04  0.00000000000E+00 0. -1.
         25    2    1    2    0    0 -0.33813210918E+02  0.41178558109E+02 -0.22980380219E+02  0.13779375664E+03  0.12498005686E+03 0.  0.
          2    1    1    2  501    0  0.30554043086E+01 -0.30760025881E+02 -0.12924382272E+04  0.12928078302E+04  0.00000000000E+00 0. -1.
          1    1    1    2  502    0  0.30757806610E+02 -0.10418532228E+02  0.14143775050E+03  0.14511797183E+03  0.00000000000E+00 0. -1.
         22    1    3    3    0    0  0.11991679680E+02  0.39442231025E+02  0.41621550325E+02  0.58581937670E+02  0.00000000000E+00 0. -1.
         22    1    3    3    0    0 -0.45804890598E+02  0.17363270843E+01 -0.64601930544E+02  0.79211818969E+02  0.00000000000E+00 0. -1.
</event>
<event>
 7    1  0.7029100E-006  0.2718350E+02  0.7818608E-02  0.1634080E+00
          2   -1    0    0  502    0  0.00000000000E+00  0.00000000000E+00  0.95867313620E+03  0.95867313620E+03  0.00000000000E+00 0. -1.
          1   -1    0    0  501    0 -0.00000000000E+00 -0.00000000000E+00 -0.84825396775E+03  0.84825396775E+03  0.00000000000E+00 0. -1.
         25    2    1    2    0    0 -0.30008628294E+01  0.52886993047E+02 -0.38831330127E+03  0.41136136374E+03  0.12499964969E+03 0.  0.
          2    1    1    2  501    0  0.65959117820E+01 -0.25954486370E+02 -0.44782169019E+03  0.44862167537E+03  0.00000000000E+00 0. -1.
          1    1    1    2  502    0 -0.35950489526E+01 -0.26932506678E+02  0.94655415991E+03  0.94694406484E+03  0.00000000000E+00 0. -1.
         22    1    3    3    0    0  0.25515849247E+02  0.26993255661E+02 -0.22294493749E+02  0.43321344226E+02  0.00000000000E+00 0. -1.
         22    1    3    3    0    0 -0.28516712077E+02  0.25893737387E+02 -0.36601880752E+03  0.36804001952E+03  0.00000000000E+00 0. -1.
</event>
<event>
 7    1  0.7029100E-006  0.1267217E+03  0.7818608E-02  0.1280037E+00
          2   -1    0    0  502    0  0.00000000000E+00  0.00000000000E+00  0.14339557365E+04  0.14339557365E+04  0.00000000000E+00 0. -1.
          1   -1    0    0  501    0 -0.00000000000E+00 -0.00000000000E+00 -0.10289752961E+03  0.10289752961E+03  0.00000000000E+00 0. -1.
         25    2    1    2    0    0 -0.68659811718E+02  0.41261033340E+02  0.11962925475E+03  0.19066472727E+03  0.12500094805E+03 0.  0.
          2    1    1    2  501    0  0.11118592821E+03 -0.10796635847E+03  0.24832030002E+02  0.15695755766E+03  0.00000000000E+00 0. -1.
          1    1    1    2  502    0 -0.42526116489E+02  0.66705325130E+02  0.11865969222E+04  0.11892309812E+04  0.00000000000E+00 0. -1.
         22    1    3    3    0    0  0.16349298900E+02 -0.31252435278E+02  0.40739982554E+02  0.53886551790E+02  0.00000000000E+00 0.  1.
         22    1    3    3    0    0 -0.85009110618E+02  0.72513468618E+02  0.78889272195E+02  0.13677817548E+03  0.00000000000E+00 0.  1.
</event>
<event>
 7    1  0.7029100E-006  0.5329206E+02  0.7818608E-02  0.1448170E+00
          2   -1    0    0  502    0  0.00000000000E+00  0.00000000000E+00  0.27792341194E+02  0.27792341194E+02  0.00000000000E+00 0. -1.
          1   -1    0    0  501    0 -0.00000000000E+00 -0.00000000000E+00 -0.13656537404E+04  0.13656537404E+04  0.00000000000E+00 0. -1.
         25    2    1    2    0    0  0.14264236189E+02 -0.22525136172E+02 -0.31447679861E+03  0.33945788629E+03  0.12500059803E+03 0.  0.
          2    1    1    2  501    0  0.21565165638E+02  0.51277272444E+02 -0.10016030727E+04  0.10031466146E+04  0.00000000000E+00 0. -1.
          1    1    1    2  502    0 -0.35829401827E+02 -0.28752136272E+02 -0.21781527888E+02  0.50841580745E+02  0.00000000000E+00 0. -1.
         22    1    3    3    0    0 -0.68622632127E+00  0.17945971323E+02 -0.28857982915E+03  0.28913810988E+03  0.00000000000E+00 0. -1.
         22    1    3    3    0    0  0.14950462510E+02 -0.40471107494E+02 -0.25896969464E+02  0.50319776416E+02  0.00000000000E+00 0. -1.
</event>
<event>
 7    1  0.7029100E-006  0.1293182E+03  0.7818608E-02  0.1243268E+00
          2   -1    0    0  502    0  0.00000000000E+00  0.00000000000E+00  0.55615125365E+02  0.55615125365E+02  0.00000000000E+00 0. -1.
          1   -1    0    0  501    0 -0.00000000000E+00 -0.00000000000E+00 -0.20192837162E+04  0.20192837162E+04  0.00000000000E+00 0. -1.
         25    2    1    2    0    0 -0.85091928382E+02 -0.24434549526E+02 -0.11615642492E+04  0.11716203722E+04  0.12500043265E+03 0.  0.
          2    1    1    2  501    0  0.10594725967E+03  0.15206000107E+03 -0.73417330079E+03  0.75720373834E+03  0.00000000000E+00 0. -1.
          1    1    1    2  502    0 -0.20855331287E+02 -0.12762545155E+03 -0.67931040878E+02  0.14607473101E+03  0.00000000000E+00 0. -1.
         22    1    3    3    0    0 -0.29635374646E+01 -0.60167784628E+02 -0.35210132781E+03  0.35721742665E+03  0.00000000000E+00 0.  1.
         22    1    3    3    0    0 -0.82128390918E+02  0.35733235102E+02 -0.80946292137E+03  0.81440294557E+03  0.00000000000E+00 0.  1.
</event>
<event>
 7    1  0.7029100E-006  0.6565987E+02  0.7818608E-02  0.1450112E+00
          2   -1    0    0  502    0  0.00000000000E+00  0.00000000000E+00  0.12758057646E+04  0.12758057646E+04  0.00000000000E+00 0. -1.
          1   -1    0    0  501    0 -0.00000000000E+00 -0.00000000000E+00 -0.10076085420E+04  0.10076085420E+04  0.00000000000E+00 0. -1.
         25    2    1    2    0    0 -0.84225024718E+02 -0.25996927780E+02  0.62325725965E+02  0.16516586049E+03  0.12500228122E+03 0.  0.
          2    1    1    2  501    0  0.33467835054E+02 -0.15195457730E+02 -0.95491533484E+03  0.95562246449E+03  0.00000000000E+00 0. -1.
          1    1    1    2  502    0  0.50757189665E+02  0.41192385511E+02  0.11607868315E+04  0.11626259816E+04  0.00000000000E+00 0. -1.
         22    1    3    3    0    0  0.18404450023E+02  0.50979628696E+01 -0.21717463138E+02  0.28919910291E+02  0.00000000000E+00 0.  1.
         22    1    3    3    0    0 -0.10262947474E+03 -0.31094890650E+02  0.84043189103E+02  0.13624595020E+03  0.00000000000E+00 0.  1.
</event>
<event>
 7    1  0.7029100E-006  0.9930617E+02  0.7818608E-02  0.1342115E+00
          2   -1    0    0  502    0  0.00000000000E+00  0.00000000000E+00  0.20786508377E+04  0.20786508377E+04  0.00000000000E+00 0. -1.
          1   -1    0    0  501    0 -0.00000000000E+00 -0.00000000000E+00 -0.23951984806E+03  0.23951984806E+03  0.00000000000E+00 0. -1.
         25    2    1    2    0    0 -0.76220465871E+02 -0.22710516502E+02  0.49706903066E+03  0.51867860115E+03  0.12499817230E+03 0.  0.
          2    1    1    2  501    0 -0.23832254463E+02  0.52336279455E+02 -0.22333560682E+03  0.23062058836E+03  0.00000000000E+00 0. -1.
          1    1    1    2  502    0  0.10005272033E+03 -0.29625762952E+02  0.15653975658E+04  0.15688714962E+04  0.00000000000E+00 0. -1.
         22    1    3    3    0    0 -0.89914590732E+02  0.18278476129E+02  0.42375992846E+03  0.43357953513E+03  0.00000000000E+00 0.  1.
         22    1    3    3    0    0  0.13694124862E+02 -0.40988992632E+02  0.73309102198E+02  0.85099066022E+02  0.00000000000E+00 0.  1.
</event>
<event>
 7    1  0.7029100E-006  0.3154479E+02  0.7818608E-02  0.1612871E+00
          2   -1    0    0  502    0  0.00000000000E+00  0.00000000000E+00  0.86037993924E+03  0.86037993924E+03  0.00000000000E+00 0. -1.
          1   -1    0    0  501    0 -0.00000000000E+00 -0.00000000000E+00 -0.60117948347E+02  0.60117948347E+02  0.00000000000E+00 0. -1.
         25    2    1    2    0    0 -0.26361994717E+02  0.49237701332E+02  0.11372714747E+03  0.17798408276E+03  0.12500065458E+03 0.  0.
          2    1    1    2  501    0  0.17324646557E+02 -0.24731812786E+02 -0.19532952821E+02  0.35963066998E+02  0.00000000000E+00 0. -1.
          1    1    1    2  502    0  0.90373481596E+01 -0.24505888546E+02  0.70606779624E+03  0.70655073783E+03  0.00000000000E+00 0. -1.
         22    1    3    3    0    0 -0.41053118933E+02  0.85776398856E+02  0.64329931065E+02  0.11480979577E+03  0.00000000000E+00 0.  1.
         22    1    3    3    0    0  0.14691124216E+02 -0.36538697525E+02  0.49397216406E+02  0.63174286986E+02  0.00000000000E+00 0.  1.
</event>
<event>
 7    1  0.7029100E-006  0.1078418E+03  0.7818608E-02  0.1331501E+00
          2   -1    0    0  502    0  0.00000000000E+00  0.00000000000E+00  0.82688862712E+03  0.82688862712E+03  0.00000000000E+00 0. -1.
          1   -1    0    0  501    0 -0.00000000000E+00 -0.00000000000E+00 -0.72825849743E+03  0.72825849743E+03  0.00000000000E+00 0. -1.
         25    2    1    2    0    0  0.12060386571E+02  0.85415259313E+02  0.19273459015E+03  0.24538444542E+03  0.12500273744E+03 0.  0.
          2    1    1    2  501    0 -0.54232074755E+02  0.20793562489E+02 -0.69534099946E+03  0.69776256398E+03  0.00000000000E+00 0. -1.
          1    1    1    2  502    0  0.42171688184E+02 -0.10620882180E+03  0.60123653900E+03  0.61200011515E+03  0.00000000000E+00 0. -1.
         22    1    3    3    0    0  0.23974661174E+02  0.98202936471E+02  0.20179443554E+03  0.22569801799E+03  0.00000000000E+00 0.  1.
         22    1    3    3    0    0 -0.11914274603E+02 -0.12787677159E+02 -0.90598453945E+01  0.19686427431E+02  0.00000000000E+00 0.  1.
</event>
<event>
 7    1  0.7029100E-006  0.7808295E+02  0.7818608E-02  0.1342041E+00
          2   -1    0    0  502    0  0.00000000000E+00  0.00000000000E+00  0.25035190999E+03  0.25035190999E+03  0.00000000000E+00 0. -1.
          1   -1    0    0  501    0 -0.00000000000E+00 -0.00000000000E+00 -0.13991145835E+03  0.13991145835E+03  0.00000000000E+00 0. -1.
         25    2    1    2    0    0  0.21685437327E+02 -0.41370442673E+01  0.97595558249E+02  0.16011805746E+03  0.12500210401E+03 0.  0.
          2    1    1    2  501    0 -0.40839593096E+02 -0.71560155134E+02 -0.75840352428E+02  0.11198431686E+03  0.00000000000E+00 0. -1.
          1    1    1    2  502    0  0.19154155770E+02  0.75697199402E+02  0.88685245823E+02  0.11816099402E+03  0.00000000000E+00 0. -1.
         22    1    3    3    0    0 -0.30732240530E+02  0.89128501762E+01 -0.14921143989E+02  0.35306515605E+02  0.00000000000E+00 0. -1.
         22    1    3    3    0    0  0.52417677856E+02 -0.13049894443E+02  0.11251670224E+03  0.12481154185E+03  0.00000000000E+00 0. -1.
</event>
<event>
 7    1  0.7029100E-006  0.1465569E+03  0.7818608E-02  0.1317100E+00
          2   -1    0    0  502    0  0.00000000000E+00  0.00000000000E+00  0.18188721265E+03  0.18188721265E+03  0.00000000000E+00 0. -1.
          1   -1    0    0  501    0 -0.00000000000E+00 -0.00000000000E+00 -0.85195192719E+03  0.85195192719E+03  0.00000000000E+00 0. -1.
         25    2    1    2    0    0 -0.10493558335E+03  0.14335927869E+03 -0.41033842464E+02  0.22107065211E+03  0.12500039023E+03 0.  0.
          2    1    1    2  501    0  0.95208255138E+01 -0.47622533657E+02 -0.66982391456E+03  0.67158218287E+03  0.00000000000E+00 0. -1.
          1    1    1    2  502    0  0.95414757839E+02 -0.95736745035E+02  0.40793042479E+02  0.14118630485E+03  0.00000000000E+00 0. -1.
         22    1    3    3    0    0 -0.97292355505E+02  0.43685051591E+02 -0.55227743746E+02  0.12010116507E+03  0.00000000000E+00 0. -1.
         22    1    3    3    0    0 -0.76432278482E+01  0.99674227102E+02  0.14193901282E+02  0.10096948704E+03  0.00000000000E+00 0. -1.
</event>
<event>
 7    1  0.7029100E-006  0.1451452E+03  0.7818608E-02  0.1274401E+00
          2   -1    0    0  502    0  0.00000000000E+00  0.00000000000E+00  0.26537506148E+03  0.26537506148E+03  0.00000000000E+00 0. -1.
          1   -1    0    0  501    0 -0.00000000000E+00 -0.00000000000E+00 -0.26642812627E+04  0.26642812627E+04  0.00000000000E+00 0. -1.
         25    2    1    2    0    0 -0.50984957419E+02 -0.61962671394E+02 -0.90580068393E+02  0.17397909649E+03  0.12500055479E+03 0.  0.
          2    1    1    2  501    0  0.65702781916E+02  0.13335026468E+03 -0.25238178103E+04  0.25281921383E+04  0.00000000000E+00 0. -1.
          1    1    1    2  502    0 -0.14717824497E+02 -0.71387593287E+02  0.21549167746E+03  0.22748508938E+03  0.00000000000E+00 0. -1.
         22    1    3    3    0    0 -0.49359373533E+02 -0.57992394631E+02 -0.12115678486E+03  0.14310287246E+03  0.00000000000E+00 0. -1.
         22    1    3    3    0    0 -0.16255838857E+01 -0.39702767631E+01  0.30576716465E+02  0.30876224030E+02  0.00000000000E+00 0. -1.
</event>
<event>
 7    1  0.7029100E-006  0.9497391E+02  0.7818608E-02  0.1293176E+00
          2   -1    0    0  502    0  0.00000000000E+00  0.00000000000E+00  0.13107521816E+04  0.13107521816E+04  0.00000000000E+00 0. -1.
          1   -1    0    0  501    0 -0.00000000000E+00 -0.00000000000E+00 -0.71458541553E+03  0.71458541553E+03  0.00000000000E+00 0. -1.
         25    2    1    2    0    0  0.10095537624E+03 -0.85147044531E+01  0.15564914422E+03  0.22386641343E+03  0.12500010714E+03 0.  0.
          2    1    1    2  501    0 -0.40008957572E+02  0.84251571578E+02 -0.67515721694E+03  0.68156900721E+03  0.00000000000E+00 0. -1.
          1    1    1    2  502    0 -0.60946418665E+02 -0.75736867125E+02  0.11156748388E+04  0.11199021765E+04  0.00000000000E+00 0. -1.
         22    1    3    3    0    0 -0.19599461585E+02  0.25919221200E+02  0.16089889357E+02  0.36260577237E+02  0.00000000000E+00 0. -1.
         22    1    3    3    0    0  0.12055483782E+03 -0.34433925654E+02  0.13955925486E+03  0.18760583620E+03  0.00000000000E+00 0. -1.
</event>
<event>
 7    1  0.7029100E-006  0.1074363E+03  0.7818608E-02  0.1417571E+00
          2   -1    0    0  502    0  0.00000000000E+00  0.00000000000E+00  0.16359727722E+04  0.16359727722E+04  0.00000000000E+00 0. -1.
          1   -1    0    0  501    0 -0.00000000000E+00 -0.00000000000E+00 -0.55179176427E+03  0.55179176427E+03  0.00000000000E+00 0. -1.
         25    2    1    2    0    0  0.85788079966E+02 -0.10420839260E+03  0.78146378637E+02  0.19987646700E+03  0.12499904725E+03 0.  0.
          2    1    1    2  501    0 -0.66677447292E+02  0.82783027858E+02 -0.48503304401E+03  0.49654402168E+03  0.00000000000E+00 0. -1.
          1    1    1    2  502    0 -0.19110632674E+02  0.21425364744E+02  0.14910676733E+04  0.14913440478E+04  0.00000000000E+00 0. -1.
         22    1    3    3    0    0 -0.49564987920E+01 -0.69633379729E+02  0.75364083840E+02  0.10272837770E+03  0.00000000000E+00 0.  1.
         22    1    3    3    0    0  0.90744578758E+02 -0.34575012873E+02  0.27822947962E+01  0.97148089294E+02  0.00000000000E+00 0.  1.
</event>
<event>
 7    1  0.7029100E-006  0.1381617E+03  0.7818608E-02  0.1315462E+00
          2   -1    0    0  502    0  0.00000000000E+00  0.00000000000E+00  0.18387526271E+04  0.18387526271E+04  0.00000000000E+00 0. -1.
          1   -1    0    0  501    0 -0.00000000000E+00 -0.00000000000E+00 -0.58594724868E+03  0.58594724868E+03  0.00000000000E+00 0. -1.
         25    2    1    2    0    0  0.79712026676E+01 -0.14416277539E+03  0.11465155469E+04  0.11623118432E+04  0.12499790246E+03 0.  0.
          2    1    1    2  501    0 -0.50456128348E+02  0.13688074977E+02 -0.56996232587E+03  0.57235499229E+03  0.00000000000E+00 0. -1.
          1    1    1    2  502    0  0.42484925680E+02  0.13047470041E+03  0.67625215736E+03  0.69003304028E+03  0.00000000000E+00 0. -1.
         22    1    3    3    0    0  0.58156134437E+02 -0.56077241597E+02  0.34087331968E+03  0.35031616159E+03  0.00000000000E+00 0. -1.
         22    1    3    3    0    0 -0.50184931769E+02 -0.88085533788E+02  0.80564222721E+03  0.81199568157E+03  0.00000000000E+00 0. -1.
</event>
<event>
 7    1  0.7029100E-006  0.7974941E+02  0.7818608E-02  0.1347689E+00
          2   -1    0    0  502    0  0.00000000000E+00  0.00000000000E+00  0.74897566344E+02  0.74897566344E+02  0.00000000000E+00 0. -1.
          1   -1    0    0  501    0 -0.00000000000E+00 -0.00000000000E+00 -0.93182803651E+03  0.93182803651E+03  0.00000000000E+00 0. -1.
         25    2    1    2    0    0 -0.95273786061E+02  0.10544971309E+03 -0.19051530906E+03  0.26854712687E+03  0.12499896023E+03 0.  0.
          2    1    1    2  501    0  0.60349581819E+02 -0.46801873533E+02 -0.66554671565E+03  0.66991411248E+03  0.00000000000E+00 0. -1.
          1    1    1    2  502    0  0.34924204242E+02 -0.58647839561E+02 -0.86844545536E+00  0.68264363504E+02  0.00000000000E+00 0. -1.
         22    1    3    3    0    0 -0.86666039024E+02  0.60254154902E+02 -0.42917761722E+02  0.11394516126E+03  0.00000000000E+00 0.  1.
         22    1    3    3    0    0 -0.86077470371E+01  0.45195558192E+02 -0.14759754734E+03  0.15460196561E+03  0.00000000000E+00 0.  1.
</event>
<event>
 7    1  0.7029100E-006  0.6033853E+02  0.7818608E-02  0.1462954E+00
          2   -1    0    0  502    0  0.00000000000E+00  0.00000000000E+00  0.25490192954E+04  0.25490192954E+04  0.00000000000E+00 0. -1.
          1   -1    0    0  501    0 -0.00000000000E+00 -0.00000000000E+00 -0.39426114352E+03  0.39426114352E+03  0.00000000000E+00 0. -1.
         25    2    1    2    0    0 -0.50904928830E+02  0.81316468732E+02  0.90776191201E+03  0.92133416127E+03  0.12498507095E+03 0.  0.
          2    1    1    2  501    0  0.26951434006E+02 -0.53884086756E+02 -0.38492862889E+03  0.38961509717E+03  0.00000000000E+00 0. -1.
          1    1    1    2  502    0  0.23953494824E+02 -0.27432381976E+02  0.16319248688E+04  0.16323311805E+04  0.00000000000E+00 0. -1.
         22    1    3    3    0    0 -0.85131304444E+02  0.34931582411E+02  0.68846229764E+03  0.69458468866E+03  0.00000000000E+00 0.  1.
         22    1    3    3    0    0  0.34226375614E+02  0.46384886321E+02  0.21929961437E+03  0.22674947261E+03  0.00000000000E+00 0.  1.
</event>
<event>
 7    1  0.7029100E-006  0.2720776E+02  0.7818608E-02  0.1648878E+00
          2   -1    0    0  502    0  0.00000000000E+00  0.00000000000E+00  0.38875049992E+03  0.38875049992E+03  0.00000000000E+00 0. -1.
          1   -1    0    0  501    0 -0.00000000000E+00 -0.00000000000E+00 -0.57114725070E+03  0.57114725070E+03  0.00000000000E+00 0. -1.
         25    2    1    2    0    0 -0.24666361279E+02 -0.10657767694E+01 -0.93693080170E+02  0.15815224857E+03  0.12499670075E+03 0.  0.
          2    1    1    2  501    0  0.14289685237E+02  0.23357644613E+02 -0.44437871336E+03  0.44522153537E+03  0.00000000000E+00 0. -1.
          1    1    1    2  502    0  0.10376676041E+02 -0.22291867843E+02  0.35567504275E+03  0.35652396668E+03  0.00000000000E+00 0. -1.
         22    1    3    3    0    0 -0.23309561478E+01 -0.44904900787E+02 -0.98933902392E+02  0.10867290607E+03  0.00000000000E+00 0. -1.
         22    1    3    3    0    0 -0.22335405131E+02  0.43839124018E+02  0.52408222221E+01  0.49479342503E+02  0.00000000000E+00 0. -1.
</event>
<event>
 7    1  0.7029100E-006  0.7820460E+02  0.7818608E-02  0.1351425E+00
          2   -1    0    0  502    0  0.00000000000E+00  0.00000000000E+00  0.33852639373E+04  0.33852639373E+04  0.00000000000E+00 0. -1.
          1   -1    0    0  501    0 -0.00000000000E+00 -0.00000000000E+00 -0.20536752675E+03  0.20536752675E+03  0.00000000000E+00 0. -1.
         25    2    1    2    0    0 -0.10036527954E+03 -0.53983488671E+02  0.66104606035E+03  0.68234440430E+03  0.12499834314E+03 0.  0.
          2    1    1    2  501    0  0.23558736802E+02  0.63171868053E+02 -0.18831303519E+03  0.20001874466E+03  0.00000000000E+00 0. -1.
          1    1    1    2  502    0  0.76806542734E+02 -0.91883793818E+01  0.27071633854E+04  0.27082683151E+04  0.00000000000E+00 0. -1.
         22    1    3    3    0    0 -0.40181056434E+02  0.25585654223E+02  0.82546643340E+02  0.95305253396E+02  0.00000000000E+00 0. -1.
         22    1    3    3    0    0 -0.60184223102E+02 -0.79569142894E+02  0.57849941701E+03  0.58703915091E+03  0.00000000000E+00 0. -1.
</event>
<event>
 7    1  0.7029100E-006  0.5632128E+02  0.7818608E-02  0.1476703E+00
          2   -1    0    0  502    0  0.00000000000E+00  0.00000000000E+00  0.19385387444E+04  0.19385387444E+04  0.00000000000E+00 0. -1.
          1   -1    0    0  501    0 -0.00000000000E+00 -0.00000000000E+00 -0.36767134860E+03  0.36767134860E+03  0.00000000000E+00 0. -1.
         25    2    1    2    0    0 -0.14666828392E+02  0.74185276854E+02  0.64228442263E+03  0.65868981747E+03  0.12499769967E+03 0.  0.
          2    1    1    2  501    0 -0.18753087053E+02 -0.29972813071E+02 -0.35800125261E+03  0.35974288689E+03  0.00000000000E+00 0. -1.
          1    1    1    2  502    0  0.33419915445E+02 -0.44212463783E+02  0.12865842258E+04  0.12877773886E+04  0.00000000000E+00 0. -1.
         22    1    3    3    0    0 -0.50994668474E+02  0.66253726239E+02  0.22986378649E+03  0.24459634665E+03  0.00000000000E+00 0. -1.
         22    1    3    3    0    0  0.36327840082E+02  0.79315506146E+01  0.41242063614E+03  0.41409347082E+03  0.00000000000E+00 0. -1.
</event>
<event>
 7    1  0.7029100E-006  0.4599135E+02  0.7818608E-02  0.1481744E+00
          2   -1    0    0  502    0  0.00000000000E+00  0.00000000000E+00  0.52600467416E+03  0.52600467416E+03  0.00000000000E+00 0. -1.
          1   -1    0    0  501    0 -0.00000000000E+00 -0.00000000000E+00 -0.31413048259E+03  0.31413048259E+03  0.00000000000E+00 0. -1.
         25    2    1    2    0    0  0.71144582400E+02 -0.28240618656E+02  0.97907276097E+02  0.17626592145E+03  0.12499902482E+03 0.  0.
          2    1    1    2  501    0 -0.26123790120E+02  0.32606745664E+02 -0.27203570075E+03  0.27522549801E+03  0.00000000000E+00 0. -1.
          1    1    1    2  502    0 -0.45020792280E+02 -0.43661270082E+01  0.38600261622E+03  0.38864373729E+03  0.00000000000E+00 0. -1.
         22    1    3    3    0    0  0.92841817528E+02  0.12427308071E+02  0.89219143171E+02  0.12936033618E+03  0.00000000000E+00 0. -1.
         22    1    3    3    0    0 -0.21697235128E+02 -0.40667926727E+02  0.86881329264E+01  0.46905585278E+02  0.00000000000E+00 0. -1.
</event>
<event>
 7    1  0.7029100E-006  0.1143397E+03  0.7818608E-02  0.1299720E+00
          2   -1    0    0  502    0  0.00000000000E+00  0.00000000000E+00  0.84297900296E+03  0.84297900296E+03  0.00000000000E+00 0. -1.
          1   -1    0    0  501    0 -0.00000000000E+00 -0.00000000000E+00 -0.12525625901E+04  0.12525625901E+04  0.00000000000E+00 0. -1.
         25    2    1    2    0    0  0.25760756731E+02 -0.18287841924E+03  0.94403075125E+02  0.24216581750E+03  0.12499683902E+03 0.  0.
          2    1    1    2  501    0 -0.45323978778E+01  0.11312513328E+03 -0.11739801431E+04  0.11794266466E+04  0.00000000000E+00 0. -1.
          1    1    1    2  502    0 -0.21228358854E+02  0.69753285952E+02  0.66999348079E+03  0.67394912896E+03  0.00000000000E+00 0. -1.
         22    1    3    3    0    0  0.93753706965E+00 -0.15371149307E+03  0.15544414945E+02  0.15449832010E+03  0.00000000000E+00 0. -1.
         22    1    3    3    0    0  0.24823219662E+02 -0.29166926170E+02  0.78858660179E+02  0.87667497409E+02  0.00000000000E+00 0. -1.
</event>
<event>
 7    1  0.7029100E-006  0.2859935E+02  0.7818608E-02  0.1651170E+00
          2   -1    0    0  502    0  0.00000000000E+00  0.00000000000E+00  0.53303205033E+03  0.53303205033E+03  0.00000000000E+00 0. -1.
          1   -1    0    0  501    0 -0.00000000000E+00 -0.00000000000E+00 -0.13763860475E+03  0.13763860475E+03  0.00000000000E+00 0. -1.
         25    2    1    2    0    0  0.25178694970E+02  0.40366344317E+02  0.20609335029E+03  0.24568257987E+03  0.12498820979E+03 0.  0.
          2    1    1    2  501    0 -0.19108855349E+02 -0.12964242721E+02 -0.11606303318E+03  0.11833785368E+03  0.00000000000E+00 0. -1.
          1    1    1    2  502    0 -0.60698396206E+01 -0.27402101596E+02  0.30536312848E+03  0.30665022153E+03  0.00000000000E+00 0. -1.
         22    1    3    3    0    0  0.12928757362E+02  0.76808006776E+02  0.71584638737E+02  0.10578744337E+03  0.00000000000E+00 0.  1.
         22    1    3    3    0    0  0.12249937608E+02 -0.36441662459E+02  0.13450871155E+03  0.13989513650E+03  0.00000000000E+00 0.  1.
</event>
<event>
 7    1  0.7029100E-006  0.4663512E+02  0.7818608E-02  0.1489162E+00
          2   -1    0    0  502    0  0.00000000000E+00  0.00000000000E+00  0.20734608015E+04  0.20734608015E+04  0.00000000000E+00 0. -1.
          1   -1    0    0  501    0 -0.00000000000E+00 -0.00000000000E+00 -0.21315052844E+02  0.21315052844E+02  0.00000000000E+00 0. -1.
         25    2    1    2    0    0  0.28147809219E+02 -0.78445557068E+02  0.82969469115E+03  0.84318698775E+03  0.12500004482E+03 0.  0.
          2    1    1    2  501    0 -0.20770014528E+02  0.40031367490E+02  0.21430797912E+02  0.49931783322E+02  0.00000000000E+00 0. -1.
          1    1    1    2  502    0 -0.73777946908E+01  0.38414189578E+02  0.12010202596E+04  0.12016570833E+04  0.00000000000E+00 0. -1.
         22    1    3    3    0    0  0.72302444316E+02 -0.25157677998E+02  0.33249478837E+03  0.34119398662E+03  0.00000000000E+00 0.  1.
         22    1    3    3    0    0 -0.44154635097E+02 -0.53287879070E+02  0.49719990278E+03  0.50199300113E+03  0.00000000000E+00 0.  1.
</event>
<event>
 7    1  0.7029100E-006  0.2989700E+03  0.7818608E-02  0.1107426E+00
          2   -1    0    0  502    0  0.00000000000E+00  0.00000000000E+00  0.14019289205E+04  0.14019289205E+04  0.00000000000E+00 0. -1.
          1   -1    0    0  501    0 -0.00000000000E+00 -0.00000000000E+00 -0.39864756565E+03  0.39864756565E+03  0.00000000000E+00 0. -1.
         25    2    1    2    0    0 -0.25669682696E+03 -0.38008164694E+03  0.25935292215E+03  0.54152103695E+03  0.12500310367E+03 0.  0.
          2    1    1    2  501    0  0.62684296770E+02  0.26555753766E+03 -0.16751948304E+03  0.32017636401E+03  0.00000000000E+00 0. -1.
          1    1    1    2  502    0  0.19401253019E+03  0.11452410928E+03  0.91144791573E+03  0.93887908517E+03  0.00000000000E+00 0. -1.
         22    1    3    3    0    0 -0.41353450096E+02 -0.70625218336E+02 -0.35155896800E+01  0.81916962045E+02  0.00000000000E+00 0.  1.
         22    1    3    3    0    0 -0.21534337686E+03 -0.30945642860E+03  0.26286851183E+03  0.45960407491E+03  0.00000000000E+00 0.  1.
</event>
<event>
 7    1  0.7029100E-006  0.7479209E+02  0.7818608E-02  0.1354209E+00
          2   -1    0    0  502    0  0.00000000000E+00  0.00000000000E+00  0.63301456048E+03  0.63301456048E+03  0.00000000000E+00 0. -1.
          1   -1    0    0  501    0 -0.00000000000E+00 -0.00000000000E+00 -0.93453142092E+02  0.93453142092E+02  0.00000000000E+00 0. -1.
         25    2    1    2    0    0 -0.93889870691E+02  0.48912251922E+02  0.14815360790E+03  0.22086417428E+03  0.12499510286E+03 0.  0.
          2    1    1    2  501    0  0.27751503002E+02 -0.68045194468E+02 -0.29437468385E+02  0.79163495085E+02  0.00000000000E+00 0. -1.
          1    1    1    2  502    0  0.66138367689E+02  0.19132942546E+02  0.42084527887E+03  0.42644003321E+03  0.00000000000E+00 0. -1.
         22    1    3    3    0    0 -0.59098057937E+01 -0.28670732944E+02 -0.31205095196E+01  0.29439332733E+02  0.00000000000E+00 0.  1.
         22    1    3    3    0    0 -0.87980064897E+02  0.77582984866E+02  0.15127411742E+03  0.19142484154E+03  0.00000000000E+00 0.  1.
</event>
<event>
 7    1  0.7029100E-006  0.9329940E+02  0.7818608E-02  0.1468132E+00
          2   -1    0    0  502    0  0.00000000000E+00  0.00000000000E+00  0.10004484699E+04  0.10004484699E+04  0.00000000000E+00 0. -1.
          1   -1    0    0  501    0 -0.00000000000E+00 -0.00000000000E+00 -0.28442856023E+04  0.28442856023E+04  0.00000000000E+00 0. -1.
         25    2    1    2    0    0  0.10427545525E+03 -0.48504407406E+02 -0.18926620442E+02  0.17091078308E+03  0.12500492272E+03 0.  0.
          2    1    1    2  501    0 -0.82048374915E+02  0.43946033401E+02 -0.27484397750E+04  0.27500153429E+04  0.00000000000E+00 0. -1.
          1    1    1    2  502    0 -0.22227080337E+02  0.45583740044E+01  0.92352926298E+03  0.92380794619E+03  0.00000000000E+00 0. -1.
         22    1    3    3    0    0  0.10024297655E+03  0.71789625344E+01  0.20492598861E+02  0.10256772620E+03  0.00000000000E+00 0. -1.
         22    1    3    3    0    0  0.40324787017E+01 -0.55683369940E+02 -0.39419219303E+02  0.68343056874E+02  0.00000000000E+00 0. -1.
</event>
<event>
 7    1  0.7029100E-006  0.9976095E+02  0.7818608E-02  0.1307581E+00
          2   -1    0    0  502    0  0.00000000000E+00  0.00000000000E+00  0.36340899520E+03  0.36340899520E+03  0.00000000000E+00 0. -1.
          1   -1    0    0  501    0 -0.00000000000E+00 -0.00000000000E+00 -0.16932526273E+04  0.16932526273E+04  0.00000000000E+00 0. -1.
         25    2    1    2    0    0  0.97969215997E+02  0.13040095566E+03 -0.71445832336E+02  0.21755860629E+03  0.12499945477E+03 0.  0.
          2    1    1    2  501    0 -0.67449017112E+02 -0.38691426321E+02 -0.15396982386E+04  0.15416604887E+04  0.00000000000E+00 0. -1.
          1    1    1    2  502    0 -0.30520198885E+02 -0.91709529336E+02  0.28130043882E+03  0.29744252755E+03  0.00000000000E+00 0. -1.
         22    1    3    3    0    0  0.53895486986E+02  0.88888322844E+02  0.21960744775E+02  0.10624561999E+03  0.00000000000E+00 0.  1.
         22    1    3    3    0    0  0.44073729011E+02  0.41512632813E+02 -0.93406577112E+02  0.11131298630E+03  0.00000000000E+00 0.  1.
</event>
<event>
 7    1  0.7029100E-006  0.2758188E+03  0.7818608E-02  0.1115779E+00
          2   -1    0    0  502    0  0.00000000000E+00  0.00000000000E+00  0.22129412337E+04  0.22129412337E+04  0.00000000000E+00 0. -1.
          1   -1    0    0  501    0 -0.00000000000E+00 -0.00000000000E+00 -0.13866970263E+04  0.13866970263E+04  0.00000000000E+00 0. -1.
         25    2    1    2    0    0 -0.15240065709E+03 -0.40178009443E+03  0.11161330421E+03  0.46123336035E+03  0.12500191384E+03 0.  0.
          2    1    1    2  501    0  0.17467631888E+03  0.13312958208E+03 -0.11923786142E+04  0.12124364154E+04  0.00000000000E+00 0. -1.
          1    1    1    2  502    0 -0.22275661787E+02  0.26865051235E+03  0.19070095173E+04  0.19259684842E+04  0.00000000000E+00 0. -1.
         22    1    3    3    0    0 -0.33701839247E+02 -0.56611887291E+02 -0.26439104876E+02  0.70991168591E+02  0.00000000000E+00 0.  1.
         22    1    3    3    0    0 -0.11869881784E+03 -0.34516820714E+03  0.13805240909E+03  0.39024219176E+03  0.00000000000E+00 0.  1.
</event>
<event>
 7    1  0.7029100E-006  0.5604528E+02  0.7818608E-02  0.1436062E+00
          2   -1    0    0  502    0  0.00000000000E+00  0.00000000000E+00  0.18836701203E+03  0.18836701203E+03  0.00000000000E+00 0. -1.
          1   -1    0    0  501    0 -0.00000000000E+00 -0.00000000000E+00 -0.43711740520E+03  0.43711740520E+03  0.00000000000E+00 0. -1.
         25    2    1    2    0    0  0.86814595815E+01  0.10263562254E+02 -0.28228369169E+03  0.30901168506E+03  0.12499372168E+03 0.  0.
          2    1    1    2  501    0  0.47684960450E+02 -0.34041743364E+01 -0.13257299822E+03  0.14092921526E+03  0.00000000000E+00 0. -1.
          1    1    1    2  502    0 -0.56366420032E+02 -0.68593879176E+01  0.16610629674E+03  0.17554351690E+03  0.00000000000E+00 0. -1.
         22    1    3    3    0    0  0.41639868523E+02 -0.19896950567E+02 -0.35519010727E+02  0.58235448101E+02  0.00000000000E+00 0. -1.
         22    1    3    3    0    0 -0.32958408941E+02  0.30160512821E+02 -0.24676468096E+03  0.25077623696E+03  0.00000000000E+00 0. -1.
</event>
<event>
 7    1  0.7029100E-006  0.6765323E+02  0.7818608E-02  0.1373812E+00
          2   -1    0    0  502    0  0.00000000000E+00  0.00000000000E+00  0.32315558719E+04  0.32315558719E+04  0.00000000000E+00 0. -1.
          1   -1    0    0  501    0 -0.00000000000E+00 -0.00000000000E+00 -0.15048820983E+02  0.15048820983E+02  0.00000000000E+00 0. -1.
         25    2    1    2    0    0 -0.18994861589E+02 -0.22314764580E+02  0.89712272438E+03  0.90626441794E+03  0.12500903628E+03 0.  0.
          2    1    1    2  501    0  0.42484021507E+02 -0.48689961429E+02  0.96139419777E+02  0.11583778512E+03  0.00000000000E+00 0. -1.
          1    1    1    2  502    0 -0.23489159918E+02  0.71004726008E+02  0.22232449068E+04  0.22245024899E+04  0.00000000000E+00 0. -1.
         22    1    3    3    0    0  0.14328711933E+02 -0.60886576887E+02  0.69516329442E+03  0.69797169938E+03  0.00000000000E+00 0.  1.
         22    1    3    3    0    0 -0.33323573522E+02  0.38571812308E+02  0.20195942996E+03  0.20829271856E+03  0.00000000000E+00 0.  1.
</event>
<event>
 7    1  0.7029100E-006  0.8305337E+02  0.7818608E-02  0.1362024E+00
          2   -1    0    0  502    0  0.00000000000E+00  0.00000000000E+00  0.32077885253E+03  0.32077885253E+03  0.00000000000E+00 0. -1.
          1   -1    0    0  501    0 -0.00000000000E+00 -0.00000000000E+00 -0.16521857744E+03  0.16521857744E+03  0.00000000000E+00 0. -1.
         25    2    1    2    0    0  0.55583080273E+02  0.25377072307E+02  0.79052916496E+02  0.16002339734E+03  0.12499859790E+03 0.  0.
          2    1    1    2  501    0 -0.13505971036E+02  0.56457055128E+02 -0.10641068130E+03  0.12121486469E+03  0.00000000000E+00 0. -1.
          1    1    1    2  502    0 -0.42077109237E+02 -0.81834127435E+02  0.18291803989E+03  0.20475916793E+03  0.00000000000E+00 0. -1.
         22    1    3    3    0    0  0.23037816893E+02 -0.36592952932E+00 -0.33162746595E+02  0.40381216839E+02  0.00000000000E+00 0.  1.
         22    1    3    3    0    0  0.32545263379E+02  0.25743001837E+02  0.11221566309E+03  0.11964218050E+03  0.00000000000E+00 0.  1.
</event>
<event>
 7    1  0.7029100E-006  0.4952021E+02  0.7818608E-02  0.1490243E+00
          2   -1    0    0  502    0  0.00000000000E+00  0.00000000000E+00  0.75979780139E+03  0.75979780139E+03  0.00000000000E+00 0. -1.
          1   -1    0    0  501    0 -0.00000000000E+00 -0.00000000000E+00 -0.79806058764E+02  0.79806058764E+02  0.00000000000E+00 0. -1.
         25    2    1    2    0    0  0.16893257370E+02  0.37539946162E+02  0.20487859665E+02  0.13319087802E+03  0.12500171156E+03 0.  0.
          2    1    1    2  501    0  0.15460070895E+02 -0.54568187925E+02  0.12118702028E+02  0.57996240088E+02  0.00000000000E+00 0. -1.
          1    1    1    2  502    0 -0.32353328265E+02  0.17028241763E+02  0.64738518093E+03  0.64841674204E+03  0.00000000000E+00 0. -1.
         22    1    3    3    0    0 -0.20964417509E+02  0.57223689375E+02 -0.29299841881E+02  0.67620545409E+02  0.00000000000E+00 0.  1.
         22    1    3    3    0    0  0.37857674879E+02 -0.19683743213E+02  0.49787701545E+02  0.65570332616E+02  0.00000000000E+00 0.  1.
</event>
<event>
 7    1  0.7029100E-006  0.1258866E+03  0.7818608E-02  0.1261220E+00
          2   -1    0    0  502    0  0.00000000000E+00  0.00000000000E+00  0.21496611300E+04  0.21496611300E+04  0.00000000000E+00 0. -1.
          1   -1    0    0  501    0 -0.00000000000E+00 -0.00000000000E+00 -0.28073043915E+03  0.28073043915E+03  0.00000000000E+00 0. -1.
         25    2    1    2    0    0  0.13675883791E+03  0.30107823005E+02  0.20451280400E+04  0.20537245335E+04  0.12500519439E+03 0.  0.
          2    1    1    2  501    0 -0.73963586895E+02 -0.10206828290E+03 -0.23345576277E+03  0.26531140143E+03  0.00000000000E+00 0. -1.
          1    1    1    2  502    0 -0.62795251018E+02  0.71960459892E+02  0.57258413531E+02  0.11135563416E+03  0.00000000000E+00 0. -1.
         22    1    3    3    0    0  0.72266829470E+02  0.43740910486E+02  0.49206017021E+03  0.49925842306E+03  0.00000000000E+00 0.  1.
         22    1    3    3    0    0  0.64492008443E+02 -0.13633087482E+02  0.15530678698E+04  0.15544661104E+04  0.00000000000E+00 0.  1.
</event>
<event>
 7    1  0.7029100E-006  0.8881888E+02  0.7818608E-02  0.1401537E+00
          2   -1    0    0  502    0  0.00000000000E+00  0.00000000000E+00  0.20208496822E+04  0.20208496822E+04  0.00000000000E+00 0. -1.
          1   -1    0    0  501    0 -0.00000000000E+00 -0.00000000000E+00 -0.34554464833E+02  0.34554464833E+02  0.00000000000E+00 0. -1.
         25    2    1    2    0    0 -0.89553516907E+02 -0.65356356830E+02  0.29468768321E+03  0.33875794698E+03  0.12499932094E+03 0.  0.
          2    1    1    2  501    0  0.56637134323E+01  0.38949948633E+02  0.22726960720E+02  0.45449872298E+02  0.00000000000E+00 0. -1.
          1    1    1    2  502    0  0.83889803475E+02  0.26406408197E+02  0.16688805734E+04  0.16711963277E+04  0.00000000000E+00 0. -1.
         22    1    3    3    0    0 -0.80293100262E+02 -0.16095155842E+02  0.27140527099E+03  0.28349048858E+03  0.00000000000E+00 0. -1.
         22    1    3    3    0    0 -0.92604166450E+01 -0.49261200988E+02  0.23282412218E+02  0.55267458399E+02  0.00000000000E+00 0. -1.
</event>
<event>
 7    1  0.7029100E-006  0.1932515E+03  0.7818608E-02  0.1191381E+00
          2   -1    0    0  502    0  0.00000000000E+00  0.00000000000E+00  0.21046836223E+04  0.21046836223E+04  0.00000000000E+00 0. -1.
          1   -1    0    0  501    0 -0.00000000000E+00 -0.00000000000E+00 -0.11306329893E+04  0.11306329893E+04  0.00000000000E+00 0. -1.
         25    2    1    2    0    0  0.30780426764E+03 -0.51896865756E+02 -0.10022723906E+03  0.35086620589E+03  0.12499937254E+03 0.  0.
          2    1    1    2  501    0 -0.11689738263E+03  0.53599759276E+02 -0.89588055995E+03  0.90506348393E+03  0.00000000000E+00 0. -1.
          1    1    1    2  502    0 -0.19090688501E+03 -0.17028935206E+01  0.19701584321E+04  0.19793869218E+04  0.00000000000E+00 0. -1.
         22    1    3    3    0    0 -0.45200578180E+01 -0.20460043512E+02 -0.14456915469E+02  0.25456761539E+02  0.00000000000E+00 0. -1.
         22    1    3    3    0    0  0.31232432546E+03 -0.31436822244E+02 -0.85770323594E+02  0.32540944435E+03  0.00000000000E+00 0. -1.
</event>
<event>
 7    1  0.7029100E-006  0.1172047E+03  0.7818608E-02  0.1292734E+00
          2   -1    0    0  502    0  0.00000000000E+00  0.00000000000E+00  0.21680987244E+04  0.21680987244E+04  0.00000000000E+00 0. -1.
          1   -1    0    0  501    0 -0.00000000000E+00 -0.00000000000E+00 -0.30907629560E+03  0.30907629560E+03  0.00000000000E+00 0. -1.
         25    2    1    2    0    0 -0.87189442649E+02  0.51212593689E+02  0.48741568114E+02  0.16800342410E+03  0.12499872554E+03 0.  0.
          2    1    1    2  501    0  0.44322816631E+02 -0.11383630540E+03 -0.23374246789E+03  0.26373994349E+03  0.00000000000E+00 0. -1.
          1    1    1    2  502    0  0.42866626018E+02  0.62623711708E+02  0.20440233286E+04  0.20454316524E+04  0.00000000000E+00 0. -1.
         22    1    3    3    0    0 -0.10923048748E+03  0.62602240893E+02  0.15980681124E+02  0.12690832175E+03  0.00000000000E+00 0.  1.
         22    1    3    3    0    0  0.22041044834E+02 -0.11389647204E+02  0.32760886989E+02  0.41095102350E+02  0.00000000000E+00 0.  1.
</event>
<event>
 7    1  0.7029100E-006  0.4337618E+02  0.7818608E-02  0.1525392E+00
          2   -1    0    0  502    0  0.00000000000E+00  0.00000000000E+00  0.10497582655E+04  0.10497582655E+04  0.00000000000E+00 0. -1.
          1   -1    0    0  501    0 -0.00000000000E+00 -0.00000000000E+00 -0.68086084238E+03  0.68086084238E+03  0.00000000000E+00 0. -1.
         25    2    1    2    0    0  0.48672866672E+02  0.15515342084E+02  0.20723506052E+03  0.24735007619E+03  0.12500366432E+03 0.  0.
          2    1    1    2  501    0 -0.40231269382E+02  0.16249017141E+02 -0.65976210911E+03  0.66118728527E+03  0.00000000000E+00 0. -1.
          1    1    1    2  502    0 -0.84415972905E+01 -0.31764359225E+02  0.82142447168E+03  0.82208174639E+03  0.00000000000E+00 0. -1.
         22    1    3    3    0    0 -0.39390569499E+02 -0.11457473871E+02  0.84192132066E+02  0.93654715710E+02  0.00000000000E+00 0. -1.
         22    1    3    3    0    0  0.88063436172E+02  0.26972815955E+02  0.12304292845E+03  0.15369536048E+03  0.00000000000E+00 0. -1.
</event>
<event>
 7    1  0.7029100E-006  0.1106268E+03  0.7818608E-02  0.1363212E+00
          2   -1    0    0  502    0  0.00000000000E+00  0.00000000000E+00  0.61737597121E+03  0.61737597121E+03  0.00000000000E+00 0. -1.
          1   -1    0    0  501    0 -0.00000000000E+00 -0.00000000000E+00 -0.25997512356E+03  0.25997512356E+03  0.00000000000E+00 0. -1.
         25    2    1    2    0    0  0.10265730937E+03  0.52434430825E+02 -0.16820318345E+03  0.23917610634E+03  0.12500002486E+03 0.  0.
          2    1    1    2  501    0 -0.10811867531E+03 -0.96312030366E+01 -0.22402540992E+01  0.10856991647E+03  0.00000000000E+00 0. -1.
          1    1    1    2  502    0  0.54613659388E+01 -0.42803227788E+02  0.52784428520E+03  0.52960507196E+03  0.00000000000E+00 0. -1.
         22    1    3    3    0    0  0.55262450996E+01 -0.24981345416E+02 -0.87230671137E+02  0.90905428830E+02  0.00000000000E+00 0.  1.
         22    1    3    3    0    0  0.97131064275E+02  0.77415776240E+02 -0.80972512313E+02  0.14827067751E+03  0.00000000000E+00 0.  1.
</event>
<event>
 7    1  0.7029100E-006  0.3249750E+02  0.7818608E-02  0.1622932E+00
          2   -1    0    0  502    0  0.00000000000E+00  0.00000000000E+00  0.47942825005E+03  0.47942825005E+03  0.00000000000E+00 0. -1.
          1   -1    0    0  501    0 -0.00000000000E+00 -0.00000000000E+00 -0.29272118566E+03  0.29272118566E+03  0.00000000000E+00 0. -1.
         25    2    1    2    0    0  0.12516360156E+02  0.76858763587E+01  0.82973772042E+00  0.12587019271E+03  0.12500753970E+03 0.  0.
          2    1    1    2  501    0 -0.97382947035E+01 -0.31421043934E+02 -0.22867990882E+03  0.23103380074E+03  0.00000000000E+00 0. -1.
          1    1    1    2  502    0 -0.27780654521E+01  0.23735167575E+02  0.41455723549E+03  0.41524544226E+03  0.00000000000E+00 0. -1.
         22    1    3    3    0    0  0.49307763823E+02 -0.37162432541E+02 -0.18943188928E+02  0.64584412766E+02  0.00000000000E+00 0. -1.
         22    1    3    3    0    0 -0.36791403667E+02  0.44848308900E+02  0.19772926648E+02  0.61285779943E+02  0.00000000000E+00 0. -1.
</event>
<event>
 7    1  0.7029100E-006  0.8132810E+02  0.7818608E-02  0.1349788E+00
          2   -1    0    0  502    0  0.00000000000E+00  0.00000000000E+00  0.81593042045E+02  0.81593042045E+02  0.00000000000E+00 0. -1.
          1   -1    0    0  501    0 -0.00000000000E+00 -0.00000000000E+00 -0.89798174761E+03  0.89798174761E+03  0.00000000000E+00 0. -1.
         25    2    1    2    0    0 -0.32468998984E+02 -0.11966214893E+03 -0.43694207214E+03  0.47108056566E+03  0.12500103659E+03 0.  0.
          2    1    1    2  501    0  0.49636374387E+02  0.56199544791E+02 -0.42302515813E+03  0.42961895082E+03  0.00000000000E+00 0. -1.
          1    1    1    2  502    0 -0.17167375403E+02  0.63462604142E+02  0.43578524706E+02  0.78875273174E+02  0.00000000000E+00 0. -1.
         22    1    3    3    0    0 -0.28413446861E+02 -0.14599998155E+03 -0.38425098446E+03  0.41203414620E+03  0.00000000000E+00 0.  1.
         22    1    3    3    0    0 -0.40555521229E+01  0.26337832613E+02 -0.52691087679E+02  0.59046419456E+02  0.00000000000E+00 0.  1.
</event>
<event>
 7    1  0.7029100E-006  0.5212509E+02  0.7818608E-02  0.1493728E+00
          2   -1    0    0  502    0  0.00000000000E+00  0.00000000000E+00  0.18211465293E+03  0.18211465293E+03  0.00000000000E+00 0. -1.
          1   -1    0    0  501    0 -0.00000000000E+00 -0.00000000000E+00 -0.82694114653E+03  0.82694114653E+03  0.00000000000E+00 0. -1.
         25    2    1    2    0    0 -0.39927146849E+02 -0.12485028399E+02 -0.57860480094E+03  0.59343095920E+03  0.12500693847E+03 0.  0.
          2    1    1    2  501    0  0.57652432531E+02 -0.16415060543E+02 -0.23548750224E+03  0.24299716233E+03  0.00000000000E+00 0. -1.
          1    1    1    2  502    0 -0.17725285683E+02  0.28900088942E+02  0.16926580959E+03  0.17262767793E+03  0.00000000000E+00 0. -1.
         22    1    3    3    0    0  0.20904307848E+02  0.39425375397E+02 -0.12263776117E+03  0.13050429410E+03  0.00000000000E+00 0.  1.
         22    1    3    3    0    0 -0.60831454697E+02 -0.51910403796E+02 -0.45596703977E+03  0.46292666510E+03  0.00000000000E+00 0.  1.
</event>
<event>
 7    1  0.7029100E-006  0.6924481E+02  0.7818608E-02  0.1387256E+00
          2   -1    0    0  502    0  0.00000000000E+00  0.00000000000E+00  0.59593257358E+02  0.59593257358E+02  0.00000000000E+00 0. -1.
          1   -1    0    0  501    0 -0.00000000000E+00 -0.00000000000E+00 -0.12766936033E+04  0.12766936033E+04  0.00000000000E+00 0. -1.
         25    2    1    2    0    0  0.71240822976E+02 -0.72403234552E+02 -0.48161845833E+03  0.50783811257E+03  0.12500290372E+03 0.  0.
          2    1    1    2  501    0 -0.48385152547E+01  0.56375316341E+02 -0.75522647284E+03  0.75734312752E+03  0.00000000000E+00 0. -1.
          1    1    1    2  502    0 -0.66402307721E+02  0.16027918211E+02  0.19744585218E+02  0.71105620581E+02  0.00000000000E+00 0. -1.
         22    1    3    3    0    0  0.21253311431E+02  0.12735989920E+02 -0.11235431213E+02  0.27205580320E+02  0.00000000000E+00 0.  1.
         22    1    3    3    0    0  0.49987511545E+02 -0.85139224472E+02 -0.47038302712E+03  0.48063253225E+03  0.00000000000E+00 0.  1.
</event>
<event>
 7    1  0.7029100E-006  0.7356727E+02  0.7818608E-02  0.1476815E+00
          2   -1    0    0  502    0  0.00000000000E+00  0.00000000000E+00  0.44325415163E+03  0.44325415163E+03  0.00000000000E+00 0. -1.
          1   -1    0    0  501    0 -0.00000000000E+00 -0.00000000000E+00 -0.72644129801E+03  0.72644129801E+03  0.00000000000E+00 0. -1.
         25    2    1    2    0    0 -0.56532591644E+02 -0.60495279649E+02 -0.14971175840E+03  0.21188820822E+03  0.12500955724E+03 0.  0.
          2    1    1    2  501    0  0.30192308041E+02  0.66634389648E+02 -0.54274092661E+03  0.54764900326E+03  0.00000000000E+00 0. -1.
          1    1    1    2  502    0  0.26340283603E+02 -0.61391099990E+01  0.40926553864E+03  0.41015823815E+03  0.00000000000E+00 0. -1.
         22    1    3    3    0    0  0.20192762503E+02  0.18517185571E+02 -0.17730725647E+01  0.27455010568E+02  0.00000000000E+00 0. -1.
         22    1    3    3    0    0 -0.76725354147E+02 -0.79012465220E+02 -0.14793868584E+03  0.18443319765E+03  0.00000000000E+00 0. -1.
</event>
<event>
 7    1  0.7029100E-006  0.7583327E+02  0.7818608E-02  0.1398433E+00
          2   -1    0    0  502    0  0.00000000000E+00  0.00000000000E+00  0.27973863587E+04  0.27973863587E+04  0.00000000000E+00 0. -1.
          1   -1    0    0  501    0 -0.00000000000E+00 -0.00000000000E+00 -0.90216424965E+03  0.90216424965E+03  0.00000000000E+00 0. -1.
         25    2    1    2    0    0  0.94170248246E+01  0.32249986666E+02  0.58917623497E+03  0.60322685995E+03  0.12500106686E+03 0.  0.
          2    1    1    2  501    0  0.23740605497E+02  0.40848845402E+02 -0.89378303430E+03  0.89503092512E+03  0.00000000000E+00 0. -1.
          1    1    1    2  502    0 -0.33157630321E+02 -0.73098832067E+02  0.21998289084E+04  0.22012928233E+04  0.00000000000E+00 0. -1.
         22    1    3    3    0    0  0.16336915460E+02 -0.34599231787E+02  0.70492079504E+02  0.80206825892E+02  0.00000000000E+00 0. -1.
         22    1    3    3    0    0 -0.69198906349E+01  0.66849218452E+02  0.51868415547E+03  0.52302003406E+03  0.00000000000E+00 0. -1.
</event>
<event>
 7    1  0.7029100E-006  0.9860536E+02  0.7818608E-02  0.1334890E+00
          2   -1    0    0  502    0  0.00000000000E+00  0.00000000000E+00  0.63445318719E+03  0.63445318719E+03  0.00000000000E+00 0. -1.
          1   -1    0    0  501    0 -0.00000000000E+00 -0.00000000000E+00 -0.44635104248E+03  0.44635104248E+03  0.00000000000E+00 0. -1.
         25    2    1    2    0    0  0.28585699816E+02 -0.50161528327E+02  0.10314910958E+03  0.17204908235E+03  0.12501130658E+03 0.  0.
          2    1    1    2  501    0  0.68330274066E+01  0.10064067484E+03 -0.40375854095E+03  0.41616846960E+03  0.00000000000E+00 0. -1.
          1    1    1    2  502    0 -0.35418727223E+02 -0.50479146515E+02  0.48871157608E+03  0.49258667772E+03  0.00000000000E+00 0. -1.
         22    1    3    3    0    0  0.64897199630E+02  0.37042970455E+01  0.80014479748E+02  0.10309066546E+03  0.00000000000E+00 0.  1.
         22    1    3    3    0    0 -0.36311499814E+02 -0.53865825372E+02  0.23134629829E+02  0.68958416884E+02  0.00000000000E+00 0.  1.
</event>
<event>
 7    1  0.7029100E-006  0.1162801E+03  0.7818608E-02  0.1358079E+00
          2   -1    0    0  502    0  0.00000000000E+00  0.00000000000E+00  0.48252697506E+03  0.48252697506E+03  0.00000000000E+00 0. -1.
          1   -1    0    0  501    0 -0.00000000000E+00 -0.00000000000E+00 -0.23806597519E+03  0.23806597519E+03  0.00000000000E+00 0. -1.
         25    2    1    2    0    0 -0.34716885219E+02  0.70029760919E+02  0.11048359174E+03  0.18423615507E+03  0.12500762881E+03 0.  0.
          2    1    1    2  501    0  0.53451534751E+02 -0.10857827943E+03 -0.18140852465E+03  0.21807191967E+03  0.00000000000E+00 0. -1.
          1    1    1    2  502    0 -0.18734649532E+02  0.38548518508E+02  0.31538593279E+03  0.31828487551E+03  0.00000000000E+00 0. -1.
         22    1    3    3    0    0  0.39890725390E+02  0.17631966092E+02  0.36154772334E+01  0.43763316557E+02  0.00000000000E+00 0. -1.
         22    1    3    3    0    0 -0.74607610609E+02  0.52397794828E+02  0.10686811450E+03  0.14047283852E+03  0.00000000000E+00 0. -1.
</event>
<event>
 7    1  0.7029100E-006  0.3776773E+02  0.7818608E-02  0.1606544E+00
          2   -1    0    0  502    0  0.00000000000E+00  0.00000000000E+00  0.31216881650E+04  0.31216881650E+04  0.00000000000E+00 0. -1.
          1   -1    0    0  501    0 -0.00000000000E+00 -0.00000000000E+00 -0.76219008111E+01  0.76219008111E+01  0.00000000000E+00 0. -1.
         25    2    1    2    0    0 -0.13401883335E+01  0.25225730254E+02  0.25806532345E+04  0.25838023068E+04  0.12500044260E+03 0.  0.
          2    1    1    2  501    0  0.97318124526E+01  0.20454247286E+02  0.20667821622E+02  0.30663386249E+02  0.00000000000E+00 0. -1.
          1    1    1    2  502    0 -0.83916241192E+01 -0.45679977540E+02  0.51274520816E+03  0.51484437279E+03  0.00000000000E+00 0. -1.
         22    1    3    3    0    0 -0.42099768300E+02  0.60131770878E+02  0.15975838342E+04  0.15992693105E+04  0.00000000000E+00 0. -1.
         22    1    3    3    0    0  0.40759579967E+02 -0.34906040625E+02  0.98306940026E+03  0.98453299628E+03  0.00000000000E+00 0. -1.
</event>
<event>
 7    1  0.7029100E-006  0.8867274E+02  0.7818608E-02  0.1346124E+00
          2   -1    0    0  502    0  0.00000000000E+00  0.00000000000E+00  0.12891777825E+04  0.12891777825E+04  0.00000000000E+00 0. -1.
          1   -1    0    0  501    0 -0.00000000000E+00 -0.00000000000E+00 -0.74512953674E+03  0.74512953674E+03  0.00000000000E+00 0. -1.
         25    2    1    2    0    0 -0.14238091014E+03 -0.44919276150E+02  0.14415056818E+03  0.24227154314E+03  0.12500419738E+03 0.  0.
          2    1    1    2  501    0  0.85643845108E+02  0.19383162674E+02 -0.69241090117E+03  0.69795661130E+03  0.00000000000E+00 0. -1.
          1    1    1    2  502    0  0.56737065035E+02  0.25536113476E+02  0.10923085788E+04  0.10940791648E+04  0.00000000000E+00 0. -1.
         22    1    3    3    0    0 -0.80193374856E+02  0.17067524917E+02  0.12947107343E+03  0.15324828428E+03  0.00000000000E+00 0. -1.
         22    1    3    3    0    0 -0.62187535287E+02 -0.61986801067E+02  0.14679494749E+02  0.89023258858E+02  0.00000000000E+00 0. -1.
</event>
<event>
 7    1  0.7029100E-006  0.7334433E+02  0.7818608E-02  0.1384310E+00
          2   -1    0    0  502    0  0.00000000000E+00  0.00000000000E+00  0.92251181115E+03  0.92251181115E+03  0.00000000000E+00 0. -1.
          1   -1    0    0  501    0 -0.00000000000E+00 -0.00000000000E+00 -0.13495040991E+04  0.13495040991E+04  0.00000000000E+00 0. -1.
         25    2    1    2    0    0 -0.12562068086E+03  0.18876329229E+02  0.68697293498E+03  0.70971492720E+03  0.12500637280E+03 0.  0.
          2    1    1    2  501    0  0.73196555350E+02 -0.32356155435E+01 -0.13337748055E+04  0.13357857001E+04  0.00000000000E+00 0. -1.
          1    1    1    2  502    0  0.52424125510E+02 -0.15640713686E+02  0.21980958250E+03  0.22651528297E+03  0.00000000000E+00 0. -1.
         22    1    3    3    0    0 -0.42970020447E+02  0.38987513415E+02  0.92528049052E+02  0.10921487408E+03  0.00000000000E+00 0. -1.
         22    1    3    3    0    0 -0.82650660413E+02 -0.20111184186E+02  0.59444488593E+03  0.60050005312E+03  0.00000000000E+00 0. -1.
</event>
<event>
 7    1  0.7029100E-006  0.4303388E+02  0.7818608E-02  0.1558319E+00
          2   -1    0    0  502    0  0.00000000000E+00  0.00000000000E+00  0.40406993502E+03  0.40406993502E+03  0.00000000000E+00 0. -1.
          1   -1    0    0  501    0 -0.00000000000E+00 -0.00000000000E+00 -0.17881436295E+04  0.17881436295E+04  0.00000000000E+00 0. -1.
         25    2    1    2    0    0 -0.26109000492E+02  0.64227482131E+01  0.11520908480E+03  0.17210705045E+03  0.12499908796E+03 0.  0.
          2    1    1    2  501    0  0.27518501814E+02 -0.33136545056E+02 -0.17587432631E+04  0.17592706341E+04  0.00000000000E+00 0. -1.
          1    1    1    2  502    0 -0.14095013213E+01  0.26713796843E+02  0.25946048379E+03  0.26083587998E+03  0.00000000000E+00 0. -1.
         22    1    3    3    0    0  0.15444854368E+02 -0.48012829124E+02  0.81336543547E+02  0.95704799269E+02  0.00000000000E+00 0. -1.
         22    1    3    3    0    0 -0.41553854861E+02  0.54435577337E+02  0.33872541258E+02  0.76402251178E+02  0.00000000000E+00 0. -1.
</event>
<event>
 7    1  0.7029100E-006  0.8438402E+02  0.7818608E-02  0.1321881E+00
          2   -1    0    0  502    0  0.00000000000E+00  0.00000000000E+00  0.23442577499E+03  0.23442577499E+03  0.00000000000E+00 0. -1.
          1   -1    0    0  501    0 -0.00000000000E+00 -0.00000000000E+00 -0.21499699448E+03  0.21499699448E+03  0.00000000000E+00 0. -1.
         25    2    1    2    0    0  0.24064598845E+01 -0.41091825767E+02  0.22327901282E+02  0.13348299095E+03  0.12499937802E+03 0.  0.
          2    1    1    2  501    0 -0.74249684852E+02 -0.31913056444E+02 -0.12977326252E+03  0.15288086387E+03  0.00000000000E+00 0. -1.
          1    1    1    2  502    0  0.71843224968E+02  0.73004882211E+02  0.12687414175E+03  0.16305891465E+03  0.00000000000E+00 0. -1.
         22    1    3    3    0    0 -0.58548683597E+02 -0.73306968878E+01  0.24204799593E+02  0.63777423836E+02  0.00000000000E+00 0. -1.
         22    1    3    3    0    0  0.60955143481E+02 -0.33761128879E+02 -0.18768983110E+01  0.69705567118E+02  0.00000000000E+00 0. -1.
</event>
<event>
 7    1  0.7029100E-006  0.5637433E+02  0.7818608E-02  0.1498337E+00
          2   -1    0    0  502    0  0.00000000000E+00  0.00000000000E+00  0.10330038907E+04  0.10330038907E+04  0.00000000000E+00 0. -1.
          1   -1    0    0  501    0 -0.00000000000E+00 -0.00000000000E+00 -0.39919729376E+03  0.39919729376E+03  0.00000000000E+00 0. -1.
         25    2    1    2    0    0 -0.14633767303E+02  0.27668362718E+02  0.13946567606E+03  0.18988110840E+03  0.12499790032E+03 0.  0.
          2    1    1    2  501    0  0.78693950022E+01  0.29327600800E+02 -0.37242252587E+03  0.37365836445E+03  0.00000000000E+00 0. -1.
          1    1    1    2  502    0  0.67643723011E+01 -0.56995963518E+02  0.86676344673E+03  0.86866171159E+03  0.00000000000E+00 0. -1.
         22    1    3    3    0    0 -0.49072079952E+02 -0.25418809932E+02  0.10288799858E+03  0.11679094648E+03  0.00000000000E+00 0. -1.
         22    1    3    3    0    0  0.34438312649E+02  0.53087172650E+02  0.36577677486E+02  0.73090161912E+02  0.00000000000E+00 0. -1.
</event>
<event>
 7    1  0.7029100E-006  0.1889185E+03  0.7818608E-02  0.1323067E+00
          2   -1    0    0  502    0  0.00000000000E+00  0.00000000000E+00  0.30124416822E+03  0.30124416822E+03  0.00000000000E+00 0. -1.
          1   -1    0    0  501    0 -0.00000000000E+00 -0.00000000000E+00 -0.47202661756E+03  0.47202661756E+03  0.00000000000E+00 0. -1.
         25    2    1    2    0    0  0.14532453147E+03  0.94556076131E+02 -0.71310653592E+02  0.22532119332E+03  0.12499743942E+03 0.  0.
          2    1    1    2  501    0 -0.14574846631E+03 -0.13027327503E+03 -0.29240888663E+03  0.35173384625E+03  0.00000000000E+00 0. -1.
          1    1    1    2  502    0  0.42393483633E+00  0.35717198898E+02  0.19293709089E+03  0.19621574621E+03  0.00000000000E+00 0. -1.
         22    1    3    3    0    0  0.85522375399E+02  0.11757804139E+03 -0.69663992634E+02  0.16121955334E+03  0.00000000000E+00 0. -1.
         22    1    3    3    0    0  0.59802156073E+02 -0.23021965257E+02 -0.16466609574E+01  0.64101639976E+02  0.00000000000E+00 0. -1.
</event>
<event>
 7    1  0.1295704E-005  0.7855879E+02  0.7818608E-02  0.1347677E+00
          2   -1    0    0  502    0  0.00000000000E+00  0.00000000000E+00  0.12306513448E+04  0.12306513448E+04  0.00000000000E+00 0. -1.
          1   -1    0    0  501    0 -0.00000000000E+00 -0.00000000000E+00 -0.12912225663E+04  0.12912225663E+04  0.00000000000E+00 0. -1.
         25    2    1    2    0    0  0.69421690733E+02 -0.16217449972E+01 -0.19507301894E+03  0.24186494908E+03  0.12499267848E+03 0.  0.
          2    1    1    2  501    0 -0.26110177477E+02 -0.64193620708E+02 -0.10703463629E+04  0.10725874784E+04  0.00000000000E+00 0. -1.
          1    1    1    2  502    0 -0.43311513256E+02  0.65815365706E+02  0.12048481604E+04  0.12074214836E+04  0.00000000000E+00 0. -1.
         22    1    3    3    0    0  0.27244242068E+01  0.48135723335E+02 -0.29403563362E+02  0.56471584772E+02  0.00000000000E+00 0. -1.
         22    1    3    3    0    0  0.66697266527E+02 -0.49757468333E+02 -0.16566945558E+03  0.18539336431E+03  0.00000000000E+00 0. -1.
</event>
<event>
 7    1  0.7029100E-006  0.1056303E+03  0.7818608E-02  0.1428456E+00
          2   -1    0    0  502    0  0.00000000000E+00  0.00000000000E+00  0.50760766036E+03  0.50760766036E+03  0.00000000000E+00 0. -1.
          1   -1    0    0  501    0 -0.00000000000E+00 -0.00000000000E+00 -0.70595860571E+03  0.70595860571E+03  0.00000000000E+00 0. -1.
         25    2    1    2    0    0  0.60904950716E+02  0.51319274020E+02  0.10397771723E+03  0.18105411435E+03  0.12500458286E+03 0.  0.
          2    1    1    2  501    0 -0.83102145003E+02 -0.66453426474E+02 -0.66267621958E+03  0.67116450770E+03  0.00000000000E+00 0. -1.
          1    1    1    2  502    0  0.22197194287E+02  0.15134152454E+02  0.36034755700E+03  0.36134764402E+03  0.00000000000E+00 0. -1.
         22    1    3    3    0    0  0.69212769382E+02  0.63709911484E+02  0.12427507977E+03  0.15586422206E+03  0.00000000000E+00 0.  1.
         22    1    3    3    0    0 -0.83078186659E+01 -0.12390637463E+02 -0.20297362539E+02  0.25189892294E+02  0.00000000000E+00 0.  1.
</event>
<event>
 7    1  0.7029100E-006  0.1153471E+03  0.7818608E-02  0.1341766E+00
          2   -1    0    0  502    0  0.00000000000E+00  0.00000000000E+00  0.67001477020E+03  0.67001477020E+03  0.00000000000E+00 0. -1.
          1   -1    0    0  501    0 -0.00000000000E+00 -0.00000000000E+00 -0.57952554682E+03  0.57952554682E+03  0.00000000000E+00 0. -1.
         25    2    1    2    0    0  0.35970208793E+02  0.10505459550E+03  0.37184535565E+03  0.40770674799E+03  0.12500199951E+03 0.  0.
          2    1    1    2  501    0  0.47407286460E+02 -0.14784637591E+02 -0.54694460675E+03  0.54919435464E+03  0.00000000000E+00 0. -1.
          1    1    1    2  502    0 -0.83377495253E+02 -0.90269957911E+02  0.26558847448E+03  0.29263921438E+03  0.00000000000E+00 0. -1.
         22    1    3    3    0    0  0.31267841885E+01  0.10052126984E+03  0.35785974172E+03  0.37172287690E+03  0.00000000000E+00 0. -1.
         22    1    3    3    0    0  0.32843424605E+02  0.45333256662E+01  0.13985613926E+02  0.35983871085E+02  0.00000000000E+00 0. -1.
</event>
<event>
 7    1  0.7029100E-006  0.1146871E+03  0.7818608E-02  0.1268405E+00
          2   -1    0    0  502    0  0.00000000000E+00  0.00000000000E+00  0.41069752783E+03  0.41069752783E+03  0.00000000000E+00 0. -1.
          1   -1    0    0  501    0 -0.00000000000E+00 -0.00000000000E+00 -0.19705812936E+04  0.19705812936E+04  0.00000000000E+00 0. -1.
         25    2    1    2    0    0 -0.16613577700E+03  0.89483744195E+02  0.15741757519E+03  0.27570626249E+03  0.12500085329E+03 0.  0.
          2    1    1    2  501    0  0.95975103302E+02 -0.18491255222E+02 -0.18972660603E+04  0.18997820007E+04  0.00000000000E+00 0. -1.
          1    1    1    2  502    0  0.70160673700E+02 -0.70992488973E+02  0.17996471932E+03  0.20579055815E+03  0.00000000000E+00 0. -1.
         22    1    3    3    0    0 -0.14759753524E+03  0.11689777607E+03  0.15240679678E+03  0.24223532806E+03  0.00000000000E+00 0.  1.
         22    1    3    3    0    0 -0.18538241766E+02 -0.27414031874E+02  0.50107784127E+01  0.33470934431E+02  0.00000000000E+00 0.  1.
</event>
<event>
 7    1  0.7029100E-006  0.6521397E+02  0.7818608E-02  0.1395142E+00
          2   -1    0    0  502    0  0.00000000000E+00  0.00000000000E+00  0.85235919234E+02  0.85235919234E+02  0.00000000000E+00 0. -1.
          1   -1    0    0  501    0 -0.00000000000E+00 -0.00000000000E+00 -0.72556636913E+03  0.72556636913E+03  0.00000000000E+00 0. -1.
         25    2    1    2    0    0  0.63205708319E+02 -0.44945274876E+02 -0.36654190927E+03  0.39495905345E+03  0.12499857340E+03 0.  0.
          2    1    1    2  501    0  0.14115119601E+01  0.56379567750E+02 -0.32670961636E+03  0.33154158329E+03  0.00000000000E+00 0. -1.
          1    1    1    2  502    0 -0.64617220279E+02 -0.11434292873E+02  0.52921075735E+02  0.84301651627E+02  0.00000000000E+00 0. -1.
         22    1    3    3    0    0 -0.34170731651E+02 -0.34107065253E+02 -0.10179532556E+03  0.11266418734E+03  0.00000000000E+00 0. -1.
         22    1    3    3    0    0  0.97376439970E+02 -0.10838209623E+02 -0.26474658371E+03  0.28229486611E+03  0.00000000000E+00 0. -1.
</event>
<event>
 7    1  0.7029100E-006  0.1160448E+03  0.7818608E-02  0.1333722E+00
          2   -1    0    0  502    0  0.00000000000E+00  0.00000000000E+00  0.19029093787E+02  0.19029093787E+02  0.00000000000E+00 0. -1.
          1   -1    0    0  501    0 -0.00000000000E+00 -0.00000000000E+00 -0.26965934843E+04  0.26965934843E+04  0.00000000000E+00 0. -1.
         25    2    1    2    0    0  0.13065793268E+02 -0.90434361864E+02 -0.13420305153E+04  0.13509318207E+04  0.12498716475E+03 0.  0.
          2    1    1    2  501    0  0.11587602948E+02  0.13727882995E+03 -0.12820812143E+04  0.12894618993E+04  0.00000000000E+00 0. -1.
          1    1    1    2  502    0 -0.24653396215E+02 -0.46844468083E+02 -0.53452660934E+02  0.75228858132E+02  0.00000000000E+00 0. -1.
         22    1    3    3    0    0 -0.37104837782E+02 -0.23101441371E+02 -0.15819897516E+03  0.16412605315E+03  0.00000000000E+00 0.  1.
         22    1    3    3    0    0  0.50170631049E+02 -0.67332920494E+02 -0.11838315401E+04  0.11868057675E+04  0.00000000000E+00 0.  1.
</event>
<event>
 7    1  0.7029100E-006  0.5560547E+02  0.7818608E-02  0.1452200E+00
          2   -1    0    0  502    0  0.00000000000E+00  0.00000000000E+00  0.34248412879E+03  0.34248412879E+03  0.00000000000E+00 0. -1.
          1   -1    0    0  501    0 -0.00000000000E+00 -0.00000000000E+00 -0.33537237652E+03  0.33537237652E+03  0.00000000000E+00 0. -1.
         25    2    1    2    0    0  0.81103067470E+01 -0.16329974414E+02  0.24994786548E+03  0.28005621081E+03  0.12500040247E+03 0.  0.
          2    1    1    2  501    0  0.45433071696E+02 -0.32059390757E+02 -0.30038904969E+03  0.30549230712E+03  0.00000000000E+00 0. -1.
          1    1    1    2  502    0 -0.53543378444E+02  0.48389365171E+02  0.57552936483E+02  0.92307987382E+02  0.00000000000E+00 0. -1.
         22    1    3    3    0    0  0.73879538034E+01  0.25521083467E+02 -0.59613118951E-01  0.26568987870E+02  0.00000000000E+00 0. -1.
         22    1    3    3    0    0  0.72235294361E+00 -0.41851057881E+02  0.25000747860E+03  0.25348722294E+03  0.00000000000E+00 0. -1.
</event>
<event>
 7    1  0.7029100E-006  0.6752677E+02  0.7818608E-02  0.1416279E+00
          2   -1    0    0  502    0  0.00000000000E+00  0.00000000000E+00  0.95076088492E+03  0.95076088492E+03  0.00000000000E+00 0. -1.
          1   -1    0    0  501    0 -0.00000000000E+00 -0.00000000000E+00 -0.47681644256E+03  0.47681644256E+03  0.00000000000E+00 0. -1.
         25    2    1    2    0    0  0.16422453124E+02 -0.15149733401E+02 -0.10692895955E+03  0.16600752748E+03  0.12500194158E+03 0.  0.
          2    1    1    2  501    0  0.24474997670E+02 -0.39108924472E+02 -0.33752392951E+03  0.34066249643E+03  0.00000000000E+00 0. -1.
          1    1    1    2  502    0 -0.40897450794E+02  0.54258657873E+02  0.91839733141E+03  0.92090730357E+03  0.00000000000E+00 0. -1.
         22    1    3    3    0    0  0.35396739866E+02 -0.40544019949E+02  0.68079931822E+00  0.53825739516E+02  0.00000000000E+00 0.  1.
         22    1    3    3    0    0 -0.18974286742E+02  0.25394286547E+02 -0.10760975887E+03  0.11218178796E+03  0.00000000000E+00 0.  1.
</event>
<event>
 7    1  0.7029100E-006  0.1667525E+03  0.7818608E-02  0.1185554E+00
          2   -1    0    0  502    0  0.00000000000E+00  0.00000000000E+00  0.14352538086E+04  0.14352538086E+04  0.00000000000E+00 0. -1.
          1   -1    0    0  501    0 -0.00000000000E+00 -0.00000000000E+00 -0.83058272631E+02  0.83058272631E+02  0.00000000000E+00 0. -1.
         25    2    1    2    0    0  0.11325079476E+03 -0.68841647951E+02  0.27712524445E+03  0.33164441283E+03  0.12499880178E+03 0.  0.
          2    1    1    2  501    0  0.66236157630E+02  0.14451666040E+03  0.90322909593E+02  0.18284015343E+03  0.00000000000E+00 0. -1.
          1    1    1    2  502    0 -0.17948695239E+03 -0.75675012447E+02  0.98474738193E+03  0.10038275150E+04  0.00000000000E+00 0. -1.
         22    1    3    3    0    0  0.10918977012E+03 -0.82500402748E+02  0.28442311886E+03  0.31563465098E+03  0.00000000000E+00 0.  1.
         22    1    3    3    0    0  0.40610246352E+01  0.13658754798E+02 -0.72978744145E+01  0.16009761856E+02  0.00000000000E+00 0.  1.
</event>
<event>
 7    1  0.7029100E-006  0.6141961E+03  0.7818608E-02  0.1200351E+00
          2   -1    0    0  502    0  0.00000000000E+00  0.00000000000E+00  0.11153964178E+04  0.11153964178E+04  0.00000000000E+00 0. -1.
          1   -1    0    0  501    0 -0.00000000000E+00 -0.00000000000E+00 -0.46688955485E+03  0.46688955485E+03  0.00000000000E+00 0. -1.
         25    2    1    2    0    0  0.51118271432E+03  0.36229324061E+03  0.34854239427E+02  0.63984618983E+03  0.12499667607E+03 0.  0.
          2    1    1    2  501    0 -0.33105187798E+02  0.15798457048E+02 -0.36156573951E+02  0.51505752534E+02  0.00000000000E+00 0. -1.
          1    1    1    2  502    0 -0.47807752652E+03 -0.37809169765E+03  0.64980919747E+03  0.89093403028E+03  0.00000000000E+00 0. -1.
         22    1    3    3    0    0  0.22477588170E+03  0.23252679603E+03 -0.70235959825E+00  0.32340903076E+03  0.00000000000E+00 0.  1.
         22    1    3    3    0    0  0.28640683262E+03  0.12976644457E+03  0.35556599025E+02  0.31643715907E+03  0.00000000000E+00 0.  1.
</event>
<event>
 7    1  0.7029100E-006  0.5671427E+02  0.7818608E-02  0.1523838E+00
          2   -1    0    0  502    0  0.00000000000E+00  0.00000000000E+00  0.58948278299E+02  0.58948278299E+02  0.00000000000E+00 0. -1.
          1   -1    0    0  501    0 -0.00000000000E+00 -0.00000000000E+00 -0.36605803324E+03  0.36605803324E+03  0.00000000000E+00 0. -1.
         25    2    1    2    0    0  0.68854720771E+02  0.31329046387E+00 -0.13015592455E+03  0.19314930954E+03  0.12500008143E+03 0.  0.
          2    1    1    2  501    0 -0.16926961820E+02 -0.18935229621E+02 -0.17481433437E+03  0.17664969985E+03  0.00000000000E+00 0. -1.
          1    1    1    2  502    0 -0.51927758950E+02  0.18621939157E+02 -0.21394960298E+01  0.55207302152E+02  0.00000000000E+00 0. -1.
         22    1    3    3    0    0  0.44607113013E+01  0.30506347727E+02 -0.11678013754E+03  0.12078135503E+03  0.00000000000E+00 0. -1.
         22    1    3    3    0    0  0.64394009469E+02 -0.30193057263E+02 -0.13375787001E+02  0.72367954512E+02  0.00000000000E+00 0. -1.
</event>
<event>
 7    1  0.7029100E-006  0.1055836E+03  0.7818608E-02  0.1371581E+00
          2   -1    0    0  502    0  0.00000000000E+00  0.00000000000E+00  0.98745414262E+03  0.98745414262E+03  0.00000000000E+00 0. -1.
          1   -1    0    0  501    0 -0.00000000000E+00 -0.00000000000E+00 -0.28105578524E+04  0.28105578524E+04  0.00000000000E+00 0. -1.
         25    2    1    2    0    0 -0.43409012997E+02  0.74108794954E+02 -0.10400463633E+03  0.18389674438E+03  0.12499836926E+03 0.  0.
          2    1    1    2  501    0  0.84470384937E+02 -0.64486953725E+02 -0.26650783439E+04  0.26671963543E+04  0.00000000000E+00 0. -1.
          1    1    1    2  502    0 -0.41061371940E+02 -0.96218412295E+01  0.94597927047E+03  0.94691889635E+03  0.00000000000E+00 0. -1.
         22    1    3    3    0    0 -0.41276386611E+02  0.10229439046E+03 -0.46280408459E+02  0.11962340331E+03  0.00000000000E+00 0.  1.
         22    1    3    3    0    0 -0.21326263859E+01 -0.28185595507E+02 -0.57724227875E+02  0.64273341076E+02  0.00000000000E+00 0.  1.
</event>
<event>
 7    1  0.7029100E-006  0.6021091E+02  0.7818608E-02  0.1429308E+00
          2   -1    0    0  502    0  0.00000000000E+00  0.00000000000E+00  0.66416751761E+03  0.66416751761E+03  0.00000000000E+00 0. -1.
          1   -1    0    0  501    0 -0.00000000000E+00 -0.00000000000E+00 -0.17645489637E+03  0.17645489637E+03  0.00000000000E+00 0. -1.
         25    2    1    2    0    0  0.63810389076E+01 -0.64688279917E+02  0.11652884430E+03  0.18283681348E+03  0.12500015037E+03 0.  0.
          2    1    1    2  501    0  0.37340456643E+02  0.47917958500E+02 -0.13573464328E+03  0.14870888957E+03  0.00000000000E+00 0. -1.
          1    1    1    2  502    0 -0.43721495551E+02  0.16770321416E+02  0.50691842023E+03  0.50907671094E+03  0.00000000000E+00 0. -1.
         22    1    3    3    0    0  0.52306435333E+02  0.28651950469E+01  0.19249328933E+02  0.55809579681E+02  0.00000000000E+00 0.  1.
         22    1    3    3    0    0 -0.45925396425E+02 -0.67553474964E+02  0.97279515367E+02  0.12702723380E+03  0.00000000000E+00 0.  1.
</event>
<event>
 7    1  0.7029100E-006  0.8548696E+02  0.7818608E-02  0.1435472E+00
          2   -1    0    0  502    0  0.00000000000E+00  0.00000000000E+00  0.57241594803E+03  0.57241594803E+03  0.00000000000E+00 0. -1.
          1   -1    0    0  501    0 -0.00000000000E+00 -0.00000000000E+00 -0.57537955496E+03  0.57537955496E+03  0.00000000000E+00 0. -1.
         25    2    1    2    0    0 -0.57965404199E+02  0.22100146252E+02 -0.19635381713E+03  0.24088837195E+03  0.12499592669E+03 0.  0.
          2    1    1    2  501    0  0.80672938069E+02 -0.43904769064E+02 -0.35038425412E+03  0.36222213794E+03  0.00000000000E+00 0. -1.
          1    1    1    2  502    0 -0.22707533870E+02  0.21804622812E+02  0.54377446432E+03  0.54468499310E+03  0.00000000000E+00 0. -1.
         22    1    3    3    0    0 -0.27559706365E+02  0.61195410801E+02 -0.42934778374E+02  0.79673150509E+02  0.00000000000E+00 0.  1.
         22    1    3    3    0    0 -0.30405697834E+02 -0.39095264549E+02 -0.15341903875E+03  0.16121522144E+03  0.00000000000E+00 0.  1.
</event>
<event>
 7    1  0.7029100E-006  0.1011869E+03  0.7818608E-02  0.1445315E+00
          2   -1    0    0  502    0  0.00000000000E+00  0.00000000000E+00  0.95761032324E+02  0.95761032324E+02  0.00000000000E+00 0. -1.
          1   -1    0    0  501    0 -0.00000000000E+00 -0.00000000000E+00 -0.31932566514E+03  0.31932566514E+03  0.00000000000E+00 0. -1.
         25    2    1    2    0    0  0.89041170686E+02 -0.46855407873E+02 -0.17267375106E+03  0.23572184537E+03  0.12499921903E+03 0.  0.
          2    1    1    2  501    0 -0.76894671905E+02  0.68375748600E+02 -0.87584332172E+02  0.13512604784E+03  0.00000000000E+00 0. -1.
          1    1    1    2  502    0 -0.12146498780E+02 -0.21520340727E+02  0.36693450414E+02  0.44238804243E+02  0.00000000000E+00 0. -1.
         22    1    3    3    0    0 -0.21978277726E+02  0.14562571665E+02 -0.61945611681E+02  0.67322893519E+02  0.00000000000E+00 0.  1.
         22    1    3    3    0    0  0.11101944841E+03 -0.61417979538E+02 -0.11072813938E+03  0.16839895186E+03  0.00000000000E+00 0.  1.
</event>
<event>
 7    1  0.7029100E-006  0.5499004E+02  0.7818608E-02  0.1450860E+00
          2   -1    0    0  502    0  0.00000000000E+00  0.00000000000E+00  0.76168394229E+03  0.76168394229E+03  0.00000000000E+00 0. -1.
          1   -1    0    0  501    0 -0.00000000000E+00 -0.00000000000E+00 -0.32317328797E+03  0.32317328797E+03  0.00000000000E+00 0. -1.
         25    2    1    2    0    0  0.75278528810E+02  0.27792309205E+02  0.32688473877E+03  0.35905180155E+03  0.12500117761E+03 0.  0.
          2    1    1    2  501    0 -0.53920788966E+02  0.10271972094E+02 -0.30348358660E+03  0.30840760728E+03  0.00000000000E+00 0. -1.
          1    1    1    2  502    0 -0.21357739843E+02 -0.38064281298E+02  0.41510950215E+03  0.41739782143E+03  0.00000000000E+00 0. -1.
         22    1    3    3    0    0  0.50253991387E+02  0.74706063239E+02  0.24873788988E+03  0.26453165670E+03  0.00000000000E+00 0. -1.
         22    1    3    3    0    0  0.25024537422E+02 -0.46913754035E+02  0.78146848893E+02  0.94520144851E+02  0.00000000000E+00 0. -1.
</event>
<event>
 7    1  0.7029100E-006  0.6076565E+02  0.7818608E-02  0.1425918E+00
          2   -1    0    0  502    0  0.00000000000E+00  0.00000000000E+00  0.13801825667E+03  0.13801825667E+03  0.00000000000E+00 0. -1.
          1   -1    0    0  501    0 -0.00000000000E+00 -0.00000000000E+00 -0.29633073223E+03  0.29633073223E+03  0.00000000000E+00 0. -1.
         25    2    1    2    0    0 -0.24285059506E+02 -0.84618053932E+02 -0.17026972218E+03  0.22883732343E+03  0.12499905255E+03 0.  0.
          2    1    1    2  501    0 -0.19467553414E+02  0.43450293685E+02 -0.81513344260E+02  0.94399888504E+02  0.00000000000E+00 0. -1.
          1    1    1    2  502    0  0.43752612920E+02  0.41167760248E+02  0.93470590881E+02  0.11111177697E+03  0.00000000000E+00 0. -1.
         22    1    3    3    0    0  0.39271853317E+02 -0.30511905250E+02 -0.12354947539E+03  0.13318306084E+03  0.00000000000E+00 0. -1.
         22    1    3    3    0    0 -0.63556912822E+02 -0.54106148682E+02 -0.46720246785E+02  0.95654262594E+02  0.00000000000E+00 0. -1.
</event>
<event>
 7    1  0.8237075E-006  0.7128780E+02  0.7818608E-02  0.1361033E+00
          2   -1    0    0  502    0  0.00000000000E+00  0.00000000000E+00  0.19445739747E+04  0.19445739747E+04  0.00000000000E+00 0. -1.
          1   -1    0    0  501    0 -0.00000000000E+00 -0.00000000000E+00 -0.28141102460E+04  0.28141102460E+04  0.00000000000E+00 0. -1.
         25    2    1    2    0    0  0.45618607049E+01  0.88437215450E+02 -0.22068414405E+03  0.26864087159E+03  0.12499789919E+03 0.  0.
          2    1    1    2  501    0  0.51524384065E+02 -0.49643765261E+02 -0.25683440147E+04  0.25693404296E+04  0.00000000000E+00 0. -1.
          1    1    1    2  502    0 -0.56086244770E+02 -0.38793450189E+02  0.19194918874E+04  0.19207029194E+04  0.00000000000E+00 0. -1.
         22    1    3    3    0    0  0.54409889444E+02  0.66736489854E+02 -0.78889222495E+02  0.11678058303E+03  0.00000000000E+00 0.  1.
         22    1    3    3    0    0 -0.49848028739E+02  0.21700725596E+02 -0.14179492156E+03  0.15186028855E+03  0.00000000000E+00 0.  1.
</event>
<event>
 7    1  0.7029100E-006  0.2673670E+03  0.7818608E-02  0.1130520E+00
          2   -1    0    0  502    0  0.00000000000E+00  0.00000000000E+00  0.11049819710E+04  0.11049819710E+04  0.00000000000E+00 0. -1.
          1   -1    0    0  501    0 -0.00000000000E+00 -0.00000000000E+00 -0.23125333992E+04  0.23125333992E+04  0.00000000000E+00 0. -1.
         25    2    1    2    0    0  0.68590587068E+01  0.13556159794E+03 -0.39607182610E+03  0.43694689421E+03  0.12500281357E+03 0.  0.
          2    1    1    2  501    0 -0.16767613999E+03  0.86395867735E+02 -0.18738956362E+04  0.18833651768E+04  0.00000000000E+00 0. -1.
          1    1    1    2  502    0  0.16081708128E+03 -0.22195746568E+03  0.10624160341E+04  0.10972032992E+04  0.00000000000E+00 0. -1.
         22    1    3    3    0    0  0.99985771259E+01  0.15635021844E+03 -0.37815232511E+03  0.40932205333E+03  0.00000000000E+00 0. -1.
         22    1    3    3    0    0 -0.31395184191E+01 -0.20788620494E+02 -0.17919500988E+02  0.27624840880E+02  0.00000000000E+00 0. -1.
</event>
<event>
 7    1  0.7029100E-006  0.2652925E+03  0.7818608E-02  0.1150514E+00
          2   -1    0    0  502    0  0.00000000000E+00  0.00000000000E+00  0.75483060022E+03  0.75483060022E+03  0.00000000000E+00 0. -1.
          1   -1    0    0  501    0 -0.00000000000E+00 -0.00000000000E+00 -0.18777971427E+04  0.18777971427E+04  0.00000000000E+00 0. -1.
         25    2    1    2    0    0 -0.18148839634E+03  0.82213626692E+02 -0.17241210241E+03  0.29163123684E+03  0.12500290726E+03 0.  0.
          2    1    1    2  501    0  0.28238534627E+03  0.27966937393E+02 -0.16253118945E+04  0.16498976901E+04  0.00000000000E+00 0. -1.
          1    1    1    2  502    0 -0.10089694993E+03 -0.11018056408E+03  0.67475745441E+03  0.69109881601E+03  0.00000000000E+00 0. -1.
         22    1    3    3    0    0 -0.38249697192E+01  0.45159516213E+02 -0.69574425441E+02  0.83033806208E+02  0.00000000000E+00 0.  1.
         22    1    3    3    0    0 -0.17766342662E+03  0.37054110479E+02 -0.10283767697E+03  0.20859743063E+03  0.00000000000E+00 0.  1.
</event>
<event>
 7    1  0.7029100E-006  0.2658355E+03  0.7818608E-02  0.1234138E+00
          2   -1    0    0  502    0  0.00000000000E+00  0.00000000000E+00  0.78202412559E+03  0.78202412559E+03  0.00000000000E+00 0. -1.
          1   -1    0    0  501    0 -0.00000000000E+00 -0.00000000000E+00 -0.15616995718E+04  0.15616995718E+04  0.00000000000E+00 0. -1.
         25    2    1    2    0    0  0.17603698793E+03  0.16374500195E+03  0.34084104818E+03  0.43543205251E+03  0.12500802154E+03 0.  0.
          2    1    1    2  501    0  0.25001401310E+02  0.53816292355E+02 -0.14580206635E+04  0.14592277131E+04  0.00000000000E+00 0. -1.
          1    1    1    2  502    0 -0.20103838924E+03 -0.21756129431E+03  0.33750416909E+03  0.44906393184E+03  0.00000000000E+00 0. -1.
         22    1    3    3    0    0  0.11997784392E+03  0.79672556798E+02  0.28658526503E+03  0.32073901146E+03  0.00000000000E+00 0. -1.
         22    1    3    3    0    0  0.56059144007E+02  0.84072445156E+02  0.54255783147E+02  0.11469304105E+03  0.00000000000E+00 0. -1.
</event>
<event>
 7    1  0.7029100E-006  0.1048980E+03  0.7818608E-02  0.1310583E+00
          2   -1    0    0  502    0  0.00000000000E+00  0.00000000000E+00  0.17377238036E+04  0.17377238036E+04  0.00000000000E+00 0. -1.
          1   -1    0    0  501    0 -0.00000000000E+00 -0.00000000000E+00 -0.85287735098E+02  0.85287735098E+02  0.00000000000E+00 0. -1.
         25    2    1    2    0    0 -0.12354141348E+03 -0.11507670343E+03  0.53882138757E+03  0.57831292562E+03  0.12494888446E+03 0.  0.
          2    1    1    2  501    0  0.59330498625E+02  0.40720544404E+02 -0.43059712052E+02  0.83859463423E+02  0.00000000000E+00 0. -1.
          1    1    1    2  502    0  0.64210914850E+02  0.74356159030E+02  0.11566743930E+04  0.11608391497E+04  0.00000000000E+00 0. -1.
         22    1    3    3    0    0 -0.12151419648E+03 -0.86061647503E+02  0.27354615738E+03  0.31144792074E+03  0.00000000000E+00 0. -1.
         22    1    3    3    0    0 -0.20272169937E+01 -0.29015055932E+02  0.26527523019E+03  0.26686500488E+03  0.00000000000E+00 0. -1.
</event>
<event>
 7    1  0.7029100E-006  0.8409369E+02  0.7818608E-02  0.1322982E+00
          2   -1    0    0  502    0  0.00000000000E+00  0.00000000000E+00  0.42194903238E+03  0.42194903238E+03  0.00000000000E+00 0. -1.
          1   -1    0    0  501    0 -0.00000000000E+00 -0.00000000000E+00 -0.31176192925E+03  0.31176192925E+03  0.00000000000E+00 0. -1.
         25    2    1    2    0    0  0.52406299532E+02 -0.62619063144E+02 -0.10032684439E+03  0.17989155587E+03  0.12501171493E+03 0.  0.
          2    1    1    2  501    0  0.28693774855E+02  0.84857019904E+02 -0.15485545922E+03  0.17889734429E+03  0.00000000000E+00 0. -1.
          1    1    1    2  502    0 -0.81100074387E+02 -0.22237956760E+02  0.36536940675E+03  0.37492206146E+03  0.00000000000E+00 0. -1.
         22    1    3    3    0    0  0.53799185515E+01 -0.61402444067E+02 -0.11511634424E+03  0.13057938724E+03  0.00000000000E+00 0. -1.
         22    1    3    3    0    0  0.47026380981E+02 -0.12166190769E+01  0.14789499844E+02  0.49312168638E+02  0.00000000000E+00 0. -1.
</event>
<event>
 7    1  0.7029100E-006  0.1590442E+03  0.7818608E-02  0.1202877E+00
          2   -1    0    0  502    0  0.00000000000E+00  0.00000000000E+00  0.11574735734E+04  0.11574735734E+04  0.00000000000E+00 0. -1.
          1   -1    0    0  501    0 -0.00000000000E+00 -0.00000000000E+00 -0.19824755561E+04  0.19824755561E+04  0.00000000000E+00 0. -1.
         25    2    1    2    0    0 -0.38357559805E+02  0.28140607212E+02  0.57057107889E+02  0.14540634320E+03  0.12499717962E+03 0.  0.
          2    1    1    2  501    0  0.15867546535E+03  0.39106362899E+02 -0.19303367533E+04  0.19372421614E+04  0.00000000000E+00 0. -1.
          1    1    1    2  502    0 -0.12031790555E+03 -0.67246970110E+02  0.10482776627E+04  0.10573006249E+04  0.00000000000E+00 0. -1.
         22    1    3    3    0    0  0.37142255918E+02 -0.53735196892E+01  0.49977710773E+02  0.62499547699E+02  0.00000000000E+00 0.  1.
         22    1    3    3    0    0 -0.75499815723E+02  0.33514126901E+02  0.70793971162E+01  0.82906795498E+02  0.00000000000E+00 0.  1.
</event>
<event>
 7    1  0.7029100E-006  0.2905334E+03  0.7818608E-02  0.1235189E+00
          2   -1    0    0  502    0  0.00000000000E+00  0.00000000000E+00  0.15636310550E+04  0.15636310550E+04  0.00000000000E+00 0. -1.
          1   -1    0    0  501    0 -0.00000000000E+00 -0.00000000000E+00 -0.43620281649E+03  0.43620281649E+03  0.00000000000E+00 0. -1.
         25    2    1    2    0    0  0.10278549393E+03  0.30444842193E+03  0.97789978790E+02  0.35838690825E+03  0.12499838667E+03 0.  0.
          2    1    1    2  501    0 -0.12226344087E+03 -0.25438979726E+03 -0.24011135194E+03  0.37056170775E+03  0.00000000000E+00 0. -1.
          1    1    1    2  502    0  0.19477946945E+02 -0.50058624671E+02  0.12697496117E+04  0.12708852555E+04  0.00000000000E+00 0. -1.
         22    1    3    3    0    0  0.53492755345E+02  0.17716669721E+03 -0.86944219820E+01  0.18527036041E+03  0.00000000000E+00 0. -1.
         22    1    3    3    0    0  0.49292738583E+02  0.12728172473E+03  0.10648440077E+03  0.17311654783E+03  0.00000000000E+00 0. -1.
</event>
<event>
 7    1  0.7029100E-006  0.1175088E+03  0.7818608E-02  0.1391749E+00
          2   -1    0    0  502    0  0.00000000000E+00  0.00000000000E+00  0.44403143278E+03  0.44403143278E+03  0.00000000000E+00 0. -1.
          1   -1    0    0  501    0 -0.00000000000E+00 -0.00000000000E+00 -0.13079789328E+04  0.13079789328E+04  0.00000000000E+00 0. -1.
         25    2    1    2    0    0 -0.83511923681E+02 -0.37594173965E+02 -0.73021179704E+03  0.74647288117E+03  0.12499972191E+03 0.  0.
          2    1    1    2  501    0 -0.30817609924E+02  0.91932652875E+01 -0.56120854202E+03  0.56212922789E+03  0.00000000000E+00 0. -1.
          1    1    1    2  502    0  0.11432953361E+03  0.28400908678E+02  0.42747283902E+03  0.44340825654E+03  0.00000000000E+00 0. -1.
         22    1    3    3    0    0 -0.54108611179E+02 -0.64921971170E+02 -0.23677636365E+03  0.25140733984E+03  0.00000000000E+00 0.  1.
         22    1    3    3    0    0 -0.29403312502E+02  0.27327797204E+02 -0.49343543339E+03  0.49506554132E+03  0.00000000000E+00 0.  1.
</event>
<event>
 7    1  0.7029100E-006  0.1028315E+03  0.7818608E-02  0.1303805E+00
          2   -1    0    0  502    0  0.00000000000E+00  0.00000000000E+00  0.73138512291E+03  0.73138512291E+03  0.00000000000E+00 0. -1.
          1   -1    0    0  501    0 -0.00000000000E+00 -0.00000000000E+00 -0.40771772775E+04  0.40771772775E+04  0.00000000000E+00 0. -1.
         25    2    1    2    0    0 -0.67797373634E+02 -0.12609903383E+03  0.23830255566E+03  0.30481384122E+03  0.12500367819E+03 0.  0.
          2    1    1    2  501    0  0.73218611685E+02  0.27133114024E+02 -0.40381988680E+04  0.40389537344E+04  0.00000000000E+00 0. -1.
          1    1    1    2  502    0 -0.54212380509E+01  0.98965919803E+02  0.45410415773E+03  0.46479482481E+03  0.00000000000E+00 0. -1.
         22    1    3    3    0    0 -0.73333762164E+02 -0.20745632209E+02  0.14574459952E+03  0.16446796107E+03  0.00000000000E+00 0.  1.
         22    1    3    3    0    0  0.55363885304E+01 -0.10535340162E+03  0.92557956143E+02  0.14034588015E+03  0.00000000000E+00 0.  1.
</event>
<event>
 7    1  0.7029100E-006  0.7151484E+02  0.7818608E-02  0.1449295E+00
          2   -1    0    0  502    0  0.00000000000E+00  0.00000000000E+00  0.11995200663E+04  0.11995200663E+04  0.00000000000E+00 0. -1.
          1   -1    0    0  501    0 -0.00000000000E+00 -0.00000000000E+00 -0.62402257070E+03  0.62402257070E+03  0.00000000000E+00 0. -1.
         25    2    1    2    0    0 -0.24677180112E+02  0.10088499037E+03  0.58542555954E+03  0.60756438605E+03  0.12499861173E+03 0.  0.
          2    1    1    2  501    0  0.88386760172E+01 -0.70855250478E+02 -0.61039249754E+03  0.61455478988E+03  0.00000000000E+00 0. -1.
          1    1    1    2  502    0  0.15838504095E+02 -0.30029739896E+02  0.60046443358E+03  0.60142346104E+03  0.00000000000E+00 0. -1.
         22    1    3    3    0    0 -0.72970038833E+02  0.83847185725E+02  0.38833995601E+03  0.40393427504E+03  0.00000000000E+00 0.  1.
         22    1    3    3    0    0  0.48292858721E+02  0.17037804649E+02  0.19708560353E+03  0.20363011101E+03  0.00000000000E+00 0.  1.
</event>
<event>
 7    1  0.7029100E-006  0.3226544E+02  0.7818608E-02  0.1605100E+00
          2   -1    0    0  502    0  0.00000000000E+00  0.00000000000E+00  0.58509526317E+03  0.58509526317E+03  0.00000000000E+00 0. -1.
          1   -1    0    0  501    0 -0.00000000000E+00 -0.00000000000E+00 -0.18311935810E+02  0.18311935810E+02  0.00000000000E+00 0. -1.
         25    2    1    2    0    0  0.39686412714E+00 -0.39176400041E+02  0.30310910819E+03  0.33020472601E+03  0.12500032715E+03 0.  0.
          2    1    1    2  501    0 -0.22126062329E+02  0.15022110530E+02  0.46752515942E+02  0.53861156559E+02  0.00000000000E+00 0. -1.
          1    1    1    2  502    0  0.21729198202E+02  0.24154289511E+02  0.21692170323E+03  0.21934131642E+03  0.00000000000E+00 0. -1.
         22    1    3    3    0    0  0.14846456845E+01  0.42955042382E+02  0.61621739999E+02  0.75130411149E+02  0.00000000000E+00 0. -1.
         22    1    3    3    0    0 -0.10877815573E+01 -0.82131442423E+02  0.24148736819E+03  0.25507431486E+03  0.00000000000E+00 0. -1.
</event>
<event>
 7    1  0.7029100E-006  0.1284856E+03  0.7818608E-02  0.1331801E+00
          2   -1    0    0  502    0  0.00000000000E+00  0.00000000000E+00  0.58996746886E+03  0.58996746886E+03  0.00000000000E+00 0. -1.
          1   -1    0    0  501    0 -0.00000000000E+00 -0.00000000000E+00 -0.68578818352E+03  0.68578818352E+03  0.00000000000E+00 0. -1.
         25    2    1    2    0    0  0.22436822955E+02  0.87831443783E+02 -0.13089205601E+03  0.20242243740E+03  0.12499735715E+03 0.  0.
          2    1    1    2  501    0  0.41076774057E+02  0.26014670839E+02 -0.51029295894E+03  0.51260410494E+03  0.00000000000E+00 0. -1.
          1    1    1    2  502    0 -0.63513597012E+02 -0.11384611462E+03  0.54536430029E+03  0.56072911004E+03  0.00000000000E+00 0. -1.
         22    1    3    3    0    0 -0.44020051975E+02  0.73655781551E+02 -0.82192841458E+02  0.11882172494E+03  0.00000000000E+00 0. -1.
         22    1    3    3    0    0  0.66456874930E+02  0.14175662232E+02 -0.48699214553E+02  0.83600712457E+02  0.00000000000E+00 0. -1.
</event>
<event>
 7    1  0.7029100E-006  0.2344900E+03  0.7818608E-02  0.1230373E+00
          2   -1    0    0  502    0  0.00000000000E+00  0.00000000000E+00  0.11589456443E+04  0.11589456443E+04  0.00000000000E+00 0. -1.
          1   -1    0    0  501    0 -0.00000000000E+00 -0.00000000000E+00 -0.18486568956E+03  0.18486568956E+03  0.00000000000E+00 0. -1.
         25    2    1    2    0    0 -0.12663979063E+03 -0.13463884923E+03  0.58399721751E+03  0.62516599269E+03  0.12495804121E+03 0.  0.
          2    1    1    2  501    0  0.19613397440E+03  0.14242640760E+03 -0.70774347286E+02  0.25251302091E+03  0.00000000000E+00 0. -1.
          1    1    1    2  502    0 -0.69494183771E+02 -0.77875583733E+01  0.46085708456E+03  0.46613232031E+03  0.00000000000E+00 0. -1.
         22    1    3    3    0    0 -0.99555255242E+02 -0.92145327312E+02  0.54449008608E+03  0.56113408739E+03  0.00000000000E+00 0.  1.
         22    1    3    3    0    0 -0.27084535384E+02 -0.42493521919E+02  0.39507131425E+02  0.64031905294E+02  0.00000000000E+00 0.  1.
</event>
<event>
 7    1  0.7029100E-006  0.3286944E+02  0.7818608E-02  0.1593113E+00
          2   -1    0    0  502    0  0.00000000000E+00  0.00000000000E+00  0.59177825952E+03  0.59177825952E+03  0.00000000000E+00 0. -1.
          1   -1    0    0  501    0 -0.00000000000E+00 -0.00000000000E+00 -0.14600655694E+04  0.14600655694E+04  0.00000000000E+00 0. -1.
         25    2    1    2    0    0 -0.29722203121E+02 -0.46438614842E+02 -0.83536221407E+02  0.16013262764E+03  0.12499681533E+03 0.  0.
          2    1    1    2  501    0  0.27167071689E+02  0.18336593252E+02 -0.13376706129E+04  0.13380721015E+04  0.00000000000E+00 0. -1.
          1    1    1    2  502    0  0.25551314328E+01  0.28102021590E+02  0.55291952438E+03  0.55363909973E+03  0.00000000000E+00 0. -1.
         22    1    3    3    0    0 -0.14403946776E+02 -0.28770511951E+02  0.30133697213E+02  0.44082374577E+02  0.00000000000E+00 0. -1.
         22    1    3    3    0    0 -0.15318256346E+02 -0.17668102892E+02 -0.11366991862E+03  0.11605025306E+03  0.00000000000E+00 0. -1.
</event>
<event>
 7    1  0.7029100E-006  0.8686639E+02  0.7818608E-02  0.1431861E+00
          2   -1    0    0  502    0  0.00000000000E+00  0.00000000000E+00  0.16247181865E+04  0.16247181865E+04  0.00000000000E+00 0. -1.
          1   -1    0    0  501    0 -0.00000000000E+00 -0.00000000000E+00 -0.22730366258E+03  0.22730366258E+03  0.00000000000E+00 0. -1.
         25    2    1    2    0    0  0.78092866330E+02  0.30638867054E+02  0.14343692260E+03  0.20793348972E+03  0.12499979775E+03 0.  0.
          2    1    1    2  501    0  0.91202613505E+01 -0.30502130258E+02 -0.19243404065E+03  0.19504978626E+03  0.00000000000E+00 0. -1.
          1    1    1    2  502    0 -0.87213127681E+02 -0.13673679591E+00  0.14464116419E+04  0.14490385731E+04  0.00000000000E+00 0. -1.
         22    1    3    3    0    0  0.46157780746E+02  0.76055351936E+02  0.11546779238E+03  0.14576614270E+03  0.00000000000E+00 0. -1.
         22    1    3    3    0    0  0.31935085584E+02 -0.45416484881E+02  0.27969130224E+02  0.62167347022E+02  0.00000000000E+00 0. -1.
</event>
<event>
 7    1  0.7029100E-006  0.1613351E+03  0.7818608E-02  0.1239144E+00
          2   -1    0    0  502    0  0.00000000000E+00  0.00000000000E+00  0.38798604481E+03  0.38798604481E+03  0.00000000000E+00 0. -1.
          1   -1    0    0  501    0 -0.00000000000E+00 -0.00000000000E+00 -0.89887611010E+03  0.89887611010E+03  0.00000000000E+00 0. -1.
         25    2    1    2    0    0 -0.28103402852E+02 -0.24666755950E+03 -0.43575122779E+03  0.51685518204E+03  0.12500184205E+03 0.  0.
          2    1    1    2  501    0 -0.72776522575E+01  0.92618820859E+02 -0.39897886245E+03  0.40965271009E+03  0.00000000000E+00 0. -1.
          1    1    1    2  502    0  0.35381055110E+02  0.15404873864E+03  0.32384002496E+03  0.36035426278E+03  0.00000000000E+00 0. -1.
         22    1    3    3    0    0  0.40373763852E+02 -0.55863926171E+02 -0.67385995404E+02  0.96393420063E+02  0.00000000000E+00 0.  1.
         22    1    3    3    0    0 -0.68477166704E+02 -0.19080363333E+03 -0.36836523239E+03  0.42046176198E+03  0.00000000000E+00 0.  1.
</event>
<event>
 7    1  0.7029100E-006  0.6528464E+03  0.7818608E-02  0.1102912E+00
          2   -1    0    0  502    0  0.00000000000E+00  0.00000000000E+00  0.19092012906E+04  0.19092012906E+04  0.00000000000E+00 0. -1.
          1   -1    0    0  501    0 -0.00000000000E+00 -0.00000000000E+00 -0.12385608842E+04  0.12385608842E+04  0.00000000000E+00 0. -1.
         25    2    1    2    0    0 -0.36174207747E+03  0.63336301874E+03  0.19612498466E+03  0.76556944809E+03  0.12500210449E+03 0.  0.
          2    1    1    2  501    0  0.44594598483E+01 -0.10924226859E+03 -0.87986541254E+03  0.88663233881E+03  0.00000000000E+00 0. -1.
          1    1    1    2  502    0  0.35728261762E+03 -0.52412075015E+03  0.13543808343E+04  0.14955603879E+04  0.00000000000E+00 0. -1.
         22    1    3    3    0    0  0.51172173335E+01  0.37139703033E+02  0.24512426589E+02  0.44792884613E+02  0.00000000000E+00 0. -1.
         22    1    3    3    0    0 -0.36685929480E+03  0.59622331571E+03  0.17161255807E+03  0.72077656348E+03  0.00000000000E+00 0. -1.
</event>
<event>
 7    1  0.7029100E-006  0.2616309E+02  0.7818608E-02  0.1645865E+00
          2   -1    0    0  502    0  0.00000000000E+00  0.00000000000E+00  0.65328974427E+03  0.65328974427E+03  0.00000000000E+00 0. -1.
          1   -1    0    0  501    0 -0.00000000000E+00 -0.00000000000E+00 -0.22152452351E+04  0.22152452351E+04  0.00000000000E+00 0. -1.
         25    2    1    2    0    0  0.10088106552E+02  0.18787904324E+01 -0.80592676663E+03  0.81562761039E+03  0.12500058361E+03 0.  0.
          2    1    1    2  501    0 -0.14712642573E+01 -0.26582177072E+02 -0.14040779012E+04  0.14043302779E+04  0.00000000000E+00 0. -1.
          1    1    1    2  502    0 -0.86168422948E+01  0.24703386639E+02  0.64804917700E+03  0.64857709110E+03  0.00000000000E+00 0. -1.
         22    1    3    3    0    0  0.16057280053E+02  0.22242176788E+02 -0.78612448302E+03  0.78660298339E+03  0.00000000000E+00 0. -1.
         22    1    3    3    0    0 -0.59691735008E+01 -0.20363386356E+02 -0.19802283613E+02  0.29024626999E+02  0.00000000000E+00 0. -1.
</event>
<event>
 7    1  0.7029100E-006  0.1213547E+03  0.7818608E-02  0.1304061E+00
          2   -1    0    0  502    0  0.00000000000E+00  0.00000000000E+00  0.10003665418E+04  0.10003665418E+04  0.00000000000E+00 0. -1.
          1   -1    0    0  501    0 -0.00000000000E+00 -0.00000000000E+00 -0.12615563881E+03  0.12615563881E+03  0.00000000000E+00 0. -1.
         25    2    1    2    0    0  0.32622063086E+02  0.16402400569E+03  0.45747136484E+03  0.50286669178E+03  0.12500714626E+03 0.  0.
          2    1    1    2  501    0 -0.38077462230E+02 -0.53921287528E+02 -0.86315483991E+02  0.10866352265E+03  0.00000000000E+00 0. -1.
          1    1    1    2  502    0  0.54553991440E+01 -0.11010271816E+03  0.50305502214E+03  0.51499196618E+03  0.00000000000E+00 0. -1.
         22    1    3    3    0    0  0.70546722710E+02  0.44699076222E+02  0.18952827521E+03  0.20711304788E+03  0.00000000000E+00 0.  1.
         22    1    3    3    0    0 -0.37924659625E+02  0.11932492947E+03  0.26794308963E+03  0.29575364390E+03  0.00000000000E+00 0.  1.
</event>
<event>
 7    1  0.7029100E-006  0.2159966E+02  0.7818608E-02  0.1720628E+00
          2   -1    0    0  502    0  0.00000000000E+00  0.00000000000E+00  0.45873712832E+03  0.45873712832E+03  0.00000000000E+00 0. -1.
          1   -1    0    0  501    0 -0.00000000000E+00 -0.00000000000E+00 -0.14791535988E+03  0.14791535988E+03  0.00000000000E+00 0. -1.
         25    2    1    2    0    0  0.31004062861E+01 -0.27633946416E+02 -0.95637269979E+01  0.12841420735E+03  0.12500198503E+03 0.  0.
          2    1    1    2  501    0  0.14546073103E+02  0.15155500517E+02 -0.77229948156E+02  0.80035881521E+02  0.00000000000E+00 0. -1.
          1    1    1    2  502    0 -0.17646479389E+02  0.12478445899E+02  0.39761544360E+03  0.39820239933E+03  0.00000000000E+00 0. -1.
         22    1    3    3    0    0 -0.26961686267E+02 -0.51404309693E+02  0.36441763989E+02  0.68537126756E+02  0.00000000000E+00 0.  1.
         22    1    3    3    0    0  0.30062092553E+02  0.23770363277E+02 -0.46005490987E+02  0.59877080590E+02  0.00000000000E+00 0.  1.
</event>
<event>
 7    1  0.7029100E-006  0.3665855E+02  0.7818608E-02  0.1545453E+00
          2   -1    0    0  502    0  0.00000000000E+00  0.00000000000E+00  0.18227162944E+04  0.18227162944E+04  0.00000000000E+00 0. -1.
          1   -1    0    0  501    0 -0.00000000000E+00 -0.00000000000E+00 -0.33432573706E+02  0.33432573706E+02  0.00000000000E+00 0. -1.
         25    2    1    2    0    0 -0.61736512832E+02  0.23478527618E+02  0.32657211004E+03  0.35585917541E+03  0.12499508548E+03 0.  0.
          2    1    1    2  501    0  0.34101544375E+02  0.47023218482E-02 -0.29044715520E+01  0.34225009947E+02  0.00000000000E+00 0. -1.
          1    1    1    2  502    0  0.27634968456E+02 -0.23483229940E+02  0.14656160822E+04  0.14660646828E+04  0.00000000000E+00 0. -1.
         22    1    3    3    0    0 -0.57319440850E+02 -0.17264559420E+02  0.55259886703E+02  0.81469248123E+02  0.00000000000E+00 0.  1.
         22    1    3    3    0    0 -0.44170719819E+01  0.40743087039E+02  0.27131222334E+03  0.27438992729E+03  0.00000000000E+00 0.  1.
</event>
<event>
 7    1  0.7029100E-006  0.4689626E+02  0.7818608E-02  0.1572713E+00
          2   -1    0    0  502    0  0.00000000000E+00  0.00000000000E+00  0.10834833140E+04  0.10834833140E+04  0.00000000000E+00 0. -1.
          1   -1    0    0  501    0 -0.00000000000E+00 -0.00000000000E+00 -0.37055397641E+02  0.37055397641E+02  0.00000000000E+00 0. -1.
         25    2    1    2    0    0 -0.62913802268E+02  0.27935554240E+02  0.84349259617E+03  0.85547866887E+03  0.12500180556E+03 0.  0.
          2    1    1    2  501    0  0.42085990330E+02 -0.19631849923E+02 -0.12793089837E+02  0.48169526270E+02  0.00000000000E+00 0. -1.
          1    1    1    2  502    0  0.20827811938E+02 -0.83037043167E+01  0.21572841002E+03  0.21689051650E+03  0.00000000000E+00 0. -1.
         22    1    3    3    0    0  0.10309120528E+02  0.57092333192E+02  0.24266047479E+03  0.24949933567E+03  0.00000000000E+00 0. -1.
         22    1    3    3    0    0 -0.73222922796E+02 -0.29156778953E+02  0.60083212138E+03  0.60597933320E+03  0.00000000000E+00 0. -1.
</event>
<event>
 7    1  0.7607452E-006  0.1239197E+03  0.7818608E-02  0.1309639E+00
          2   -1    0    0  502    0  0.00000000000E+00  0.00000000000E+00  0.15863622286E+04  0.15863622286E+04  0.00000000000E+00 0. -1.
          1   -1    0    0  501    0 -0.00000000000E+00 -0.00000000000E+00 -0.13210783961E+04  0.13210783961E+04  0.00000000000E+00 0. -1.
         25    2    1    2    0    0 -0.14920402509E+03 -0.50593281955E+02 -0.87704903734E+03  0.89981212311E+03  0.12500128684E+03 0.  0.
          2    1    1    2  501    0  0.25461766167E+02  0.55913991971E+02 -0.42801588594E+03  0.43240290777E+03  0.00000000000E+00 0. -1.
          1    1    1    2  502    0  0.12374225892E+03 -0.53207100168E+01  0.15703487558E+04  0.15752255938E+04  0.00000000000E+00 0. -1.
         22    1    3    3    0    0 -0.12390489270E+03 -0.60528559265E+02 -0.85121755817E+03  0.86231517455E+03  0.00000000000E+00 0.  1.
         22    1    3    3    0    0 -0.25299132391E+02  0.99352773105E+01 -0.25831479165E+02  0.37496948554E+02  0.00000000000E+00 0.  1.
</event>
<event>
 7    1  0.7029100E-006  0.1089116E+03  0.7818608E-02  0.1331877E+00
          2   -1    0    0  502    0  0.00000000000E+00  0.00000000000E+00  0.36865747506E+04  0.36865747506E+04  0.00000000000E+00 0. -1.
          1   -1    0    0  501    0 -0.00000000000E+00 -0.00000000000E+00 -0.12560516748E+04  0.12560516748E+04  0.00000000000E+00 0. -1.
         25    2    1    2    0    0  0.34044918828E+02 -0.41350416090E+02  0.12656886080E+04  0.12729734586E+04  0.12499944252E+03 0.  0.
          2    1    1    2  501    0 -0.52133147477E+02  0.95743443691E+02 -0.12496960814E+04  0.12544420943E+04  0.00000000000E+00 0. -1.
          1    1    1    2  502    0  0.18088228649E+02 -0.54393027601E+02  0.24145305492E+04  0.24152108725E+04  0.00000000000E+00 0. -1.
         22    1    3    3    0    0  0.24947794451E+02 -0.83533923285E+02  0.10011084217E+04  0.10048971991E+04  0.00000000000E+00 0.  1.
         22    1    3    3    0    0  0.90971243766E+01  0.42183507195E+02  0.26458018625E+03  0.26807625950E+03  0.00000000000E+00 0.  1.
</event>
<event>
 7    1  0.7029100E-006  0.9964434E+02  0.7818608E-02  0.1300159E+00
          2   -1    0    0  502    0  0.00000000000E+00  0.00000000000E+00  0.15586819379E+04  0.15586819379E+04  0.00000000000E+00 0. -1.
          1   -1    0    0  501    0 -0.00000000000E+00 -0.00000000000E+00 -0.20592703901E+03  0.20592703901E+03  0.00000000000E+00 0. -1.
         25    2    1    2    0    0 -0.11986351782E+03 -0.19224580193E+02  0.77426754045E+03  0.79363194854E+03  0.12499839263E+03 0.  0.
          2    1    1    2  501    0  0.82965288891E+02 -0.55487841771E+02 -0.18112645877E+03  0.20680651298E+03  0.00000000000E+00 0. -1.
          1    1    1    2  502    0  0.36898228927E+02  0.74712421964E+02  0.75961381725E+03  0.76417051543E+03  0.00000000000E+00 0. -1.
         22    1    3    3    0    0 -0.11693611834E+03  0.27109917713E+02  0.43709723301E+03  0.45328026045E+03  0.00000000000E+00 0.  1.
         22    1    3    3    0    0 -0.29273994780E+01 -0.46334497906E+02  0.33717030745E+03  0.34035168809E+03  0.00000000000E+00 0.  1.
</event>
<event>
 7    1  0.7029100E-006  0.1121902E+03  0.7818608E-02  0.1443398E+00
          2   -1    0    0  502    0  0.00000000000E+00  0.00000000000E+00  0.14506219073E+04  0.14506219073E+04  0.00000000000E+00 0. -1.
          1   -1    0    0  501    0 -0.00000000000E+00 -0.00000000000E+00 -0.35877096999E+03  0.35877096999E+03  0.00000000000E+00 0. -1.
         25    2    1    2    0    0 -0.47619583885E+01 -0.11781304538E+03  0.55217498888E+03  0.57829544936E+03  0.12500327396E+03 0.  0.
          2    1    1    2  501    0  0.21170273842E+02  0.79321973817E+01 -0.34185069290E+03  0.34259742626E+03  0.00000000000E+00 0. -1.
          1    1    1    2  502    0 -0.16408315453E+02  0.10988084800E+03  0.88152664135E+03  0.88850000168E+03  0.00000000000E+00 0. -1.
         22    1    3    3    0    0  0.12861310450E+02 -0.23989467774E+02  0.38361426608E+03  0.38457874747E+03  0.00000000000E+00 0. -1.
         22    1    3    3    0    0 -0.17623268839E+02 -0.93823577606E+02  0.16856072280E+03  0.19371670189E+03  0.00000000000E+00 0. -1.
</event>
<event>
 7    1  0.7029100E-006  0.7353741E+02  0.7818608E-02  0.1397027E+00
          2   -1    0    0  502    0  0.00000000000E+00  0.00000000000E+00  0.31074920258E+03  0.31074920258E+03  0.00000000000E+00 0. -1.
          1   -1    0    0  501    0 -0.00000000000E+00 -0.00000000000E+00 -0.29688767401E+03  0.29688767401E+03  0.00000000000E+00 0. -1.
         25    2    1    2    0    0 -0.34767807182E+02 -0.70705735257E+02 -0.59241360644E+02  0.15919219847E+03  0.12499806330E+03 0.  0.
          2    1    1    2  501    0 -0.14423519400E+02  0.73468909158E+02 -0.17771016050E+03  0.19283832521E+03  0.00000000000E+00 0. -1.
          1    1    1    2  502    0  0.49191326582E+02 -0.27631739009E+01  0.25081304972E+03  0.25560635291E+03  0.00000000000E+00 0. -1.
         22    1    3    3    0    0 -0.69844836595E+02 -0.13598342141E+02 -0.58582763158E+02  0.92169171892E+02  0.00000000000E+00 0. -1.
         22    1    3    3    0    0  0.35077029413E+02 -0.57107393116E+02 -0.65859748522E+00  0.67023026577E+02  0.00000000000E+00 0. -1.
</event>
<event>
 7    1  0.7029100E-006  0.1750664E+03  0.7818608E-02  0.1232088E+00
          2   -1    0    0  502    0  0.00000000000E+00  0.00000000000E+00  0.11166935033E+04  0.11166935033E+04  0.00000000000E+00 0. -1.
          1   -1    0    0  501    0 -0.00000000000E+00 -0.00000000000E+00 -0.68100174383E+03  0.68100174383E+03  0.00000000000E+00 0. -1.
         25    2    1    2    0    0 -0.15591599857E+03  0.20548547121E+03 -0.11504556657E+02  0.28687256325E+03  0.12501773969E+03 0.  0.
          2    1    1    2  501    0  0.91035147400E+02 -0.14022357991E+03 -0.51642767132E+03  0.54281450803E+03  0.00000000000E+00 0. -1.
          1    1    1    2  502    0  0.64880851169E+02 -0.65261891293E+02  0.96362398744E+03  0.96800817583E+03  0.00000000000E+00 0. -1.
         22    1    3    3    0    0 -0.51238616675E+02  0.41248444544E+02  0.50008781671E+02  0.82629947720E+02  0.00000000000E+00 0. -1.
         22    1    3    3    0    0 -0.10467738189E+03  0.16423702666E+03 -0.61513338327E+02  0.20424261553E+03  0.00000000000E+00 0. -1.
</event>
<event>
 7    1  0.7029100E-006  0.9155554E+02  0.7818608E-02  0.1307824E+00
          2   -1    0    0  502    0  0.00000000000E+00  0.00000000000E+00  0.15729957140E+04  0.15729957140E+04  0.00000000000E+00 0. -1.
          1   -1    0    0  501    0 -0.00000000000E+00 -0.00000000000E+00 -0.17247808481E+04  0.17247808481E+04  0.00000000000E+00 0. -1.
         25    2    1    2    0    0  0.38817950029E+02  0.46123903716E+00  0.34788305295E+03  0.37169172525E+03  0.12500029640E+03 0.  0.
          2    1    1    2  501    0  0.26612134064E+02  0.80242346731E+02 -0.17096058022E+04  0.17116947855E+04  0.00000000000E+00 0. -1.
          1    1    1    2  502    0 -0.65430084093E+02 -0.80703585768E+02  0.12099376150E+04  0.12143900514E+04  0.00000000000E+00 0. -1.
         22    1    3    3    0    0 -0.36280171891E+02  0.25911646444E+02  0.72418131898E+02  0.85041461191E+02  0.00000000000E+00 0.  1.
         22    1    3    3    0    0  0.75098121921E+02 -0.25450407406E+02  0.27546492105E+03  0.28665026406E+03  0.00000000000E+00 0.  1.
</event>
<event>
 7    1  0.7029100E-006  0.6688927E+02  0.7818608E-02  0.1396683E+00
          2   -1    0    0  502    0  0.00000000000E+00  0.00000000000E+00  0.13249882613E+04  0.13249882613E+04  0.00000000000E+00 0. -1.
          1   -1    0    0  501    0 -0.00000000000E+00 -0.00000000000E+00 -0.29813089965E+03  0.29813089965E+03  0.00000000000E+00 0. -1.
         25    2    1    2    0    0  0.12173859779E+02 -0.10985635407E+03 -0.78625751601E+02  0.18445262638E+03  0.12499656465E+03 0.  0.
          2    1    1    2  501    0  0.18928318224E+02  0.50909086223E+02 -0.16126521840E+03  0.17016605700E+03  0.00000000000E+00 0. -1.
          1    1    1    2  502    0 -0.31102178003E+02  0.58947267845E+02  0.12667483317E+04  0.12685004776E+04  0.00000000000E+00 0. -1.
         22    1    3    3    0    0 -0.40213173908E+01 -0.13497029776E+03 -0.74692825058E+02  0.15431192562E+03  0.00000000000E+00 0.  1.
         22    1    3    3    0    0  0.16195177170E+02  0.25113943696E+02 -0.39329265429E+01  0.30140700766E+02  0.00000000000E+00 0.  1.
</event>
<event>
 7    1  0.7029100E-006  0.5742890E+02  0.7818608E-02  0.1425234E+00
          2   -1    0    0  502    0  0.00000000000E+00  0.00000000000E+00  0.96740290112E+03  0.96740290112E+03  0.00000000000E+00 0. -1.
          1   -1    0    0  501    0 -0.00000000000E+00 -0.00000000000E+00 -0.72551620013E+02  0.72551620013E+02  0.00000000000E+00 0. -1.
         25    2    1    2    0    0  0.17635590480E+02 -0.32353267319E+02  0.24705734795E+03  0.27931966487E+03  0.12499757618E+03 0.  0.
          2    1    1    2  501    0  0.28951622375E+02  0.52208504612E+02 -0.39431808931E+02  0.71545733259E+02  0.00000000000E+00 0. -1.
          1    1    1    2  502    0 -0.46587212855E+02 -0.19855237293E+02  0.68722574209E+03  0.68908912301E+03  0.00000000000E+00 0. -1.
         22    1    3    3    0    0  0.17338730004E+02 -0.80310214651E+02  0.14849202066E+03  0.16970634147E+03  0.00000000000E+00 0. -1.
         22    1    3    3    0    0  0.29686047560E+00  0.47956947332E+02  0.98565327288E+02  0.10961332340E+03  0.00000000000E+00 0. -1.
</event>
<event>
 7    1  0.7029100E-006  0.2419707E+03  0.7818608E-02  0.1172817E+00
          2   -1    0    0  502    0  0.00000000000E+00  0.00000000000E+00  0.11846831168E+04  0.11846831168E+04  0.00000000000E+00 0. -1.
          1   -1    0    0  501    0 -0.00000000000E+00 -0.00000000000E+00 -0.40527766311E+03  0.40527766311E+03  0.00000000000E+00 0. -1.
         25    2    1    2    0    0  0.24658356421E+03  0.23812020044E+03  0.32608973932E+03  0.48935077545E+03  0.12499991737E+03 0.  0.
          2    1    1    2  501    0 -0.66409797651E+02 -0.10759830235E+03 -0.29444893964E+03  0.32044942495E+03  0.00000000000E+00 0. -1.
          1    1    1    2  502    0 -0.18017376656E+03 -0.13052189809E+03  0.74776465399E+03  0.78016057949E+03  0.00000000000E+00 0. -1.
         22    1    3    3    0    0  0.13207890697E+03  0.69216909816E+02  0.78531473085E+02  0.16853192735E+03  0.00000000000E+00 0. -1.
         22    1    3    3    0    0  0.11450465724E+03  0.16890329062E+03  0.24755826624E+03  0.32081884810E+03  0.00000000000E+00 0. -1.
</event>
<event>
 7    1  0.7029100E-006  0.1686355E+03  0.7818608E-02  0.1270019E+00
          2   -1    0    0  502    0  0.00000000000E+00  0.00000000000E+00  0.24126759887E+04  0.24126759887E+04  0.00000000000E+00 0. -1.
          1   -1    0    0  501    0 -0.00000000000E+00 -0.00000000000E+00 -0.87257639306E+03  0.87257639306E+03  0.00000000000E+00 0. -1.
         25    2    1    2    0    0  0.87011970564E+02 -0.11623302056E+03  0.10604228527E+04  0.10775913603E+04  0.12500126145E+03 0.  0.
          2    1    1    2  501    0 -0.41884571789E+02  0.16362555765E+03 -0.85492814307E+03  0.87145267816E+03  0.00000000000E+00 0. -1.
          1    1    1    2  502    0 -0.45127398775E+02 -0.47392537095E+02  0.13346048860E+04  0.13362083432E+04  0.00000000000E+00 0. -1.
         22    1    3    3    0    0  0.10108003035E+03 -0.76535722660E+02  0.50864744093E+03  0.52421093897E+03  0.00000000000E+00 0.  1.
         22    1    3    3    0    0 -0.14068059789E+02 -0.39697297895E+02  0.55177541173E+03  0.55338042137E+03  0.00000000000E+00 0.  1.
</event>
<event>
 7    1  0.7029100E-006  0.2405767E+03  0.7818608E-02  0.1284037E+00
          2   -1    0    0  502    0  0.00000000000E+00  0.00000000000E+00  0.92966862323E+03  0.92966862323E+03  0.00000000000E+00 0. -1.
          1   -1    0    0  501    0 -0.00000000000E+00 -0.00000000000E+00 -0.22459551943E+04  0.22459551943E+04  0.00000000000E+00 0. -1.
         25    2    1    2    0    0 -0.17084794526E+03  0.21808575138E+03 -0.45045846074E+02  0.30725345666E+03  0.12500057210E+03 0.  0.
          2    1    1    2  501    0  0.25595259216E+02 -0.30892472132E+02 -0.20520299886E+04  0.20524221145E+04  0.00000000000E+00 0. -1.
          1    1    1    2  502    0  0.14525268605E+03 -0.18719327925E+03  0.78078926358E+03  0.81594824635E+03  0.00000000000E+00 0. -1.
         22    1    3    3    0    0 -0.18335959233E+03  0.15899808501E+03 -0.45128248940E+02  0.24685560554E+03  0.00000000000E+00 0.  1.
         22    1    3    3    0    0  0.12511647062E+02  0.59087666376E+02  0.82402866306E-01  0.60397851122E+02  0.00000000000E+00 0.  1.
</event>
<event>
 7    1  0.7029100E-006  0.8642890E+02  0.7818608E-02  0.1322232E+00
          2   -1    0    0  502    0  0.00000000000E+00  0.00000000000E+00  0.95005277725E+03  0.95005277725E+03  0.00000000000E+00 0. -1.
          1   -1    0    0  501    0 -0.00000000000E+00 -0.00000000000E+00 -0.62490209786E+02  0.62490209786E+02  0.00000000000E+00 0. -1.
         25    2    1    2    0    0 -0.25433307855E+01 -0.11588739984E+02  0.15377274369E+03  0.19852606165E+03  0.12500309207E+03 0.  0.
          2    1    1    2  501    0  0.83547189177E+02 -0.22131927589E+02  0.12403786830E+02  0.87314425875E+02  0.00000000000E+00 0. -1.
          1    1    1    2  502    0 -0.81003858392E+02  0.33720667573E+02  0.72138603695E+03  0.72670249951E+03  0.00000000000E+00 0. -1.
         22    1    3    3    0    0 -0.40354961813E+02 -0.52773854302E+01  0.67739882434E+00  0.40704208739E+02  0.00000000000E+00 0. -1.
         22    1    3    3    0    0  0.37811631028E+02 -0.63113545539E+01  0.15309534486E+03  0.15782185291E+03  0.00000000000E+00 0. -1.
</event>
<event>
 7    1  0.8883714E-006  0.6770018E+02  0.7818608E-02  0.1390226E+00
          2   -1    0    0  502    0  0.00000000000E+00  0.00000000000E+00  0.54404132070E+03  0.54404132070E+03  0.00000000000E+00 0. -1.
          1   -1    0    0  501    0 -0.00000000000E+00 -0.00000000000E+00 -0.14054027075E+04  0.14054027075E+04  0.00000000000E+00 0. -1.
         25    2    1    2    0    0 -0.16829955788E+01  0.61887331677E+02 -0.11578259687E+03  0.18128146691E+03  0.12499794483E+03 0.  0.
          2    1    1    2  501    0 -0.52585400733E+02 -0.20682160686E+02 -0.12539613991E+04  0.12552339091E+04  0.00000000000E+00 0. -1.
          1    1    1    2  502    0  0.54268396312E+02 -0.41205170990E+02  0.50838260916E+03  0.51292865220E+03  0.00000000000E+00 0. -1.
         22    1    3    3    0    0  0.17118907668E+02  0.10794751333E+02 -0.12451002213E+03  0.12614408138E+03  0.00000000000E+00 0. -1.
         22    1    3    3    0    0 -0.18801903247E+02  0.51092580343E+02  0.87274252601E+01  0.55137385534E+02  0.00000000000E+00 0. -1.
</event>
<event>
 7    1  0.7029100E-006  0.2341297E+03  0.7818608E-02  0.1194664E+00
          2   -1    0    0  502    0  0.00000000000E+00  0.00000000000E+00  0.24055368955E+04  0.24055368955E+04  0.00000000000E+00 0. -1.
          1   -1    0    0  501    0 -0.00000000000E+00 -0.00000000000E+00 -0.59411919726E+03  0.59411919726E+03  0.00000000000E+00 0. -1.
         25    2    1    2    0    0 -0.11622776382E+03  0.28792305232E+03 -0.28449374366E+03  0.43927963040E+03  0.12498530460E+03 0.  0.
          2    1    1    2  501    0  0.85071929237E+02 -0.56969586191E+02 -0.21479449268E+03  0.23794839982E+03  0.00000000000E+00 0. -1.
          1    1    1    2  502    0  0.31155834580E+02 -0.23095346613E+03  0.23107059345E+04  0.23224280625E+04  0.00000000000E+00 0. -1.
         22    1    3    3    0    0 -0.99304211281E+01  0.13362188264E+03 -0.59845088924E+02  0.14674759096E+03  0.00000000000E+00 0.  1.
         22    1    3    3    0    0 -0.10629734269E+03  0.15430116969E+03 -0.22464865473E+03  0.29253203944E+03  0.00000000000E+00 0.  1.
</event>
<event>
 7    1  0.7029100E-006  0.4988906E+02  0.7818608E-02  0.1454082E+00
          2   -1    0    0  502    0  0.00000000000E+00  0.00000000000E+00  0.95539922589E+03  0.95539922589E+03  0.00000000000E+00 0. -1.
          1   -1    0    0  501    0 -0.00000000000E+00 -0.00000000000E+00 -0.10731129000E+04  0.10731129000E+04  0.00000000000E+00 0. -1.
         25    2    1    2    0    0  0.66443442818E+02  0.33015254021E+02  0.64980942555E+02  0.15921598364E+03  0.12498987343E+03 0.  0.
          2    1    1    2  501    0 -0.21059860327E+02 -0.45177087728E+02 -0.10247346916E+04  0.10259462340E+04  0.00000000000E+00 0. -1.
          1    1    1    2  502    0 -0.45383582491E+02  0.12161833708E+02  0.84204007498E+03  0.84334990818E+03  0.00000000000E+00 0. -1.
         22    1    3    3    0    0  0.20075946217E+02  0.76042187799E+02  0.18707704258E+02  0.80842044385E+02  0.00000000000E+00 0. -1.
         22    1    3    3    0    0  0.46367496602E+02 -0.43026933778E+02  0.46273238297E+02  0.78373939253E+02  0.00000000000E+00 0. -1.
</event>
<event>
 7    1  0.7029100E-006  0.8551179E+02  0.7818608E-02  0.1463329E+00
          2   -1    0    0  502    0  0.00000000000E+00  0.00000000000E+00  0.27985432414E+04  0.27985432414E+04  0.00000000000E+00 0. -1.
          1   -1    0    0  501    0 -0.00000000000E+00 -0.00000000000E+00 -0.27209114034E+03  0.27209114034E+03  0.00000000000E+00 0. -1.
         25    2    1    2    0    0 -0.52696491912E+02  0.35242837572E+02 -0.12913258174E+03  0.19057564800E+03  0.12499950434E+03 0.  0.
          2    1    1    2  501    0 -0.25619033030E+02 -0.66973014017E+00 -0.11010310263E+03  0.11304634713E+03  0.00000000000E+00 0. -1.
          1    1    1    2  502    0  0.78315524942E+02 -0.34573107432E+02  0.27656877854E+04  0.27670123866E+04  0.00000000000E+00 0. -1.
         22    1    3    3    0    0 -0.54283896227E+02 -0.30782547067E+02 -0.10114224698E+03  0.11884469158E+03  0.00000000000E+00 0.  1.
         22    1    3    3    0    0  0.15874043155E+01  0.66025384639E+02 -0.27990334763E+02  0.71730956423E+02  0.00000000000E+00 0.  1.
</event>
<event>
 7    1  0.7029100E-006  0.2519491E+03  0.7818608E-02  0.1205427E+00
          2   -1    0    0  502    0  0.00000000000E+00  0.00000000000E+00  0.11991368392E+04  0.11991368392E+04  0.00000000000E+00 0. -1.
          1   -1    0    0  501    0 -0.00000000000E+00 -0.00000000000E+00 -0.53348913954E+03  0.53348913954E+03  0.00000000000E+00 0. -1.
         25    2    1    2    0    0  0.14499203133E+03 -0.24489801068E+03  0.47448623752E+03  0.56723979900E+03  0.12500430069E+03 0.  0.
          2    1    1    2  501    0  0.29092348475E+02  0.79492861194E+02 -0.46189079436E+03  0.46958341712E+03  0.00000000000E+00 0. -1.
          1    1    1    2  502    0 -0.17408437980E+03  0.16540514948E+03  0.65305225650E+03  0.69580276263E+03  0.00000000000E+00 0. -1.
         22    1    3    3    0    0  0.81645436745E+02 -0.23216451468E+03  0.38230136504E+03  0.45466545166E+03  0.00000000000E+00 0.  1.
         22    1    3    3    0    0  0.63346594583E+02 -0.12733495995E+02  0.92184872474E+02  0.11257434734E+03  0.00000000000E+00 0.  1.
</event>
<event>
 7    1  0.7029100E-006  0.1189136E+03  0.7818608E-02  0.1255218E+00
          2   -1    0    0  502    0  0.00000000000E+00  0.00000000000E+00  0.10330935845E+04  0.10330935845E+04  0.00000000000E+00 0. -1.
          1   -1    0    0  501    0 -0.00000000000E+00 -0.00000000000E+00 -0.39322003050E+03  0.39322003050E+03  0.00000000000E+00 0. -1.
         25    2    1    2    0    0 -0.22735060989E+02  0.31726905976E+02 -0.12281430000E+03  0.17953251286E+03  0.12500036531E+03 0.  0.
          2    1    1    2  501    0  0.72736296682E+02  0.78841377752E+02 -0.22626850479E+03  0.25040760364E+03  0.00000000000E+00 0. -1.
          1    1    1    2  502    0 -0.50001235693E+02 -0.11056828373E+03  0.98895635879E+03  0.99637349851E+03  0.00000000000E+00 0. -1.
         22    1    3    3    0    0 -0.27806122865E+02  0.71600298838E+02 -0.38043484920E+02  0.85715167895E+02  0.00000000000E+00 0. -1.
         22    1    3    3    0    0  0.50710618762E+01 -0.39873392861E+02 -0.84770815077E+02  0.93817344962E+02  0.00000000000E+00 0. -1.
</event>
<event>
 7    1  0.7029100E-006  0.7859080E+02  0.7818608E-02  0.1438173E+00
          2   -1    0    0  502    0  0.00000000000E+00  0.00000000000E+00  0.19437383886E+04  0.19437383886E+04  0.00000000000E+00 0. -1.
          1   -1    0    0  501    0 -0.00000000000E+00 -0.00000000000E+00 -0.96509848900E+03  0.96509848900E+03  0.00000000000E+00 0. -1.
         25    2    1    2    0    0 -0.27595070103E+02 -0.37256206478E+02  0.16015525301E+03  0.20838180207E+03  0.12499503012E+03 0.  0.
          2    1    1    2  501    0 -0.22803093050E+02 -0.24617977213E+02 -0.93978073768E+03  0.94037963651E+03  0.00000000000E+00 0. -1.
          1    1    1    2  502    0  0.50398163153E+02  0.61874183691E+02  0.17582653842E+04  0.17600754390E+04  0.00000000000E+00 0. -1.
         22    1    3    3    0    0 -0.37484319122E+02 -0.80472323723E+02  0.10123141514E+03  0.13464274387E+03  0.00000000000E+00 0. -1.
         22    1    3    3    0    0  0.98892490192E+01  0.43216117245E+02  0.58923837872E+02  0.73739058208E+02  0.00000000000E+00 0. -1.
</event>
<event>
 7    1  0.7029100E-006  0.1503882E+03  0.7818608E-02  0.1287086E+00
          2   -1    0    0  502    0  0.00000000000E+00  0.00000000000E+00  0.51434235497E+03  0.51434235497E+03  0.00000000000E+00 0. -1.
          1   -1    0    0  501    0 -0.00000000000E+00 -0.00000000000E+00 -0.97868776534E+03  0.97868776534E+03  0.00000000000E+00 0. -1.
         25    2    1    2    0    0 -0.13288226918E+03  0.82382068215E+02  0.17351315391E+03  0.26490933659E+03  0.12500255761E+03 0.  0.
          2    1    1    2  501    0  0.46100464874E+02  0.41990944929E+02 -0.91237228089E+03  0.91450077707E+03  0.00000000000E+00 0. -1.
          1    1    1    2  502    0  0.86781804303E+02 -0.12437301314E+03  0.27451371663E+03  0.31362000665E+03  0.00000000000E+00 0. -1.
         22    1    3    3    0    0 -0.13519807455E+03  0.56069875145E+02  0.78079601330E+02  0.16588783682E+03  0.00000000000E+00 0.  1.
         22    1    3    3    0    0  0.23158053761E+01  0.26312193070E+02  0.95433552576E+02  0.99021499766E+02  0.00000000000E+00 0.  1.
</event>
<event>
 7    1  0.7029100E-006  0.2894743E+03  0.7818608E-02  0.1226020E+00
          2   -1    0    0  502    0  0.00000000000E+00  0.00000000000E+00  0.97234136324E+03  0.97234136324E+03  0.00000000000E+00 0. -1.
          1   -1    0    0  501    0 -0.00000000000E+00 -0.00000000000E+00 -0.31113252203E+04  0.31113252203E+04  0.00000000000E+00 0. -1.
         25    2    1    2    0    0  0.27382581129E+03  0.18782839011E+03 -0.99293378418E+02  0.36843441755E+03  0.12499866391E+03 0.  0.
          2    1    1    2  501    0 -0.25549055567E+03 -0.13147822559E+03 -0.28692285979E+04  0.28835801870E+04  0.00000000000E+00 0. -1.
          1    1    1    2  502    0 -0.18335255616E+02 -0.56350164523E+02  0.82953811932E+03  0.83165197892E+03  0.00000000000E+00 0. -1.
         22    1    3    3    0    0  0.20871915721E+03  0.19542051480E+03 -0.60460363852E+02  0.29224701844E+03  0.00000000000E+00 0.  1.
         22    1    3    3    0    0  0.65106654079E+02 -0.75921246907E+01 -0.38833014566E+02  0.76187399109E+02  0.00000000000E+00 0.  1.
</event>
<event>
 7    1  0.7029100E-006  0.4385561E+02  0.7818608E-02  0.1584353E+00
          2   -1    0    0  502    0  0.00000000000E+00  0.00000000000E+00  0.44659963606E+03  0.44659963606E+03  0.00000000000E+00 0. -1.
          1   -1    0    0  501    0 -0.00000000000E+00 -0.00000000000E+00 -0.31761423723E+03  0.31761423723E+03  0.00000000000E+00 0. -1.
         25    2    1    2    0    0  0.51471113041E+02 -0.33344605962E+02 -0.21361287315E+02  0.14087986434E+03  0.12501877201E+03 0.  0.
          2    1    1    2  501    0 -0.99505901361E+01  0.19969055871E+02 -0.23473327286E+03  0.23579119327E+03  0.00000000000E+00 0. -1.
          1    1    1    2  502    0 -0.41520522904E+02  0.13375550092E+02  0.38507995900E+03  0.38754281568E+03  0.00000000000E+00 0. -1.
         22    1    3    3    0    0  0.81861437938E+02  0.12376189873E+02 -0.24958711338E+01  0.82829309244E+02  0.00000000000E+00 0. -1.
         22    1    3    3    0    0 -0.30390324898E+02 -0.45720795835E+02 -0.18865416181E+02  0.58050555095E+02  0.00000000000E+00 0. -1.
</event>
<event>
 7    1  0.7029100E-006  0.1146480E+03  0.7818608E-02  0.1304894E+00
          2   -1    0    0  502    0  0.00000000000E+00  0.00000000000E+00  0.79894345142E+03  0.79894345142E+03  0.00000000000E+00 0. -1.
          1   -1    0    0  501    0 -0.00000000000E+00 -0.00000000000E+00 -0.25976822369E+03  0.25976822369E+03  0.00000000000E+00 0. -1.
         25    2    1    2    0    0 -0.12348474502E+03 -0.17044308941E+02  0.35963064362E+01  0.17653346025E+03  0.12494854319E+03 0.  0.
          2    1    1    2  501    0  0.36798840726E+02 -0.58771145724E+02 -0.16144419961E+03  0.17570552591E+03  0.00000000000E+00 0. -1.
          1    1    1    2  502    0  0.86685904299E+02  0.75815454665E+02  0.69702312090E+03  0.70647268896E+03  0.00000000000E+00 0. -1.
         22    1    3    3    0    0 -0.13147447011E+03 -0.37298885188E+02  0.32375783951E+02  0.14044548591E+03  0.00000000000E+00 0. -1.
         22    1    3    3    0    0  0.79897250819E+01  0.20254576248E+02 -0.28779477515E+02  0.36087974339E+02  0.00000000000E+00 0. -1.
</event>
<event>
 7    1  0.7029100E-006  0.2292420E+03  0.7818608E-02  0.1264356E+00
          2   -1    0    0  502    0  0.00000000000E+00  0.00000000000E+00  0.12608019843E+04  0.12608019843E+04  0.00000000000E+00 0. -1.
          1   -1    0    0  501    0 -0.00000000000E+00 -0.00000000000E+00 -0.12625178489E+04  0.12625178489E+04  0.00000000000E+00 0. -1.
         25    2    1    2    0    0  0.20523176467E+03  0.96171562875E+02 -0.30766298315E+03  0.40205423159E+03  0.12498818826E+03 0.  0.
          2    1    1    2  501    0 -0.18281797848E+03 -0.14182881300E+03 -0.89236488044E+03  0.92187466897E+03  0.00000000000E+00 0. -1.
          1    1    1    2  502    0 -0.22413786191E+02  0.45657250125E+02  0.11983119990E+04  0.11993909327E+04  0.00000000000E+00 0. -1.
         22    1    3    3    0    0  0.20156773343E+02  0.46077817555E+02 -0.15559993216E+02  0.52645742194E+02  0.00000000000E+00 0. -1.
         22    1    3    3    0    0  0.18507499133E+03  0.50093745320E+02 -0.29210298993E+03  0.34940848940E+03  0.00000000000E+00 0. -1.
</event>
<event>
 7    1  0.7029100E-006  0.2738661E+03  0.7818608E-02  0.1206331E+00
          2   -1    0    0  502    0  0.00000000000E+00  0.00000000000E+00  0.51345263948E+03  0.51345263948E+03  0.00000000000E+00 0. -1.
          1   -1    0    0  501    0 -0.00000000000E+00 -0.00000000000E+00 -0.89454783782E+03  0.89454783782E+03  0.00000000000E+00 0. -1.
         25    2    1    2    0    0  0.11561888286E+03 -0.18826945209E+03 -0.45094126346E+02  0.25781808087E+03  0.12499427959E+03 0.  0.
          2    1    1    2  501    0 -0.11298180443E+03  0.26534586697E+03 -0.71103729500E+03  0.76729873722E+03  0.00000000000E+00 0. -1.
          1    1    1    2  502    0 -0.26370784222E+01 -0.77076414886E+02  0.37503622301E+03  0.38288365920E+03  0.00000000000E+00 0. -1.
         22    1    3    3    0    0  0.13978543276E+03 -0.14343104295E+03 -0.50631604589E+02  0.20658168040E+03  0.00000000000E+00 0. -1.
         22    1    3    3    0    0 -0.24166549900E+02 -0.44838409136E+02  0.55374782428E+01  0.51236400471E+02  0.00000000000E+00 0. -1.
</event>
<event>
 7    1  0.7029100E-006  0.2137797E+03  0.7818608E-02  0.1251155E+00
          2   -1    0    0  502    0  0.00000000000E+00  0.00000000000E+00  0.50790697566E+03  0.50790697566E+03  0.00000000000E+00 0. -1.
          1   -1    0    0  501    0 -0.00000000000E+00 -0.00000000000E+00 -0.16036321170E+04  0.16036321170E+04  0.00000000000E+00 0. -1.
         25    2    1    2    0    0 -0.59580482183E+02 -0.22515029572E+03 -0.58576945408E+03  0.64264548730E+03  0.12499951799E+03 0.  0.
          2    1    1    2  501    0  0.10336558203E+03  0.18107609871E+03 -0.97635756052E+03  0.99837221669E+03  0.00000000000E+00 0. -1.
          1    1    1    2  502    0 -0.43785099846E+02  0.44074197015E+02  0.46640187327E+03  0.47052138867E+03  0.00000000000E+00 0. -1.
         22    1    3    3    0    0 -0.85813733200E+02 -0.18403539895E+03 -0.37649737272E+03  0.42776546908E+03  0.00000000000E+00 0. -1.
         22    1    3    3    0    0  0.26233251017E+02 -0.41114896776E+02 -0.20927208135E+03  0.21488001822E+03  0.00000000000E+00 0. -1.
</event>
<event>
 7    1  0.7029100E-006  0.9960833E+02  0.7818608E-02  0.1318033E+00
          2   -1    0    0  502    0  0.00000000000E+00  0.00000000000E+00  0.27655171807E+04  0.27655171807E+04  0.00000000000E+00 0. -1.
          1   -1    0    0  501    0 -0.00000000000E+00 -0.00000000000E+00 -0.94410678264E+03  0.94410678264E+03  0.00000000000E+00 0. -1.
         25    2    1    2    0    0 -0.18477346876E+02  0.28087447056E+02  0.12199658749E+03  0.17787175052E+03  0.12499950098E+03 0.  0.
          2    1    1    2  501    0  0.19686937176E+02 -0.98936828669E+02 -0.91291051325E+03  0.91846702541E+03  0.00000000000E+00 0. -1.
          1    1    1    2  502    0 -0.12095903004E+01  0.70849381613E+02  0.26123243238E+04  0.26132851874E+04  0.00000000000E+00 0. -1.
         22    1    3    3    0    0 -0.32717821028E+02  0.34862330933E+02 -0.66424833003E+01  0.48269664545E+02  0.00000000000E+00 0. -1.
         22    1    3    3    0    0  0.14240474152E+02 -0.67748838770E+01  0.12863907079E+03  0.12960208598E+03  0.00000000000E+00 0. -1.
</event>
<event>
 7    1  0.7029100E-006  0.1222887E+03  0.7818608E-02  0.1312254E+00
          2   -1    0    0  502    0  0.00000000000E+00  0.00000000000E+00  0.21877548524E+04  0.21877548524E+04  0.00000000000E+00 0. -1.
          1   -1    0    0  501    0 -0.00000000000E+00 -0.00000000000E+00 -0.95318387898E+02  0.95318387898E+02  0.00000000000E+00 0. -1.
         25    2    1    2    0    0 -0.83700131209E+02  0.10159341867E+03  0.58343806783E+03  0.61102524130E+03  0.12499972732E+03 0.  0.
          2    1    1    2  501    0  0.57914053835E+02  0.18508342520E+02 -0.67457438711E+02  0.90813558524E+02  0.00000000000E+00 0. -1.
          1    1    1    2  502    0  0.25786077375E+02 -0.12010176119E+03  0.15764558353E+04  0.15812344404E+04  0.00000000000E+00 0. -1.
         22    1    3    3    0    0  0.16532058101E+02 -0.15290321527E+02  0.37055497592E+02  0.43361420402E+02  0.00000000000E+00 0. -1.
         22    1    3    3    0    0 -0.10023218931E+03  0.11688374020E+03  0.54638257023E+03  0.56766382089E+03  0.00000000000E+00 0. -1.
</event>
<event>
 7    1  0.7029100E-006  0.1322918E+03  0.7818608E-02  0.1252162E+00
          2   -1    0    0  502    0  0.00000000000E+00  0.00000000000E+00  0.31465197565E+03  0.31465197565E+03  0.00000000000E+00 0. -1.
          1   -1    0    0  501    0 -0.00000000000E+00 -0.00000000000E+00 -0.19282833232E+04  0.19282833232E+04  0.00000000000E+00 0. -1.
         25    2    1    2    0    0  0.98847354768E+02  0.86196306993E+02 -0.38179383323E+03  0.42260142991E+03  0.12499933835E+03 0.  0.
          2    1    1    2  501    0 -0.13221623797E+02 -0.13666384320E+03 -0.15144974363E+04  0.15207084869E+04  0.00000000000E+00 0. -1.
          1    1    1    2  502    0 -0.85625730971E+02  0.50467536208E+02  0.28265992206E+03  0.29962538202E+03  0.00000000000E+00 0. -1.
         22    1    3    3    0    0  0.10341828464E+03  0.11317020493E+03 -0.33464893478E+03  0.36809339363E+03  0.00000000000E+00 0. -1.
         22    1    3    3    0    0 -0.45709298744E+01 -0.26973897939E+02 -0.47144898444E+02  0.54508036281E+02  0.00000000000E+00 0. -1.
</event>
<event>
 7    1  0.7029100E-006  0.7114837E+02  0.7818608E-02  0.1374601E+00
          2   -1    0    0  502    0  0.00000000000E+00  0.00000000000E+00  0.37878929678E+03  0.37878929678E+03  0.00000000000E+00 0. -1.
          1   -1    0    0  501    0 -0.00000000000E+00 -0.00000000000E+00 -0.89506454697E+03  0.89506454697E+03  0.00000000000E+00 0. -1.
         25    2    1    2    0    0  0.10820331601E+03  0.59721378390E+02  0.12867181345E+03  0.21784122274E+03  0.12499504836E+03 0.  0.
          2    1    1    2  501    0 -0.45924681289E+02 -0.40220596458E+02 -0.84416934200E+03  0.84637382444E+03  0.00000000000E+00 0. -1.
          1    1    1    2  502    0 -0.62278634718E+02 -0.19500781932E+02  0.19922227835E+03  0.20963879657E+03  0.00000000000E+00 0. -1.
         22    1    3    3    0    0  0.70035725601E+02  0.95206655496E+01 -0.41575506653E+01  0.70802056189E+02  0.00000000000E+00 0. -1.
         22    1    3    3    0    0  0.38167590406E+02  0.50200712841E+02  0.13282936412E+03  0.14703916655E+03  0.00000000000E+00 0. -1.
</event>
<event>
 7    1  0.7029100E-006  0.1216498E+03  0.7818608E-02  0.1364305E+00
          2   -1    0    0  502    0  0.00000000000E+00  0.00000000000E+00  0.90323919076E+02  0.90323919076E+02  0.00000000000E+00 0. -1.
          1   -1    0    0  501    0 -0.00000000000E+00 -0.00000000000E+00 -0.16876567631E+04  0.16876567631E+04  0.00000000000E+00 0. -1.
         25    2    1    2    0    0  0.40794126049E+02 -0.12485215490E+03 -0.12746787705E+04  0.12875101947E+04  0.12499724872E+03 0.  0.
          2    1    1    2  501    0  0.29279496034E+02  0.25585553244E+02 -0.36097488582E+03  0.36306304909E+03  0.00000000000E+00 0. -1.
          1    1    1    2  502    0 -0.70073622084E+02  0.99266601654E+02  0.38320812251E+02  0.12740743843E+03  0.00000000000E+00 0. -1.
         22    1    3    3    0    0 -0.40837414269E+02 -0.13155494246E+02 -0.31696226416E+03  0.31985283856E+03  0.00000000000E+00 0.  1.
         22    1    3    3    0    0  0.81631540318E+02 -0.11169666065E+03 -0.95771650630E+03  0.96765735610E+03  0.00000000000E+00 0.  1.
</event>
<event>
 7    1  0.8577878E-006  0.1476245E+03  0.7818608E-02  0.1295902E+00
          2   -1    0    0  502    0  0.00000000000E+00  0.00000000000E+00  0.21065636588E+04  0.21065636588E+04  0.00000000000E+00 0. -1.
          1   -1    0    0  501    0 -0.00000000000E+00 -0.00000000000E+00 -0.14076588038E+04  0.14076588038E+04  0.00000000000E+00 0. -1.
         25    2    1    2    0    0  0.90974461721E+02  0.48842636287E+02 -0.18426919296E+03  0.24544214807E+03  0.12499902707E+03 0.  0.
          2    1    1    2  501    0 -0.14919666309E+03 -0.43118542013E+02 -0.11873331308E+04  0.11974467906E+04  0.00000000000E+00 0. -1.
          1    1    1    2  502    0  0.58222201365E+02 -0.57240942737E+01  0.20705071787E+04  0.20713335239E+04  0.00000000000E+00 0. -1.
         22    1    3    3    0    0 -0.66795513797E+01  0.62629291416E+02 -0.81573873609E+02  0.10305989232E+03  0.00000000000E+00 0.  1.
         22    1    3    3    0    0  0.97654013101E+02 -0.13786655129E+02 -0.10269531936E+03  0.14238225575E+03  0.00000000000E+00 0.  1.
</event>
<event>
 7    1  0.7029100E-006  0.1700398E+03  0.7818608E-02  0.1372886E+00
          2   -1    0    0  502    0  0.00000000000E+00  0.00000000000E+00  0.13470369564E+04  0.13470369564E+04  0.00000000000E+00 0. -1.
          1   -1    0    0  501    0 -0.00000000000E+00 -0.00000000000E+00 -0.47452301653E+03  0.47452301653E+03  0.00000000000E+00 0. -1.
         25    2    1    2    0    0 -0.15480137736E+03  0.10263947478E+03 -0.57421725943E+02  0.23112432538E+03  0.12499148354E+03 0.  0.
          2    1    1    2  501    0  0.12901406271E+03 -0.10512258609E+03 -0.30914052180E+03  0.35108866217E+03  0.00000000000E+00 0. -1.
          1    1    1    2  502    0  0.25787314657E+02  0.24831113103E+01  0.12390761877E+04  0.12393469854E+04  0.00000000000E+00 0. -1.
         22    1    3    3    0    0 -0.43011329808E+02  0.85240538617E+02  0.15209092307E+02  0.96681127447E+02  0.00000000000E+00 0.  1.
         22    1    3    3    0    0 -0.11179004756E+03  0.17398936161E+02 -0.72630818250E+02  0.13444319794E+03  0.00000000000E+00 0.  1.
</event>
<event>
 7    1  0.7029100E-006  0.8138095E+02  0.7818608E-02  0.1425716E+00
          2   -1    0    0  502    0  0.00000000000E+00  0.00000000000E+00  0.86886645901E+03  0.86886645901E+03  0.00000000000E+00 0. -1.
          1   -1    0    0  501    0 -0.00000000000E+00 -0.00000000000E+00 -0.76744328199E+02  0.76744328199E+02  0.00000000000E+00 0. -1.
         25    2    1    2    0    0 -0.17916915364E+02 -0.66711218686E+02  0.29346236242E+03  0.32635240220E+03  0.12495731156E+03 0.  0.
          2    1    1    2  501    0  0.53392028158E+02  0.63663445074E+02 -0.30791869911E+02  0.88610846752E+02  0.00000000000E+00 0. -1.
          1    1    1    2  502    0 -0.35475112794E+02  0.30477736121E+01  0.52945163830E+03  0.53064753825E+03  0.00000000000E+00 0. -1.
         22    1    3    3    0    0  0.91721314201E+01  0.88303880293E+01 -0.75659892298E+01  0.14810399743E+02  0.00000000000E+00 0. -1.
         22    1    3    3    0    0 -0.27089046784E+02 -0.75541606716E+02  0.30102835165E+03  0.31154200246E+03  0.00000000000E+00 0. -1.
</event>
<event>
 7    1  0.7029100E-006  0.9554519E+02  0.7818608E-02  0.1402332E+00
          2   -1    0    0  502    0  0.00000000000E+00  0.00000000000E+00  0.10059148977E+04  0.10059148977E+04  0.00000000000E+00 0. -1.
          1   -1    0    0  501    0 -0.00000000000E+00 -0.00000000000E+00 -0.98667112187E+02  0.98667112187E+02  0.00000000000E+00 0. -1.
         25    2    1    2    0    0 -0.10862488144E+03 -0.54039868684E+02  0.34492965572E+03  0.38642015057E+03  0.12499757236E+03 0.  0.
          2    1    1    2  501    0  0.19973786088E+02  0.30382089107E+02 -0.70181954664E+02  0.79041319762E+02  0.00000000000E+00 0. -1.
          1    1    1    2  502    0  0.88651095351E+02  0.23657779577E+02  0.63250008450E+03  0.63912053960E+03  0.00000000000E+00 0. -1.
         22    1    3    3    0    0 -0.31042999034E+02 -0.33218489580E+01  0.21102905192E+01  0.31291465220E+02  0.00000000000E+00 0.  1.
         22    1    3    3    0    0 -0.77581882406E+02 -0.50718019726E+02  0.34281936520E+03  0.35512868535E+03  0.00000000000E+00 0.  1.
</event>
<event>
 7    1  0.7029100E-006  0.7657980E+02  0.7818608E-02  0.1344124E+00
          2   -1    0    0  502    0  0.00000000000E+00  0.00000000000E+00  0.31625051372E+03  0.31625051372E+03  0.00000000000E+00 0. -1.
          1   -1    0    0  501    0 -0.00000000000E+00 -0.00000000000E+00 -0.17242564088E+04  0.17242564088E+04  0.00000000000E+00 0. -1.
         25    2    1    2    0    0  0.68488133267E+02 -0.68866436024E+02  0.72237349575E+02  0.17401252695E+03  0.12501565683E+03 0.  0.
          2    1    1    2  501    0 -0.76558857119E+02 -0.39806592481E+01 -0.16655013991E+04  0.16672648304E+04  0.00000000000E+00 0. -1.
          1    1    1    2  502    0  0.80707238518E+01  0.72847095272E+02  0.18525815442E+03  0.19922956521E+03  0.00000000000E+00 0. -1.
         22    1    3    3    0    0 -0.25505669577E+01  0.32536034926E+02  0.26445489701E+02  0.42005510187E+02  0.00000000000E+00 0.  1.
         22    1    3    3    0    0  0.71038700225E+02 -0.10140247095E+03  0.45791859874E+02  0.13200701677E+03  0.00000000000E+00 0.  1.
</event>
<event>
 7    1  0.7029100E-006  0.2547650E+02  0.7818608E-02  0.1680035E+00
          2   -1    0    0  502    0  0.00000000000E+00  0.00000000000E+00  0.19974967029E+04  0.19974967029E+04  0.00000000000E+00 0. -1.
          1   -1    0    0  501    0 -0.00000000000E+00 -0.00000000000E+00 -0.62374520437E+03  0.62374520437E+03  0.00000000000E+00 0. -1.
         25    2    1    2    0    0  0.18748552759E+01  0.40008746849E+02  0.48792871720E+03  0.50527588127E+03  0.12500027287E+03 0.  0.
          2    1    1    2  501    0 -0.13514824634E+02 -0.17476123735E+02 -0.61476605870E+03  0.61516288275E+03  0.00000000000E+00 0. -1.
          1    1    1    2  502    0  0.11639969358E+02 -0.22532623113E+02  0.15005888400E+04  0.15008031432E+04  0.00000000000E+00 0. -1.
         22    1    3    3    0    0 -0.24353098091E+02 -0.26353666142E+02  0.49838474130E+02  0.61412235014E+02  0.00000000000E+00 0.  1.
         22    1    3    3    0    0  0.26227953366E+02  0.66362412991E+02  0.43809024307E+03  0.44386364625E+03  0.00000000000E+00 0.  1.
</event>
<event>
 7    1  0.7029100E-006  0.1836274E+03  0.7818608E-02  0.1368713E+00
          2   -1    0    0  502    0  0.00000000000E+00  0.00000000000E+00  0.72308774321E+02  0.72308774321E+02  0.00000000000E+00 0. -1.
          1   -1    0    0  501    0 -0.00000000000E+00 -0.00000000000E+00 -0.74025036698E+03  0.74025036698E+03  0.00000000000E+00 0. -1.
         25    2    1    2    0    0  0.16753003044E+03 -0.98915820657E+02 -0.28825473907E+03  0.36954770271E+03  0.12499623718E+03 0.  0.
          2    1    1    2  501    0 -0.16221283309E+03  0.74659955601E+02 -0.37807879835E+03  0.41812760008E+03  0.00000000000E+00 0. -1.
          1    1    1    2  502    0 -0.53171973435E+01  0.24255865056E+02 -0.16080552404E+01  0.24883838507E+02  0.00000000000E+00 0. -1.
         22    1    3    3    0    0  0.64857122629E+02  0.25085330105E+02 -0.73961424857E+02  0.10151853284E+03  0.00000000000E+00 0.  1.
         22    1    3    3    0    0  0.10267290781E+03 -0.12400115076E+03 -0.21429331422E+03  0.26802916988E+03  0.00000000000E+00 0.  1.
</event>
<event>
 7    1  0.7029100E-006  0.5212916E+02  0.7818608E-02  0.1476333E+00
          2   -1    0    0  502    0  0.00000000000E+00  0.00000000000E+00  0.16129500186E+03  0.16129500186E+03  0.00000000000E+00 0. -1.
          1   -1    0    0  501    0 -0.00000000000E+00 -0.00000000000E+00 -0.10447675035E+03  0.10447675035E+03  0.00000000000E+00 0. -1.
         25    2    1    2    0    0 -0.25251975198E+01 -0.77321640165E+02  0.81125928641E+02  0.16790276859E+03  0.12499964297E+03 0.  0.
          2    1    1    2  501    0  0.22512900169E+02  0.44651161304E+02 -0.31218989388E+02  0.58950675808E+02  0.00000000000E+00 0. -1.
          1    1    1    2  502    0 -0.19987702650E+02  0.32670478862E+02  0.69113122580E+01  0.38918307818E+02  0.00000000000E+00 0. -1.
         22    1    3    3    0    0  0.34508388111E+01 -0.99108521948E+02  0.17912089987E+02  0.10077326222E+03  0.00000000000E+00 0.  1.
         22    1    3    3    0    0 -0.59760363308E+01  0.21786881782E+02  0.63213838654E+02  0.67129506370E+02  0.00000000000E+00 0.  1.
</event>
<event>
 7    1  0.7029100E-006  0.8070088E+02  0.7818608E-02  0.1435346E+00
          2   -1    0    0  502    0  0.00000000000E+00  0.00000000000E+00  0.11231113818E+04  0.11231113818E+04  0.00000000000E+00 0. -1.
          1   -1    0    0  501    0 -0.00000000000E+00 -0.00000000000E+00 -0.31836097489E+03  0.31836097489E+03  0.00000000000E+00 0. -1.
         25    2    1    2    0    0  0.32774043682E+02 -0.37366686772E+02  0.51014185861E+02  0.14387136062E+03  0.12500445604E+03 0.  0.
          2    1    1    2  501    0 -0.59181494697E+02  0.57783916010E+02 -0.26536315765E+03  0.27795509656E+03  0.00000000000E+00 0. -1.
          1    1    1    2  502    0  0.26407451015E+02 -0.20417229238E+02  0.10190993787E+04  0.10196458995E+04  0.00000000000E+00 0. -1.
         22    1    3    3    0    0 -0.37947321408E+02 -0.45494926342E+02  0.57713733768E+01  0.59523913476E+02  0.00000000000E+00 0.  1.
         22    1    3    3    0    0  0.70721365090E+02  0.81282395700E+01  0.45242812484E+02  0.84347447147E+02  0.00000000000E+00 0.  1.
</event>
<event>
 7    1  0.7029100E-006  0.6950907E+02  0.7818608E-02  0.1462346E+00
          2   -1    0    0  502    0  0.00000000000E+00  0.00000000000E+00  0.10836048547E+04  0.10836048547E+04  0.00000000000E+00 0. -1.
          1   -1    0    0  501    0 -0.00000000000E+00 -0.00000000000E+00 -0.24456441876E+02  0.24456441876E+02  0.00000000000E+00 0. -1.
         25    2    1    2    0    0  0.42053309221E+02  0.17297068095E+02  0.39157121024E+03  0.41354732182E+03  0.12500282121E+03 0.  0.
          2    1    1    2  501    0  0.18416480844E+02  0.25866779181E+02  0.10787310711E+02  0.33535400762E+02  0.00000000000E+00 0. -1.
          1    1    1    2  502    0 -0.60469790065E+02 -0.43163847276E+02  0.65678989186E+03  0.66097857399E+03  0.00000000000E+00 0. -1.
         22    1    3    3    0    0  0.48649079800E+02  0.29685862019E+02  0.64085190176E+02  0.85760684286E+02  0.00000000000E+00 0. -1.
         22    1    3    3    0    0 -0.65957705797E+01 -0.12388793924E+02  0.32748602007E+03  0.32778663753E+03  0.00000000000E+00 0. -1.
</event>
<event>
 7    1  0.1158643E-005  0.9364569E+02  0.7818608E-02  0.1332178E+00
          2   -1    0    0  502    0  0.00000000000E+00  0.00000000000E+00  0.26994359599E+04  0.26994359599E+04  0.00000000000E+00 0. -1.
          1   -1    0    0  501    0 -0.00000000000E+00 -0.00000000000E+00 -0.14447045733E+04  0.14447045733E+04  0.00000000000E+00 0. -1.
         25    2    1    2    0    0 -0.60832092694E+02  0.25129075082E+02 -0.11795620200E+03  0.18403695346E+03  0.12499568285E+03 0.  0.
          2    1    1    2  501    0  0.89570228988E+02  0.34829769265E+02 -0.12915078594E+04  0.12950785651E+04  0.00000000000E+00 0. -1.
          1    1    1    2  502    0 -0.28738136294E+02 -0.59958844347E+02  0.26641954480E+04  0.26650250146E+04  0.00000000000E+00 0. -1.
         22    1    3    3    0    0 -0.77444382166E+02  0.60635343551E+02 -0.10204599303E+03  0.14173094902E+03  0.00000000000E+00 0. -1.
         22    1    3    3    0    0  0.16612289472E+02 -0.35506268469E+02 -0.15910208976E+02  0.42306004441E+02  0.00000000000E+00 0. -1.
</event>
<event>
 7    1  0.7029100E-006  0.9573334E+02  0.7818608E-02  0.1371897E+00
          2   -1    0    0  502    0  0.00000000000E+00  0.00000000000E+00  0.81419226240E+03  0.81419226240E+03  0.00000000000E+00 0. -1.
          1   -1    0    0  501    0 -0.00000000000E+00 -0.00000000000E+00 -0.85139009779E+03  0.85139009779E+03  0.00000000000E+00 0. -1.
         25    2    1    2    0    0  0.55500471258E+02 -0.18789256981E+02 -0.61138622095E+01  0.13818694899E+03  0.12499966029E+03 0.  0.
          2    1    1    2  501    0 -0.77096402029E+02  0.59848052828E+02 -0.77545866342E+03  0.78157647310E+03  0.00000000000E+00 0. -1.
          1    1    1    2  502    0  0.21595930771E+02 -0.41058795846E+02  0.74437469024E+03  0.74581893809E+03  0.00000000000E+00 0. -1.
         22    1    3    3    0    0  0.27118748195E+02 -0.56827121150E+02 -0.44535652673E+02  0.77124396665E+02  0.00000000000E+00 0.  1.
         22    1    3    3    0    0  0.28381723063E+02  0.38037864169E+02  0.38421790464E+02  0.61062552330E+02  0.00000000000E+00 0.  1.
</event>
<event>
 7    1  0.7029100E-006  0.6367613E+02  0.7818608E-02  0.1400829E+00
          2   -1    0    0  502    0  0.00000000000E+00  0.00000000000E+00  0.14912813025E+04  0.14912813025E+04  0.00000000000E+00 0. -1.
          1   -1    0    0  501    0 -0.00000000000E+00 -0.00000000000E+00 -0.10656259536E+03  0.10656259536E+03  0.00000000000E+00 0. -1.
         25    2    1    2    0    0 -0.35312929956E+02  0.45112035665E+02  0.55983913793E+03  0.57647725870E+03  0.12499628256E+03 0.  0.
          2    1    1    2  501    0  0.64195305138E+02  0.19394457383E+01 -0.86822148287E+02  0.10799483360E+03  0.00000000000E+00 0. -1.
          1    1    1    2  502    0 -0.28882375182E+02 -0.47051481403E+02  0.91170171747E+03  0.91337180553E+03  0.00000000000E+00 0. -1.
         22    1    3    3    0    0  0.46395023269E+02  0.77620632439E+01  0.21916269098E+03  0.22415403839E+03  0.00000000000E+00 0.  1.
         22    1    3    3    0    0 -0.81707953225E+02  0.37349972421E+02  0.34067644695E+03  0.35232322031E+03  0.00000000000E+00 0.  1.
</event>
<event>
 7    1  0.7029100E-006  0.7359261E+02  0.7818608E-02  0.1351517E+00
          2   -1    0    0  502    0  0.00000000000E+00  0.00000000000E+00  0.52781312663E+02  0.52781312663E+02  0.00000000000E+00 0. -1.
          1   -1    0    0  501    0 -0.00000000000E+00 -0.00000000000E+00 -0.30561534345E+04  0.30561534345E+04  0.00000000000E+00 0. -1.
         25    2    1    2    0    0 -0.30586118355E+02  0.26535117482E+02 -0.26244365552E+03  0.29349841033E+03  0.12500008579E+03 0.  0.
          2    1    1    2  501    0  0.54002616744E+02  0.49995901883E+02 -0.27341240595E+04  0.27351143021E+04  0.00000000000E+00 0. -1.
          1    1    1    2  502    0 -0.23416498389E+02 -0.76531019365E+02 -0.68044068887E+01  0.80322034803E+02  0.00000000000E+00 0. -1.
         22    1    3    3    0    0 -0.75993018506E+02  0.18697295130E+01 -0.12084127170E+03  0.14276220682E+03  0.00000000000E+00 0.  1.
         22    1    3    3    0    0  0.45406900151E+02  0.24665387969E+02 -0.14160238382E+03  0.15073620351E+03  0.00000000000E+00 0.  1.
</event>
<event>
 7    1  0.7029100E-006  0.8762324E+02  0.7818608E-02  0.1423592E+00
          2   -1    0    0  502    0  0.00000000000E+00  0.00000000000E+00  0.12311480857E+04  0.12311480857E+04  0.00000000000E+00 0. -1.
          1   -1    0    0  501    0 -0.00000000000E+00 -0.00000000000E+00 -0.12534696318E+04  0.12534696318E+04  0.00000000000E+00 0. -1.
         25    2    1    2    0    0 -0.58141844446E+02 -0.30412651059E+02  0.38284468237E+03  0.40804494274E+03  0.12500088423E+03 0.  0.
          2    1    1    2  501    0 -0.10040587710E+02 -0.32075475038E+02 -0.12380819344E+04  0.12385380599E+04  0.00000000000E+00 0. -1.
          1    1    1    2  502    0  0.68182432156E+02  0.62488126097E+02  0.83291570598E+03  0.83803471481E+03  0.00000000000E+00 0. -1.
         22    1    3    3    0    0  0.36245727679E+02  0.77177537805E+01  0.13780930658E+03  0.14270501561E+03  0.00000000000E+00 0. -1.
         22    1    3    3    0    0 -0.94387572125E+02 -0.38130404839E+02  0.24503537579E+03  0.26533992714E+03  0.00000000000E+00 0. -1.
</event>
<event>
 7    1  0.7029100E-006  0.8952383E+02  0.7818608E-02  0.1327280E+00
          2   -1    0    0  502    0  0.00000000000E+00  0.00000000000E+00  0.34554072217E+02  0.34554072217E+02  0.00000000000E+00 0. -1.
          1   -1    0    0  501    0 -0.00000000000E+00 -0.00000000000E+00 -0.34336029955E+04  0.34336029955E+04  0.00000000000E+00 0. -1.
         25    2    1    2    0    0  0.74993875951E+02  0.11442935105E+02 -0.22265551027E+03  0.26637362103E+03  0.12499763012E+03 0.  0.
          2    1    1    2  501    0  0.40747405030E+01  0.72500889923E+02 -0.29170893076E+04  0.29179929765E+04  0.00000000000E+00 0. -1.
          1    1    1    2  502    0 -0.79068616454E+02 -0.83943825028E+02 -0.25930410542E+03  0.28379047016E+03  0.00000000000E+00 0. -1.
         22    1    3    3    0    0  0.41413420222E+02  0.57490854966E+02 -0.56213356067E+02  0.90444519898E+02  0.00000000000E+00 0.  1.
         22    1    3    3    0    0  0.33580455729E+02 -0.46047919861E+02 -0.16644215420E+03  0.17592910114E+03  0.00000000000E+00 0.  1.
</event>
<event>
 7    1  0.7029100E-006  0.5088915E+02  0.7818608E-02  0.1524661E+00
          2   -1    0    0  502    0  0.00000000000E+00  0.00000000000E+00  0.38365052751E+03  0.38365052751E+03  0.00000000000E+00 0. -1.
          1   -1    0    0  501    0 -0.00000000000E+00 -0.00000000000E+00 -0.32964012821E+03  0.32964012821E+03  0.00000000000E+00 0. -1.
         25    2    1    2    0    0 -0.27280050678E+01  0.22999348031E+02  0.17424699024E+03  0.21569972656E+03  0.12501178508E+03 0.  0.
          2    1    1    2  501    0  0.98294074744E+01 -0.50239994561E+02 -0.30572353442E+03  0.30997992484E+03  0.00000000000E+00 0. -1.
          1    1    1    2  502    0 -0.71014024066E+01  0.27240646530E+02  0.18548694348E+03  0.18761100432E+03  0.00000000000E+00 0. -1.
         22    1    3    3    0    0  0.40987054253E+01 -0.19596072490E+02 -0.12786978303E+02  0.23755257467E+02  0.00000000000E+00 0. -1.
         22    1    3    3    0    0 -0.68267104931E+01  0.42595420521E+02  0.18703396854E+03  0.19194446909E+03  0.00000000000E+00 0. -1.
</event>
<event>
 7    1  0.7029100E-006  0.1526116E+03  0.7818608E-02  0.1336857E+00
          2   -1    0    0  502    0  0.00000000000E+00  0.00000000000E+00  0.57733227047E+03  0.57733227047E+03  0.00000000000E+00 0. -1.
          1   -1    0    0  501    0 -0.00000000000E+00 -0.00000000000E+00 -0.49446497028E+03  0.49446497028E+03  0.00000000000E+00 0. -1.
         25    2    1    2    0    0  0.95275282070E+02  0.66661019848E+02 -0.21357622406E+03  0.27342588753E+03  0.12500336615E+03 0.  0.
          2    1    1    2  501    0  0.24450035989E+02  0.30596937693E+02 -0.23846831622E+03  0.24166322578E+03  0.00000000000E+00 0. -1.
          1    1    1    2  502    0 -0.11972531806E+03 -0.97257957541E+02  0.53491184046E+03  0.55670812744E+03  0.00000000000E+00 0. -1.
         22    1    3    3    0    0  0.85731752481E+02  0.98540371108E+02 -0.19669321548E+03  0.23611090431E+03  0.00000000000E+00 0. -1.
         22    1    3    3    0    0  0.95435295895E+01 -0.31879351260E+02 -0.16883008581E+02  0.37314983218E+02  0.00000000000E+00 0. -1.
</event>
<event>
 7    1  0.7029100E-006  0.1831887E+03  0.7818608E-02  0.1377133E+00
          2   -1    0    0  502    0  0.00000000000E+00  0.00000000000E+00  0.34130408271E+03  0.34130408271E+03  0.00000000000E+00 0. -1.
          1   -1    0    0  501    0 -0.00000000000E+00 -0.00000000000E+00 -0.49285045101E+03  0.49285045101E+03  0.00000000000E+00 0. -1.
         25    2    1    2    0    0 -0.13540599200E+03  0.12243818289E+03 -0.67414803439E+02  0.23128889501E+03  0.12499562366E+03 0.  0.
          2    1    1    2  501    0  0.15897500798E+02  0.16927895682E+02 -0.31052271240E+03  0.31138985067E+03  0.00000000000E+00 0. -1.
          1    1    1    2  502    0  0.11950849120E+03 -0.13936607857E+03  0.22639114754E+03  0.29147578804E+03  0.00000000000E+00 0. -1.
         22    1    3    3    0    0  0.22761618325E+02  0.31255153999E+02 -0.10855590977E+02  0.40159927487E+02  0.00000000000E+00 0.  1.
         22    1    3    3    0    0 -0.15816761032E+03  0.91183028889E+02 -0.56559212462E+02  0.19112896752E+03  0.00000000000E+00 0.  1.
</event>
<event>
 7    1  0.7029100E-006  0.6890472E+02  0.7818608E-02  0.1521109E+00
          2   -1    0    0  502    0  0.00000000000E+00  0.00000000000E+00  0.16400952639E+04  0.16400952639E+04  0.00000000000E+00 0. -1.
          1   -1    0    0  501    0 -0.00000000000E+00 -0.00000000000E+00 -0.42221494597E+03  0.42221494597E+03  0.00000000000E+00 0. -1.
         25    2    1    2    0    0 -0.42022222252E+02 -0.43141542197E+02  0.10345812285E+03  0.17307852483E+03  0.12500213097E+03 0.  0.
          2    1    1    2  501    0  0.31425600194E+02  0.61605301956E+02 -0.38424212171E+03  0.39041617496E+03  0.00000000000E+00 0. -1.
          1    1    1    2  502    0  0.10596622058E+02 -0.18463759759E+02  0.14986643167E+04  0.14988155100E+04  0.00000000000E+00 0. -1.
         22    1    3    3    0    0  0.12037133826E+02 -0.10782864545E+02 -0.25134135826E+02  0.29881223909E+02  0.00000000000E+00 0.  1.
         22    1    3    3    0    0 -0.54059356078E+02 -0.32358677652E+02  0.12859225868E+03  0.14319730092E+03  0.00000000000E+00 0.  1.
</event>
<event>
 7    1  0.7029100E-006  0.1625987E+03  0.7818608E-02  0.1275271E+00
          2   -1    0    0  502    0  0.00000000000E+00  0.00000000000E+00  0.86026977173E+03  0.86026977173E+03  0.00000000000E+00 0. -1.
          1   -1    0    0  501    0 -0.00000000000E+00 -0.00000000000E+00 -0.18915929880E+03  0.18915929880E+03  0.00000000000E+00 0. -1.
         25    2    1    2    0    0  0.86547110571E+02 -0.82927929968E+02  0.23636480816E+03  0.29302005359E+03  0.12499994143E+03 0.  0.
          2    1    1    2  501    0  0.46691364482E+02 -0.44534462323E+02 -0.13927749807E+03  0.15349795868E+03  0.00000000000E+00 0. -1.
          1    1    1    2  502    0 -0.13323847505E+03  0.12746239229E+03  0.57402316284E+03  0.60291105825E+03  0.00000000000E+00 0. -1.
         22    1    3    3    0    0  0.53095347064E+02 -0.24282993167E+02  0.21411655575E+03  0.22193395208E+03  0.00000000000E+00 0.  1.
         22    1    3    3    0    0  0.33451763506E+02 -0.58644936801E+02  0.22248252405E+02  0.71086101519E+02  0.00000000000E+00 0.  1.
</event>
<event>
 7    1  0.7029100E-006  0.1512670E+03  0.7818608E-02  0.1211985E+00
          2   -1    0    0  502    0  0.00000000000E+00  0.00000000000E+00  0.28877278999E+04  0.28877278999E+04  0.00000000000E+00 0. -1.
          1   -1    0    0  501    0 -0.00000000000E+00 -0.00000000000E+00 -0.29306048113E+03  0.29306048113E+03  0.00000000000E+00 0. -1.
         25    2    1    2    0    0  0.57812035170E+02  0.61563873772E+02  0.62260238072E+03  0.64061732296E+03  0.12499795215E+03 0.  0.
          2    1    1    2  501    0  0.12697061001E+03 -0.33972287253E+02 -0.26474251658E+03  0.29557444441E+03  0.00000000000E+00 0. -1.
          1    1    1    2  502    0 -0.18478264518E+03 -0.27591586519E+02  0.22368075546E+04  0.22445966136E+04  0.00000000000E+00 0. -1.
         22    1    3    3    0    0  0.82825787081E+02  0.66886182612E+02  0.58816729298E+03  0.59772454940E+03  0.00000000000E+00 0. -1.
         22    1    3    3    0    0 -0.25013751911E+02 -0.53223088400E+01  0.34435087740E+02  0.42892773561E+02  0.00000000000E+00 0. -1.
</event>
<event>
 7    1  0.8333452E-006  0.7114565E+02  0.7818608E-02  0.1500215E+00
          2   -1    0    0  502    0  0.00000000000E+00  0.00000000000E+00  0.15318014941E+04  0.15318014941E+04  0.00000000000E+00 0. -1.
          1   -1    0    0  501    0 -0.00000000000E+00 -0.00000000000E+00 -0.88094014633E+03  0.88094014633E+03  0.00000000000E+00 0. -1.
         25    2    1    2    0    0  0.99803897617E+00 -0.79365086506E+02 -0.11981600941E+03  0.19047437421E+03  0.12499919232E+03 0.  0.
          2    1    1    2  501    0 -0.20991412511E+02  0.11113485369E+02 -0.72475530716E+03  0.72514440231E+03  0.00000000000E+00 0. -1.
          1    1    1    2  502    0  0.19993373535E+02  0.68251601138E+02  0.14954326644E+04  0.14971228639E+04  0.00000000000E+00 0. -1.
         22    1    3    3    0    0  0.42253953593E+02 -0.56621680588E+01 -0.92252466348E+02  0.10162664163E+03  0.00000000000E+00 0.  1.
         22    1    3    3    0    0 -0.41255914617E+02 -0.73702918447E+02 -0.27563543062E+02  0.88847732581E+02  0.00000000000E+00 0.  1.
</event>
<event>
 7    1  0.7029100E-006  0.8292381E+02  0.7818608E-02  0.1401431E+00
          2   -1    0    0  502    0  0.00000000000E+00  0.00000000000E+00  0.27801178661E+04  0.27801178661E+04  0.00000000000E+00 0. -1.
          1   -1    0    0  501    0 -0.00000000000E+00 -0.00000000000E+00 -0.58217721829E+03  0.58217721829E+03  0.00000000000E+00 0. -1.
         25    2    1    2    0    0 -0.35172063171E+02  0.65334409662E+02 -0.31016637361E+03  0.34253970192E+03  0.12499843584E+03 0.  0.
          2    1    1    2  501    0  0.74696989652E+02 -0.50568609943E+02 -0.24770608910E+03  0.26361929207E+03  0.00000000000E+00 0. -1.
          1    1    1    2  502    0 -0.39524926480E+02 -0.14765799719E+02  0.27558131105E+04  0.27561360904E+04  0.00000000000E+00 0. -1.
         22    1    3    3    0    0  0.43003238700E+02  0.28182031398E+02 -0.67175201619E+02  0.84593221625E+02  0.00000000000E+00 0. -1.
         22    1    3    3    0    0 -0.78175301872E+02  0.37152378264E+02 -0.24299117199E+03  0.25794648030E+03  0.00000000000E+00 0. -1.
</event>
<event>
 7    1  0.7029100E-006  0.5014611E+02  0.7818608E-02  0.1475952E+00
          2   -1    0    0  502    0  0.00000000000E+00  0.00000000000E+00  0.23545512458E+04  0.23545512458E+04  0.00000000000E+00 0. -1.
          1   -1    0    0  501    0 -0.00000000000E+00 -0.00000000000E+00 -0.28934104391E+03  0.28934104391E+03  0.00000000000E+00 0. -1.
         25    2    1    2    0    0 -0.16869014328E+02 -0.82041567523E+02  0.17627087012E+03  0.23175795388E+03  0.12499978834E+03 0.  0.
          2    1    1    2  501    0  0.25152267566E+02  0.42988131974E+02 -0.25903969605E+03  0.26378434408E+03  0.00000000000E+00 0. -1.
          1    1    1    2  502    0 -0.82832532382E+01  0.39053435549E+02  0.21479790278E+04  0.21483499918E+04  0.00000000000E+00 0. -1.
         22    1    3    3    0    0  0.38201766981E+02 -0.14354584069E+02  0.71204722415E+01  0.41426201965E+02  0.00000000000E+00 0.  1.
         22    1    3    3    0    0 -0.55070781309E+02 -0.67686983454E+02  0.16915039788E+03  0.19033175192E+03  0.00000000000E+00 0.  1.
</event>
<event>
 7    1  0.7029100E-006  0.7727260E+02  0.7818608E-02  0.1340029E+00
          2   -1    0    0  502    0  0.00000000000E+00  0.00000000000E+00  0.17668069976E+04  0.17668069976E+04  0.00000000000E+00 0. -1.
          1   -1    0    0  501    0 -0.00000000000E+00 -0.00000000000E+00 -0.10878393289E+04  0.10878393289E+04  0.00000000000E+00 0. -1.
         25    2    1    2    0    0 -0.40750259933E+00 -0.99849279855E+01  0.54816872742E+03  0.56232966618E+03  0.12500333955E+03 0.  0.
          2    1    1    2  501    0 -0.73353717524E+02  0.24881973228E+02 -0.10781996656E+04  0.10809784454E+04  0.00000000000E+00 0. -1.
          1    1    1    2  502    0  0.73761220124E+02 -0.14897045243E+02  0.12089986069E+04  0.12113382149E+04  0.00000000000E+00 0. -1.
         22    1    3    3    0    0 -0.25446931822E+02  0.51743212045E+02  0.29220713298E+03  0.29784209725E+03  0.00000000000E+00 0. -1.
         22    1    3    3    0    0  0.25039429223E+02 -0.61728140031E+02  0.25596159445E+03  0.26448756893E+03  0.00000000000E+00 0. -1.
</event>
<event>
 7    1  0.7029100E-006  0.7283561E+02  0.7818608E-02  0.1384380E+00
          2   -1    0    0  502    0  0.00000000000E+00  0.00000000000E+00  0.10083806849E+04  0.10083806849E+04  0.00000000000E+00 0. -1.
          1   -1    0    0  501    0 -0.00000000000E+00 -0.00000000000E+00 -0.81905093539E+03  0.81905093539E+03  0.00000000000E+00 0. -1.
         25    2    1    2    0    0  0.13759290340E+02  0.13417219931E+02  0.13877818737E+02  0.12722707710E+03  0.12499918173E+03 0.  0.
          2    1    1    2  501    0  0.42478240046E+02  0.35029330580E+02 -0.75990999634E+03  0.76190199988E+03  0.00000000000E+00 0. -1.
          1    1    1    2  502    0 -0.56237530386E+02 -0.48446550511E+02  0.93536192712E+03  0.93830254331E+03  0.00000000000E+00 0. -1.
         22    1    3    3    0    0  0.65739233657E+02  0.18664004369E+02  0.26806684181E+02  0.73407017496E+02  0.00000000000E+00 0. -1.
         22    1    3    3    0    0 -0.51979943317E+02 -0.52467844376E+01 -0.12928865443E+02  0.53820059605E+02  0.00000000000E+00 0. -1.
</event>
<event>
 7    1  0.7029100E-006  0.1468735E+03  0.7818608E-02  0.1264390E+00
          2   -1    0    0  502    0  0.00000000000E+00  0.00000000000E+00  0.10879228402E+04  0.10879228402E+04  0.00000000000E+00 0. -1.
          1   -1    0    0  501    0 -0.00000000000E+00 -0.00000000000E+00 -0.18621722491E+03  0.18621722491E+03  0.00000000000E+00 0. -1.
         25    2    1    2    0    0  0.59321137893E+02  0.73347658396E+02  0.10036157175E+03  0.18600017803E+03  0.12499897900E+03 0.  0.
          2    1    1    2  501    0 -0.13561559239E+03 -0.95191730166E+02 -0.93185959615E+02  0.19009649513E+03  0.00000000000E+00 0. -1.
          1    1    1    2  502    0  0.76294454500E+02  0.21844071771E+02  0.89453000316E+03  0.89804339195E+03  0.00000000000E+00 0. -1.
         22    1    3    3    0    0  0.83424089306E+02  0.49028219507E+01  0.60858173025E+02  0.10337956067E+03  0.00000000000E+00 0.  1.
         22    1    3    3    0    0 -0.24102951413E+02  0.68444836445E+02  0.39503398722E+02  0.82620617363E+02  0.00000000000E+00 0.  1.
</event>
<event>
 7    1  0.7029100E-006  0.1136176E+03  0.7818608E-02  0.1432232E+00
          2   -1    0    0  502    0  0.00000000000E+00  0.00000000000E+00  0.10817085849E+04  0.10817085849E+04  0.00000000000E+00 0. -1.
          1   -1    0    0  501    0 -0.00000000000E+00 -0.00000000000E+00 -0.12563441249E+03  0.12563441249E+03  0.00000000000E+00 0. -1.
         25    2    1    2    0    0  0.27573275508E+02 -0.10528111908E+03  0.29717926806E+03  0.34027004289E+03  0.12499514059E+03 0.  0.
          2    1    1    2  501    0 -0.51621769557E+02  0.10199060618E+03 -0.72442928692E+02  0.13533243794E+03  0.00000000000E+00 0. -1.
          1    1    1    2  502    0  0.24048494049E+02  0.32905128939E+01  0.73133783301E+03  0.73174051653E+03  0.00000000000E+00 0. -1.
         22    1    3    3    0    0  0.77461002124E+02 -0.65279558300E+02  0.19473081180E+03  0.21950334086E+03  0.00000000000E+00 0.  1.
         22    1    3    3    0    0 -0.49887726615E+02 -0.40001560776E+02  0.10244845625E+03  0.12076670203E+03  0.00000000000E+00 0.  1.
</event>
<event>
 7    1  0.7029100E-006  0.6991101E+02  0.7818608E-02  0.1375520E+00
          2   -1    0    0  502    0  0.00000000000E+00  0.00000000000E+00  0.29363671196E+03  0.29363671196E+03  0.00000000000E+00 0. -1.
          1   -1    0    0  501    0 -0.00000000000E+00 -0.00000000000E+00 -0.93815693082E+03  0.93815693082E+03  0.00000000000E+00 0. -1.
         25    2    1    2    0    0  0.75929242385E+02  0.24127437495E+02 -0.43541309693E+02  0.15449199963E+03  0.12499819683E+03 0.  0.
          2    1    1    2  501    0 -0.28974428855E+02 -0.64093076825E+02 -0.83364325441E+03  0.83660535239E+03  0.00000000000E+00 0. -1.
          1    1    1    2  502    0 -0.46954813529E+02  0.39965639330E+02  0.23266434524E+03  0.24069629076E+03  0.00000000000E+00 0. -1.
         22    1    3    3    0    0  0.39267509678E+02  0.61794910833E+02  0.16129505695E+02  0.74971389711E+02  0.00000000000E+00 0.  1.
         22    1    3    3    0    0  0.36661732707E+02 -0.37667473338E+02 -0.59670815388E+02  0.79520609918E+02  0.00000000000E+00 0.  1.
</event>
<event>
 7    1  0.7029100E-006  0.4726432E+02  0.7818608E-02  0.1491407E+00
          2   -1    0    0  502    0  0.00000000000E+00  0.00000000000E+00  0.30771638608E+04  0.30771638608E+04  0.00000000000E+00 0. -1.
          1   -1    0    0  501    0 -0.00000000000E+00 -0.00000000000E+00 -0.40150142583E+02  0.40150142583E+02  0.00000000000E+00 0. -1.
         25    2    1    2    0    0  0.35325967153E+02 -0.65114014607E+02  0.20823533441E+03  0.25391959840E+03  0.12500179640E+03 0.  0.
          2    1    1    2  501    0  0.30935554358E+01  0.37870772312E+02  0.39815403122E+01  0.38204949209E+02  0.00000000000E+00 0. -1.
          1    1    1    2  502    0 -0.38419522589E+02  0.27243242295E+02  0.28247968435E+04  0.28251894558E+04  0.00000000000E+00 0. -1.
         22    1    3    3    0    0  0.57368362901E+02 -0.36740038365E+02  0.20705093395E+03  0.21797029323E+03  0.00000000000E+00 0. -1.
         22    1    3    3    0    0 -0.22042395748E+02 -0.28373976242E+02  0.11844004572E+01  0.35949305174E+02  0.00000000000E+00 0. -1.
</event>
<event>
 7    1  0.7029100E-006  0.1373663E+03  0.7818608E-02  0.1416434E+00
          2   -1    0    0  502    0  0.00000000000E+00  0.00000000000E+00  0.11140844134E+04  0.11140844134E+04  0.00000000000E+00 0. -1.
          1   -1    0    0  501    0 -0.00000000000E+00 -0.00000000000E+00 -0.31162123225E+03  0.31162123225E+03  0.00000000000E+00 0. -1.
         25    2    1    2    0    0  0.10784864982E+03 -0.90340927743E+02  0.36126959748E+03  0.40734877092E+03  0.12499793843E+03 0.  0.
          2    1    1    2  501    0 -0.11804737501E+03  0.70114100112E+02 -0.27206076992E+03  0.30474289542E+03  0.00000000000E+00 0. -1.
          1    1    1    2  502    0  0.10198725187E+02  0.20226827631E+02  0.71325435361E+03  0.71361397933E+03  0.00000000000E+00 0. -1.
         22    1    3    3    0    0  0.11591861460E+03 -0.25449436124E+02  0.18999159587E+03  0.22401251195E+03  0.00000000000E+00 0.  1.
         22    1    3    3    0    0 -0.80699647764E+01 -0.64891491618E+02  0.17127800161E+03  0.18333625897E+03  0.00000000000E+00 0.  1.
</event>
<event>
 7    1  0.7029100E-006  0.6991342E+03  0.7818608E-02  0.1122355E+00
          2   -1    0    0  502    0  0.00000000000E+00  0.00000000000E+00  0.24163693406E+04  0.24163693406E+04  0.00000000000E+00 0. -1.
          1   -1    0    0  501    0 -0.00000000000E+00 -0.00000000000E+00 -0.18455974410E+04  0.18455974410E+04  0.00000000000E+00 0. -1.
         25    2    1    2    0    0  0.65237990253E+03 -0.36869274521E+03 -0.42464101791E+03  0.87033240749E+03  0.12499851132E+03 0.  0.
          2    1    1    2  501    0 -0.76943452467E+02 -0.21141708786E+02 -0.11416235182E+04  0.11444088098E+04  0.00000000000E+00 0. -1.
          1    1    1    2  502    0 -0.57543645007E+03  0.38983445400E+03  0.21370364356E+04  0.22472255643E+04  0.00000000000E+00 0. -1.
         22    1    3    3    0    0  0.49570811158E+03 -0.32540153778E+03 -0.36959096204E+03  0.69872038176E+03  0.00000000000E+00 0.  1.
         22    1    3    3    0    0  0.15667179096E+03 -0.43291207435E+02 -0.55050055875E+02  0.17161202573E+03  0.00000000000E+00 0.  1.
</event>
<event>
 7    1  0.7029100E-006  0.8748322E+02  0.7818608E-02  0.1377235E+00
          2   -1    0    0  502    0  0.00000000000E+00  0.00000000000E+00  0.61780543982E+03  0.61780543982E+03  0.00000000000E+00 0. -1.
          1   -1    0    0  501    0 -0.00000000000E+00 -0.00000000000E+00 -0.44116223031E+03  0.44116223031E+03  0.00000000000E+00 0. -1.
         25    2    1    2    0    0  0.69469755995E+01 -0.96126160224E+02  0.23140200332E+03  0.28010921550E+03  0.12500314523E+03 0.  0.
          2    1    1    2  501    0  0.38400890324E+02  0.78683063532E+02 -0.41054137410E+03  0.41977359697E+03  0.00000000000E+00 0. -1.
          1    1    1    2  502    0 -0.45347865923E+02  0.17443096692E+02  0.35578258029E+03  0.35908485766E+03  0.00000000000E+00 0. -1.
         22    1    3    3    0    0  0.29519479674E+02 -0.71142563552E+01  0.16247878183E+03  0.16529176286E+03  0.00000000000E+00 0.  1.
         22    1    3    3    0    0 -0.22572504075E+02 -0.89011903869E+02  0.68923221486E+02  0.11481745264E+03  0.00000000000E+00 0.  1.
</event>
<event>
 7    1  0.7029100E-006  0.8829105E+02  0.7818608E-02  0.1417621E+00
          2   -1    0    0  502    0  0.00000000000E+00  0.00000000000E+00  0.39511420255E+02  0.39511420255E+02  0.00000000000E+00 0. -1.
          1   -1    0    0  501    0 -0.00000000000E+00 -0.00000000000E+00 -0.18261747239E+04  0.18261747239E+04  0.00000000000E+00 0. -1.
         25    2    1    2    0    0 -0.68315743717E+02  0.90234265390E+02 -0.25096639317E+03  0.30234853310E+03  0.12498496500E+03 0.  0.
          2    1    1    2  501    0  0.67436633314E+02 -0.55323470600E+02 -0.15240216567E+04  0.15265157700E+04  0.00000000000E+00 0. -1.
          1    1    1    2  502    0  0.87911040360E+00 -0.34910794789E+02 -0.11675253743E+02  0.36821841044E+02  0.00000000000E+00 0. -1.
         22    1    3    3    0    0  0.31863558840E+02 -0.12383324536E+01 -0.35357451734E+02  0.47612700431E+02  0.00000000000E+00 0. -1.
         22    1    3    3    0    0 -0.10017930256E+03  0.91472597843E+02 -0.21560894144E+03  0.25473583267E+03  0.00000000000E+00 0. -1.
</event>
<event>
 7    1  0.7029100E-006  0.7837058E+02  0.7818608E-02  0.1379009E+00
          2   -1    0    0  502    0  0.00000000000E+00  0.00000000000E+00  0.12051066425E+04  0.12051066425E+04  0.00000000000E+00 0. -1.
          1   -1    0    0  501    0 -0.00000000000E+00 -0.00000000000E+00 -0.79638894993E+03  0.79638894993E+03  0.00000000000E+00 0. -1.
         25    2    1    2    0    0  0.10002401807E+03 -0.85086594200E+02 -0.25166690180E+03  0.31017167137E+03  0.12500281420E+03 0.  0.
          2    1    1    2  501    0 -0.43245301240E+02  0.31421614517E+02 -0.51278103951E+03  0.51555976221E+03  0.00000000000E+00 0. -1.
          1    1    1    2  502    0 -0.56778716825E+02  0.53664979683E+02  0.11731656339E+04  0.11757641589E+04  0.00000000000E+00 0. -1.
         22    1    3    3    0    0  0.65872305880E+01  0.30410531506E+02 -0.60839182116E+02  0.68334457734E+02  0.00000000000E+00 0. -1.
         22    1    3    3    0    0  0.93436787477E+02 -0.11549712571E+03 -0.19082771968E+03  0.24183721364E+03  0.00000000000E+00 0. -1.
</event>
<event>
 7    1  0.7029100E-006  0.7615875E+02  0.7818608E-02  0.1430024E+00
          2   -1    0    0  502    0  0.00000000000E+00  0.00000000000E+00  0.96901107859E+03  0.96901107859E+03  0.00000000000E+00 0. -1.
          1   -1    0    0  501    0 -0.00000000000E+00 -0.00000000000E+00 -0.26542950145E+03  0.26542950145E+03  0.00000000000E+00 0. -1.
         25    2    1    2    0    0 -0.81201356599E+02 -0.47952331235E+01  0.81988646449E+02  0.17020254769E+03  0.12502045641E+03 0.  0.
          2    1    1    2  501    0  0.65996927705E+02  0.38330544277E+02 -0.21432563145E+03  0.22750890397E+03  0.00000000000E+00 0. -1.
          1    1    1    2  502    0  0.15204428894E+02 -0.33535311154E+02  0.83591856213E+03  0.83672912837E+03  0.00000000000E+00 0. -1.
         22    1    3    3    0    0  0.40038532172E+01 -0.32234513131E+02 -0.17066792209E+02  0.36692915851E+02  0.00000000000E+00 0. -1.
         22    1    3    3    0    0 -0.85205209816E+02  0.27439280007E+02  0.99055438658E+02  0.13350963184E+03  0.00000000000E+00 0. -1.
</event>
<event>
 7    1  0.7029100E-006  0.3661607E+02  0.7818608E-02  0.1619177E+00
          2   -1    0    0  502    0  0.00000000000E+00  0.00000000000E+00  0.10181358756E+04  0.10181358756E+04  0.00000000000E+00 0. -1.
          1   -1    0    0  501    0 -0.00000000000E+00 -0.00000000000E+00 -0.61804114646E+02  0.61804114646E+02  0.00000000000E+00 0. -1.
         25    2    1    2    0    0 -0.22798367261E+02 -0.27710054736E+02  0.14280956627E+03  0.19315080618E+03  0.12500019610E+03 0.  0.
          2    1    1    2  501    0  0.35563982372E+02  0.10185906830E+02 -0.27118488417E+02  0.45868965043E+02  0.00000000000E+00 0. -1.
          1    1    1    2  502    0 -0.12765615111E+02  0.17524147906E+02  0.84064068307E+03  0.84092021900E+03  0.00000000000E+00 0. -1.
         22    1    3    3    0    0 -0.45294558056E+02  0.14277648154E+02  0.54946737392E+01  0.47808363973E+02  0.00000000000E+00 0.  1.
         22    1    3    3    0    0  0.22496190795E+02 -0.41987702890E+02  0.13731489254E+03  0.14534244221E+03  0.00000000000E+00 0.  1.
</event>
<event>
 7    1  0.7029100E-006  0.1229948E+03  0.7818608E-02  0.1289293E+00
          2   -1    0    0  502    0  0.00000000000E+00  0.00000000000E+00  0.10067163559E+04  0.10067163559E+04  0.00000000000E+00 0. -1.
          1   -1    0    0  501    0 -0.00000000000E+00 -0.00000000000E+00 -0.16248141025E+03  0.16248141025E+03  0.00000000000E+00 0. -1.
         25    2    1    2    0    0 -0.54935758037E+02 -0.24090025000E+02  0.38064713127E+02  0.14377550821E+03  0.12499683020E+03 0.  0.
          2    1    1    2  501    0 -0.39570919700E+02 -0.63337077188E+02 -0.91759465359E+02  0.11830994259E+03  0.00000000000E+00 0. -1.
          1    1    1    2  502    0  0.94506677737E+02  0.87427102187E+02  0.89792969789E+03  0.90711231536E+03  0.00000000000E+00 0. -1.
         22    1    3    3    0    0 -0.27241596099E+02  0.51319698140E+02  0.19880692907E+02  0.61408940112E+02  0.00000000000E+00 0. -1.
         22    1    3    3    0    0 -0.27694161938E+02 -0.75409723139E+02  0.18184020221E+02  0.82366568101E+02  0.00000000000E+00 0. -1.
</event>
<event>
 7    1  0.7029100E-006  0.9663774E+02  0.7818608E-02  0.1333295E+00
          2   -1    0    0  502    0  0.00000000000E+00  0.00000000000E+00  0.41312288785E+04  0.41312288785E+04  0.00000000000E+00 0. -1.
          1   -1    0    0  501    0 -0.00000000000E+00 -0.00000000000E+00 -0.23751506015E+03  0.23751506015E+03  0.00000000000E+00 0. -1.
         25    2    1    2    0    0  0.12576099492E+03 -0.83105104440E+02  0.19068769979E+04  0.19169056603E+04  0.12500055611E+03 0.  0.
          2    1    1    2  501    0 -0.56179650662E+02  0.30245897627E+02 -0.22724523750E+03  0.23603255165E+03  0.00000000000E+00 0. -1.
          1    1    1    2  502    0 -0.69581344254E+02  0.52859206812E+02  0.22140820580E+04  0.22158057267E+04  0.00000000000E+00 0. -1.
         22    1    3    3    0    0  0.78398598247E+02  0.16362908618E+02  0.10353948881E+04  0.10384876789E+04  0.00000000000E+00 0. -1.
         22    1    3    3    0    0  0.47362396669E+02 -0.99468013057E+02  0.87148210978E+03  0.87841798132E+03  0.00000000000E+00 0. -1.
</event>
<event>
 7    1  0.7029100E-006  0.9959925E+02  0.7818608E-02  0.1338028E+00
          2   -1    0    0  502    0  0.00000000000E+00  0.00000000000E+00  0.14159742149E+04  0.14159742149E+04  0.00000000000E+00 0. -1.
          1   -1    0    0  501    0 -0.00000000000E+00 -0.00000000000E+00 -0.18768309399E+03  0.18768309399E+03  0.00000000000E+00 0. -1.
         25    2    1    2    0    0  0.30918310773E+02  0.63161804070E+02  0.34998530140E+02  0.14763621612E+03  0.12500479896E+03 0.  0.
          2    1    1    2  501    0 -0.90278770878E+02 -0.60890520454E+02 -0.10800279881E+03  0.15337052032E+03  0.00000000000E+00 0. -1.
          1    1    1    2  502    0  0.59360460105E+02 -0.22712836159E+01  0.13012953896E+04  0.13026505725E+04  0.00000000000E+00 0. -1.
         22    1    3    3    0    0  0.54041196229E+01 -0.22574790817E+02  0.51668958637E+02  0.56643684343E+02  0.00000000000E+00 0.  1.
         22    1    3    3    0    0  0.25514191150E+02  0.85736594887E+02 -0.16670428497E+02  0.90992531776E+02  0.00000000000E+00 0.  1.
</event>
<event>
 7    1  0.7029100E-006  0.4065924E+02  0.7818608E-02  0.1507066E+00
          2   -1    0    0  502    0  0.00000000000E+00  0.00000000000E+00  0.71046988738E+02  0.71046988738E+02  0.00000000000E+00 0. -1.
          1   -1    0    0  501    0 -0.00000000000E+00 -0.00000000000E+00 -0.10092382597E+04  0.10092382597E+04  0.00000000000E+00 0. -1.
         25    2    1    2    0    0  0.36930642457E+01  0.35125873941E+02 -0.64782240570E+02  0.14512063578E+03  0.12496317255E+03 0.  0.
          2    1    1    2  501    0 -0.38001486215E+02 -0.15231656030E+02 -0.89088538555E+03  0.89182559196E+03  0.00000000000E+00 0. -1.
          1    1    1    2  502    0  0.34308421969E+02 -0.19894217911E+02  0.17476355159E+02  0.43339020685E+02  0.00000000000E+00 0. -1.
         22    1    3    3    0    0  0.22983552259E+01  0.43128620470E+02 -0.10002637203E+03  0.10895244578E+03  0.00000000000E+00 0.  1.
         22    1    3    3    0    0  0.13947090198E+01 -0.80027465282E+01  0.35244131463E+02  0.36168190000E+02  0.00000000000E+00 0.  1.
</event>
<event>
 7    1  0.7029100E-006  0.5346069E+02  0.7818608E-02  0.1480875E+00
          2   -1    0    0  502    0  0.00000000000E+00  0.00000000000E+00  0.30083442180E+03  0.30083442180E+03  0.00000000000E+00 0. -1.
          1   -1    0    0  501    0 -0.00000000000E+00 -0.00000000000E+00 -0.48572938918E+03  0.48572938918E+03  0.00000000000E+00 0. -1.
         25    2    1    2    0    0 -0.35917126826E+02  0.40135197508E+02  0.56310002587E+02  0.14729930054E+03  0.12500157387E+03 0.  0.
          2    1    1    2  501    0  0.33282691394E+02  0.14146963199E+02 -0.43576181158E+03  0.43725991189E+03  0.00000000000E+00 0. -1.
          1    1    1    2  502    0  0.26344354319E+01 -0.54282160707E+02  0.19455684161E+03  0.20200459855E+03  0.00000000000E+00 0. -1.
         22    1    3    3    0    0 -0.34851662875E+02  0.25866630002E+02  0.95867019778E+02  0.10523405549E+03  0.00000000000E+00 0. -1.
         22    1    3    3    0    0 -0.10654639506E+01  0.14268567506E+02 -0.39557017191E+02  0.42065245051E+02  0.00000000000E+00 0. -1.
</event>
<event>
 7    1  0.7029100E-006  0.7478674E+02  0.7818608E-02  0.1447741E+00
          2   -1    0    0  502    0  0.00000000000E+00  0.00000000000E+00  0.92940951108E+03  0.92940951108E+03  0.00000000000E+00 0. -1.
          1   -1    0    0  501    0 -0.00000000000E+00 -0.00000000000E+00 -0.13359835774E+04  0.13359835774E+04  0.00000000000E+00 0. -1.
         25    2    1    2    0    0 -0.56024038853E+02  0.13670826967E+01  0.91941725045E+02  0.16498143583E+03  0.12500012607E+03 0.  0.
          2    1    1    2  501    0 -0.14512557544E+02 -0.29459086336E+02 -0.12974561904E+04  0.12978717264E+04  0.00000000000E+00 0. -1.
          1    1    1    2  502    0  0.70536596396E+02  0.28092003640E+02  0.79894039903E+03  0.80253992630E+03  0.00000000000E+00 0. -1.
         22    1    3    3    0    0 -0.38951557713E+02 -0.44123416530E+02  0.99700830223E+02  0.11577717945E+03  0.00000000000E+00 0. -1.
         22    1    3    3    0    0 -0.17072481140E+02  0.45490499227E+02 -0.77591051783E+01  0.49204256374E+02  0.00000000000E+00 0. -1.
</event>
<event>
 7    1  0.7029100E-006  0.1197292E+03  0.7818608E-02  0.1290460E+00
          2   -1    0    0  502    0  0.00000000000E+00  0.00000000000E+00  0.17141681070E+03  0.17141681070E+03  0.00000000000E+00 0. -1.
          1   -1    0    0  501    0 -0.00000000000E+00 -0.00000000000E+00 -0.10522169082E+04  0.10522169082E+04  0.00000000000E+00 0. -1.
         25    2    1    2    0    0 -0.77185171490E+01  0.16597589726E+03 -0.31007327296E+03  0.37333286342E+03  0.12499767329E+03 0.  0.
          2    1    1    2  501    0 -0.44920700240E+02 -0.61160683641E+02 -0.68343487325E+03  0.68763487732E+03  0.00000000000E+00 0. -1.
          1    1    1    2  502    0  0.52639217389E+02 -0.10481521362E+03  0.11270804870E+03  0.16266597817E+03  0.00000000000E+00 0. -1.
         22    1    3    3    0    0  0.13837854208E+02 -0.76229819208E+01  0.16452094051E+01  0.15884041565E+02  0.00000000000E+00 0. -1.
         22    1    3    3    0    0 -0.21556371357E+02  0.17359887918E+03 -0.31171848236E+03  0.35744882185E+03  0.00000000000E+00 0. -1.
</event>
<event>
 7    1  0.7029100E-006  0.1496621E+03  0.7818608E-02  0.1401228E+00
          2   -1    0    0  502    0  0.00000000000E+00  0.00000000000E+00  0.99429964532E+03  0.99429964532E+03  0.00000000000E+00 0. -1.
          1   -1    0    0  501    0 -0.00000000000E+00 -0.00000000000E+00 -0.15671251192E+04  0.15671251192E+04  0.00000000000E+00 0. -1.
         25    2    1    2    0    0  0.65168354216E+02 -0.14973140853E+03  0.18582124885E+03  0.27716387016E+03  0.12499546115E+03 0.  0.
          2    1    1    2  501    0  0.85658684790E+01  0.21792582501E+02 -0.15142161139E+04  0.15143971508E+04  0.00000000000E+00 0. -1.
          1    1    1    2  502    0 -0.73734222695E+02  0.12793882603E+03  0.75556939116E+03  0.76986374357E+03  0.00000000000E+00 0. -1.
         22    1    3    3    0    0 -0.37385210378E+02 -0.34931654385E+02  0.37868256561E+02  0.63654373675E+02  0.00000000000E+00 0. -1.
         22    1    3    3    0    0  0.10255356459E+03 -0.11479975414E+03  0.14795299229E+03  0.21350949649E+03  0.00000000000E+00 0. -1.
</event>
<event>
 7    1  0.7029100E-006  0.1608777E+03  0.7818608E-02  0.1315613E+00
          2   -1    0    0  502    0  0.00000000000E+00  0.00000000000E+00  0.78805706459E+03  0.78805706459E+03  0.00000000000E+00 0. -1.
          1   -1    0    0  501    0 -0.00000000000E+00 -0.00000000000E+00 -0.95322633903E+02  0.95322633903E+02  0.00000000000E+00 0. -1.
         25    2    1    2    0    0 -0.17854841800E+03  0.69913252915E+02  0.21670016896E+03  0.31519972806E+03  0.12499801935E+03 0.  0.
          2    1    1    2  501    0  0.28803095741E+02 -0.34361920522E+02 -0.19795632738E+02  0.49012518623E+02  0.00000000000E+00 0. -1.
          1    1    1    2  502    0  0.14974532225E+03 -0.35551332393E+02  0.49582989446E+03  0.51916745180E+03  0.00000000000E+00 0. -1.
         22    1    3    3    0    0 -0.12948776564E+03  0.32385204784E+01  0.18653206569E+03  0.22709421172E+03  0.00000000000E+00 0.  1.
         22    1    3    3    0    0 -0.49060652361E+02  0.66674732437E+02  0.30168103268E+02  0.88105516345E+02  0.00000000000E+00 0.  1.
</event>
<event>
 7    1  0.7029100E-006  0.1005261E+03  0.7818608E-02  0.1414605E+00
          2   -1    0    0  502    0  0.00000000000E+00  0.00000000000E+00  0.74809839267E+03  0.74809839267E+03  0.00000000000E+00 0. -1.
          1   -1    0    0  501    0 -0.00000000000E+00 -0.00000000000E+00 -0.66893629358E+03  0.66893629358E+03  0.00000000000E+00 0. -1.
         25    2    1    2    0    0  0.67545255541E+02  0.90985617167E+02 -0.26690812598E+02  0.17081444310E+03  0.12499772164E+03 0.  0.
          2    1    1    2  501    0 -0.78712650596E+02 -0.61643378978E+02 -0.56543134044E+03  0.57420221899E+03  0.00000000000E+00 0. -1.
          1    1    1    2  502    0  0.11167395055E+02 -0.29342238189E+02  0.67128425213E+03  0.67201802417E+03  0.00000000000E+00 0. -1.
         22    1    3    3    0    0  0.37541930107E+02  0.19677039317E+02  0.47474976981E+02  0.63643191559E+02  0.00000000000E+00 0. -1.
         22    1    3    3    0    0  0.30003325434E+02  0.71308577850E+02 -0.74165789578E+02  0.10717125154E+03  0.00000000000E+00 0. -1.
</event>
<event>
 7    1  0.7029100E-006  0.8280637E+02  0.7818608E-02  0.1352704E+00
          2   -1    0    0  502    0  0.00000000000E+00  0.00000000000E+00  0.56656161158E+03  0.56656161158E+03  0.00000000000E+00 0. -1.
          1   -1    0    0  501    0 -0.00000000000E+00 -0.00000000000E+00 -0.28979856280E+03  0.28979856280E+03  0.00000000000E+00 0. -1.
         25    2    1    2    0    0 -0.25827124918E+02  0.14515025245E+02 -0.20620933051E+02  0.13007920271E+03  0.12497059557E+03 0.  0.
          2    1    1    2  501    0  0.80733230062E+02 -0.45379189928E+02 -0.20237965916E+03  0.22256381502E+03  0.00000000000E+00 0. -1.
          1    1    1    2  502    0 -0.54906105144E+02  0.30864164683E+02  0.49976364100E+03  0.50371715665E+03  0.00000000000E+00 0. -1.
         22    1    3    3    0    0 -0.18900625975E+02 -0.25851978658E+02 -0.63292144640E+02  0.70932743046E+02  0.00000000000E+00 0. -1.
         22    1    3    3    0    0 -0.69264989427E+01  0.40367003904E+02  0.42671211590E+02  0.59146459660E+02  0.00000000000E+00 0. -1.
</event>
<event>
 7    1  0.7029100E-006  0.1026260E+03  0.7818608E-02  0.1303173E+00
          2   -1    0    0  502    0  0.00000000000E+00  0.00000000000E+00  0.24868421613E+03  0.24868421613E+03  0.00000000000E+00 0. -1.
          1   -1    0    0  501    0 -0.00000000000E+00 -0.00000000000E+00 -0.22516429602E+03  0.22516429602E+03  0.00000000000E+00 0. -1.
         25    2    1    2    0    0  0.50041625331E+02 -0.53075847027E+02  0.39135137077E+02  0.14993462669E+03  0.12501049365E+03 0.  0.
          2    1    1    2  501    0  0.70856075573E+02  0.34239225763E+02 -0.13288223106E+03  0.15443637964E+03  0.00000000000E+00 0. -1.
          1    1    1    2  502    0 -0.12089770090E+03  0.18836621264E+02  0.11726701409E+03  0.16947750582E+03  0.00000000000E+00 0. -1.
         22    1    3    3    0    0 -0.38020600385E+00  0.23371385886E+02 -0.27933857728E+02  0.36423435346E+02  0.00000000000E+00 0.  1.
         22    1    3    3    0    0  0.50421831335E+02 -0.76447232913E+02  0.67068994805E+02  0.11351119134E+03  0.00000000000E+00 0.  1.
</event>
<event>
 7    1  0.7029100E-006  0.6225638E+02  0.7818608E-02  0.1531846E+00
          2   -1    0    0  502    0  0.00000000000E+00  0.00000000000E+00  0.16268179600E+02  0.16268179600E+02  0.00000000000E+00 0. -1.
          1   -1    0    0  501    0 -0.00000000000E+00 -0.00000000000E+00 -0.25224713491E+04  0.25224713491E+04  0.00000000000E+00 0. -1.
         25    2    1    2    0    0 -0.46389227920E+02 -0.16638498094E+01 -0.10755374348E+04  0.10837721744E+04  0.12500649351E+03 0.  0.
          2    1    1    2  501    0 -0.14587183301E+02 -0.16392808546E+02 -0.13589091973E+04  0.13590863536E+04  0.00000000000E+00 0. -1.
          1    1    1    2  502    0  0.60976411221E+02  0.18056658355E+02 -0.71756537375E+02  0.95881000685E+02  0.00000000000E+00 0. -1.
         22    1    3    3    0    0 -0.45859824507E+02  0.29899813062E+02 -0.10050346522E+04  0.10065246020E+04  0.00000000000E+00 0.  1.
         22    1    3    3    0    0 -0.52940341316E+00 -0.31563662872E+02 -0.70502782624E+02  0.77247572386E+02  0.00000000000E+00 0.  1.
</event>
<event>
 7    1  0.7029100E-006  0.1540943E+03  0.7818608E-02  0.1340665E+00
          2   -1    0    0  502    0  0.00000000000E+00  0.00000000000E+00  0.10013503778E+04  0.10013503778E+04  0.00000000000E+00 0. -1.
          1   -1    0    0  501    0 -0.00000000000E+00 -0.00000000000E+00 -0.11519942943E+04  0.11519942943E+04  0.00000000000E+00 0. -1.
         25    2    1    2    0    0  0.13581577773E+03 -0.31670560877E+02 -0.72448183588E+03  0.74829724716E+03  0.12500355870E+03 0.  0.
          2    1    1    2  501    0  0.20645927251E+01 -0.37471163399E+02 -0.40872855426E+03  0.41044778194E+03  0.00000000000E+00 0. -1.
          1    1    1    2  502    0 -0.13788037045E+03  0.69141724276E+02  0.98256647366E+03  0.99459964294E+03  0.00000000000E+00 0. -1.
         22    1    3    3    0    0 -0.21712443582E+02 -0.13940570804E+02 -0.62860583035E+02  0.67950148051E+02  0.00000000000E+00 0. -1.
         22    1    3    3    0    0  0.15752822131E+03 -0.17729990073E+02 -0.66162125284E+03  0.68034709911E+03  0.00000000000E+00 0. -1.
</event>
<event>
 7    1  0.7029100E-006  0.1000865E+03  0.7818608E-02  0.1394518E+00
          2   -1    0    0  502    0  0.00000000000E+00  0.00000000000E+00  0.28238433767E+03  0.28238433767E+03  0.00000000000E+00 0. -1.
          1   -1    0    0  501    0 -0.00000000000E+00 -0.00000000000E+00 -0.48497605804E+03  0.48497605804E+03  0.00000000000E+00 0. -1.
         25    2    1    2    0    0  0.12512250596E+02 -0.76794608200E+02 -0.25842760298E+03  0.29742915334E+03  0.12500122804E+03 0.  0.
          2    1    1    2  501    0  0.34761877235E+02 -0.12469306923E+02 -0.19555226588E+03  0.19900894556E+03  0.00000000000E+00 0. -1.
          1    1    1    2  502    0 -0.47274127831E+02  0.89263915123E+02  0.25138814849E+03  0.27092229680E+03  0.00000000000E+00 0. -1.
         22    1    3    3    0    0  0.39320839721E+02 -0.81098366917E+02 -0.91961726871E+02  0.12876347604E+03  0.00000000000E+00 0.  1.
         22    1    3    3    0    0 -0.26808589125E+02  0.43037587171E+01 -0.16646587611E+03  0.16866567730E+03  0.00000000000E+00 0.  1.
</event>
<event>
 7    1  0.7029100E-006  0.3604209E+03  0.7818608E-02  0.1216961E+00
          2   -1    0    0  502    0  0.00000000000E+00  0.00000000000E+00  0.18023069587E+04  0.18023069587E+04  0.00000000000E+00 0. -1.
          1   -1    0    0  501    0 -0.00000000000E+00 -0.00000000000E+00 -0.30745169346E+03  0.30745169346E+03  0.00000000000E+00 0. -1.
         25    2    1    2    0    0  0.38675384460E+02 -0.32682438697E+03  0.16988537398E+03  0.39088705657E+03  0.12498674098E+03 0.  0.
          2    1    1    2  501    0 -0.51245608733E+02  0.37762240346E+03 -0.11616946340E+02  0.38126073159E+03  0.00000000000E+00 0. -1.
          1    1    1    2  502    0  0.12570224272E+02 -0.50798016488E+02  0.13365868376E+04  0.13376108640E+04  0.00000000000E+00 0. -1.
         22    1    3    3    0    0 -0.16676864268E+02 -0.57585268588E+01  0.33154246906E+02  0.37556391218E+02  0.00000000000E+00 0.  1.
         22    1    3    3    0    0  0.55352248728E+02 -0.32106586011E+03  0.13673112707E+03  0.35333066535E+03  0.00000000000E+00 0.  1.
</event>
<event>
 7    1  0.7029100E-006  0.1082215E+03  0.7818608E-02  0.1342918E+00
          2   -1    0    0  502    0  0.00000000000E+00  0.00000000000E+00  0.12371100199E+04  0.12371100199E+04  0.00000000000E+00 0. -1.
          1   -1    0    0  501    0 -0.00000000000E+00 -0.00000000000E+00 -0.64340109583E+03  0.64340109583E+03  0.00000000000E+00 0. -1.
         25    2    1    2    0    0 -0.33527387509E+02  0.49545622571E+02  0.10051595708E+03  0.17119960484E+03  0.12500797031E+03 0.  0.
          2    1    1    2  501    0 -0.25780468414E+02  0.45625409211E+02 -0.60406717444E+03  0.60633609636E+03  0.00000000000E+00 0. -1.
          1    1    1    2  502    0  0.59307855923E+02 -0.95171031782E+02  0.10972601414E+04  0.11029754145E+04  0.00000000000E+00 0. -1.
         22    1    3    3    0    0  0.37499000505E+02 -0.64864354676E+01  0.29877761544E+01  0.38172970677E+02  0.00000000000E+00 0.  1.
         22    1    3    3    0    0 -0.71026388015E+02  0.56032058039E+02  0.97528180922E+02  0.13302663416E+03  0.00000000000E+00 0.  1.
</event>
<event>
 7    1  0.7029100E-006  0.6602379E+02  0.7818608E-02  0.1420490E+00
          2   -1    0    0  502    0  0.00000000000E+00  0.00000000000E+00  0.32825342974E+03  0.32825342974E+03  0.00000000000E+00 0. -1.
          1   -1    0    0  501    0 -0.00000000000E+00 -0.00000000000E+00 -0.29119555246E+04  0.29119555246E+04  0.00000000000E+00 0. -1.
         25    2    1    2    0    0 -0.45518954085E+01  0.74158531645E+02 -0.22565291726E+03  0.26844827773E+03  0.12500012472E+03 0.  0.
          2    1    1    2  501    0 -0.36878103591E+02 -0.54919574192E+02 -0.26627918801E+04  0.26636134763E+04  0.00000000000E+00 0. -1.
          1    1    1    2  502    0  0.41429999000E+02 -0.19238957453E+02  0.30474270255E+03  0.30814720030E+03  0.00000000000E+00 0. -1.
         22    1    3    3    0    0  0.39042851246E+02  0.31120150910E+02 -0.19863353096E+02  0.53734168109E+02  0.00000000000E+00 0.  1.
         22    1    3    3    0    0 -0.43594746655E+02  0.43038380735E+02 -0.20578956416E+03  0.21471410962E+03  0.00000000000E+00 0.  1.
</event>
<event>
 7    1  0.7029100E-006  0.5263841E+02  0.7818608E-02  0.1444799E+00
          2   -1    0    0  502    0  0.00000000000E+00  0.00000000000E+00  0.76542864316E+02  0.76542864316E+02  0.00000000000E+00 0. -1.
          1   -1    0    0  501    0 -0.00000000000E+00 -0.00000000000E+00 -0.64422303482E+03  0.64422303482E+03  0.00000000000E+00 0. -1.
         25    2    1    2    0    0 -0.12810578119E+02  0.52542367508E+02 -0.23338958696E+03  0.27022250433E+03  0.12499876498E+03 0.  0.
          2    1    1    2  501    0 -0.36251569790E+02 -0.30979385823E+02 -0.37824079126E+03  0.38123482899E+03  0.00000000000E+00 0. -1.
          1    1    1    2  502    0  0.49062147909E+02 -0.21562981685E+02  0.43950207725E+02  0.69308565818E+02  0.00000000000E+00 0. -1.
         22    1    3    3    0    0 -0.49887262754E+02  0.14865553403E+02 -0.20231582937E+03  0.20890528590E+03  0.00000000000E+00 0. -1.
         22    1    3    3    0    0  0.37076684634E+02  0.37676814106E+02 -0.31073757588E+02  0.61317218424E+02  0.00000000000E+00 0. -1.
</event>
<event>
 7    1  0.7029100E-006  0.9773280E+02  0.7818608E-02  0.1414015E+00
          2   -1    0    0  502    0  0.00000000000E+00  0.00000000000E+00  0.14466605349E+04  0.14466605349E+04  0.00000000000E+00 0. -1.
          1   -1    0    0  501    0 -0.00000000000E+00 -0.00000000000E+00 -0.48726016312E+02  0.48726016312E+02  0.00000000000E+00 0. -1.
         25    2    1    2    0    0 -0.68503881509E+02 -0.19751898025E+02  0.42983411800E+03  0.45328185439E+03  0.12499660502E+03 0.  0.
          2    1    1    2  501    0  0.93931556924E+02  0.39897216870E+02  0.34186205269E+02  0.10762723601E+03  0.00000000000E+00 0. -1.
          1    1    1    2  502    0 -0.25427675415E+02 -0.20145318846E+02  0.93391419529E+03  0.93447746078E+03  0.00000000000E+00 0. -1.
         22    1    3    3    0    0  0.91260770429E+01  0.22250123542E+02  0.26685832182E+03  0.26793976413E+03  0.00000000000E+00 0. -1.
         22    1    3    3    0    0 -0.77629958552E+02 -0.42002021566E+02  0.16297579618E+03  0.18534209026E+03  0.00000000000E+00 0. -1.
</event>
<event>
 7    1  0.7029100E-006  0.3177801E+03  0.7818608E-02  0.1244215E+00
          2   -1    0    0  502    0  0.00000000000E+00  0.00000000000E+00  0.23344244715E+04  0.23344244715E+04  0.00000000000E+00 0. -1.
          1   -1    0    0  501    0 -0.00000000000E+00 -0.00000000000E+00 -0.78688076423E+03  0.78688076423E+03  0.00000000000E+00 0. -1.
         25    2    1    2    0    0  0.28755218996E+03  0.23229194807E+02  0.11977570694E+03  0.33644783776E+03  0.12500028047E+03 0.  0.
          2    1    1    2  501    0 -0.32287225154E+03  0.43397881722E+01 -0.63987319298E+03  0.71673079163E+03  0.00000000000E+00 0. -1.
          1    1    1    2  502    0  0.35320061575E+02 -0.27568982979E+02  0.20676411933E+04  0.20681266064E+04  0.00000000000E+00 0. -1.
         22    1    3    3    0    0  0.27923231474E+03 -0.43729125621E+01  0.86359222421E+02  0.29231442534E+03  0.00000000000E+00 0. -1.
         22    1    3    3    0    0  0.83198752189E+01  0.27602107369E+02  0.33416484515E+02  0.44133412424E+02  0.00000000000E+00 0. -1.
</event>
<event>
 7    1  0.7029100E-006  0.6587486E+02  0.7818608E-02  0.1522841E+00
          2   -1    0    0  502    0  0.00000000000E+00  0.00000000000E+00  0.13278450126E+03  0.13278450126E+03  0.00000000000E+00 0. -1.
          1   -1    0    0  501    0 -0.00000000000E+00 -0.00000000000E+00 -0.18272013762E+03  0.18272013762E+03  0.00000000000E+00 0. -1.
         25    2    1    2    0    0 -0.12726507154E+02  0.69042535416E+02 -0.89582917171E+02  0.16904130217E+03  0.12498410743E+03 0.  0.
          2    1    1    2  501    0  0.21667058100E+02 -0.38810439261E+01 -0.38483586321E+02  0.44334076339E+02  0.00000000000E+00 0. -1.
          1    1    1    2  502    0 -0.89405509460E+01 -0.65161491490E+02  0.78130867128E+02  0.10212926036E+03  0.00000000000E+00 0. -1.
         22    1    3    3    0    0  0.34854964108E+02 -0.21097376473E+02 -0.18317223921E+02  0.44670891072E+02  0.00000000000E+00 0. -1.
         22    1    3    3    0    0 -0.47581471263E+02  0.90139911889E+02 -0.71265693250E+02  0.12437041110E+03  0.00000000000E+00 0. -1.
</event>
<event>
 7    1  0.7029100E-006  0.6200779E+02  0.7818608E-02  0.1409892E+00
          2   -1    0    0  502    0  0.00000000000E+00  0.00000000000E+00  0.31610470698E+03  0.31610470698E+03  0.00000000000E+00 0. -1.
          1   -1    0    0  501    0 -0.00000000000E+00 -0.00000000000E+00 -0.62595628607E+02  0.62595628607E+02  0.00000000000E+00 0. -1.
         25    2    1    2    0    0 -0.22860110856E+02 -0.13319859860E+02  0.16343735910E+03  0.20745287516E+03  0.12499968691E+03 0.  0.
          2    1    1    2  501    0 -0.60768935341E+02  0.12332997669E+02  0.38928038706E+02  0.73214469413E+02  0.00000000000E+00 0. -1.
          1    1    1    2  502    0  0.83629046197E+02  0.98686219130E+00  0.51143680565E+02  0.98032991011E+02  0.00000000000E+00 0. -1.
         22    1    3    3    0    0 -0.20270839576E+02  0.55281178178E+02  0.81799959757E+02  0.10078764316E+03  0.00000000000E+00 0.  1.
         22    1    3    3    0    0 -0.25892712797E+01 -0.68601038038E+02  0.81637399344E+02  0.10666523200E+03  0.00000000000E+00 0.  1.
</event>
<event>
 7    1  0.1860537E-005  0.4891990E+02  0.7818608E-02  0.1493229E+00
          2   -1    0    0  502    0  0.00000000000E+00  0.00000000000E+00  0.23319907666E+04  0.23319907666E+04  0.00000000000E+00 0. -1.
          1   -1    0    0  501    0 -0.00000000000E+00 -0.00000000000E+00 -0.15421482100E+04  0.15421482100E+04  0.00000000000E+00 0. -1.
         25    2    1    2    0    0  0.16450363492E+02 -0.26816983786E+02 -0.23714102997E+03  0.26990821476E+03  0.12499924490E+03 0.  0.
          2    1    1    2  501    0 -0.48660232224E+02  0.10187462629E+02 -0.12880021358E+04  0.12889612502E+04  0.00000000000E+00 0. -1.
          1    1    1    2  502    0  0.32209868732E+02  0.16629521157E+02  0.23149857224E+04  0.23152695117E+04  0.00000000000E+00 0. -1.
         22    1    3    3    0    0 -0.31580631220E+02 -0.61282586236E+02 -0.11222021102E+03  0.13170522923E+03  0.00000000000E+00 0.  1.
         22    1    3    3    0    0  0.48030994712E+02  0.34465602450E+02 -0.12492081894E+03  0.13820298554E+03  0.00000000000E+00 0.  1.
</event>
<event>
 7    1  0.7029100E-006  0.7224102E+02  0.7818608E-02  0.1516203E+00
          2   -1    0    0  502    0  0.00000000000E+00  0.00000000000E+00  0.11980848233E+03  0.11980848233E+03  0.00000000000E+00 0. -1.
          1   -1    0    0  501    0 -0.00000000000E+00 -0.00000000000E+00 -0.67182504885E+03  0.67182504885E+03  0.00000000000E+00 0. -1.
         25    2    1    2    0    0 -0.13781814108E+02  0.68699983082E+02 -0.30743578979E+03  0.33919384026E+03  0.12500428132E+03 0.  0.
          2    1    1    2  501    0  0.20705130747E+02  0.34078231500E+01 -0.33551986727E+03  0.33617539623E+03  0.00000000000E+00 0. -1.
          1    1    1    2  502    0 -0.69233166393E+01 -0.72107806232E+02  0.90939090533E+02  0.11626429469E+03  0.00000000000E+00 0. -1.
         22    1    3    3    0    0 -0.23421164501E+02  0.58651731061E+02 -0.47850552078E+02  0.79235420345E+02  0.00000000000E+00 0.  1.
         22    1    3    3    0    0  0.96393503929E+01  0.10048252021E+02 -0.25958523772E+03  0.25995841991E+03  0.00000000000E+00 0.  1.
</event>
<event>
 7    1  0.7029100E-006  0.3486548E+02  0.7818608E-02  0.1582752E+00
          2   -1    0    0  502    0  0.00000000000E+00  0.00000000000E+00  0.37554900471E+03  0.37554900471E+03  0.00000000000E+00 0. -1.
          1   -1    0    0  501    0 -0.00000000000E+00 -0.00000000000E+00 -0.14076400276E+04  0.14076400276E+04  0.00000000000E+00 0. -1.
         25    2    1    2    0    0 -0.25742980659E+02 -0.55434362251E+02 -0.60886415508E+03  0.62456067714E+03  0.12499924206E+03 0.  0.
          2    1    1    2  501    0  0.18662743697E+02  0.21329044710E+02 -0.78984796305E+03  0.79035626833E+03  0.00000000000E+00 0. -1.
          1    1    1    2  502    0  0.70802369618E+01  0.34105317541E+02  0.36662109526E+03  0.36827208682E+03  0.00000000000E+00 0. -1.
         22    1    3    3    0    0 -0.18011931556E+02  0.20814036102E+02 -0.41770093726E+03  0.41860688810E+03  0.00000000000E+00 0.  1.
         22    1    3    3    0    0 -0.77310491034E+01 -0.76248398354E+02 -0.19116321782E+03  0.20595378904E+03  0.00000000000E+00 0.  1.
</event>
<event>
 7    1  0.7029100E-006  0.1338793E+03  0.7818608E-02  0.1227066E+00
          2   -1    0    0  502    0  0.00000000000E+00  0.00000000000E+00  0.11588068031E+04  0.11588068031E+04  0.00000000000E+00 0. -1.
          1   -1    0    0  501    0 -0.00000000000E+00 -0.00000000000E+00 -0.19753334402E+03  0.19753334402E+03  0.00000000000E+00 0. -1.
         25    2    1    2    0    0  0.33592281461E+02  0.41703161257E+02  0.29580328380E+03  0.32556413340E+03  0.12499930888E+03 0.  0.
          2    1    1    2  501    0  0.82415947832E+02 -0.10852945377E+03 -0.15100067913E+03  0.20340166148E+03  0.00000000000E+00 0. -1.
          1    1    1    2  502    0 -0.11600822929E+03  0.66826292514E+02  0.81647085437E+03  0.82737435220E+03  0.00000000000E+00 0. -1.
         22    1    3    3    0    0  0.44870776521E+02  0.53644503106E+02  0.30045933532E+03  0.30849137991E+03  0.00000000000E+00 0.  1.
         22    1    3    3    0    0 -0.11278495060E+02 -0.11941341848E+02 -0.46560515218E+01  0.17072753490E+02  0.00000000000E+00 0.  1.
</event>
<event>
 7    1  0.7029100E-006  0.9138098E+02  0.7818608E-02  0.1436495E+00
          2   -1    0    0  502    0  0.00000000000E+00  0.00000000000E+00  0.63438784808E+03  0.63438784808E+03  0.00000000000E+00 0. -1.
          1   -1    0    0  501    0 -0.00000000000E+00 -0.00000000000E+00 -0.22015523320E+04  0.22015523320E+04  0.00000000000E+00 0. -1.
         25    2    1    2    0    0  0.11448587884E+03 -0.22570335521E+02  0.21626123201E+03  0.27569918890E+03  0.12499874314E+03 0.  0.
          2    1    1    2  501    0 -0.86218880486E+02  0.29992776189E+02 -0.21703227511E+04  0.21722417236E+04  0.00000000000E+00 0. -1.
          1    1    1    2  502    0 -0.28266998350E+02 -0.74224406677E+01  0.38689703515E+03  0.38799926756E+03  0.00000000000E+00 0. -1.
         22    1    3    3    0    0  0.75356944904E+02 -0.26631294975E+02  0.30064110543E+02  0.85391719505E+02  0.00000000000E+00 0.  1.
         22    1    3    3    0    0  0.39128933933E+02  0.40609594542E+01  0.18619712147E+03  0.19030746939E+03  0.00000000000E+00 0.  1.
</event>
<event>
 7    1  0.7029100E-006  0.1407115E+03  0.7818608E-02  0.1402785E+00
          2   -1    0    0  502    0  0.00000000000E+00  0.00000000000E+00  0.50908006712E+03  0.50908006712E+03  0.00000000000E+00 0. -1.
          1   -1    0    0  501    0 -0.00000000000E+00 -0.00000000000E+00 -0.15751595217E+04  0.15751595217E+04  0.00000000000E+00 0. -1.
         25    2    1    2    0    0  0.12584485573E+03  0.64667482124E+02 -0.37649746569E+03  0.42118325642E+03  0.12500473135E+03 0.  0.
          2    1    1    2  501    0 -0.13727659838E+02  0.20414336184E+02 -0.11660122298E+04  0.11662717152E+04  0.00000000000E+00 0. -1.
          1    1    1    2  502    0 -0.11211719590E+03 -0.85081818308E+02  0.47643024089E+03  0.49678461717E+03  0.00000000000E+00 0. -1.
         22    1    3    3    0    0 -0.58907870048E+01  0.39986323713E+02 -0.32063833609E+02  0.51591635769E+02  0.00000000000E+00 0.  1.
         22    1    3    3    0    0  0.13173564274E+03  0.24681158410E+02 -0.34443363208E+03  0.36959162065E+03  0.00000000000E+00 0.  1.
</event>
<event>
 7    1  0.7029100E-006  0.4487274E+02  0.7818608E-02  0.1532382E+00
          2   -1    0    0  502    0  0.00000000000E+00  0.00000000000E+00  0.11359513442E+04  0.11359513442E+04  0.00000000000E+00 0. -1.
          1   -1    0    0  501    0 -0.00000000000E+00 -0.00000000000E+00 -0.48324076985E+03  0.48324076985E+03  0.00000000000E+00 0. -1.
         25    2    1    2    0    0  0.68825123548E+02 -0.78072658700E+01 -0.32963537165E+02  0.14665986149E+03  0.12499867663E+03 0.  0.
          2    1    1    2  501    0 -0.40405895421E+02  0.18422239624E+02 -0.39196183123E+03  0.39446938087E+03  0.00000000000E+00 0. -1.
          1    1    1    2  502    0 -0.28419228127E+02 -0.10614973754E+02  0.10776359427E+04  0.10780628717E+04  0.00000000000E+00 0. -1.
         22    1    3    3    0    0  0.36647108666E+02 -0.47485625641E+02 -0.63332193479E+02  0.87228790815E+02  0.00000000000E+00 0. -1.
         22    1    3    3    0    0  0.32178014882E+02  0.39678359771E+02  0.30368656314E+02  0.59431070680E+02  0.00000000000E+00 0. -1.
</event>
<event>
 7    1  0.7029100E-006  0.3787720E+02  0.7818608E-02  0.1529585E+00
          2   -1    0    0  502    0  0.00000000000E+00  0.00000000000E+00  0.12184188184E+04  0.12184188184E+04  0.00000000000E+00 0. -1.
          1   -1    0    0  501    0 -0.00000000000E+00 -0.00000000000E+00 -0.18270196542E+04  0.18270196542E+04  0.00000000000E+00 0. -1.
         25    2    1    2    0    0  0.32918984996E+02 -0.48986572157E+02 -0.18514420975E+03  0.23107889846E+03  0.12504293297E+03 0.  0.
          2    1    1    2  501    0  0.28262016672E+01  0.36498959515E+02 -0.16184012400E+04  0.16188152257E+04  0.00000000000E+00 0. -1.
          1    1    1    2  502    0 -0.35745186663E+02  0.12487612642E+02  0.11949446139E+04  0.11955443485E+04  0.00000000000E+00 0. -1.
         22    1    3    3    0    0  0.12188567905E+02  0.40923949571E+02 -0.83608709632E+02  0.93881559224E+02  0.00000000000E+00 0.  1.
         22    1    3    3    0    0  0.20730417091E+02 -0.89910521729E+02 -0.10153550011E+03  0.13719733924E+03  0.00000000000E+00 0.  1.
</event>
<event>
 7    1  0.7029100E-006  0.4511164E+02  0.7818608E-02  0.1585622E+00
          2   -1    0    0  502    0  0.00000000000E+00  0.00000000000E+00  0.21469729194E+04  0.21469729194E+04  0.00000000000E+00 0. -1.
          1   -1    0    0  501    0 -0.00000000000E+00 -0.00000000000E+00 -0.54645610531E+02  0.54645610531E+02  0.00000000000E+00 0. -1.
         25    2    1    2    0    0 -0.17975576933E+02 -0.49299986782E+02  0.67848572358E+03  0.69189736366E+03  0.12500189869E+03 0.  0.
          2    1    1    2  501    0 -0.13247698077E+02  0.16960983599E+02 -0.45160649667E+02  0.50026600398E+02  0.00000000000E+00 0. -1.
          1    1    1    2  502    0  0.31223275010E+02  0.32339003183E+02  0.14590022349E+04  0.14596945658E+04  0.00000000000E+00 0. -1.
         22    1    3    3    0    0  0.46799767096E+02 -0.34808640389E+02  0.45618659809E+03  0.45990006733E+03  0.00000000000E+00 0. -1.
         22    1    3    3    0    0 -0.64775344029E+02 -0.14491346392E+02  0.22229912549E+03  0.23199729634E+03  0.00000000000E+00 0. -1.
</event>
<event>
 7    1  0.7029100E-006  0.7336579E+02  0.7818608E-02  0.1367584E+00
          2   -1    0    0  502    0  0.00000000000E+00  0.00000000000E+00  0.14716838508E+04  0.14716838508E+04  0.00000000000E+00 0. -1.
          1   -1    0    0  501    0 -0.00000000000E+00 -0.00000000000E+00 -0.15502930461E+04  0.15502930461E+04  0.00000000000E+00 0. -1.
         25    2    1    2    0    0  0.88347055730E+02  0.52548528088E+02  0.29185645419E+03  0.33372401010E+03  0.12499990002E+03 0.  0.
          2    1    1    2  501    0 -0.27536748186E+02 -0.67975915605E+02 -0.15276297813E+04  0.15293893377E+04  0.00000000000E+00 0. -1.
          1    1    1    2  502    0 -0.60810307545E+02  0.15427387517E+02  0.11571641318E+04  0.11588635492E+04  0.00000000000E+00 0. -1.
         22    1    3    3    0    0 -0.92043057086E+01 -0.42244438138E+01 -0.82703984349E+01  0.13075345479E+02  0.00000000000E+00 0. -1.
         22    1    3    3    0    0  0.97551361439E+02  0.56772971902E+02  0.30012685263E+03  0.32064866462E+03  0.00000000000E+00 0. -1.
</event>
<event>
 7    1  0.7029100E-006  0.2463035E+03  0.7818608E-02  0.1267950E+00
          2   -1    0    0  502    0  0.00000000000E+00  0.00000000000E+00  0.16349616264E+04  0.16349616264E+04  0.00000000000E+00 0. -1.
          1   -1    0    0  501    0 -0.00000000000E+00 -0.00000000000E+00 -0.35731729148E+03  0.35731729148E+03  0.00000000000E+00 0. -1.
         25    2    1    2    0    0  0.65672303098E+02 -0.26136997544E+03  0.54939878672E+03  0.62457279474E+03  0.12500013452E+03 0.  0.
          2    1    1    2  501    0 -0.38669328783E+02  0.24378529133E+02 -0.30442931411E+03  0.30784222738E+03  0.00000000000E+00 0. -1.
          1    1    1    2  502    0 -0.27002974316E+02  0.23699144631E+03  0.10326748623E+04  0.10598638957E+04  0.00000000000E+00 0. -1.
         22    1    3    3    0    0  0.62968423075E+02 -0.13483699024E+03  0.17695338733E+03  0.23121102380E+03  0.00000000000E+00 0. -1.
         22    1    3    3    0    0  0.27038800237E+01 -0.12653298520E+03  0.37244539939E+03  0.39336177094E+03  0.00000000000E+00 0. -1.
</event>
<event>
 7    1  0.7029100E-006  0.8712317E+02  0.7818608E-02  0.1315550E+00
          2   -1    0    0  502    0  0.00000000000E+00  0.00000000000E+00  0.13532427722E+04  0.13532427722E+04  0.00000000000E+00 0. -1.
          1   -1    0    0  501    0 -0.00000000000E+00 -0.00000000000E+00 -0.21182560204E+02  0.21182560204E+02  0.00000000000E+00 0. -1.
         25    2    1    2    0    0 -0.42024423909E+02  0.20111114115E+02  0.37719709962E+03  0.40009143357E+03  0.12499997656E+03 0.  0.
          2    1    1    2  501    0 -0.52337954751E+02 -0.69650448429E+02  0.41301007515E+03  0.42209924028E+03  0.00000000000E+00 0. -1.
          1    1    1    2  502    0  0.94362378660E+02  0.49539334314E+02  0.54185303726E+03  0.55223465858E+03  0.00000000000E+00 0. -1.
         22    1    3    3    0    0 -0.25335648291E+02  0.73199213811E+02  0.20634838358E+03  0.22040797486E+03  0.00000000000E+00 0.  1.
         22    1    3    3    0    0 -0.16688775618E+02 -0.53088099696E+02  0.17084871604E+03  0.17968345871E+03  0.00000000000E+00 0.  1.
</event>
<event>
 7    1  0.7029100E-006  0.1177404E+03  0.7818608E-02  0.1349742E+00
          2   -1    0    0  502    0  0.00000000000E+00  0.00000000000E+00  0.33512918821E+03  0.33512918821E+03  0.00000000000E+00 0. -1.
          1   -1    0    0  501    0 -0.00000000000E+00 -0.00000000000E+00 -0.74001820055E+03  0.74001820055E+03  0.00000000000E+00 0. -1.
         25    2    1    2    0    0  0.11252786102E+03  0.98507354725E+02 -0.14738270554E+03  0.24436266686E+03  0.12500093049E+03 0.  0.
          2    1    1    2  501    0 -0.67560433311E+02 -0.92043908021E+02 -0.53629718895E+03  0.54831666766E+03  0.00000000000E+00 0. -1.
          1    1    1    2  502    0 -0.44967427705E+02 -0.64634467040E+01  0.27879088215E+03  0.28246805424E+03  0.00000000000E+00 0. -1.
         22    1    3    3    0    0  0.53906113137E+02 -0.43939764177E+01 -0.10584264207E+03  0.11886059457E+03  0.00000000000E+00 0.  1.
         22    1    3    3    0    0  0.58621747879E+02  0.10290133114E+03 -0.41540063469E+02  0.12550207229E+03  0.00000000000E+00 0.  1.
</event>
<event>
 7    1  0.7029100E-006  0.1277045E+03  0.7818608E-02  0.1283927E+00
          2   -1    0    0  502    0  0.00000000000E+00  0.00000000000E+00  0.77350684773E+02  0.77350684773E+02  0.00000000000E+00 0. -1.
          1   -1    0    0  501    0 -0.00000000000E+00 -0.00000000000E+00 -0.88363406725E+03  0.88363406725E+03  0.00000000000E+00 0. -1.
         25    2    1    2    0    0 -0.65698213627E+02  0.18262355351E+02 -0.14953764217E+03  0.20648620785E+03  0.12500111483E+03 0.  0.
          2    1    1    2  501    0  0.13930591955E+03 -0.35743153573E+02 -0.66315672584E+03  0.67857243923E+03  0.00000000000E+00 0. -1.
          1    1    1    2  502    0 -0.73607705919E+02  0.17480798222E+02  0.64109855364E+01  0.75926104949E+02  0.00000000000E+00 0. -1.
         22    1    3    3    0    0  0.38761458764E+01  0.18703189637E+02 -0.13379518010E+03  0.13515170745E+03  0.00000000000E+00 0. -1.
         22    1    3    3    0    0 -0.69574359503E+02 -0.44083428622E+00 -0.15742462077E+02  0.71334500400E+02  0.00000000000E+00 0. -1.
</event>
<event>
 7    1  0.7029100E-006  0.3382921E+03  0.7818608E-02  0.1231098E+00
          2   -1    0    0  502    0  0.00000000000E+00  0.00000000000E+00  0.53442351657E+03  0.53442351657E+03  0.00000000000E+00 0. -1.
          1   -1    0    0  501    0 -0.00000000000E+00 -0.00000000000E+00 -0.21705294059E+04  0.21705294059E+04  0.00000000000E+00 0. -1.
         25    2    1    2    0    0 -0.16817317953E+03  0.25636920188E+03 -0.10733859821E+04  0.11232945996E+04  0.12500361956E+03 0.  0.
          2    1    1    2  501    0  0.13183452073E+02  0.46269542303E+02 -0.10148240823E+04  0.10159638734E+04  0.00000000000E+00 0. -1.
          1    1    1    2  502    0  0.15498972746E+03 -0.30263874419E+03  0.45210417508E+03  0.56569444953E+03  0.00000000000E+00 0. -1.
         22    1    3    3    0    0 -0.16171550660E+03  0.23673625468E+03 -0.81263738725E+03  0.86172819527E+03  0.00000000000E+00 0.  1.
         22    1    3    3    0    0 -0.64576729355E+01  0.19632947208E+02 -0.26074859483E+03  0.26156640431E+03  0.00000000000E+00 0.  1.
</event>
<event>
 7    1  0.7029100E-006  0.5255337E+02  0.7818608E-02  0.1536083E+00
          2   -1    0    0  502    0  0.00000000000E+00  0.00000000000E+00  0.49190932569E+03  0.49190932569E+03  0.00000000000E+00 0. -1.
          1   -1    0    0  501    0 -0.00000000000E+00 -0.00000000000E+00 -0.14645176110E+04  0.14645176110E+04  0.00000000000E+00 0. -1.
         25    2    1    2    0    0  0.37911216928E+02 -0.52664084189E+02 -0.11854350324E+04  0.11937720736E+04  0.12499912590E+03 0.  0.
          2    1    1    2  501    0  0.64179040860E+01  0.24453798792E+02 -0.27291295461E+03  0.27408148161E+03  0.00000000000E+00 0. -1.
          1    1    1    2  502    0 -0.44329121014E+02  0.28210285398E+02  0.48573970177E+03  0.48857338143E+03  0.00000000000E+00 0. -1.
         22    1    3    3    0    0  0.71737191125E+02 -0.46175355268E+02 -0.48183299136E+03  0.48932751771E+03  0.00000000000E+00 0.  1.
         22    1    3    3    0    0 -0.33825974197E+02 -0.64887289210E+01 -0.70360204107E+03  0.70444455590E+03  0.00000000000E+00 0.  1.
</event>
<event>
 7    1  0.7029100E-006  0.3376851E+02  0.7818608E-02  0.1633431E+00
          2   -1    0    0  502    0  0.00000000000E+00  0.00000000000E+00  0.17718365954E+03  0.17718365954E+03  0.00000000000E+00 0. -1.
          1   -1    0    0  501    0 -0.00000000000E+00 -0.00000000000E+00 -0.16391595192E+03  0.16391595192E+03  0.00000000000E+00 0. -1.
         25    2    1    2    0    0  0.23662765912E+02 -0.49507113562E+01  0.22031848657E+02  0.12920821699E+03  0.12499969980E+03 0.  0.
          2    1    1    2  501    0 -0.30564616968E+02 -0.15557273904E+02 -0.10644964291E+03  0.11183805729E+03  0.00000000000E+00 0. -1.
          1    1    1    2  502    0  0.69018510552E+01  0.20507985260E+02  0.97685501873E+02  0.10005333719E+03  0.00000000000E+00 0. -1.
         22    1    3    3    0    0  0.35366607503E+02  0.55438492204E+02  0.13085761759E+02  0.67048195389E+02  0.00000000000E+00 0. -1.
         22    1    3    3    0    0 -0.11703841591E+02 -0.60389203560E+02  0.89460868986E+01  0.62160021601E+02  0.00000000000E+00 0. -1.
</event>
<event>
 7    1  0.7029100E-006  0.4254808E+02  0.7818608E-02  0.1532123E+00
          2   -1    0    0  502    0  0.00000000000E+00  0.00000000000E+00  0.19182674574E+03  0.19182674574E+03  0.00000000000E+00 0. -1.
          1   -1    0    0  501    0 -0.00000000000E+00 -0.00000000000E+00 -0.66870349955E+03  0.66870349955E+03  0.00000000000E+00 0. -1.
         25    2    1    2    0    0 -0.13087658565E+02  0.26320010058E+02 -0.33063071538E+02  0.13260452255E+03  0.12500705166E+03 0.  0.
          2    1    1    2  501    0 -0.28674091291E+02 -0.14315510756E+02 -0.58209565554E+03  0.58297726333E+03  0.00000000000E+00 0. -1.
          1    1    1    2  502    0  0.41761749856E+02 -0.12004499302E+02  0.13828197327E+03  0.14494845941E+03  0.00000000000E+00 0. -1.
         22    1    3    3    0    0 -0.65096103272E+02  0.30858794923E+01  0.29100387433E+01  0.65234144732E+02  0.00000000000E+00 0. -1.
         22    1    3    3    0    0  0.52008444707E+02  0.23234130566E+02 -0.35973110282E+02  0.67370377818E+02  0.00000000000E+00 0. -1.
</event>
<event>
 7    1  0.7029100E-006  0.1093407E+03  0.7818608E-02  0.1302681E+00
          2   -1    0    0  502    0  0.00000000000E+00  0.00000000000E+00  0.11723674086E+04  0.11723674086E+04  0.00000000000E+00 0. -1.
          1   -1    0    0  501    0 -0.00000000000E+00 -0.00000000000E+00 -0.53020570502E+03  0.53020570502E+03  0.00000000000E+00 0. -1.
         25    2    1    2    0    0  0.48700698393E+02  0.56794961089E+02  0.10909595406E+03  0.18200057179E+03  0.12499942124E+03 0.  0.
          2    1    1    2  501    0  0.63561931868E+02 -0.38275082591E+02 -0.48778749151E+03  0.49339815363E+03  0.00000000000E+00 0. -1.
          1    1    1    2  502    0 -0.11226263026E+03 -0.18519878498E+02  0.10208532410E+04  0.10271743882E+04  0.00000000000E+00 0. -1.
         22    1    3    3    0    0  0.28395187016E+02  0.93450428263E+02  0.50470157642E+02  0.10993864653E+03  0.00000000000E+00 0. -1.
         22    1    3    3    0    0  0.20305511376E+02 -0.36655467174E+02  0.58625796421E+02  0.72061925259E+02  0.00000000000E+00 0. -1.
</event>
<event>
 7    1  0.7029100E-006  0.1208264E+03  0.7818608E-02  0.1326363E+00
          2   -1    0    0  502    0  0.00000000000E+00  0.00000000000E+00  0.14108173977E+04  0.14108173977E+04  0.00000000000E+00 0. -1.
          1   -1    0    0  501    0 -0.00000000000E+00 -0.00000000000E+00 -0.16629106678E+03  0.16629106678E+03  0.00000000000E+00 0. -1.
         25    2    1    2    0    0  0.54217089934E+02 -0.66070333168E+02  0.71015576317E+03  0.72612049975E+03  0.12499996172E+03 0.  0.
          2    1    1    2  501    0 -0.10778957913E+03  0.57583232571E+02 -0.13345987894E+03  0.18095845194E+03  0.00000000000E+00 0. -1.
          1    1    1    2  502    0  0.53572489196E+02  0.84871005973E+01  0.66783044674E+03  0.67002951283E+03  0.00000000000E+00 0. -1.
         22    1    3    3    0    0 -0.63124352915E+01  0.33272061187E+02  0.20200849800E+03  0.20482751319E+03  0.00000000000E+00 0. -1.
         22    1    3    3    0    0  0.60529525226E+02 -0.99342394355E+02  0.50814726517E+03  0.52129298656E+03  0.00000000000E+00 0. -1.
</event>
<event>
 7    1  0.7029100E-006  0.1075345E+03  0.7818608E-02  0.1364651E+00
          2   -1    0    0  502    0  0.00000000000E+00  0.00000000000E+00  0.24712688128E+03  0.24712688128E+03  0.00000000000E+00 0. -1.
          1   -1    0    0  501    0 -0.00000000000E+00 -0.00000000000E+00 -0.21546753634E+04  0.21546753634E+04  0.00000000000E+00 0. -1.
         25    2    1    2    0    0 -0.88640487103E+02  0.43578065051E+02 -0.66187313490E+00  0.15931608326E+03  0.12499997040E+03 0.  0.
          2    1    1    2  501    0 -0.22291498812E+02 -0.37773614875E+02 -0.20560424294E+04  0.20565102062E+04  0.00000000000E+00 0. -1.
          1    1    1    2  502    0  0.11093198591E+03 -0.58044501760E+01  0.14915582042E+03  0.18597595518E+03  0.00000000000E+00 0. -1.
         22    1    3    3    0    0  0.19846016951E+02  0.44470148402E+02 -0.12232963341E+02  0.50210595295E+02  0.00000000000E+00 0.  1.
         22    1    3    3    0    0 -0.10848650405E+03 -0.89208335137E+00  0.11571090207E+02  0.10910548796E+03  0.00000000000E+00 0.  1.
</event>
<event>
 7    1  0.7029100E-006  0.6981877E+02  0.7818608E-02  0.1377035E+00
          2   -1    0    0  502    0  0.00000000000E+00  0.00000000000E+00  0.25077985096E+03  0.25077985096E+03  0.00000000000E+00 0. -1.
          1   -1    0    0  501    0 -0.00000000000E+00 -0.00000000000E+00 -0.22504940188E+03  0.22504940188E+03  0.00000000000E+00 0. -1.
         25    2    1    2    0    0 -0.38475494065E+01 -0.67571618143E+02  0.39362610029E+02  0.14749594650E+03  0.12499964780E+03 0.  0.
          2    1    1    2  501    0  0.58344405226E+02  0.17732361279E+02 -0.15625079732E+03  0.16772840523E+03  0.00000000000E+00 0. -1.
          1    1    1    2  502    0 -0.54496855820E+02  0.49839256864E+02  0.14261863638E+03  0.16060490111E+03  0.00000000000E+00 0. -1.
         22    1    3    3    0    0 -0.41875423170E+02 -0.87309764810E+02  0.39685908827E+02  0.10464949812E+03  0.00000000000E+00 0.  1.
         22    1    3    3    0    0  0.38027873764E+02  0.19738146666E+02 -0.32329879793E+00  0.42846448382E+02  0.00000000000E+00 0.  1.
</event>
<event>
 7    1  0.7029100E-006  0.2024079E+03  0.7818608E-02  0.1162261E+00
          2   -1    0    0  502    0  0.00000000000E+00  0.00000000000E+00  0.31982800860E+04  0.31982800860E+04  0.00000000000E+00 0. -1.
          1   -1    0    0  501    0 -0.00000000000E+00 -0.00000000000E+00 -0.84429257907E+03  0.84429257907E+03  0.00000000000E+00 0. -1.
         25    2    1    2    0    0  0.46101336204E+02  0.95965400799E+02  0.47120093346E+03  0.49898838007E+03  0.12499756957E+03 0.  0.
          2    1    1    2  501    0  0.10329676319E+03 -0.17842019956E+03 -0.81486510304E+03  0.84054097167E+03  0.00000000000E+00 0. -1.
          1    1    1    2  502    0 -0.14939809940E+03  0.82454798765E+02  0.26976516765E+04  0.27030433134E+04  0.00000000000E+00 0. -1.
         22    1    3    3    0    0  0.22629677020E+02 -0.26160976093E+02  0.58542687903E+02  0.67998126879E+02  0.00000000000E+00 0.  1.
         22    1    3    3    0    0  0.23471659184E+02  0.12212637689E+03  0.41265824556E+03  0.43099025319E+03  0.00000000000E+00 0.  1.
</event>
<event>
 7    1  0.7029100E-006  0.1216249E+03  0.7818608E-02  0.1308194E+00
          2   -1    0    0  502    0  0.00000000000E+00  0.00000000000E+00  0.19901986571E+03  0.19901986571E+03  0.00000000000E+00 0. -1.
          1   -1    0    0  501    0 -0.00000000000E+00 -0.00000000000E+00 -0.16129257284E+04  0.16129257284E+04  0.00000000000E+00 0. -1.
         25    2    1    2    0    0  0.27070435363E+02  0.15345565104E+03 -0.50723325384E+03  0.54515231928E+03  0.12499612838E+03 0.  0.
          2    1    1    2  501    0 -0.52589967436E+02 -0.35454613535E+02 -0.10654463635E+04  0.10673325104E+04  0.00000000000E+00 0. -1.
          1    1    1    2  502    0  0.25519532073E+02 -0.11800103750E+03  0.15877375466E+03  0.19946076440E+03  0.00000000000E+00 0. -1.
         22    1    3    3    0    0  0.34878441580E+02  0.28586093621E+02 -0.36323724818E+02  0.57905815081E+02  0.00000000000E+00 0. -1.
         22    1    3    3    0    0 -0.78080062169E+01  0.12486955741E+03 -0.47090952902E+03  0.48724650420E+03  0.00000000000E+00 0. -1.
</event>
<event>
 7    1  0.7029100E-006  0.4571490E+02  0.7818608E-02  0.1472843E+00
          2   -1    0    0  502    0  0.00000000000E+00  0.00000000000E+00  0.18002311277E+03  0.18002311277E+03  0.00000000000E+00 0. -1.
          1   -1    0    0  501    0 -0.00000000000E+00 -0.00000000000E+00 -0.30850869051E+04  0.30850869051E+04  0.00000000000E+00 0. -1.
         25    2    1    2    0    0 -0.13089639243E+02  0.19242510288E+02  0.50891730383E+02  0.13695732289E+03  0.12500290882E+03 0.  0.
          2    1    1    2  501    0  0.43801048521E+02  0.13335764454E+02 -0.30360493393E+04  0.30363945668E+04  0.00000000000E+00 0. -1.
          1    1    1    2  502    0 -0.30711409278E+02 -0.32578274742E+02  0.80093816565E+02  0.91758128234E+02  0.00000000000E+00 0. -1.
         22    1    3    3    0    0 -0.10038475887E+02 -0.52334716657E+02  0.34443592975E+02  0.63451199064E+02  0.00000000000E+00 0. -1.
         22    1    3    3    0    0 -0.30511633562E+01  0.71577226945E+02  0.16448137408E+02  0.73506123821E+02  0.00000000000E+00 0. -1.
</event>
<event>
 7    1  0.7029100E-006  0.9809680E+02  0.7818608E-02  0.1302899E+00
          2   -1    0    0  502    0  0.00000000000E+00  0.00000000000E+00  0.87890199712E+02  0.87890199712E+02  0.00000000000E+00 0. -1.
          1   -1    0    0  501    0 -0.00000000000E+00 -0.00000000000E+00 -0.16420902615E+04  0.16420902615E+04  0.00000000000E+00 0. -1.
         25    2    1    2    0    0 -0.15267118551E+03 -0.23327576447E+02 -0.65179782969E+03  0.68140912911E+03  0.12500129494E+03 0.  0.
          2    1    1    2  501    0  0.87438935480E+02 -0.27238256802E+02 -0.94925612046E+03  0.95366381513E+03  0.00000000000E+00 0. -1.
          1    1    1    2  502    0  0.65232250034E+02  0.50565833249E+02  0.46853888309E+02  0.94907517017E+02  0.00000000000E+00 0. -1.
         22    1    3    3    0    0  0.19471187239E+02 -0.13924966732E+02 -0.12002244790E+03  0.12238635475E+03  0.00000000000E+00 0. -1.
         22    1    3    3    0    0 -0.17214237275E+03 -0.94026097149E+01 -0.53177538179E+03  0.55902277435E+03  0.00000000000E+00 0. -1.
</event>
<event>
 7    1  0.7029100E-006  0.5996855E+02  0.7818608E-02  0.1536032E+00
          2   -1    0    0  502    0  0.00000000000E+00  0.00000000000E+00  0.12651067088E+04  0.12651067088E+04  0.00000000000E+00 0. -1.
          1   -1    0    0  501    0 -0.00000000000E+00 -0.00000000000E+00 -0.51053689929E+03  0.51053689929E+03  0.00000000000E+00 0. -1.
         25    2    1    2    0    0 -0.52598425540E+01 -0.40561942490E+02  0.89712725893E+03  0.90672382261E+03  0.12505132810E+03 0.  0.
          2    1    1    2  501    0 -0.58853114401E+01  0.59718985951E+02 -0.50361755933E+03  0.50718008659E+03  0.00000000000E+00 0. -1.
          1    1    1    2  502    0  0.11145153994E+02 -0.19157043461E+02  0.36106010992E+03  0.36173969888E+03  0.00000000000E+00 0. -1.
         22    1    3    3    0    0 -0.39051684485E+02 -0.39783123458E+02  0.82698893695E+03  0.82886575077E+03  0.00000000000E+00 0.  1.
         22    1    3    3    0    0  0.33791841931E+02 -0.77881903202E+00  0.70138321982E+02  0.77858071840E+02  0.00000000000E+00 0.  1.
</event>
<event>
 7    1  0.7029100E-006  0.2898024E+02  0.7818608E-02  0.1673297E+00
          2   -1    0    0  502    0  0.00000000000E+00  0.00000000000E+00  0.82966301184E+02  0.82966301184E+02  0.00000000000E+00 0. -1.
          1   -1    0    0  501    0 -0.00000000000E+00 -0.00000000000E+00 -0.83099984705E+03  0.83099984705E+03  0.00000000000E+00 0. -1.
         25    2    1    2    0    0  0.72251735952E+01 -0.10811017512E+02 -0.26053495487E+02  0.12834762028E+03  0.12500098308E+03 0.  0.
          2    1    1    2  501    0 -0.27352966862E+02  0.98786693607E+01 -0.75029921672E+03  0.75086262892E+03  0.00000000000E+00 0. -1.
          1    1    1    2  502    0  0.20127793267E+02  0.93234815135E+00  0.28319166341E+02  0.34755899027E+02  0.00000000000E+00 0. -1.
         22    1    3    3    0    0  0.51410959362E+01  0.28851236123E+02 -0.65878613389E+02  0.72102818221E+02  0.00000000000E+00 0.  1.
         22    1    3    3    0    0  0.20840776590E+01 -0.39662253635E+02  0.39825117902E+02  0.56244802062E+02  0.00000000000E+00 0.  1.
</event>
<event>
 7    1  0.7029100E-006  0.9214885E+02  0.7818608E-02  0.1329391E+00
          2   -1    0    0  502    0  0.00000000000E+00  0.00000000000E+00  0.20655005632E+04  0.20655005632E+04  0.00000000000E+00 0. -1.
          1   -1    0    0  501    0 -0.00000000000E+00 -0.00000000000E+00 -0.39532356441E+04  0.39532356441E+04  0.00000000000E+00 0. -1.
         25    2    1    2    0    0  0.74043515105E+02 -0.12760760084E+03 -0.28283201439E+04  0.28349224905E+04  0.12499819491E+03 0.  0.
          2    1    1    2  501    0 -0.58679042472E+02  0.36765653782E+02 -0.11195150134E+04  0.11216544961E+04  0.00000000000E+00 0. -1.
          1    1    1    2  502    0 -0.15364472634E+02  0.90841947063E+02  0.20601000764E+04  0.20621592206E+04  0.00000000000E+00 0. -1.
         22    1    3    3    0    0  0.45977586444E+02 -0.11152976056E+03 -0.11536750104E+04  0.11599650234E+04  0.00000000000E+00 0.  1.
         22    1    3    3    0    0  0.28065928661E+02 -0.16077840287E+02 -0.16746451336E+04  0.16749574671E+04  0.00000000000E+00 0.  1.
</event>
<event>
 7    1  0.7029100E-006  0.1275558E+03  0.7818608E-02  0.1281633E+00
          2   -1    0    0  502    0  0.00000000000E+00  0.00000000000E+00  0.63253393944E+03  0.63253393944E+03  0.00000000000E+00 0. -1.
          1   -1    0    0  501    0 -0.00000000000E+00 -0.00000000000E+00 -0.11423684518E+04  0.11423684518E+04  0.00000000000E+00 0. -1.
         25    2    1    2    0    0 -0.98903858953E+02 -0.32260720410E+00 -0.17650825851E+03  0.23782848567E+03  0.12500058353E+03 0.  0.
          2    1    1    2  501    0 -0.43411321311E+01 -0.77285333138E+02 -0.92663829086E+03  0.92986579152E+03  0.00000000000E+00 0. -1.
          1    1    1    2  502    0  0.10324499108E+03  0.77607940342E+02  0.59331203697E+03  0.60720811408E+03  0.00000000000E+00 0. -1.
         22    1    3    3    0    0 -0.12662858115E+03  0.14773854392E+02 -0.13504406469E+03  0.18571473755E+03  0.00000000000E+00 0.  1.
         22    1    3    3    0    0  0.27724722194E+02 -0.15096461596E+02 -0.41464193819E+02  0.52113748115E+02  0.00000000000E+00 0.  1.
</event>
<event>
 7    1  0.7029100E-006  0.1432259E+03  0.7818608E-02  0.1249347E+00
          2   -1    0    0  502    0  0.00000000000E+00  0.00000000000E+00  0.42211404487E+04  0.42211404487E+04  0.00000000000E+00 0. -1.
          1   -1    0    0  501    0 -0.00000000000E+00 -0.00000000000E+00 -0.82127130091E+03  0.82127130091E+03  0.00000000000E+00 0. -1.
         25    2    1    2    0    0  0.15553573025E+03  0.12718254942E+03  0.10355424941E+04  0.10622331951E+04  0.12499735785E+03 0.  0.
          2    1    1    2  501    0 -0.94372477142E+02 -0.29630672993E+01 -0.80365000225E+03  0.80917752708E+03  0.00000000000E+00 0. -1.
          1    1    1    2  502    0 -0.61163253107E+02 -0.12421948212E+03  0.31679766559E+04  0.31710010274E+04  0.00000000000E+00 0. -1.
         22    1    3    3    0    0  0.57945971934E+02  0.95524341384E+02  0.31093629782E+03  0.33039978323E+03  0.00000000000E+00 0. -1.
         22    1    3    3    0    0  0.97589758315E+02  0.31658208035E+02  0.72460619628E+03  0.73183341188E+03  0.00000000000E+00 0. -1.
</event>
<event>
 7    1  0.7029100E-006  0.1694918E+03  0.7818608E-02  0.1394246E+00
          2   -1    0    0  502    0  0.00000000000E+00  0.00000000000E+00  0.48619635292E+03  0.48619635292E+03  0.00000000000E+00 0. -1.
          1   -1    0    0  501    0 -0.00000000000E+00 -0.00000000000E+00 -0.91407875071E+03  0.91407875071E+03  0.00000000000E+00 0. -1.
         25    2    1    2    0    0  0.13929167556E+03  0.96937175465E+02  0.53214810677E+02  0.21740037163E+03  0.12502847133E+03 0.  0.
          2    1    1    2  501    0  0.11318649712E+02 -0.18695994133E+02 -0.81130720573E+03  0.81160152421E+03  0.00000000000E+00 0. -1.
          1    1    1    2  502    0 -0.15061032527E+03 -0.78241181332E+02  0.33020999725E+03  0.37127320779E+03  0.00000000000E+00 0. -1.
         22    1    3    3    0    0  0.11646705671E+03  0.89119574275E+02  0.90983908774E+02  0.17258315524E+03  0.00000000000E+00 0.  1.
         22    1    3    3    0    0  0.22824618845E+02  0.78176011905E+01 -0.37769098097E+02  0.44817216389E+02  0.00000000000E+00 0.  1.
</event>
<event>
 7    1  0.7029100E-006  0.4390553E+02  0.7818608E-02  0.1559286E+00
          2   -1    0    0  502    0  0.00000000000E+00  0.00000000000E+00  0.17754993058E+04  0.17754993058E+04  0.00000000000E+00 0. -1.
          1   -1    0    0  501    0 -0.00000000000E+00 -0.00000000000E+00 -0.54399017154E+03  0.54399017154E+03  0.00000000000E+00 0. -1.
         25    2    1    2    0    0  0.38592804301E+02  0.46353642698E+02  0.26302702507E+02  0.14125921737E+03  0.12499707835E+03 0.  0.
          2    1    1    2  501    0 -0.12932167928E+02 -0.41812004419E+02 -0.48542700187E+03  0.48739599795E+03  0.00000000000E+00 0. -1.
          1    1    1    2  502    0 -0.25660636373E+02 -0.45416382799E+01  0.16906334336E+04  0.16908342620E+04  0.00000000000E+00 0. -1.
         22    1    3    3    0    0  0.18481642209E+02  0.56472395030E+02 -0.39740413797E+02  0.71484284902E+02  0.00000000000E+00 0. -1.
         22    1    3    3    0    0  0.20111162092E+02 -0.10118752331E+02  0.66043116304E+02  0.69774932466E+02  0.00000000000E+00 0. -1.
</event>
