<event>
 7    1  0.6607887E-006  0.7331743E+02  0.7818608E-02  0.1514664E+00
          2   -1    0    0  502    0  0.00000000000E+00  0.00000000000E+00  0.62869671208E+03  0.62869671208E+03  0.00000000000E+00 0. -1.
          1   -1    0    0  501    0 -0.00000000000E+00 -0.00000000000E+00 -0.86522165184E+03  0.86522165184E+03  0.00000000000E+00 0. -1.
         25    2    1    2    0    0 -0.18623337688E+02  0.49763683924E+02 -0.48414548104E+02  0.14416737795E+03  0.12496804172E+03 0.  0.
          2    1    1    2  501    0 -0.39214385809E+01  0.20519491257E+02 -0.76644282992E+03  0.76672748662E+03  0.00000000000E+00 0. -1.
          1    1    1    2  502    0  0.22544776269E+02 -0.70283175181E+02  0.57833243827E+03  0.58302349936E+03  0.00000000000E+00 0. -1.
         22    1    3    3    0    0 -0.71189783827E+02  0.32724889491E+02 -0.40948450467E+02  0.88406330708E+02  0.00000000000E+00 0.  1.
         22    1    3    3    0    0  0.52566446139E+02  0.17038794432E+02 -0.74660976370E+01  0.55761047240E+02  0.00000000000E+00 0.  1.
</event>
<event>
 7    1  0.6607887E-006  0.9947428E+02  0.7818608E-02  0.1362537E+00
          2   -1    0    0  502    0  0.00000000000E+00  0.00000000000E+00  0.12249806331E+04  0.12249806331E+04  0.00000000000E+00 0. -1.
          1   -1    0    0  501    0 -0.00000000000E+00 -0.00000000000E+00 -0.80107940519E+02  0.80107940519E+02  0.00000000000E+00 0. -1.
         25    2    1    2    0    0 -0.88892115170E+02  0.34993024823E+01  0.59418587332E+03  0.61367508133E+03  0.12500480046E+03 0.  0.
          2    1    1    2  501    0  0.90257053627E+02  0.44741028732E+02 -0.32793296527E+02  0.10594100093E+03  0.00000000000E+00 0. -1.
          1    1    1    2  502    0 -0.13649384567E+01 -0.48240331214E+02  0.58348011577E+03  0.58547249133E+03  0.00000000000E+00 0. -1.
         22    1    3    3    0    0 -0.65434565090E+02  0.35275141675E+02  0.54749924511E+03  0.55252279711E+03  0.00000000000E+00 0. -1.
         22    1    3    3    0    0 -0.23457550080E+02 -0.31775839193E+02  0.46686628209E+02  0.61152284223E+02  0.00000000000E+00 0. -1.
</event>
<event>
 7    1  0.6607887E-006  0.3868204E+02  0.7818608E-02  0.1536086E+00
          2   -1    0    0  502    0  0.00000000000E+00  0.00000000000E+00  0.16385052706E+04  0.16385052706E+04  0.00000000000E+00 0. -1.
          1   -1    0    0  501    0 -0.00000000000E+00 -0.00000000000E+00 -0.31460573263E+03  0.31460573263E+03  0.00000000000E+00 0. -1.
         25    2    1    2    0    0  0.14125440864E+02 -0.21397511132E+02  0.51563638721E+03  0.53119048861E+03  0.12500027923E+03 0.  0.
          2    1    1    2  501    0  0.25678225124E+02  0.22811507635E+02 -0.30551037436E+03  0.30743507440E+03  0.00000000000E+00 0. -1.
          1    1    1    2  502    0 -0.39803665987E+02 -0.14139965036E+01  0.11137735252E+04  0.11144854403E+04  0.00000000000E+00 0. -1.
         22    1    3    3    0    0  0.65326634445E+02 -0.12641182831E+01  0.36542825839E+03  0.37122362424E+03  0.00000000000E+00 0.  1.
         22    1    3    3    0    0 -0.51201193581E+02 -0.20133392848E+02  0.15020812882E+03  0.15996686436E+03  0.00000000000E+00 0.  1.
</event>
<event>
 7    1  0.6607887E-006  0.8310081E+02  0.7818608E-02  0.1367031E+00
          2   -1    0    0  502    0  0.00000000000E+00  0.00000000000E+00  0.16379422215E+04  0.16379422215E+04  0.00000000000E+00 0. -1.
          1   -1    0    0  501    0 -0.00000000000E+00 -0.00000000000E+00 -0.17577759695E+04  0.17577759695E+04  0.00000000000E+00 0. -1.
         25    2    1    2    0    0 -0.51820623159E+02 -0.20571775042E+02  0.43951336608E+03  0.46033104495E+03  0.12499638821E+03 0.  0.
          2    1    1    2  501    0  0.78183893285E+02 -0.28428597850E+02 -0.17457245096E+04  0.17477056301E+04  0.00000000000E+00 0. -1.
          1    1    1    2  502    0 -0.26363270126E+02  0.49000372891E+02  0.11863773955E+04  0.11876815158E+04  0.00000000000E+00 0. -1.
         22    1    3    3    0    0  0.14483630994E+02 -0.18504622142E+02  0.33953305858E+03  0.34034525776E+03  0.00000000000E+00 0.  1.
         22    1    3    3    0    0 -0.66304254154E+02 -0.20671528998E+01  0.99980307500E+02  0.11998578719E+03  0.00000000000E+00 0.  1.
</event>
<event>
 7    1  0.6607887E-006  0.4917898E+02  0.7818608E-02  0.1463256E+00
          2   -1    0    0  502    0  0.00000000000E+00  0.00000000000E+00  0.44428714655E+03  0.44428714655E+03  0.00000000000E+00 0. -1.
          1   -1    0    0  501    0 -0.00000000000E+00 -0.00000000000E+00 -0.13964127905E+04  0.13964127905E+04  0.00000000000E+00 0. -1.
         25    2    1    2    0    0 -0.14477111642E+02  0.42386534549E+02 -0.82631117331E+03  0.83691174832E+03  0.12499965708E+03 0.  0.
          2    1    1    2  501    0 -0.33118791983E+02 -0.29849133412E+02 -0.56253688588E+03  0.56430095971E+03  0.00000000000E+00 0. -1.
          1    1    1    2  502    0  0.47595903625E+02 -0.12537401137E+02  0.43672241526E+03  0.43948722901E+03  0.00000000000E+00 0. -1.
         22    1    3    3    0    0 -0.48273151364E+02 -0.55429947303E+01 -0.63394457404E+03  0.63580401453E+03  0.00000000000E+00 0.  1.
         22    1    3    3    0    0  0.33796039722E+02  0.47929529279E+02 -0.19236659927E+03  0.20110773380E+03  0.00000000000E+00 0.  1.
</event>
<event>
 7    1  0.6607887E-006  0.1207162E+03  0.7818608E-02  0.1318041E+00
          2   -1    0    0  502    0  0.00000000000E+00  0.00000000000E+00  0.14494184277E+04  0.14494184277E+04  0.00000000000E+00 0. -1.
          1   -1    0    0  501    0 -0.00000000000E+00 -0.00000000000E+00 -0.25081608863E+03  0.25081608863E+03  0.00000000000E+00 0. -1.
         25    2    1    2    0    0 -0.70528366518E+02  0.12461342991E+03  0.63380545961E+03  0.66169429464E+03  0.12500888579E+03 0.  0.
          2    1    1    2  501    0  0.12258097270E+02 -0.11983571533E+03 -0.22039913143E+03  0.25117053320E+03  0.00000000000E+00 0. -1.
          1    1    1    2  502    0  0.58270269248E+02 -0.47777145823E+01  0.78519601086E+03  0.78736968846E+03  0.00000000000E+00 0. -1.
         22    1    3    3    0    0  0.33468735899E+02  0.23389058318E+02  0.89508013525E+02  0.98381343846E+02  0.00000000000E+00 0.  1.
         22    1    3    3    0    0 -0.10399710242E+03  0.10122437159E+03  0.54429744608E+03  0.56331295079E+03  0.00000000000E+00 0.  1.
</event>
<event>
 7    1  0.6607887E-006  0.1620914E+03  0.7818608E-02  0.1246826E+00
          2   -1    0    0  502    0  0.00000000000E+00  0.00000000000E+00  0.19888337813E+04  0.19888337813E+04  0.00000000000E+00 0. -1.
          1   -1    0    0  501    0 -0.00000000000E+00 -0.00000000000E+00 -0.80029317282E+02  0.80029317282E+02  0.00000000000E+00 0. -1.
         25    2    1    2    0    0  0.10212599391E+03 -0.33626568020E+02  0.24019568938E+03  0.29134396637E+03  0.12500749112E+03 0.  0.
          2    1    1    2  501    0  0.70118763514E+02  0.49035916168E+02 -0.13432305283E+02  0.86611713390E+02  0.00000000000E+00 0. -1.
          1    1    1    2  502    0 -0.17224475743E+03 -0.15409348148E+02  0.16820410799E+04  0.16909074188E+04  0.00000000000E+00 0. -1.
         22    1    3    3    0    0  0.75598557136E+02 -0.77902627281E+02  0.19285100418E+03  0.22130402390E+03  0.00000000000E+00 0. -1.
         22    1    3    3    0    0  0.26527436778E+02  0.44276059261E+02  0.47344685191E+02  0.70039942472E+02  0.00000000000E+00 0. -1.
</event>
<event>
 7    1  0.6607887E-006  0.1638117E+03  0.7818608E-02  0.1235724E+00
          2   -1    0    0  502    0  0.00000000000E+00  0.00000000000E+00  0.30721415144E+03  0.30721415144E+03  0.00000000000E+00 0. -1.
          1   -1    0    0  501    0 -0.00000000000E+00 -0.00000000000E+00 -0.15230183763E+04  0.15230183763E+04  0.00000000000E+00 0. -1.
         25    2    1    2    0    0 -0.62019785557E+02  0.15011741514E+03 -0.63841477749E+03  0.67050777376E+03  0.12500221767E+03 0.  0.
          2    1    1    2  501    0 -0.74771129289E+02 -0.58191213451E+02 -0.84236481216E+03  0.84767648066E+03  0.00000000000E+00 0. -1.
          1    1    1    2  502    0  0.13679091485E+03 -0.91926201692E+02  0.26497536478E+03  0.31204827332E+03  0.00000000000E+00 0. -1.
         22    1    3    3    0    0  0.13859644310E+02  0.12350600029E+03 -0.40409056226E+03  0.42277062854E+03  0.00000000000E+00 0.  1.
         22    1    3    3    0    0 -0.75879429867E+02  0.26611414853E+02 -0.23432421523E+03  0.24773714522E+03  0.00000000000E+00 0.  1.
</event>
<event>
 7    1  0.6607887E-006  0.3802556E+02  0.7818608E-02  0.1620881E+00
          2   -1    0    0  502    0  0.00000000000E+00  0.00000000000E+00  0.75440750240E+03  0.75440750240E+03  0.00000000000E+00 0. -1.
          1   -1    0    0  501    0 -0.00000000000E+00 -0.00000000000E+00 -0.17567029413E+03  0.17567029413E+03  0.00000000000E+00 0. -1.
         25    2    1    2    0    0 -0.44101197098E+02  0.30334235721E+02  0.34705541438E+03  0.37273443274E+03  0.12497365825E+03 0.  0.
          2    1    1    2  501    0  0.88820363521E+01 -0.18663903728E+02 -0.16129750739E+03  0.16261647445E+03  0.00000000000E+00 0. -1.
          1    1    1    2  502    0  0.35219160746E+02 -0.11670331993E+02  0.39297930128E+03  0.39472688934E+03  0.00000000000E+00 0. -1.
         22    1    3    3    0    0 -0.16422623237E+02 -0.38079537856E+02  0.23451908576E+03  0.23815741715E+03  0.00000000000E+00 0.  1.
         22    1    3    3    0    0 -0.27678573861E+02  0.68413773577E+02  0.11253632862E+03  0.13457701559E+03  0.00000000000E+00 0.  1.
</event>
<event>
 7    1  0.6607887E-006  0.5463520E+02  0.7818608E-02  0.1482268E+00
          2   -1    0    0  502    0  0.00000000000E+00  0.00000000000E+00  0.13155700733E+02  0.13155700733E+02  0.00000000000E+00 0. -1.
          1   -1    0    0  501    0 -0.00000000000E+00 -0.00000000000E+00 -0.10875221802E+04  0.10875221802E+04  0.00000000000E+00 0. -1.
         25    2    1    2    0    0 -0.30968658127E+02 -0.23859780534E+02 -0.59278182244E+03  0.60707381843E+03  0.12497993877E+03 0.  0.
          2    1    1    2  501    0  0.21245497945E+02  0.57525173081E+02 -0.40194743745E+03  0.40659840038E+03  0.00000000000E+00 0. -1.
          1    1    1    2  502    0  0.97231601826E+01 -0.33665392547E+02 -0.79637219604E+02  0.87005662147E+02  0.00000000000E+00 0. -1.
         22    1    3    3    0    0 -0.41181981686E+02 -0.66988949099E+01 -0.58360760494E+03  0.58509714352E+03  0.00000000000E+00 0. -1.
         22    1    3    3    0    0  0.10213323559E+02 -0.17160885624E+02 -0.91742175019E+01  0.21976674914E+02  0.00000000000E+00 0. -1.
</event>
<event>
 7    1  0.6607887E-006  0.1172061E+03  0.7818608E-02  0.1301603E+00
          2   -1    0    0  502    0  0.00000000000E+00  0.00000000000E+00  0.25044995715E+04  0.25044995715E+04  0.00000000000E+00 0. -1.
          1   -1    0    0  501    0 -0.00000000000E+00 -0.00000000000E+00 -0.34683710970E+02  0.34683710970E+02  0.00000000000E+00 0. -1.
         25    2    1    2    0    0 -0.41476993353E+02  0.17069819275E+03  0.68484451769E+03  0.71797996772E+03  0.12500002657E+03 0.  0.
          2    1    1    2  501    0  0.36516064924E+02 -0.59610574333E+02  0.58498807422E+02  0.91153464222E+02  0.00000000000E+00 0. -1.
          1    1    1    2  502    0  0.49609284287E+01 -0.11108761842E+03  0.17264725354E+04  0.17300498505E+04  0.00000000000E+00 0. -1.
         22    1    3    3    0    0 -0.53351722800E+02  0.98822121542E+02  0.21541968690E+03  0.24293591652E+03  0.00000000000E+00 0. -1.
         22    1    3    3    0    0  0.11874729447E+02  0.71876071212E+02  0.46942483080E+03  0.47504405120E+03  0.00000000000E+00 0. -1.
</event>
<event>
 7    1  0.6607887E-006  0.6778277E+02  0.7818608E-02  0.1440817E+00
          2   -1    0    0  502    0  0.00000000000E+00  0.00000000000E+00  0.12588506397E+03  0.12588506397E+03  0.00000000000E+00 0. -1.
          1   -1    0    0  501    0 -0.00000000000E+00 -0.00000000000E+00 -0.28609660091E+03  0.28609660091E+03  0.00000000000E+00 0. -1.
         25    2    1    2    0    0 -0.47237752280E+02 -0.89709649028E+02 -0.21638839864E+03  0.26968264036E+03  0.12500224429E+03 0.  0.
          2    1    1    2  501    0  0.65528985860E+01  0.37578052512E+02 -0.18632135516E+02  0.42452408463E+02  0.00000000000E+00 0. -1.
          1    1    1    2  502    0  0.40684853694E+02  0.52131596516E+02  0.74808997214E+02  0.99846616065E+02  0.00000000000E+00 0. -1.
         22    1    3    3    0    0 -0.42984140297E+02 -0.92803096383E+02 -0.23182056889E+03  0.25337882148E+03  0.00000000000E+00 0. -1.
         22    1    3    3    0    0 -0.42536119832E+01  0.30934473553E+01  0.15432170249E+02  0.16303818879E+02  0.00000000000E+00 0. -1.
</event>
<event>
 7    1  0.6607887E-006  0.1038769E+03  0.7818608E-02  0.1460897E+00
          2   -1    0    0  502    0  0.00000000000E+00  0.00000000000E+00  0.68914573058E+02  0.68914573058E+02  0.00000000000E+00 0. -1.
          1   -1    0    0  501    0 -0.00000000000E+00 -0.00000000000E+00 -0.28505718235E+04  0.28505718235E+04  0.00000000000E+00 0. -1.
         25    2    1    2    0    0 -0.28005580739E+02 -0.98633273974E+02 -0.16411982455E+04  0.16491421206E+04  0.12500087160E+03 0.  0.
          2    1    1    2  501    0  0.20860614112E+02 -0.50864371904E+01 -0.11636299023E+04  0.11638279884E+04  0.00000000000E+00 0. -1.
          1    1    1    2  502    0  0.71449666270E+01  0.10371971116E+03  0.23170897279E+02  0.10651628755E+03  0.00000000000E+00 0. -1.
         22    1    3    3    0    0 -0.65115910051E+02 -0.45485419516E+02 -0.12575711963E+04  0.12600771083E+04  0.00000000000E+00 0. -1.
         22    1    3    3    0    0  0.37110329313E+02 -0.53147854458E+02 -0.38362704917E+03  0.38906501235E+03  0.00000000000E+00 0. -1.
</event>
<event>
 7    1  0.6607887E-006  0.1247796E+03  0.7818608E-02  0.1357964E+00
          2   -1    0    0  502    0  0.00000000000E+00  0.00000000000E+00  0.69377071614E+03  0.69377071614E+03  0.00000000000E+00 0. -1.
          1   -1    0    0  501    0 -0.00000000000E+00 -0.00000000000E+00 -0.41252260393E+03  0.41252260393E+03  0.00000000000E+00 0. -1.
         25    2    1    2    0    0  0.14094851018E+03  0.36036934392E+02 -0.15909422549E+03  0.24919760519E+03  0.12499332257E+03 0.  0.
          2    1    1    2  501    0 -0.16644111082E+02 -0.36349653615E+02 -0.20042964570E+03  0.20437799937E+03  0.00000000000E+00 0. -1.
          1    1    1    2  502    0 -0.12430439910E+03  0.31271922234E+00  0.64077198340E+03  0.65271771551E+03  0.00000000000E+00 0. -1.
         22    1    3    3    0    0 -0.44493108614E+01 -0.38697318044E+01 -0.77569972143E+02  0.77793777191E+02  0.00000000000E+00 0. -1.
         22    1    3    3    0    0  0.14539782104E+03  0.39906666197E+02 -0.81524253345E+02  0.17140382800E+03  0.00000000000E+00 0. -1.
</event>
<event>
 7    1  0.6607887E-006  0.9633749E+02  0.7818608E-02  0.1424061E+00
          2   -1    0    0  502    0  0.00000000000E+00  0.00000000000E+00  0.45566150434E+03  0.45566150434E+03  0.00000000000E+00 0. -1.
          1   -1    0    0  501    0 -0.00000000000E+00 -0.00000000000E+00 -0.49043322445E+03  0.49043322445E+03  0.00000000000E+00 0. -1.
         25    2    1    2    0    0 -0.55361292225E+02 -0.10027889408E+03  0.10298711528E+03  0.19837361201E+03  0.12500005902E+03 0.  0.
          2    1    1    2  501    0  0.25986826088E+02  0.92218138815E+02 -0.43677381361E+03  0.44715865698E+03  0.00000000000E+00 0. -1.
          1    1    1    2  502    0  0.29374466137E+02  0.80607552615E+01  0.29901497823E+03  0.30056245980E+03  0.00000000000E+00 0. -1.
         22    1    3    3    0    0 -0.78681327537E+02 -0.74064043491E+02  0.22223963456E+02  0.11031835021E+03  0.00000000000E+00 0. -1.
         22    1    3    3    0    0  0.23320035312E+02 -0.26214850585E+02  0.80763151824E+02  0.88055261800E+02  0.00000000000E+00 0. -1.
</event>
<event>
 7    1  0.6607887E-006  0.7797763E+02  0.7818608E-02  0.1345949E+00
          2   -1    0    0  502    0  0.00000000000E+00  0.00000000000E+00  0.34160701251E+04  0.34160701251E+04  0.00000000000E+00 0. -1.
          1   -1    0    0  501    0 -0.00000000000E+00 -0.00000000000E+00 -0.31589917581E+03  0.31589917581E+03  0.00000000000E+00 0. -1.
         25    2    1    2    0    0 -0.11723775437E+03  0.23943029425E+02  0.15728340540E+02  0.17374944210E+03  0.12499411276E+03 0.  0.
          2    1    1    2  501    0  0.70607910884E+02  0.29410742665E+02 -0.23032581985E+03  0.24269415352E+03  0.00000000000E+00 0. -1.
          1    1    1    2  502    0  0.46629843483E+02 -0.53353772090E+02  0.33147684286E+04  0.33155257053E+04  0.00000000000E+00 0. -1.
         22    1    3    3    0    0 -0.53499946013E+02 -0.45454357446E+02 -0.19971069393E+02  0.72987577347E+02  0.00000000000E+00 0. -1.
         22    1    3    3    0    0 -0.63737808354E+02  0.69397386871E+02  0.35699409933E+02  0.10076186475E+03  0.00000000000E+00 0. -1.
</event>
<event>
 7    1  0.6607887E-006  0.2854976E+02  0.7818608E-02  0.1619332E+00
          2   -1    0    0  502    0  0.00000000000E+00  0.00000000000E+00  0.15912438324E+03  0.15912438324E+03  0.00000000000E+00 0. -1.
          1   -1    0    0  501    0 -0.00000000000E+00 -0.00000000000E+00 -0.20371145465E+03  0.20371145465E+03  0.00000000000E+00 0. -1.
         25    2    1    2    0    0  0.22211613903E+02  0.26356952861E+02  0.36100173690E+02  0.13460103752E+03  0.12500468793E+03 0.  0.
          2    1    1    2  501    0  0.66945637095E+01 -0.26962404626E+02 -0.15030560847E+03  0.15285144548E+03  0.00000000000E+00 0. -1.
          1    1    1    2  502    0 -0.28906177612E+02  0.60545176504E+00  0.69618363369E+02  0.75383354888E+02  0.00000000000E+00 0. -1.
         22    1    3    3    0    0 -0.22746191632E+02 -0.35182965089E+02  0.40487715025E+02  0.58262211889E+02  0.00000000000E+00 0.  1.
         22    1    3    3    0    0  0.44957805535E+02  0.61539917950E+02 -0.43875413356E+01  0.76338825631E+02  0.00000000000E+00 0.  1.
</event>
<event>
 7    1  0.6607887E-006  0.9630075E+02  0.7818608E-02  0.1397811E+00
          2   -1    0    0  502    0  0.00000000000E+00  0.00000000000E+00  0.96729356948E+03  0.96729356948E+03  0.00000000000E+00 0. -1.
          1   -1    0    0  501    0 -0.00000000000E+00 -0.00000000000E+00 -0.10850725396E+04  0.10850725396E+04  0.00000000000E+00 0. -1.
         25    2    1    2    0    0 -0.18923324982E+02  0.72364274760E+02  0.53840860955E+02  0.15530284645E+03  0.12500182126E+03 0.  0.
          2    1    1    2  501    0 -0.36500147169E+02  0.81037526500E+01 -0.10312351780E+04  0.10319127501E+04  0.00000000000E+00 0. -1.
          1    1    1    2  502    0  0.55423472150E+02 -0.80468027410E+02  0.85961534689E+03  0.86515051252E+03  0.00000000000E+00 0. -1.
         22    1    3    3    0    0 -0.32248012976E+02 -0.22435805870E+02 -0.96217101379E+01  0.40445976709E+02  0.00000000000E+00 0.  1.
         22    1    3    3    0    0  0.13324687995E+02  0.94800080630E+02  0.63462571093E+02  0.11485686974E+03  0.00000000000E+00 0.  1.
</event>
<event>
 7    1  0.6607887E-006  0.3081159E+02  0.7818608E-02  0.1625274E+00
          2   -1    0    0  502    0  0.00000000000E+00  0.00000000000E+00  0.63538802997E+03  0.63538802997E+03  0.00000000000E+00 0. -1.
          1   -1    0    0  501    0 -0.00000000000E+00 -0.00000000000E+00 -0.85292926033E+03  0.85292926033E+03  0.00000000000E+00 0. -1.
         25    2    1    2    0    0 -0.86278130597E+01 -0.93958690188E+00 -0.53748941829E+03  0.55190185509E+03  0.12500184357E+03 0.  0.
          2    1    1    2  501    0 -0.16876966422E+02  0.18257117319E+02 -0.30735310561E+03  0.30835707525E+03  0.00000000000E+00 0. -1.
          1    1    1    2  502    0  0.25504779482E+02 -0.17317530417E+02  0.62730129354E+03  0.62805835996E+03  0.00000000000E+00 0. -1.
         22    1    3    3    0    0  0.54540018140E+02 -0.21854018108E+02 -0.25498440886E+03  0.26166631508E+03  0.00000000000E+00 0.  1.
         22    1    3    3    0    0 -0.63167831200E+02  0.20914431206E+02 -0.28250500943E+03  0.29023554001E+03  0.00000000000E+00 0.  1.
</event>
<event>
 7    1  0.6607887E-006  0.1052311E+03  0.7818608E-02  0.1322021E+00
          2   -1    0    0  502    0  0.00000000000E+00  0.00000000000E+00  0.72602083063E+03  0.72602083063E+03  0.00000000000E+00 0. -1.
          1   -1    0    0  501    0 -0.00000000000E+00 -0.00000000000E+00 -0.16166577440E+03  0.16166577440E+03  0.00000000000E+00 0. -1.
         25    2    1    2    0    0 -0.13703559114E+03 -0.20728970422E+02  0.23419383208E+03  0.29946561107E+03  0.12499783108E+03 0.  0.
          2    1    1    2  501    0  0.40205866779E+02  0.50724400446E+02 -0.11483758920E+03  0.13182241243E+03  0.00000000000E+00 0. -1.
          1    1    1    2  502    0  0.96829724365E+02 -0.29995430025E+02  0.44499881335E+03  0.45639858153E+03  0.00000000000E+00 0. -1.
         22    1    3    3    0    0  0.12920694905E+02 -0.25392756543E+02  0.77303935601E+02  0.82387103973E+02  0.00000000000E+00 0. -1.
         22    1    3    3    0    0 -0.14995628605E+03  0.46637861216E+01  0.15688989648E+03  0.21707850710E+03  0.00000000000E+00 0. -1.
</event>
<event>
 7    1  0.6607887E-006  0.1986393E+03  0.7818608E-02  0.1179797E+00
          2   -1    0    0  502    0  0.00000000000E+00  0.00000000000E+00  0.90796053385E+03  0.90796053385E+03  0.00000000000E+00 0. -1.
          1   -1    0    0  501    0 -0.00000000000E+00 -0.00000000000E+00 -0.12935619597E+04  0.12935619597E+04  0.00000000000E+00 0. -1.
         25    2    1    2    0    0  0.91665687034E+02  0.63344273603E+02  0.19783082188E+03  0.25918509205E+03  0.12499913070E+03 0.  0.
          2    1    1    2  501    0 -0.44891107718E+02 -0.19776920796E+03 -0.12471495253E+04  0.12635306920E+04  0.00000000000E+00 0. -1.
          1    1    1    2  502    0 -0.46774579316E+02  0.13442493435E+03  0.66371727760E+03  0.67880670948E+03  0.00000000000E+00 0. -1.
         22    1    3    3    0    0 -0.22398133699E+02 -0.44308225823E+01  0.23823625208E+01  0.22956137156E+02  0.00000000000E+00 0. -1.
         22    1    3    3    0    0  0.11406382073E+03  0.67775096185E+02  0.19544845936E+03  0.23622895489E+03  0.00000000000E+00 0. -1.
</event>
<event>
 7    1  0.6607887E-006  0.5409801E+02  0.7818608E-02  0.1450239E+00
          2   -1    0    0  502    0  0.00000000000E+00  0.00000000000E+00  0.13732457915E+03  0.13732457915E+03  0.00000000000E+00 0. -1.
          1   -1    0    0  501    0 -0.00000000000E+00 -0.00000000000E+00 -0.39488706164E+03  0.39488706164E+03  0.00000000000E+00 0. -1.
         25    2    1    2    0    0  0.53686062468E+02 -0.35472152783E+02 -0.71818060067E+01  0.14077041333E+03  0.12499705599E+03 0.  0.
          2    1    1    2  501    0 -0.53559883525E+02 -0.90975481298E+01 -0.31127410622E+03  0.31597942292E+03  0.00000000000E+00 0. -1.
          1    1    1    2  502    0 -0.12617894321E+00  0.44569700913E+02  0.60893429738E+02  0.75461804550E+02  0.00000000000E+00 0. -1.
         22    1    3    3    0    0  0.63007395695E+02 -0.65844282731E+02 -0.35894321799E+02  0.97947964849E+02  0.00000000000E+00 0.  1.
         22    1    3    3    0    0 -0.93213332263E+01  0.30372129948E+02  0.28712515793E+02  0.42822448480E+02  0.00000000000E+00 0.  1.
</event>
<event>
 7    1  0.6607887E-006  0.3596439E+02  0.7818608E-02  0.1544275E+00
          2   -1    0    0  502    0  0.00000000000E+00  0.00000000000E+00  0.15427685514E+04  0.15427685514E+04  0.00000000000E+00 0. -1.
          1   -1    0    0  501    0 -0.00000000000E+00 -0.00000000000E+00 -0.36214308802E+02  0.36214308802E+02  0.00000000000E+00 0. -1.
         25    2    1    2    0    0 -0.40839287356E+02 -0.32091118299E+02  0.26480237152E+03  0.29739335251E+03  0.12499929157E+03 0.  0.
          2    1    1    2  501    0  0.35676080773E+02 -0.25519858138E+01 -0.34151914537E+01  0.35929916554E+02  0.00000000000E+00 0. -1.
          1    1    1    2  502    0  0.51632065834E+01  0.34643104113E+02  0.12451670625E+04  0.12456595911E+04  0.00000000000E+00 0. -1.
         22    1    3    3    0    0  0.26111720026E+02 -0.47620569724E+02  0.57946754923E+02  0.79418933446E+02  0.00000000000E+00 0.  1.
         22    1    3    3    0    0 -0.66951007382E+02  0.15529451426E+02  0.20685561660E+03  0.21797441907E+03  0.00000000000E+00 0.  1.
</event>
<event>
 7    1  0.6607887E-006  0.1526907E+03  0.7818608E-02  0.1240436E+00
          2   -1    0    0  502    0  0.00000000000E+00  0.00000000000E+00  0.96359411445E+03  0.96359411445E+03  0.00000000000E+00 0. -1.
          1   -1    0    0  501    0 -0.00000000000E+00 -0.00000000000E+00 -0.44619139291E+03  0.44619139291E+03  0.00000000000E+00 0. -1.
         25    2    1    2    0    0 -0.92607507350E+02  0.48641893452E+02  0.15664023174E+03  0.22606039933E+03  0.12499983092E+03 0.  0.
          2    1    1    2  501    0 -0.76241498899E+02 -0.59780279504E+02 -0.39630567655E+03  0.40797627043E+03  0.00000000000E+00 0. -1.
          1    1    1    2  502    0  0.16884900625E+03  0.11138386052E+02  0.75706816634E+03  0.77574883760E+03  0.00000000000E+00 0. -1.
         22    1    3    3    0    0 -0.26485616820E+02 -0.41083429737E+02  0.29976708358E+02  0.57340554072E+02  0.00000000000E+00 0. -1.
         22    1    3    3    0    0 -0.66121890529E+02  0.89725323190E+02  0.12666352339E+03  0.16871984526E+03  0.00000000000E+00 0. -1.
</event>
<event>
 7    1  0.6607887E-006  0.7648324E+02  0.7818608E-02  0.1437344E+00
          2   -1    0    0  502    0  0.00000000000E+00  0.00000000000E+00  0.53540745921E+03  0.53540745921E+03  0.00000000000E+00 0. -1.
          1   -1    0    0  501    0 -0.00000000000E+00 -0.00000000000E+00 -0.16959832318E+03  0.16959832318E+03  0.00000000000E+00 0. -1.
         25    2    1    2    0    0  0.10709955991E+03 -0.23192233207E+02  0.36992831915E+03  0.40556132700E+03  0.12499933295E+03 0.  0.
          2    1    1    2  501    0 -0.75012030434E+02  0.99940003930E+01 -0.14003264666E+03  0.15917231821E+03  0.00000000000E+00 0. -1.
          1    1    1    2  502    0 -0.32087529472E+02  0.13198232814E+02  0.13591346354E+03  0.14027213718E+03  0.00000000000E+00 0. -1.
         22    1    3    3    0    0  0.43406598936E+02  0.45443253439E+02  0.21996532883E+03  0.22876618632E+03  0.00000000000E+00 0. -1.
         22    1    3    3    0    0  0.63692960970E+02 -0.68635486646E+02  0.14996299032E+03  0.17679514069E+03  0.00000000000E+00 0. -1.
</event>
<event>
 7    1  0.6607887E-006  0.5514232E+02  0.7818608E-02  0.1429362E+00
          2   -1    0    0  502    0  0.00000000000E+00  0.00000000000E+00  0.22121068675E+03  0.22121068675E+03  0.00000000000E+00 0. -1.
          1   -1    0    0  501    0 -0.00000000000E+00 -0.00000000000E+00 -0.37332563672E+03  0.37332563672E+03  0.00000000000E+00 0. -1.
         25    2    1    2    0    0  0.40987127021E+02  0.13163351243E+02 -0.15809954358E+03  0.20608988969E+03  0.12499743420E+03 0.  0.
          2    1    1    2  501    0  0.43570763172E-01 -0.51110913060E+02 -0.18371138581E+03  0.19068875323E+03  0.00000000000E+00 0. -1.
          1    1    1    2  502    0 -0.41030697785E+02  0.37947561817E+02  0.18969597942E+03  0.19775768055E+03  0.00000000000E+00 0. -1.
         22    1    3    3    0    0 -0.24581245706E+02  0.47738760075E+02 -0.41246762280E+02  0.67709100220E+02  0.00000000000E+00 0. -1.
         22    1    3    3    0    0  0.65568372728E+02 -0.34575408832E+02 -0.11685278130E+03  0.13838078947E+03  0.00000000000E+00 0. -1.
</event>
<event>
 7    1  0.6607887E-006  0.1463589E+03  0.7818608E-02  0.1254370E+00
          2   -1    0    0  502    0  0.00000000000E+00  0.00000000000E+00  0.13447503998E+04  0.13447503998E+04  0.00000000000E+00 0. -1.
          1   -1    0    0  501    0 -0.00000000000E+00 -0.00000000000E+00 -0.20644123380E+04  0.20644123380E+04  0.00000000000E+00 0. -1.
         25    2    1    2    0    0  0.36496798501E+02 -0.22909112511E+03 -0.91193485879E+02  0.27884650211E+03  0.12499743985E+03 0.  0.
          2    1    1    2  501    0 -0.19829421174E+02  0.85623556586E+02 -0.18741900156E+04  0.18762496673E+04  0.00000000000E+00 0. -1.
          1    1    1    2  502    0 -0.16667377326E+02  0.14346756852E+03  0.12457215633E+04  0.12540665684E+04  0.00000000000E+00 0. -1.
         22    1    3    3    0    0  0.62808202301E+01 -0.23295039620E+03 -0.81645833390E+02  0.24692383017E+03  0.00000000000E+00 0. -1.
         22    1    3    3    0    0  0.30215978271E+02  0.38592710940E+01 -0.95476524889E+01  0.31922671948E+02  0.00000000000E+00 0. -1.
</event>
<event>
 7    1  0.6607887E-006  0.1066338E+03  0.7818608E-02  0.1281843E+00
          2   -1    0    0  502    0  0.00000000000E+00  0.00000000000E+00  0.34744672420E+03  0.34744672420E+03  0.00000000000E+00 0. -1.
          1   -1    0    0  501    0 -0.00000000000E+00 -0.00000000000E+00 -0.70408426899E+03  0.70408426899E+03  0.00000000000E+00 0. -1.
         25    2    1    2    0    0  0.53681693557E+02 -0.97710335553E+02 -0.18308162994E+03  0.24813963084E+03  0.12500143708E+03 0.  0.
          2    1    1    2  501    0 -0.10956831015E+03  0.24113830979E+02 -0.47501617146E+03  0.48808508949E+03  0.00000000000E+00 0. -1.
          1    1    1    2  502    0  0.55886616594E+02  0.73596504574E+02  0.30146025661E+03  0.31530627287E+03  0.00000000000E+00 0. -1.
         22    1    3    3    0    0 -0.34689656451E+01 -0.84242078630E+02 -0.16729178263E+03  0.18733740168E+03  0.00000000000E+00 0.  1.
         22    1    3    3    0    0  0.57150659203E+02 -0.13468256923E+02 -0.15789847312E+02  0.60802229153E+02  0.00000000000E+00 0.  1.
</event>
<event>
 7    1  0.6607887E-006  0.1571778E+03  0.7818608E-02  0.1235581E+00
          2   -1    0    0  502    0  0.00000000000E+00  0.00000000000E+00  0.26365419809E+03  0.26365419809E+03  0.00000000000E+00 0. -1.
          1   -1    0    0  501    0 -0.00000000000E+00 -0.00000000000E+00 -0.20965793660E+04  0.20965793660E+04  0.00000000000E+00 0. -1.
         25    2    1    2    0    0  0.11939474251E+03  0.10570530014E+03 -0.11999242432E+04  0.12169111993E+04  0.12500385034E+03 0.  0.
          2    1    1    2  501    0 -0.16856345985E+03 -0.19904995201E+02 -0.87006119375E+03  0.88646281913E+03  0.00000000000E+00 0. -1.
          1    1    1    2  502    0  0.49168717332E+02 -0.85800304935E+02  0.23706026898E+03  0.25685954570E+03  0.00000000000E+00 0. -1.
         22    1    3    3    0    0  0.71020526120E+02  0.26884743344E+02 -0.22210299241E+03  0.23472631678E+03  0.00000000000E+00 0.  1.
         22    1    3    3    0    0  0.48374216395E+02  0.78820556792E+02 -0.97782125076E+03  0.98218488250E+03  0.00000000000E+00 0.  1.
</event>
<event>
 7    1  0.6607887E-006  0.4500955E+02  0.7818608E-02  0.1569765E+00
          2   -1    0    0  502    0  0.00000000000E+00  0.00000000000E+00  0.68366285402E+02  0.68366285402E+02  0.00000000000E+00 0. -1.
          1   -1    0    0  501    0 -0.00000000000E+00 -0.00000000000E+00 -0.12320080693E+04  0.12320080693E+04  0.00000000000E+00 0. -1.
         25    2    1    2    0    0 -0.24873457965E+02 -0.98417748784E+01 -0.23369238615E+03  0.26637052413E+03  0.12500230132E+03 0.  0.
          2    1    1    2  501    0  0.45643377418E+02 -0.17712981738E+01 -0.97869484261E+03  0.97976020043E+03  0.00000000000E+00 0. -1.
          1    1    1    2  502    0 -0.20769919453E+02  0.11613073052E+02  0.48745444845E+02  0.54243630160E+02  0.00000000000E+00 0. -1.
         22    1    3    3    0    0 -0.36150268180E+02  0.12073768998E+01 -0.24454951030E+03  0.24720995659E+03  0.00000000000E+00 0.  1.
         22    1    3    3    0    0  0.11276810215E+02 -0.11049151778E+02  0.10857124149E+02  0.19160567540E+02  0.00000000000E+00 0.  1.
</event>
<event>
 7    1  0.6607887E-006  0.8228422E+02  0.7818608E-02  0.1354999E+00
          2   -1    0    0  502    0  0.00000000000E+00  0.00000000000E+00  0.94766351626E+03  0.94766351626E+03  0.00000000000E+00 0. -1.
          1   -1    0    0  501    0 -0.00000000000E+00 -0.00000000000E+00 -0.10769828766E+03  0.10769828766E+03  0.00000000000E+00 0. -1.
         25    2    1    2    0    0  0.53700414110E+02  0.78161249663E+02  0.19051769461E+03  0.24680947094E+03  0.12500003024E+03 0.  0.
          2    1    1    2  501    0 -0.62008083485E+02  0.43971958722E+01 -0.64627903182E+02  0.89672200925E+02  0.00000000000E+00 0. -1.
          1    1    1    2  502    0  0.83076693755E+01 -0.82558445535E+02  0.71407543717E+03  0.71888013206E+03  0.00000000000E+00 0. -1.
         22    1    3    3    0    0  0.61490008583E+02  0.47389378041E+02  0.30070822294E+02  0.83252799713E+02  0.00000000000E+00 0. -1.
         22    1    3    3    0    0 -0.77895944731E+01  0.30771871622E+02  0.16044687232E+03  0.16355667123E+03  0.00000000000E+00 0. -1.
</event>
<event>
 7    1  0.6607887E-006  0.8605035E+02  0.7818608E-02  0.1334328E+00
          2   -1    0    0  502    0  0.00000000000E+00  0.00000000000E+00  0.38275967832E+02  0.38275967832E+02  0.00000000000E+00 0. -1.
          1   -1    0    0  501    0 -0.00000000000E+00 -0.00000000000E+00 -0.20114459764E+04  0.20114459764E+04  0.00000000000E+00 0. -1.
         25    2    1    2    0    0  0.10661355410E+02  0.73505828723E+02 -0.16384537619E+04  0.16448930239E+04  0.12500223540E+03 0.  0.
          2    1    1    2  501    0  0.74318669440E+02 -0.59975948093E+02 -0.29496636174E+03  0.31004118038E+03  0.00000000000E+00 0. -1.
          1    1    1    2  502    0 -0.84980024850E+02 -0.13529880630E+02 -0.39749884949E+02  0.94787739960E+02  0.00000000000E+00 0. -1.
         22    1    3    3    0    0  0.41740351408E+02  0.23182127726E+02 -0.13278325517E+04  0.13286906914E+04  0.00000000000E+00 0. -1.
         22    1    3    3    0    0 -0.31078995998E+02  0.50323700997E+02 -0.31062121018E+03  0.31620233252E+03  0.00000000000E+00 0. -1.
</event>
<event>
 7    1  0.6607887E-006  0.8948908E+02  0.7818608E-02  0.1401461E+00
          2   -1    0    0  502    0  0.00000000000E+00  0.00000000000E+00  0.59223394232E+03  0.59223394232E+03  0.00000000000E+00 0. -1.
          1   -1    0    0  501    0 -0.00000000000E+00 -0.00000000000E+00 -0.11269221697E+04  0.11269221697E+04  0.00000000000E+00 0. -1.
         25    2    1    2    0    0 -0.10619104339E+03 -0.31283048115E+02  0.26437954890E+03  0.31269538333E+03  0.12500676016E+03 0.  0.
          2    1    1    2  501    0  0.35520782969E+02 -0.16314209982E+02 -0.10964329425E+04  0.10971294714E+04  0.00000000000E+00 0. -1.
          1    1    1    2  502    0  0.70670260421E+02  0.47597258097E+02  0.29736516622E+03  0.30933125734E+03  0.00000000000E+00 0. -1.
         22    1    3    3    0    0 -0.99325205454E+02  0.12366780426E+02  0.96268355369E+02  0.13887415145E+03  0.00000000000E+00 0. -1.
         22    1    3    3    0    0 -0.68658379362E+01 -0.43649828542E+02  0.16811119353E+03  0.17382123188E+03  0.00000000000E+00 0. -1.
</event>
<event>
 7    1  0.6607887E-006  0.7608035E+02  0.7818608E-02  0.1468066E+00
          2   -1    0    0  502    0  0.00000000000E+00  0.00000000000E+00  0.34166414390E+03  0.34166414390E+03  0.00000000000E+00 0. -1.
          1   -1    0    0  501    0 -0.00000000000E+00 -0.00000000000E+00 -0.10081401751E+04  0.10081401751E+04  0.00000000000E+00 0. -1.
         25    2    1    2    0    0  0.92145186265E+02  0.45888940594E+02  0.81535659443E+02  0.18129942567E+03  0.12499955107E+03 0.  0.
          2    1    1    2  501    0 -0.69999021041E+02 -0.29021295672E+02 -0.95583066280E+03  0.95882967961E+03  0.00000000000E+00 0. -1.
          1    1    1    2  502    0 -0.22146165225E+02 -0.16867644922E+02  0.20781897213E+03  0.20967521374E+03  0.00000000000E+00 0. -1.
         22    1    3    3    0    0  0.10554716820E+03  0.68415917790E+02  0.39640390714E+02  0.13187988133E+03  0.00000000000E+00 0.  1.
         22    1    3    3    0    0 -0.13401981938E+02 -0.22526977196E+02  0.41895268729E+02  0.49419544345E+02  0.00000000000E+00 0.  1.
</event>
<event>
 7    1  0.6607887E-006  0.4410976E+02  0.7818608E-02  0.1481166E+00
          2   -1    0    0  502    0  0.00000000000E+00  0.00000000000E+00  0.10307993780E+04  0.10307993780E+04  0.00000000000E+00 0. -1.
          1   -1    0    0  501    0 -0.00000000000E+00 -0.00000000000E+00 -0.12790929717E+03  0.12790929717E+03  0.00000000000E+00 0. -1.
         25    2    1    2    0    0  0.22729602332E+01 -0.61477539972E+01  0.82273102968E+02  0.14978872595E+03  0.12499935089E+03 0.  0.
          2    1    1    2  501    0  0.40976025417E+02  0.16329009117E+02 -0.88412608413E+02  0.98805164460E+02  0.00000000000E+00 0. -1.
          1    1    1    2  502    0 -0.43248985650E+02 -0.10181255120E+02  0.90902958628E+03  0.91011478477E+03  0.00000000000E+00 0. -1.
         22    1    3    3    0    0 -0.91501142824E+01  0.54369484898E+02  0.66176187305E+02  0.86133926218E+02  0.00000000000E+00 0.  1.
         22    1    3    3    0    0  0.11423074516E+02 -0.60517238895E+02  0.16096915663E+02  0.63654799730E+02  0.00000000000E+00 0.  1.
</event>
<event>
 7    1  0.6607887E-006  0.8144883E+02  0.7818608E-02  0.1485408E+00
          2   -1    0    0  502    0  0.00000000000E+00  0.00000000000E+00  0.58666957931E+03  0.58666957931E+03  0.00000000000E+00 0. -1.
          1   -1    0    0  501    0 -0.00000000000E+00 -0.00000000000E+00 -0.10718532167E+03  0.10718532167E+03  0.00000000000E+00 0. -1.
         25    2    1    2    0    0  0.64813052327E+02 -0.21511041842E+02  0.12213018750E+03  0.18763123598E+03  0.12500496528E+03 0.  0.
          2    1    1    2  501    0  0.18133324513E+02  0.14136440824E+02 -0.68525020437E+02  0.72279560340E+02  0.00000000000E+00 0. -1.
          1    1    1    2  502    0 -0.82946376840E+02  0.73746010174E+01  0.42587909058E+03  0.43394410466E+03  0.00000000000E+00 0. -1.
         22    1    3    3    0    0  0.46471531788E+02  0.36036742846E+02  0.91434450400E+01  0.59513466450E+02  0.00000000000E+00 0. -1.
         22    1    3    3    0    0  0.18341520539E+02 -0.57547784688E+02  0.11298674246E+03  0.12811776953E+03  0.00000000000E+00 0. -1.
</event>
<event>
 7    1  0.6607887E-006  0.9907102E+02  0.7818608E-02  0.1349083E+00
          2   -1    0    0  502    0  0.00000000000E+00  0.00000000000E+00  0.18076623797E+03  0.18076623797E+03  0.00000000000E+00 0. -1.
          1   -1    0    0  501    0 -0.00000000000E+00 -0.00000000000E+00 -0.97507674884E+03  0.97507674884E+03  0.00000000000E+00 0. -1.
         25    2    1    2    0    0  0.64468085903E+02 -0.22192861604E+02 -0.11152342078E+03  0.18086392831E+03  0.12500251987E+03 0.  0.
          2    1    1    2  501    0 -0.68667886565E+02  0.76325262556E+02 -0.82052645537E+03  0.82692471744E+03  0.00000000000E+00 0. -1.
          1    1    1    2  502    0  0.41998006613E+01 -0.54132400953E+02  0.13773936528E+03  0.14805434106E+03  0.00000000000E+00 0. -1.
         22    1    3    3    0    0  0.72781623819E+02  0.46281411869E+01 -0.12871475537E+03  0.14793942242E+03  0.00000000000E+00 0. -1.
         22    1    3    3    0    0 -0.83135379152E+01 -0.26821002791E+02  0.17191334585E+02  0.32924505891E+02  0.00000000000E+00 0. -1.
</event>
<event>
 7    1  0.6607887E-006  0.1024368E+03  0.7818608E-02  0.1336928E+00
          2   -1    0    0  502    0  0.00000000000E+00  0.00000000000E+00  0.10757888900E+04  0.10757888900E+04  0.00000000000E+00 0. -1.
          1   -1    0    0  501    0 -0.00000000000E+00 -0.00000000000E+00 -0.54611477255E+03  0.54611477255E+03  0.00000000000E+00 0. -1.
         25    2    1    2    0    0  0.28514874230E+02  0.14782064842E+03  0.14847637023E+03  0.24563048721E+03  0.12500024631E+03 0.  0.
          2    1    1    2  501    0  0.63752811259E+01 -0.10109629768E+03 -0.49139850686E+03  0.50173060317E+03  0.00000000000E+00 0. -1.
          1    1    1    2  502    0 -0.34890155356E+02 -0.46724350737E+02  0.87259625413E+03  0.87454257221E+03  0.00000000000E+00 0. -1.
         22    1    3    3    0    0  0.73605313649E+02  0.95798590634E+02  0.12249632319E+03  0.17204784614E+03  0.00000000000E+00 0. -1.
         22    1    3    3    0    0 -0.45090439419E+02  0.52022057781E+02  0.25980047040E+02  0.73582641070E+02  0.00000000000E+00 0. -1.
</event>
<event>
 7    1  0.6607887E-006  0.8657708E+02  0.7818608E-02  0.1329077E+00
          2   -1    0    0  502    0  0.00000000000E+00  0.00000000000E+00  0.18265872246E+04  0.18265872246E+04  0.00000000000E+00 0. -1.
          1   -1    0    0  501    0 -0.00000000000E+00 -0.00000000000E+00 -0.15765987829E+04  0.15765987829E+04  0.00000000000E+00 0. -1.
         25    2    1    2    0    0 -0.31216842317E+01  0.40182184304E+02  0.89229905948E+03  0.90190763991E+03  0.12496170023E+03 0.  0.
          2    1    1    2  501    0  0.77025939558E+02 -0.39720158578E+02 -0.15691277685E+04  0.15715192141E+04  0.00000000000E+00 0. -1.
          1    1    1    2  502    0 -0.73904255326E+02 -0.46202572555E+00  0.92681715078E+03  0.92975915344E+03  0.00000000000E+00 0. -1.
         22    1    3    3    0    0  0.94302489807E+01  0.74468257035E+02  0.33021719419E+03  0.33864117623E+03  0.00000000000E+00 0.  1.
         22    1    3    3    0    0 -0.12551933212E+02 -0.34286072732E+02  0.56208186529E+03  0.56326646367E+03  0.00000000000E+00 0.  1.
</event>
<event>
 7    1  0.6607887E-006  0.4434988E+02  0.7818608E-02  0.1581491E+00
          2   -1    0    0  502    0  0.00000000000E+00  0.00000000000E+00  0.16724867039E+03  0.16724867039E+03  0.00000000000E+00 0. -1.
          1   -1    0    0  501    0 -0.00000000000E+00 -0.00000000000E+00 -0.31757651573E+03  0.31757651573E+03  0.00000000000E+00 0. -1.
         25    2    1    2    0    0  0.51102631890E+02  0.34057136039E+02  0.89386985151E+02  0.16548301523E+03  0.12499291066E+03 0.  0.
          2    1    1    2  501    0 -0.42024087944E+02 -0.13520186886E+02 -0.27445197289E+03  0.27797968423E+03  0.00000000000E+00 0. -1.
          1    1    1    2  502    0 -0.90785439462E+01 -0.20536949153E+02  0.34737142401E+02  0.41362486662E+02  0.00000000000E+00 0. -1.
         22    1    3    3    0    0  0.87904678844E+02  0.41219890751E+02  0.43947311749E+02  0.10657240809E+03  0.00000000000E+00 0. -1.
         22    1    3    3    0    0 -0.36802046954E+02 -0.71627547125E+01  0.45439673402E+02  0.58910607143E+02  0.00000000000E+00 0. -1.
</event>
<event>
 7    1  0.6607887E-006  0.1445748E+03  0.7818608E-02  0.1238964E+00
          2   -1    0    0  502    0  0.00000000000E+00  0.00000000000E+00  0.46095382054E+03  0.46095382054E+03  0.00000000000E+00 0. -1.
          1   -1    0    0  501    0 -0.00000000000E+00 -0.00000000000E+00 -0.96492214909E+03  0.96492214909E+03  0.00000000000E+00 0. -1.
         25    2    1    2    0    0 -0.59446819498E+02  0.44828770802E+02 -0.57175933785E+03  0.58998097910E+03  0.12500108897E+03 0.  0.
          2    1    1    2  501    0 -0.86417663909E+02 -0.57616916772E+02 -0.36474614186E+03  0.37924592250E+03  0.00000000000E+00 0. -1.
          1    1    1    2  502    0  0.14586448341E+03  0.12788145970E+02  0.43253715116E+03  0.45664906802E+03  0.00000000000E+00 0. -1.
         22    1    3    3    0    0 -0.16415691362E+01 -0.38847567277E+02 -0.98064551756E+02  0.10549163258E+03  0.00000000000E+00 0.  1.
         22    1    3    3    0    0 -0.57805250362E+02  0.83676338079E+02 -0.47369478609E+03  0.48448934652E+03  0.00000000000E+00 0.  1.
</event>
<event>
 7    1  0.6607887E-006  0.8178016E+02  0.7818608E-02  0.1486915E+00
          2   -1    0    0  502    0  0.00000000000E+00  0.00000000000E+00  0.95342570454E+03  0.95342570454E+03  0.00000000000E+00 0. -1.
          1   -1    0    0  501    0 -0.00000000000E+00 -0.00000000000E+00 -0.53639275655E+03  0.53639275655E+03  0.00000000000E+00 0. -1.
         25    2    1    2    0    0  0.62667484416E+02 -0.25350645264E+02  0.11472794382E+03  0.18263875039E+03  0.12499817292E+03 0.  0.
          2    1    1    2  501    0 -0.66941323253E+02  0.47602904669E+02 -0.49891889014E+03  0.50563547763E+03  0.00000000000E+00 0. -1.
          1    1    1    2  502    0  0.42738388365E+01 -0.22252259405E+02  0.80122389432E+03  0.80154423307E+03  0.00000000000E+00 0. -1.
         22    1    3    3    0    0  0.64175217954E+02 -0.51952248967E+02  0.12842676779E+03  0.15267917166E+03  0.00000000000E+00 0. -1.
         22    1    3    3    0    0 -0.15077335374E+01  0.26601603703E+02 -0.13698823971E+02  0.29959578738E+02  0.00000000000E+00 0. -1.
</event>
<event>
 7    1  0.6607887E-006  0.5839325E+02  0.7818608E-02  0.1406118E+00
          2   -1    0    0  502    0  0.00000000000E+00  0.00000000000E+00  0.24725099797E+04  0.24725099797E+04  0.00000000000E+00 0. -1.
          1   -1    0    0  501    0 -0.00000000000E+00 -0.00000000000E+00 -0.15709734582E+03  0.15709734582E+03  0.00000000000E+00 0. -1.
         25    2    1    2    0    0 -0.37927749721E+01 -0.63286347203E+02  0.64211635789E+03  0.65723536503E+03  0.12500144441E+03 0.  0.
          2    1    1    2  501    0 -0.47523089574E+02  0.33931218104E+02 -0.14333808612E+03  0.15477589779E+03  0.00000000000E+00 0. -1.
          1    1    1    2  502    0  0.51315864546E+02  0.29355129099E+02  0.18166343621E+04  0.18175960627E+04  0.00000000000E+00 0. -1.
         22    1    3    3    0    0  0.12293068229E+02  0.16721272957E+02  0.17036590465E+02  0.26850808377E+02  0.00000000000E+00 0. -1.
         22    1    3    3    0    0 -0.16085843202E+02 -0.80007620161E+02  0.62507976742E+03  0.63038455666E+03  0.00000000000E+00 0. -1.
</event>
<event>
 7    1  0.6607887E-006  0.2048834E+03  0.7818608E-02  0.1224990E+00
          2   -1    0    0  502    0  0.00000000000E+00  0.00000000000E+00  0.37044604454E+03  0.37044604454E+03  0.00000000000E+00 0. -1.
          1   -1    0    0  501    0 -0.00000000000E+00 -0.00000000000E+00 -0.19080139486E+04  0.19080139486E+04  0.00000000000E+00 0. -1.
         25    2    1    2    0    0  0.75080660620E+01 -0.17331449421E+03 -0.22160477300E+03  0.30794161875E+03  0.12500032074E+03 0.  0.
          2    1    1    2  501    0 -0.90130978298E+02  0.19161978436E+03 -0.16308078507E+04  0.16444987020E+04  0.00000000000E+00 0. -1.
          1    1    1    2  502    0  0.82622912236E+02 -0.18305290156E+02  0.31484471965E+03  0.32601967236E+03  0.00000000000E+00 0. -1.
         22    1    3    3    0    0  0.26889185236E+02 -0.31705484099E+02 -0.13400114648E+03  0.14030172224E+03  0.00000000000E+00 0. -1.
         22    1    3    3    0    0 -0.19381119175E+02 -0.14160901011E+03 -0.87603626515E+02  0.16763989651E+03  0.00000000000E+00 0. -1.
</event>
<event>
 7    1  0.6607887E-006  0.7162584E+02  0.7818608E-02  0.1374323E+00
          2   -1    0    0  502    0  0.00000000000E+00  0.00000000000E+00  0.40899836982E+03  0.40899836982E+03  0.00000000000E+00 0. -1.
          1   -1    0    0  501    0 -0.00000000000E+00 -0.00000000000E+00 -0.90417738828E+03  0.90417738828E+03  0.00000000000E+00 0. -1.
         25    2    1    2    0    0 -0.66273033089E+02  0.75475881457E+02 -0.13917604008E+03  0.21233120129E+03  0.12500338120E+03 0.  0.
          2    1    1    2  501    0  0.69593956851E+02 -0.14787613207E+02 -0.72418904717E+03  0.72767559281E+03  0.00000000000E+00 0. -1.
          1    1    1    2  502    0 -0.33209237624E+01 -0.60688268250E+02  0.36818606879E+03  0.37316896400E+03  0.00000000000E+00 0. -1.
         22    1    3    3    0    0  0.15186471379E+02 -0.25314742129E+02 -0.16185637224E+02  0.33666599685E+02  0.00000000000E+00 0.  1.
         22    1    3    3    0    0 -0.81459504468E+02  0.10079062359E+03 -0.12299040286E+03  0.17866460160E+03  0.00000000000E+00 0.  1.
</event>
<event>
 7    1  0.6607887E-006  0.9751566E+02  0.7818608E-02  0.1475884E+00
          2   -1    0    0  502    0  0.00000000000E+00  0.00000000000E+00  0.13659309675E+04  0.13659309675E+04  0.00000000000E+00 0. -1.
          1   -1    0    0  501    0 -0.00000000000E+00 -0.00000000000E+00 -0.36546899753E+03  0.36546899753E+03  0.00000000000E+00 0. -1.
         25    2    1    2    0    0  0.10476757404E+03  0.53376959512E+02  0.28000872683E+03  0.32841097727E+03  0.12499415391E+03 0.  0.
          2    1    1    2  501    0 -0.86840759824E+02 -0.43352111320E+02 -0.33426459650E+03  0.34807117604E+03  0.00000000000E+00 0. -1.
          1    1    1    2  502    0 -0.17926814216E+02 -0.10024848192E+02  0.10547178396E+04  0.10549178117E+04  0.00000000000E+00 0. -1.
         22    1    3    3    0    0  0.11093246049E+03  0.46916578833E+02  0.12659760556E+03  0.17474017824E+03  0.00000000000E+00 0.  1.
         22    1    3    3    0    0 -0.61648864463E+01  0.64603806792E+01  0.15341112127E+03  0.15367079902E+03  0.00000000000E+00 0.  1.
</event>
<event>
 7    1  0.6607887E-006  0.1352218E+03  0.7818608E-02  0.1297947E+00
          2   -1    0    0  502    0  0.00000000000E+00  0.00000000000E+00  0.15784308016E+03  0.15784308016E+03  0.00000000000E+00 0. -1.
          1   -1    0    0  501    0 -0.00000000000E+00 -0.00000000000E+00 -0.85673612270E+03  0.85673612270E+03  0.00000000000E+00 0. -1.
         25    2    1    2    0    0 -0.13871941155E+03  0.10203440396E+03 -0.35783017854E+03  0.41631869441E+03  0.12499889563E+03 0.  0.
          2    1    1    2  501    0  0.12478287011E+02 -0.61415063163E+02 -0.43260357973E+03  0.43711940568E+03  0.00000000000E+00 0. -1.
          1    1    1    2  502    0  0.12624112454E+03 -0.40619340794E+02  0.91540715723E+02  0.16114110278E+03  0.00000000000E+00 0. -1.
         22    1    3    3    0    0 -0.73720783056E+02 -0.83942976497E+01 -0.19812491116E+03  0.21156251679E+03  0.00000000000E+00 0. -1.
         22    1    3    3    0    0 -0.64998628493E+02  0.11042870161E+03 -0.15970526738E+03  0.20475617762E+03  0.00000000000E+00 0. -1.
</event>
<event>
 7    1  0.6607887E-006  0.7828788E+02  0.7818608E-02  0.1413899E+00
          2   -1    0    0  502    0  0.00000000000E+00  0.00000000000E+00  0.34694347996E+03  0.34694347996E+03  0.00000000000E+00 0. -1.
          1   -1    0    0  501    0 -0.00000000000E+00 -0.00000000000E+00 -0.42776586303E+03  0.42776586303E+03  0.00000000000E+00 0. -1.
         25    2    1    2    0    0  0.49535401573E+02 -0.29610958133E+02 -0.42314736652E+02  0.14403325790E+03  0.12499791035E+03 0.  0.
          2    1    1    2  501    0 -0.41620137986E+02  0.69365608310E+02 -0.32827101628E+03  0.33809123566E+03  0.00000000000E+00 0. -1.
          1    1    1    2  502    0 -0.79152635873E+01 -0.39754650177E+02  0.28976336985E+03  0.29258484943E+03  0.00000000000E+00 0. -1.
         22    1    3    3    0    0  0.26305787272E+02 -0.69405330068E+02 -0.59218537450E+02  0.94952248333E+02  0.00000000000E+00 0. -1.
         22    1    3    3    0    0  0.23229614301E+02  0.39794371935E+02  0.16903800798E+02  0.49081009563E+02  0.00000000000E+00 0. -1.
</event>
<event>
 7    1  0.6607887E-006  0.2935389E+02  0.7818608E-02  0.1649566E+00
          2   -1    0    0  502    0  0.00000000000E+00  0.00000000000E+00  0.42557658211E+03  0.42557658211E+03  0.00000000000E+00 0. -1.
          1   -1    0    0  501    0 -0.00000000000E+00 -0.00000000000E+00 -0.43355398376E+02  0.43355398376E+02  0.00000000000E+00 0. -1.
         25    2    1    2    0    0  0.23750395718E+01  0.89849983161E+01  0.13384778437E+03  0.18337646933E+03  0.12500131645E+03 0.  0.
          2    1    1    2  501    0  0.35904378515E+01 -0.30889777565E+02 -0.47130497864E+01  0.31452860606E+02  0.00000000000E+00 0. -1.
          1    1    1    2  502    0 -0.59654774233E+01  0.21904779249E+02  0.25308644915E+03  0.25410265055E+03  0.00000000000E+00 0. -1.
         22    1    3    3    0    0 -0.42673377444E+02  0.45419106277E+02  0.43328613660E+02  0.75903103489E+02  0.00000000000E+00 0. -1.
         22    1    3    3    0    0  0.45048417016E+02 -0.36434107961E+02  0.90519170711E+02  0.10747336584E+03  0.00000000000E+00 0. -1.
</event>
<event>
 7    1  0.6607887E-006  0.8449578E+02  0.7818608E-02  0.1328846E+00
          2   -1    0    0  502    0  0.00000000000E+00  0.00000000000E+00  0.22196120289E+03  0.22196120289E+03  0.00000000000E+00 0. -1.
          1   -1    0    0  501    0 -0.00000000000E+00 -0.00000000000E+00 -0.30196997449E+03  0.30196997449E+03  0.00000000000E+00 0. -1.
         25    2    1    2    0    0  0.12879330408E+03 -0.75704714550E+02 -0.52942105325E+02  0.20185393740E+03  0.12499290599E+03 0.  0.
          2    1    1    2  501    0 -0.73421559879E+02  0.19162184602E+02 -0.15446628279E+03  0.17209807464E+03  0.00000000000E+00 0. -1.
          1    1    1    2  502    0 -0.55371744200E+02  0.56542529948E+02  0.12739961652E+03  0.14997916535E+03  0.00000000000E+00 0. -1.
         22    1    3    3    0    0  0.53139924682E+01 -0.23220760848E+02 -0.62954378164E+02  0.67310444809E+02  0.00000000000E+00 0. -1.
         22    1    3    3    0    0  0.12347931161E+03 -0.52483953702E+02  0.10012272839E+02  0.13454349259E+03  0.00000000000E+00 0. -1.
</event>
<event>
 7    1  0.6607887E-006  0.3056771E+03  0.7818608E-02  0.1195383E+00
          2   -1    0    0  502    0  0.00000000000E+00  0.00000000000E+00  0.16931057828E+04  0.16931057828E+04  0.00000000000E+00 0. -1.
          1   -1    0    0  501    0 -0.00000000000E+00 -0.00000000000E+00 -0.19906598603E+04  0.19906598603E+04  0.00000000000E+00 0. -1.
         25    2    1    2    0    0 -0.19927540315E+03 -0.27113628602E+03 -0.74714055189E+03  0.82889856464E+03  0.12501301646E+03 0.  0.
          2    1    1    2  501    0  0.12153475940E+03  0.26795808307E+03 -0.11837040608E+04  0.12197243687E+04  0.00000000000E+00 0. -1.
          1    1    1    2  502    0  0.77740643751E+02  0.31782029479E+01  0.16332905353E+04  0.16351427097E+04  0.00000000000E+00 0. -1.
         22    1    3    3    0    0 -0.53228416980E+01 -0.62424026517E+02 -0.23094113985E+03  0.23928832359E+03  0.00000000000E+00 0. -1.
         22    1    3    3    0    0 -0.19395256145E+03 -0.20871225950E+03 -0.51619941203E+03  0.58961024104E+03  0.00000000000E+00 0. -1.
</event>
<event>
 7    1  0.6607887E-006  0.8289132E+02  0.7818608E-02  0.1429665E+00
          2   -1    0    0  502    0  0.00000000000E+00  0.00000000000E+00  0.27974153166E+03  0.27974153166E+03  0.00000000000E+00 0. -1.
          1   -1    0    0  501    0 -0.00000000000E+00 -0.00000000000E+00 -0.20051922696E+03  0.20051922696E+03  0.00000000000E+00 0. -1.
         25    2    1    2    0    0 -0.55930292414E+02 -0.99148753337E+01  0.58781074019E+02  0.14936123487E+03  0.12500824556E+03 0.  0.
          2    1    1    2  501    0 -0.33571258671E+02  0.48708771272E+01 -0.14165857857E+03  0.14566368022E+03  0.00000000000E+00 0. -1.
          1    1    1    2  502    0  0.89501551085E+02  0.50439982065E+01  0.16209980925E+03  0.18523584352E+03  0.00000000000E+00 0. -1.
         22    1    3    3    0    0 -0.55122486976E+02  0.50437162809E+02  0.19066599513E+02  0.77109864347E+02  0.00000000000E+00 0. -1.
         22    1    3    3    0    0 -0.80780543828E+00 -0.60352038143E+02  0.39714474506E+02  0.72251370526E+02  0.00000000000E+00 0. -1.
</event>
<event>
 7    1  0.6607887E-006  0.8281304E+02  0.7818608E-02  0.1466523E+00
          2   -1    0    0  502    0  0.00000000000E+00  0.00000000000E+00  0.18746620851E+04  0.18746620851E+04  0.00000000000E+00 0. -1.
          1   -1    0    0  501    0 -0.00000000000E+00 -0.00000000000E+00 -0.50105779926E+03  0.50105779926E+03  0.00000000000E+00 0. -1.
         25    2    1    2    0    0 -0.44537488906E+02  0.92924923760E+02  0.35279763257E+03  0.38821398797E+03  0.12500120612E+03 0.  0.
          2    1    1    2  501    0 -0.18870875872E+01 -0.25791350313E+02 -0.48189538433E+03  0.48258876519E+03  0.00000000000E+00 0. -1.
          1    1    1    2  502    0  0.46424576493E+02 -0.67133573447E+02  0.15027020376E+04  0.15049171312E+04  0.00000000000E+00 0. -1.
         22    1    3    3    0    0 -0.50694296720E+02  0.11880933969E+03  0.32502854681E+03  0.34975581076E+03  0.00000000000E+00 0. -1.
         22    1    3    3    0    0  0.61568078142E+01 -0.25884415927E+02  0.27769085761E+02  0.38458177210E+02  0.00000000000E+00 0. -1.
</event>
<event>
 7    1  0.6607887E-006  0.1295492E+03  0.7818608E-02  0.1255523E+00
          2   -1    0    0  502    0  0.00000000000E+00  0.00000000000E+00  0.12812915134E+04  0.12812915134E+04  0.00000000000E+00 0. -1.
          1   -1    0    0  501    0 -0.00000000000E+00 -0.00000000000E+00 -0.71291930791E+03  0.71291930791E+03  0.00000000000E+00 0. -1.
         25    2    1    2    0    0  0.22126490494E+02  0.34880030961E+02 -0.23329085486E+02  0.13370468528E+03  0.12500599384E+03 0.  0.
          2    1    1    2  501    0 -0.59173232996E+01  0.97986817806E+02 -0.62691839622E+03  0.63455741009E+03  0.00000000000E+00 0. -1.
          1    1    1    2  502    0 -0.16209167194E+02 -0.13286684877E+03  0.12186196872E+04  0.12259487260E+04  0.00000000000E+00 0. -1.
         22    1    3    3    0    0  0.73454665638E+02  0.14610257637E+02 -0.31974857830E+01  0.74961799922E+02  0.00000000000E+00 0. -1.
         22    1    3    3    0    0 -0.51328175144E+02  0.20269773323E+02 -0.20131599703E+02  0.58742885363E+02  0.00000000000E+00 0. -1.
</event>
<event>
 7    1  0.6607887E-006  0.7891329E+02  0.7818608E-02  0.1423027E+00
          2   -1    0    0  502    0  0.00000000000E+00  0.00000000000E+00  0.10980168761E+04  0.10980168761E+04  0.00000000000E+00 0. -1.
          1   -1    0    0  501    0 -0.00000000000E+00 -0.00000000000E+00 -0.21468160465E+03  0.21468160465E+03  0.00000000000E+00 0. -1.
         25    2    1    2    0    0 -0.89452001873E+01 -0.11371532486E+03  0.18855408487E+03  0.25335906614E+03  0.12500792680E+03 0.  0.
          2    1    1    2  501    0 -0.20765802454E+01  0.37423933401E+02 -0.17863675105E+03  0.18252657835E+03  0.00000000000E+00 0. -1.
          1    1    1    2  502    0  0.11021780433E+02  0.76291391459E+02  0.87341793766E+03  0.87681283628E+03  0.00000000000E+00 0. -1.
         22    1    3    3    0    0  0.53214884864E+02 -0.60961451576E+02  0.12944869210E+03  0.15266003549E+03  0.00000000000E+00 0.  1.
         22    1    3    3    0    0 -0.62160085052E+02 -0.52753873284E+02  0.59105392764E+02  0.10069903065E+03  0.00000000000E+00 0.  1.
</event>
<event>
 7    1  0.6607887E-006  0.1081745E+03  0.7818608E-02  0.1427466E+00
          2   -1    0    0  502    0  0.00000000000E+00  0.00000000000E+00  0.20359442453E+04  0.20359442453E+04  0.00000000000E+00 0. -1.
          1   -1    0    0  501    0 -0.00000000000E+00 -0.00000000000E+00 -0.24414345971E+03  0.24414345971E+03  0.00000000000E+00 0. -1.
         25    2    1    2    0    0 -0.10569543542E+03 -0.14964785771E+01 -0.15963617030E+03  0.22865488759E+03  0.12500234492E+03 0.  0.
          2    1    1    2  501    0  0.38964064207E+00  0.26428970995E+02 -0.44933638554E+02  0.52131316896E+02  0.00000000000E+00 0. -1.
          1    1    1    2  502    0  0.10530579478E+03 -0.24932492418E+02  0.19963705945E+04  0.19993015006E+04  0.00000000000E+00 0. -1.
         22    1    3    3    0    0 -0.45585369002E+02 -0.56784737347E+02 -0.11350942145E+03  0.13485889300E+03  0.00000000000E+00 0. -1.
         22    1    3    3    0    0 -0.60110066415E+02  0.55288258770E+02 -0.46126748854E+02  0.93795994595E+02  0.00000000000E+00 0. -1.
</event>
<event>
 7    1  0.6607887E-006  0.8418557E+02  0.7818608E-02  0.1365725E+00
          2   -1    0    0  502    0  0.00000000000E+00  0.00000000000E+00  0.17373629008E+03  0.17373629008E+03  0.00000000000E+00 0. -1.
          1   -1    0    0  501    0 -0.00000000000E+00 -0.00000000000E+00 -0.37157176103E+03  0.37157176103E+03  0.00000000000E+00 0. -1.
         25    2    1    2    0    0  0.32107881492E+02  0.79988342384E+01 -0.13478312659E+03  0.18677938320E+03  0.12500059748E+03 0.  0.
          2    1    1    2  501    0  0.52338049630E+02  0.18543001679E+02 -0.19326169439E+03  0.20108007576E+03  0.00000000000E+00 0. -1.
          1    1    1    2  502    0 -0.84445931122E+02 -0.26541835917E+02  0.13020935002E+03  0.15744859215E+03  0.00000000000E+00 0. -1.
         22    1    3    3    0    0  0.77399859513E+02 -0.13306524500E+02 -0.72567912419E+02  0.10692943355E+03  0.00000000000E+00 0. -1.
         22    1    3    3    0    0 -0.45291978021E+02  0.21305358738E+02 -0.62215214172E+02  0.79849949646E+02  0.00000000000E+00 0. -1.
</event>
<event>
 7    1  0.6607887E-006  0.3752563E+02  0.7818608E-02  0.1569411E+00
          2   -1    0    0  502    0  0.00000000000E+00  0.00000000000E+00  0.21909176297E+03  0.21909176297E+03  0.00000000000E+00 0. -1.
          1   -1    0    0  501    0 -0.00000000000E+00 -0.00000000000E+00 -0.12742475509E+03  0.12742475509E+03  0.00000000000E+00 0. -1.
         25    2    1    2    0    0 -0.44830506219E+02 -0.29675525894E+02  0.11790767496E+03  0.18005310094E+03  0.12500595273E+03 0.  0.
          2    1    1    2  501    0  0.16476788167E+02  0.33459983182E+02 -0.89541912106E+02  0.96999015698E+02  0.00000000000E+00 0. -1.
          1    1    1    2  502    0  0.28353718052E+02 -0.37844572875E+01  0.63301245025E+02  0.69464401430E+02  0.00000000000E+00 0. -1.
         22    1    3    3    0    0 -0.42748503674E+02  0.24303590880E+02  0.11600871458E+03  0.12600047997E+03  0.00000000000E+00 0.  1.
         22    1    3    3    0    0 -0.20820025447E+01 -0.53979116774E+02  0.18989603810E+01  0.54052620962E+02  0.00000000000E+00 0.  1.
</event>
<event>
 7    1  0.6607887E-006  0.4532158E+02  0.7818608E-02  0.1479034E+00
          2   -1    0    0  502    0  0.00000000000E+00  0.00000000000E+00  0.36306156706E+03  0.36306156706E+03  0.00000000000E+00 0. -1.
          1   -1    0    0  501    0 -0.00000000000E+00 -0.00000000000E+00 -0.26554722380E+03  0.26554722380E+03  0.00000000000E+00 0. -1.
         25    2    1    2    0    0 -0.67731844284E+01  0.45746253120E+02  0.11695505637E+02  0.13379379631E+03  0.12500159750E+03 0.  0.
          2    1    1    2  501    0 -0.34600132132E+02 -0.25895319375E+02 -0.20036628879E+03  0.20497411152E+03  0.00000000000E+00 0. -1.
          1    1    1    2  502    0  0.41373316560E+02 -0.19850933744E+02  0.28618512642E+03  0.28984088303E+03  0.00000000000E+00 0. -1.
         22    1    3    3    0    0 -0.93181756073E+01  0.81988073347E+01  0.66313889771E+02  0.67465404578E+02  0.00000000000E+00 0.  1.
         22    1    3    3    0    0  0.25449911789E+01  0.37547445785E+02 -0.54618384133E+02  0.66328391737E+02  0.00000000000E+00 0.  1.
</event>
<event>
 7    1  0.6607887E-006  0.8879249E+02  0.7818608E-02  0.1364039E+00
          2   -1    0    0  502    0  0.00000000000E+00  0.00000000000E+00  0.90723462863E+03  0.90723462863E+03  0.00000000000E+00 0. -1.
          1   -1    0    0  501    0 -0.00000000000E+00 -0.00000000000E+00 -0.20923820359E+03  0.20923820359E+03  0.00000000000E+00 0. -1.
         25    2    1    2    0    0  0.25875648377E+01  0.44455533959E+02  0.22506987058E+02  0.13458899119E+03  0.12499856836E+03 0.  0.
          2    1    1    2  501    0 -0.13776133328E+02 -0.96660750063E+02 -0.13667428479E+03  0.16796708777E+03  0.00000000000E+00 0. -1.
          1    1    1    2  502    0  0.11188568490E+02  0.52205216103E+02  0.81216372277E+03  0.81391675326E+03  0.00000000000E+00 0. -1.
         22    1    3    3    0    0 -0.50366662101E+02  0.56430666581E+02 -0.45848570883E+00  0.75640141401E+02  0.00000000000E+00 0.  1.
         22    1    3    3    0    0  0.52954226939E+02 -0.11975132621E+02  0.22965472767E+02  0.58948849788E+02  0.00000000000E+00 0.  1.
</event>
<event>
 7    1  0.6607887E-006  0.6250077E+02  0.7818608E-02  0.1397018E+00
          2   -1    0    0  502    0  0.00000000000E+00  0.00000000000E+00  0.78010843753E+03  0.78010843753E+03  0.00000000000E+00 0. -1.
          1   -1    0    0  501    0 -0.00000000000E+00 -0.00000000000E+00 -0.47428123676E+02  0.47428123676E+02  0.00000000000E+00 0. -1.
         25    2    1    2    0    0 -0.27454707669E+02  0.21192118029E+02  0.23769385308E+03  0.27078756560E+03  0.12499868421E+03 0.  0.
          2    1    1    2  501    0 -0.25129268309E+02 -0.57226443110E+02  0.50736338889E+01  0.62706360743E+02  0.00000000000E+00 0. -1.
          1    1    1    2  502    0  0.52583975978E+02  0.36034325081E+02  0.48991282689E+03  0.49404263487E+03  0.00000000000E+00 0. -1.
         22    1    3    3    0    0 -0.47971990144E+02  0.43772255350E+02  0.53660303865E+02  0.84242212623E+02  0.00000000000E+00 0. -1.
         22    1    3    3    0    0  0.20517282474E+02 -0.22580137321E+02  0.18403354921E+03  0.18654535298E+03  0.00000000000E+00 0. -1.
</event>
<event>
 7    1  0.6607887E-006  0.1942270E+03  0.7818608E-02  0.1321584E+00
          2   -1    0    0  502    0  0.00000000000E+00  0.00000000000E+00  0.15307527292E+04  0.15307527292E+04  0.00000000000E+00 0. -1.
          1   -1    0    0  501    0 -0.00000000000E+00 -0.00000000000E+00 -0.35408325742E+03  0.35408325742E+03  0.00000000000E+00 0. -1.
         25    2    1    2    0    0  0.13655977630E+03  0.16224182072E+03  0.86957303589E+02  0.26106977501E+03  0.12499949553E+03 0.  0.
          2    1    1    2  501    0 -0.10135592423E+03 -0.16195741860E+03 -0.23258713232E+03  0.30099834375E+03  0.00000000000E+00 0. -1.
          1    1    1    2  502    0 -0.35203852068E+02 -0.28440211966E+00  0.13222993005E+04  0.13227678678E+04  0.00000000000E+00 0. -1.
         22    1    3    3    0    0 -0.17598040947E+02 -0.50162508971E+01  0.10512620364E+02  0.21103767558E+02  0.00000000000E+00 0.  1.
         22    1    3    3    0    0  0.15415781725E+03  0.16725807162E+03  0.76444683225E+02  0.23996600745E+03  0.00000000000E+00 0.  1.
</event>
<event>
 7    1  0.6607887E-006  0.1622038E+03  0.7818608E-02  0.1233994E+00
          2   -1    0    0  502    0  0.00000000000E+00  0.00000000000E+00  0.12554202136E+04  0.12554202136E+04  0.00000000000E+00 0. -1.
          1   -1    0    0  501    0 -0.00000000000E+00 -0.00000000000E+00 -0.22656438077E+03  0.22656438077E+03  0.00000000000E+00 0. -1.
         25    2    1    2    0    0 -0.15280236333E+03 -0.31641043693E+02 -0.12715416228E+03  0.23694427660E+03  0.12499876536E+03 0.  0.
          2    1    1    2  501    0  0.16388453002E+03  0.12840489312E+03  0.21601888977E+03  0.30001686035E+03  0.00000000000E+00 0. -1.
          1    1    1    2  502    0 -0.11082166690E+02 -0.96763849424E+02  0.93999110532E+03  0.94502345741E+03  0.00000000000E+00 0. -1.
         22    1    3    3    0    0  0.16611878755E+02  0.21806269770E+01  0.70572278797E+01  0.18180047170E+02  0.00000000000E+00 0.  1.
         22    1    3    3    0    0 -0.16941424209E+03 -0.33821670670E+02 -0.13421139016E+03  0.21876422943E+03  0.00000000000E+00 0.  1.
</event>
<event>
 7    1  0.6607887E-006  0.3915165E+03  0.7818608E-02  0.1139253E+00
          2   -1    0    0  502    0  0.00000000000E+00  0.00000000000E+00  0.46083790650E+03  0.46083790650E+03  0.00000000000E+00 0. -1.
          1   -1    0    0  501    0 -0.00000000000E+00 -0.00000000000E+00 -0.17311586760E+04  0.17311586760E+04  0.00000000000E+00 0. -1.
         25    2    1    2    0    0 -0.12983883760E+03 -0.33477937458E+03 -0.55828991319E+03  0.67546220533E+03  0.12500484097E+03 0.  0.
          2    1    1    2  501    0  0.97350510124E+02 -0.62751866373E+02 -0.10112853827E+04  0.10178963817E+04  0.00000000000E+00 0. -1.
          1    1    1    2  502    0  0.32488327476E+02  0.39753124095E+03  0.29925452642E+03  0.49863799548E+03  0.00000000000E+00 0. -1.
         22    1    3    3    0    0 -0.55398473133E+02 -0.21567171816E+03 -0.43452378688E+03  0.48825628742E+03  0.00000000000E+00 0.  1.
         22    1    3    3    0    0 -0.74440364467E+02 -0.11910765641E+03 -0.12376612631E+03  0.18720591791E+03  0.00000000000E+00 0.  1.
</event>
<event>
 7    1  0.6607887E-006  0.5567904E+02  0.7818608E-02  0.1514993E+00
          2   -1    0    0  502    0  0.00000000000E+00  0.00000000000E+00  0.13313106209E+03  0.13313106209E+03  0.00000000000E+00 0. -1.
          1   -1    0    0  501    0 -0.00000000000E+00 -0.00000000000E+00 -0.62372551804E+03  0.62372551804E+03  0.00000000000E+00 0. -1.
         25    2    1    2    0    0 -0.58991381594E+02  0.43757021869E+02 -0.38542526180E+03  0.41179095813E+03  0.12499800276E+03 0.  0.
          2    1    1    2  501    0  0.27388286814E+02  0.18088378648E+01 -0.21780066501E+03  0.21952339244E+03  0.00000000000E+00 0. -1.
          1    1    1    2  502    0  0.31603094780E+02 -0.45565859734E+02  0.11263147087E+03  0.12554222956E+03  0.00000000000E+00 0. -1.
         22    1    3    3    0    0  0.39196084351E+02  0.18680096777E+02 -0.10542628188E+03  0.11401745461E+03  0.00000000000E+00 0.  1.
         22    1    3    3    0    0 -0.98187465945E+02  0.25076925093E+02 -0.27999897992E+03  0.29777350352E+03  0.00000000000E+00 0.  1.
</event>
<event>
 7    1  0.6607887E-006  0.1081670E+03  0.7818608E-02  0.1404972E+00
          2   -1    0    0  502    0  0.00000000000E+00  0.00000000000E+00  0.14622529267E+03  0.14622529267E+03  0.00000000000E+00 0. -1.
          1   -1    0    0  501    0 -0.00000000000E+00 -0.00000000000E+00 -0.84475730451E+03  0.84475730451E+03  0.00000000000E+00 0. -1.
         25    2    1    2    0    0 -0.12429556320E+03 -0.75923681455E+01 -0.53077468778E+03  0.55933287154E+03  0.12499784364E+03 0.  0.
          2    1    1    2  501    0  0.96666352441E+02  0.22629234469E+02 -0.28942617743E+03  0.30598035579E+03  0.00000000000E+00 0. -1.
          1    1    1    2  502    0  0.27629210755E+02 -0.15036866323E+02  0.12166885337E+03  0.12566936984E+03  0.00000000000E+00 0. -1.
         22    1    3    3    0    0 -0.90477431206E+01  0.45644808419E+02 -0.10106543347E+03  0.11126334542E+03  0.00000000000E+00 0.  1.
         22    1    3    3    0    0 -0.11524782008E+03 -0.53237176565E+02 -0.42970925431E+03  0.44806952613E+03  0.00000000000E+00 0.  1.
</event>
<event>
 7    1  0.6607887E-006  0.8157351E+02  0.7818608E-02  0.1356309E+00
          2   -1    0    0  502    0  0.00000000000E+00  0.00000000000E+00  0.32474039925E+03  0.32474039925E+03  0.00000000000E+00 0. -1.
          1   -1    0    0  501    0 -0.00000000000E+00 -0.00000000000E+00 -0.12063163100E+04  0.12063163100E+04  0.00000000000E+00 0. -1.
         25    2    1    2    0    0  0.33723160504E+02  0.33304363173E+02  0.78688723735E+02  0.15512479106E+03  0.12500141358E+03 0.  0.
          2    1    1    2  501    0  0.45909811182E+01 -0.82067466145E+02 -0.11619879017E+04  0.11648914240E+04  0.00000000000E+00 0. -1.
          1    1    1    2  502    0 -0.38314141622E+02  0.48763102972E+02  0.20172326719E+03  0.21104049418E+03  0.00000000000E+00 0. -1.
         22    1    3    3    0    0  0.25873866737E+02  0.54103849009E+02 -0.12503453504E+02  0.61261895229E+02  0.00000000000E+00 0. -1.
         22    1    3    3    0    0  0.78492937669E+01 -0.20799485835E+02  0.91192177239E+02  0.93862895828E+02  0.00000000000E+00 0. -1.
</event>
<event>
 7    1  0.6607887E-006  0.5788253E+02  0.7818608E-02  0.1473733E+00
          2   -1    0    0  502    0  0.00000000000E+00  0.00000000000E+00  0.62150670932E+03  0.62150670932E+03  0.00000000000E+00 0. -1.
          1   -1    0    0  501    0 -0.00000000000E+00 -0.00000000000E+00 -0.10927548200E+04  0.10927548200E+04  0.00000000000E+00 0. -1.
         25    2    1    2    0    0 -0.18947921631E+02  0.66813237769E+02  0.73954815211E+02  0.16098050096E+03  0.12498949764E+03 0.  0.
          2    1    1    2  501    0  0.41744776405E+02 -0.40076003103E+02 -0.10478303090E+04  0.10494270193E+04  0.00000000000E+00 0. -1.
          1    1    1    2  502    0 -0.22796854774E+02 -0.26737234665E+02  0.50262738306E+03  0.50385400912E+03  0.00000000000E+00 0. -1.
         22    1    3    3    0    0 -0.45623066424E+00 -0.14703271570E+02  0.75957598281E+02  0.77368928375E+02  0.00000000000E+00 0. -1.
         22    1    3    3    0    0 -0.18491690966E+02  0.81516509339E+02 -0.20027830704E+01  0.83611572582E+02  0.00000000000E+00 0. -1.
</event>
<event>
 7    1  0.6607887E-006  0.9053269E+02  0.7818608E-02  0.1350413E+00
          2   -1    0    0  502    0  0.00000000000E+00  0.00000000000E+00  0.13689009310E+03  0.13689009310E+03  0.00000000000E+00 0. -1.
          1   -1    0    0  501    0 -0.00000000000E+00 -0.00000000000E+00 -0.69431140966E+03  0.69431140966E+03  0.00000000000E+00 0. -1.
         25    2    1    2    0    0  0.12570157907E+03 -0.16095206794E+02 -0.17466749377E+03  0.24938574659E+03  0.12499829823E+03 0.  0.
          2    1    1    2  501    0 -0.83932008007E+02 -0.25212003879E+02 -0.46919113565E+03  0.47730550895E+03  0.00000000000E+00 0. -1.
          1    1    1    2  502    0 -0.41769571060E+02  0.41307210672E+02  0.86437312851E+02  0.10451024722E+03  0.00000000000E+00 0. -1.
         22    1    3    3    0    0  0.15115327725E+03 -0.18657990222E+02 -0.14624223190E+03  0.21114503123E+03  0.00000000000E+00 0. -1.
         22    1    3    3    0    0 -0.25451698179E+02  0.25627834283E+01 -0.28425261870E+02  0.38240715363E+02  0.00000000000E+00 0. -1.
</event>
<event>
 7    1  0.6607887E-006  0.8292918E+02  0.7818608E-02  0.1448994E+00
          2   -1    0    0  502    0  0.00000000000E+00  0.00000000000E+00  0.98979422713E+02  0.98979422713E+02  0.00000000000E+00 0. -1.
          1   -1    0    0  501    0 -0.00000000000E+00 -0.00000000000E+00 -0.65496342794E+03  0.65496342794E+03  0.00000000000E+00 0. -1.
         25    2    1    2    0    0 -0.32799690987E+01 -0.91765534793E+02 -0.66762804866E+01  0.15524539970E+03  0.12499955934E+03 0.  0.
          2    1    1    2  501    0  0.28935914424E+02  0.77525811962E+02 -0.56103001928E+03  0.56709983354E+03  0.00000000000E+00 0. -1.
          1    1    1    2  502    0 -0.25655945325E+02  0.14239722830E+02  0.11722294541E+02  0.31597617412E+02  0.00000000000E+00 0. -1.
         22    1    3    3    0    0  0.25377450733E+02  0.12499562508E+02  0.29836626637E+02  0.41115427246E+02  0.00000000000E+00 0. -1.
         22    1    3    3    0    0 -0.28657419831E+02 -0.10426509730E+03 -0.36512907124E+02  0.11412997246E+03  0.00000000000E+00 0. -1.
</event>
<event>
 7    1  0.6607887E-006  0.5605150E+02  0.7818608E-02  0.1525160E+00
          2   -1    0    0  502    0  0.00000000000E+00  0.00000000000E+00  0.33974612540E+03  0.33974612540E+03  0.00000000000E+00 0. -1.
          1   -1    0    0  501    0 -0.00000000000E+00 -0.00000000000E+00 -0.24053759065E+03  0.24053759065E+03  0.00000000000E+00 0. -1.
         25    2    1    2    0    0 -0.56901300507E+02 -0.89552149210E+01 -0.10445787711E+03  0.17279619064E+03  0.12501648506E+03 0.  0.
          2    1    1    2  501    0  0.46693940955E+02  0.32294488242E+02 -0.93415891427E+02  0.10931508068E+03  0.00000000000E+00 0. -1.
          1    1    1    2  502    0  0.10207359552E+02 -0.23339273321E+02  0.29708230329E+03  0.29817244473E+03  0.00000000000E+00 0. -1.
         22    1    3    3    0    0  0.34723660103E+02 -0.33023866219E+01 -0.63125511146E+02  0.72121206907E+02  0.00000000000E+00 0.  1.
         22    1    3    3    0    0 -0.91624960609E+02 -0.56528282991E+01 -0.41332365962E+02  0.10067498374E+03  0.00000000000E+00 0.  1.
</event>
<event>
 7    1  0.6607887E-006  0.1000597E+03  0.7818608E-02  0.1400114E+00
          2   -1    0    0  502    0  0.00000000000E+00  0.00000000000E+00  0.86599415468E+03  0.86599415468E+03  0.00000000000E+00 0. -1.
          1   -1    0    0  501    0 -0.00000000000E+00 -0.00000000000E+00 -0.59690067334E+03  0.59690067334E+03  0.00000000000E+00 0. -1.
         25    2    1    2    0    0  0.30202422225E+02  0.67664327347E+02  0.13087814901E+03  0.19556427951E+03  0.12500260009E+03 0.  0.
          2    1    1    2  501    0 -0.64011881762E+02 -0.77928368525E+02 -0.55960338232E+03  0.56861788324E+03  0.00000000000E+00 0. -1.
          1    1    1    2  502    0  0.33809459537E+02  0.10264041178E+02  0.69781871466E+03  0.69871266528E+03  0.00000000000E+00 0. -1.
         22    1    3    3    0    0  0.67139622667E+02  0.68033322601E+02  0.52820327775E+02  0.10920736670E+03  0.00000000000E+00 0. -1.
         22    1    3    3    0    0 -0.36937200442E+02 -0.36899525359E+00  0.78057821231E+02  0.86356912805E+02  0.00000000000E+00 0. -1.
</event>
<event>
 7    1  0.6607887E-006  0.7889466E+02  0.7818608E-02  0.1457745E+00
          2   -1    0    0  502    0  0.00000000000E+00  0.00000000000E+00  0.12657766702E+03  0.12657766702E+03  0.00000000000E+00 0. -1.
          1   -1    0    0  501    0 -0.00000000000E+00 -0.00000000000E+00 -0.26504630181E+03  0.26504630181E+03  0.00000000000E+00 0. -1.
         25    2    1    2    0    0 -0.55142979217E+00  0.73968019054E+02 -0.30885213096E+02  0.14849597511E+03  0.12500234525E+03 0.  0.
          2    1    1    2  501    0  0.29466317783E+02 -0.74778354977E+02 -0.16236990299E+03  0.18117409212E+03  0.00000000000E+00 0. -1.
          1    1    1    2  502    0 -0.28914887991E+02  0.81033592227E+00  0.54786481297E+02  0.61953901610E+02  0.00000000000E+00 0. -1.
         22    1    3    3    0    0  0.56443858568E+02  0.36181225543E+02 -0.42146167547E+02  0.79191474861E+02  0.00000000000E+00 0.  1.
         22    1    3    3    0    0 -0.56995288360E+02  0.37786793511E+02  0.11260954451E+02  0.69304500245E+02  0.00000000000E+00 0.  1.
</event>
<event>
 7    1  0.6607887E-006  0.3983116E+02  0.7818608E-02  0.1568792E+00
          2   -1    0    0  502    0  0.00000000000E+00  0.00000000000E+00  0.72812828486E+03  0.72812828486E+03  0.00000000000E+00 0. -1.
          1   -1    0    0  501    0 -0.00000000000E+00 -0.00000000000E+00 -0.11459571718E+03  0.11459571718E+03  0.00000000000E+00 0. -1.
         25    2    1    2    0    0  0.13080553273E+02  0.18239938851E+02  0.17241009108E+03  0.21413957200E+03  0.12500688199E+03 0.  0.
          2    1    1    2  501    0  0.26063755239E+02 -0.72528612052E+01 -0.90987006355E+02  0.94923962508E+02  0.00000000000E+00 0. -1.
          1    1    1    2  502    0 -0.39144308511E+02 -0.10987077646E+02  0.53210948296E+03  0.53366046754E+03  0.00000000000E+00 0. -1.
         22    1    3    3    0    0  0.46960028588E+02  0.12400984842E+02  0.17306816070E+03  0.17975432389E+03  0.00000000000E+00 0. -1.
         22    1    3    3    0    0 -0.33879475316E+02  0.58389540092E+01 -0.65806962003E+00  0.34385248105E+02  0.00000000000E+00 0. -1.
</event>
<event>
 7    1  0.6607887E-006  0.6327265E+02  0.7818608E-02  0.1424863E+00
          2   -1    0    0  502    0  0.00000000000E+00  0.00000000000E+00  0.20826309160E+03  0.20826309160E+03  0.00000000000E+00 0. -1.
          1   -1    0    0  501    0 -0.00000000000E+00 -0.00000000000E+00 -0.14509755505E+03  0.14509755505E+03  0.00000000000E+00 0. -1.
         25    2    1    2    0    0 -0.99960820401E+01  0.50429573218E+02  0.28804875089E+02  0.13819497742E+03  0.12500026977E+03 0.  0.
          2    1    1    2  501    0 -0.44783823881E+02 -0.10916556577E+02 -0.74174106795E+02  0.87330179250E+02  0.00000000000E+00 0. -1.
          1    1    1    2  502    0  0.54779905921E+02 -0.39513016640E+02  0.10853476826E+03  0.12783548998E+03  0.00000000000E+00 0. -1.
         22    1    3    3    0    0 -0.12954315227E+02 -0.21952344176E+02  0.55433875719E+02  0.61013394227E+02  0.00000000000E+00 0.  1.
         22    1    3    3    0    0  0.29582331872E+01  0.72381917394E+02 -0.26629000631E+02  0.77181583190E+02  0.00000000000E+00 0.  1.
</event>
<event>
 7    1  0.6607887E-006  0.9567907E+02  0.7818608E-02  0.1453505E+00
          2   -1    0    0  502    0  0.00000000000E+00  0.00000000000E+00  0.43524845570E+03  0.43524845570E+03  0.00000000000E+00 0. -1.
          1   -1    0    0  501    0 -0.00000000000E+00 -0.00000000000E+00 -0.78363522340E+02  0.78363522340E+02  0.00000000000E+00 0. -1.
         25    2    1    2    0    0  0.89192741995E+02  0.26662907141E+01  0.29866856735E+02  0.15646460753E+03  0.12500675961E+03 0.  0.
          2    1    1    2  501    0  0.36753158126E+01  0.24326613753E+02  0.11532983805E+02  0.27171709524E+02  0.00000000000E+00 0. -1.
          1    1    1    2  502    0 -0.92868057807E+02 -0.26992904467E+02  0.31548509282E+03  0.32997566099E+03  0.00000000000E+00 0. -1.
         22    1    3    3    0    0  0.21746485894E+02 -0.54750306205E+02  0.33583000035E+02  0.67810939896E+02  0.00000000000E+00 0. -1.
         22    1    3    3    0    0  0.67446256101E+02  0.57416596919E+02 -0.37161432991E+01  0.88653667633E+02  0.00000000000E+00 0. -1.
</event>
<event>
 7    1  0.6607887E-006  0.6962025E+02  0.7818608E-02  0.1471384E+00
          2   -1    0    0  502    0  0.00000000000E+00  0.00000000000E+00  0.99885600967E+03  0.99885600967E+03  0.00000000000E+00 0. -1.
          1   -1    0    0  501    0 -0.00000000000E+00 -0.00000000000E+00 -0.27327495109E+02  0.27327495109E+02  0.00000000000E+00 0. -1.
         25    2    1    2    0    0  0.74428272979E+01 -0.70707625580E+02  0.40859193401E+03  0.43316034085E+03  0.12500219341E+03 0.  0.
          2    1    1    2  501    0  0.27983245324E+02  0.99712834383E+01  0.43439892882E+01  0.30022637379E+02  0.00000000000E+00 0. -1.
          1    1    1    2  502    0 -0.35426072622E+02  0.60736342142E+02  0.55859259126E+03  0.56300052655E+03  0.00000000000E+00 0. -1.
         22    1    3    3    0    0 -0.21702374750E+02  0.64877028683E+01  0.27641915276E+03  0.27734568929E+03  0.00000000000E+00 0.  1.
         22    1    3    3    0    0  0.29145202048E+02 -0.77195328449E+02  0.13217278125E+03  0.15581465156E+03  0.00000000000E+00 0.  1.
</event>
<event>
 7    1  0.6607887E-006  0.3270153E+03  0.7818608E-02  0.1262021E+00
          2   -1    0    0  502    0  0.00000000000E+00  0.00000000000E+00  0.10438158901E+04  0.10438158901E+04  0.00000000000E+00 0. -1.
          1   -1    0    0  501    0 -0.00000000000E+00 -0.00000000000E+00 -0.15083469934E+04  0.15083469934E+04  0.00000000000E+00 0. -1.
         25    2    1    2    0    0 -0.74217429936E+02 -0.34153440408E+03  0.20209254554E+03  0.42263532693E+03  0.12500098611E+03 0.  0.
          2    1    1    2  501    0 -0.13706988453E+02  0.33805461938E+02 -0.13628114690E+04  0.13632995969E+04  0.00000000000E+00 0. -1.
          1    1    1    2  502    0  0.87924418389E+02  0.30772894214E+03  0.69618782024E+03  0.76622795970E+03  0.00000000000E+00 0. -1.
         22    1    3    3    0    0 -0.60057241209E+02 -0.26583946160E+03  0.90738645468E+02  0.28724726865E+03  0.00000000000E+00 0. -1.
         22    1    3    3    0    0 -0.14160188727E+02 -0.75694942471E+02  0.11135390008E+03  0.13538805827E+03  0.00000000000E+00 0. -1.
</event>
<event>
 7    1  0.6607887E-006  0.2967818E+03  0.7818608E-02  0.1275072E+00
          2   -1    0    0  502    0  0.00000000000E+00  0.00000000000E+00  0.24927459688E+04  0.24927459688E+04  0.00000000000E+00 0. -1.
          1   -1    0    0  501    0 -0.00000000000E+00 -0.00000000000E+00 -0.51416400204E+03  0.51416400204E+03  0.00000000000E+00 0. -1.
         25    2    1    2    0    0  0.10197322665E+03 -0.28398416518E+03  0.62983389761E+03  0.70947905206E+03  0.12499696680E+03 0.  0.
          2    1    1    2  501    0 -0.66901545230E+02  0.28892808460E+03 -0.42779114185E+03  0.52053867855E+03  0.00000000000E+00 0. -1.
          1    1    1    2  502    0 -0.35071681418E+02 -0.49439194253E+01  0.17765392110E+04  0.17768922402E+04  0.00000000000E+00 0. -1.
         22    1    3    3    0    0  0.90700278444E+02 -0.15345072025E+03  0.24521503081E+03  0.30315684948E+03  0.00000000000E+00 0. -1.
         22    1    3    3    0    0  0.11272948203E+02 -0.13053344493E+03  0.38461886680E+03  0.40632220257E+03  0.00000000000E+00 0. -1.
</event>
<event>
 7    1  0.6607887E-006  0.5064569E+02  0.7818608E-02  0.1454895E+00
          2   -1    0    0  502    0  0.00000000000E+00  0.00000000000E+00  0.10538099242E+04  0.10538099242E+04  0.00000000000E+00 0. -1.
          1   -1    0    0  501    0 -0.00000000000E+00 -0.00000000000E+00 -0.14458488494E+04  0.14458488494E+04  0.00000000000E+00 0. -1.
         25    2    1    2    0    0 -0.88127115037E+02  0.22896421052E+01  0.51596511101E+02  0.16142748457E+03  0.12500000781E+03 0.  0.
          2    1    1    2  501    0  0.47038918140E+02  0.18411328672E+02 -0.13899156544E+04  0.13908332622E+04  0.00000000000E+00 0. -1.
          1    1    1    2  502    0  0.41088196896E+02 -0.20700970777E+02  0.94628021805E+03  0.94739802680E+03  0.00000000000E+00 0. -1.
         22    1    3    3    0    0 -0.11295305990E+03 -0.10208054475E+02  0.13419490091E+02  0.11420455697E+03  0.00000000000E+00 0. -1.
         22    1    3    3    0    0  0.24825944867E+02  0.12497696580E+02  0.38177021010E+02  0.47222927605E+02  0.00000000000E+00 0. -1.
</event>
<event>
 7    1  0.6607887E-006  0.6366421E+02  0.7818608E-02  0.1407782E+00
          2   -1    0    0  502    0  0.00000000000E+00  0.00000000000E+00  0.79809984314E+02  0.79809984314E+02  0.00000000000E+00 0. -1.
          1   -1    0    0  501    0 -0.00000000000E+00 -0.00000000000E+00 -0.93426729919E+03  0.93426729919E+03  0.00000000000E+00 0. -1.
         25    2    1    2    0    0 -0.43102661988E+02  0.46140365437E+02 -0.32297738549E+03  0.35203055702E+03  0.12499739496E+03 0.  0.
          2    1    1    2  501    0  0.66121593998E+02  0.79882875801E+00 -0.58412340117E+03  0.58785444721E+03  0.00000000000E+00 0. -1.
          1    1    1    2  502    0 -0.23018932009E+02 -0.46939194195E+02  0.52643471777E+02  0.74192279270E+02  0.00000000000E+00 0. -1.
         22    1    3    3    0    0  0.14581013390E+02 -0.32320492915E+02 -0.43782843690E+02  0.56339662897E+02  0.00000000000E+00 0.  1.
         22    1    3    3    0    0 -0.57683675378E+02  0.78460858352E+02 -0.27919454180E+03  0.29569089413E+03  0.00000000000E+00 0.  1.
</event>
<event>
 7    1  0.6607887E-006  0.1430657E+03  0.7818608E-02  0.1311611E+00
          2   -1    0    0  502    0  0.00000000000E+00  0.00000000000E+00  0.24733740827E+03  0.24733740827E+03  0.00000000000E+00 0. -1.
          1   -1    0    0  501    0 -0.00000000000E+00 -0.00000000000E+00 -0.19986813941E+04  0.19986813941E+04  0.00000000000E+00 0. -1.
         25    2    1    2    0    0 -0.12185824462E+02  0.10253852812E+03 -0.50132858748E+02  0.16970766562E+03  0.12499897671E+03 0.  0.
          2    1    1    2  501    0 -0.17251041249E+02  0.49344568606E+02 -0.18564256897E+04  0.18571614971E+04  0.00000000000E+00 0. -1.
          1    1    1    2  502    0  0.29436865711E+02 -0.15188309672E+03  0.15521456260E+03  0.21914963969E+03  0.00000000000E+00 0. -1.
         22    1    3    3    0    0  0.24589901672E+02  0.16469793555E+02  0.33138343730E+02  0.44430475905E+02  0.00000000000E+00 0.  1.
         22    1    3    3    0    0 -0.36775726134E+02  0.86068734561E+02 -0.83271202477E+02  0.12527718972E+03  0.00000000000E+00 0.  1.
</event>
<event>
 7    1  0.6607887E-006  0.4514787E+02  0.7818608E-02  0.1490419E+00
          2   -1    0    0  502    0  0.00000000000E+00  0.00000000000E+00  0.74347615511E+03  0.74347615511E+03  0.00000000000E+00 0. -1.
          1   -1    0    0  501    0 -0.00000000000E+00 -0.00000000000E+00 -0.46696534959E+03  0.46696534959E+03  0.00000000000E+00 0. -1.
         25    2    1    2    0    0 -0.15455149677E+02  0.33194334022E+02  0.12376122054E+03  0.17967395352E+03  0.12500065760E+03 0.  0.
          2    1    1    2  501    0 -0.24270467284E+02 -0.38301049613E+02 -0.43715726281E+03  0.43950255792E+03  0.00000000000E+00 0. -1.
          1    1    1    2  502    0  0.39725616961E+02  0.51067155912E+01  0.58990684779E+03  0.59126499326E+03  0.00000000000E+00 0. -1.
         22    1    3    3    0    0 -0.48781908633E+02  0.60579516163E+02  0.10936057843E+03  0.13419869039E+03  0.00000000000E+00 0.  1.
         22    1    3    3    0    0  0.33326758956E+02 -0.27385182141E+02  0.14400642114E+02  0.45475263129E+02  0.00000000000E+00 0.  1.
</event>
<event>
 7    1  0.6607887E-006  0.7622536E+02  0.7818608E-02  0.1345001E+00
          2   -1    0    0  502    0  0.00000000000E+00  0.00000000000E+00  0.11451389778E+03  0.11451389778E+03  0.00000000000E+00 0. -1.
          1   -1    0    0  501    0 -0.00000000000E+00 -0.00000000000E+00 -0.47046378910E+03  0.47046378910E+03  0.00000000000E+00 0. -1.
         25    2    1    2    0    0  0.10286197176E+03 -0.64300388994E+02 -0.95551564690E+02  0.19867452665E+03  0.12500536295E+03 0.  0.
          2    1    1    2  501    0 -0.73828759246E+02 -0.27651547621E+01 -0.29595134875E+03  0.30503365814E+03  0.00000000000E+00 0. -1.
          1    1    1    2  502    0 -0.29033212511E+02  0.67065543756E+02  0.35553022121E+02  0.81269502089E+02  0.00000000000E+00 0. -1.
         22    1    3    3    0    0 -0.91924333357E+01  0.19035718177E+02 -0.45777964869E+02  0.50423025144E+02  0.00000000000E+00 0. -1.
         22    1    3    3    0    0  0.11205440509E+03 -0.83336107170E+02 -0.49773599821E+02  0.14825150150E+03  0.00000000000E+00 0. -1.
</event>
<event>
 7    1  0.6607887E-006  0.5945711E+02  0.7818608E-02  0.1423082E+00
          2   -1    0    0  502    0  0.00000000000E+00  0.00000000000E+00  0.16424632386E+03  0.16424632386E+03  0.00000000000E+00 0. -1.
          1   -1    0    0  501    0 -0.00000000000E+00 -0.00000000000E+00 -0.82278579082E+03  0.82278579082E+03  0.00000000000E+00 0. -1.
         25    2    1    2    0    0 -0.44029838713E+02  0.52567606041E+02 -0.13783000344E+03  0.19830399294E+03  0.12500153545E+03 0.  0.
          2    1    1    2  501    0  0.49220518146E+02  0.70705051208E+01 -0.64703143902E+03  0.64893939204E+03  0.00000000000E+00 0. -1.
          1    1    1    2  502    0 -0.51906794332E+01 -0.59638111162E+02  0.12632197550E+03  0.13978872970E+03  0.00000000000E+00 0. -1.
         22    1    3    3    0    0 -0.52900445149E+02  0.75411894775E+02 -0.45430533237E+02  0.10271000107E+03  0.00000000000E+00 0. -1.
         22    1    3    3    0    0  0.88706064364E+01 -0.22844288734E+02 -0.92399470203E+02  0.95593991862E+02  0.00000000000E+00 0. -1.
</event>
<event>
 7    1  0.6607887E-006  0.1834363E+03  0.7818608E-02  0.1172455E+00
          2   -1    0    0  502    0  0.00000000000E+00  0.00000000000E+00  0.91072586653E+03  0.91072586653E+03  0.00000000000E+00 0. -1.
          1   -1    0    0  501    0 -0.00000000000E+00 -0.00000000000E+00 -0.67187464960E+03  0.67187464960E+03  0.00000000000E+00 0. -1.
         25    2    1    2    0    0  0.15635831751E+03 -0.48954565675E+02 -0.50768158199E+02  0.21224424425E+03  0.12500296148E+03 0.  0.
          2    1    1    2  501    0 -0.66483362257E+02  0.19027560826E+03 -0.51262012904E+03  0.55082142410E+03  0.00000000000E+00 0. -1.
          1    1    1    2  502    0 -0.89874955251E+02 -0.14132104259E+03  0.80223950417E+03  0.81953484777E+03  0.00000000000E+00 0. -1.
         22    1    3    3    0    0  0.11739312517E+03 -0.89104180901E+02 -0.20997143808E+02  0.14886766250E+03  0.00000000000E+00 0. -1.
         22    1    3    3    0    0  0.38965192339E+02  0.40149615225E+02 -0.29771014391E+02  0.63376581752E+02  0.00000000000E+00 0. -1.
</event>
<event>
 7    1  0.6607887E-006  0.1438763E+03  0.7818608E-02  0.1239957E+00
          2   -1    0    0  502    0  0.00000000000E+00  0.00000000000E+00  0.19516649919E+04  0.19516649919E+04  0.00000000000E+00 0. -1.
          1   -1    0    0  501    0 -0.00000000000E+00 -0.00000000000E+00 -0.14123203233E+03  0.14123203233E+03  0.00000000000E+00 0. -1.
         25    2    1    2    0    0 -0.11631133741E+03  0.85938302162E+02  0.32773991730E+02  0.19393943787E+03  0.12499860815E+03 0.  0.
          2    1    1    2  501    0  0.86722367095E+02  0.56162876448E+02 -0.11466054686E+02  0.10395435564E+03  0.00000000000E+00 0. -1.
          1    1    1    2  502    0  0.29588970311E+02 -0.14210117861E+03  0.17891250225E+04  0.17950032307E+04  0.00000000000E+00 0. -1.
         22    1    3    3    0    0 -0.10255012037E+03  0.41047134942E+01 -0.50214293883E+01  0.10275500287E+03  0.00000000000E+00 0. -1.
         22    1    3    3    0    0 -0.13761217033E+02  0.81833588667E+02  0.37795421119E+02  0.91184434998E+02  0.00000000000E+00 0. -1.
</event>
<event>
 7    1  0.6607887E-006  0.1290384E+03  0.7818608E-02  0.1275196E+00
          2   -1    0    0  502    0  0.00000000000E+00  0.00000000000E+00  0.63076433439E+03  0.63076433439E+03  0.00000000000E+00 0. -1.
          1   -1    0    0  501    0 -0.00000000000E+00 -0.00000000000E+00 -0.12066919801E+04  0.12066919801E+04  0.00000000000E+00 0. -1.
         25    2    1    2    0    0 -0.99801726339E+02  0.30255001006E+02 -0.82149963088E+02  0.18235635238E+03  0.12501789133E+03 0.  0.
          2    1    1    2  501    0  0.24355063868E+02  0.77633470389E+02 -0.10654054287E+04  0.10685077689E+04  0.00000000000E+00 0. -1.
          1    1    1    2  502    0  0.75446662471E+02 -0.10788847140E+03  0.57162774600E+03  0.58659219321E+03  0.00000000000E+00 0. -1.
         22    1    3    3    0    0 -0.69823249990E+02  0.74809091101E+02 -0.27998060839E+02  0.10609230774E+03  0.00000000000E+00 0. -1.
         22    1    3    3    0    0 -0.29978476349E+02 -0.44554090095E+02 -0.54151902249E+02  0.76264044645E+02  0.00000000000E+00 0. -1.
</event>
<event>
 7    1  0.6607887E-006  0.6016043E+02  0.7818608E-02  0.1398573E+00
          2   -1    0    0  502    0  0.00000000000E+00  0.00000000000E+00  0.20325942089E+04  0.20325942089E+04  0.00000000000E+00 0. -1.
          1   -1    0    0  501    0 -0.00000000000E+00 -0.00000000000E+00 -0.26698322536E+04  0.26698322536E+04  0.00000000000E+00 0. -1.
         25    2    1    2    0    0 -0.47471865324E+02 -0.49835201550E+02  0.69746269347E+02  0.15882933202E+03  0.12500035724E+03 0.  0.
          2    1    1    2  501    0  0.59632555075E+02 -0.83976702976E+01 -0.26244840223E+04  0.26251748410E+04  0.00000000000E+00 0. -1.
          1    1    1    2  502    0 -0.12160689751E+02  0.58232871848E+02  0.19174997082E+04  0.19184222895E+04  0.00000000000E+00 0. -1.
         22    1    3    3    0    0 -0.81815882200E+02 -0.60648022450E+02  0.32208606949E+02  0.10681486586E+03  0.00000000000E+00 0.  1.
         22    1    3    3    0    0  0.34344016876E+02  0.10812820900E+02  0.37537662399E+02  0.52014466155E+02  0.00000000000E+00 0.  1.
</event>
<event>
 7    1  0.6607887E-006  0.1120774E+03  0.7818608E-02  0.1363863E+00
          2   -1    0    0  502    0  0.00000000000E+00  0.00000000000E+00  0.14720423452E+04  0.14720423452E+04  0.00000000000E+00 0. -1.
          1   -1    0    0  501    0 -0.00000000000E+00 -0.00000000000E+00 -0.44985899757E+03  0.44985899757E+03  0.00000000000E+00 0. -1.
         25    2    1    2    0    0  0.89121670824E+01  0.10539011484E+03  0.31541149396E+02  0.16675349401E+03  0.12500152252E+03 0.  0.
          2    1    1    2  501    0  0.42059274124E+02 -0.50433608311E+01 -0.37876340405E+03  0.38112482769E+03  0.00000000000E+00 0. -1.
          1    1    1    2  502    0 -0.50971441206E+02 -0.10034675401E+03  0.13694056022E+04  0.13740230210E+04  0.00000000000E+00 0. -1.
         22    1    3    3    0    0 -0.38915501100E+02  0.47671923788E+02  0.60591664497E+02  0.86361903349E+02  0.00000000000E+00 0.  1.
         22    1    3    3    0    0  0.47827668182E+02  0.57718191053E+02 -0.29050515102E+02  0.80391590666E+02  0.00000000000E+00 0.  1.
</event>
<event>
 7    1  0.6607887E-006  0.2661148E+03  0.7818608E-02  0.1216287E+00
          2   -1    0    0  502    0  0.00000000000E+00  0.00000000000E+00  0.14794086632E+04  0.14794086632E+04  0.00000000000E+00 0. -1.
          1   -1    0    0  501    0 -0.00000000000E+00 -0.00000000000E+00 -0.10546824498E+04  0.10546824498E+04  0.00000000000E+00 0. -1.
         25    2    1    2    0    0  0.27568351363E+03  0.43346951604E+01  0.22100747435E+03  0.37481988525E+03  0.12500181356E+03 0.  0.
          2    1    1    2  501    0 -0.17922318163E+02 -0.69094411787E+02 -0.96149044585E+03  0.96413646580E+03  0.00000000000E+00 0. -1.
          1    1    1    2  502    0 -0.25776119547E+03  0.64759716626E+02  0.11652091849E+04  0.11951347620E+04  0.00000000000E+00 0. -1.
         22    1    3    3    0    0  0.24527869934E+03  0.42780351230E+02  0.15757065294E+03  0.29465286265E+03  0.00000000000E+00 0.  1.
         22    1    3    3    0    0  0.30404814292E+02 -0.38445656069E+02  0.63436821405E+02  0.80167022601E+02  0.00000000000E+00 0.  1.
</event>
<event>
 7    1  0.6607887E-006  0.3955595E+02  0.7818608E-02  0.1520867E+00
          2   -1    0    0  502    0  0.00000000000E+00  0.00000000000E+00  0.35666820762E+02  0.35666820762E+02  0.00000000000E+00 0. -1.
          1   -1    0    0  501    0 -0.00000000000E+00 -0.00000000000E+00 -0.93589204522E+03  0.93589204522E+03  0.00000000000E+00 0. -1.
         25    2    1    2    0    0  0.24095305744E+02 -0.65107203171E+02 -0.18615376268E+03  0.23472996284E+03  0.12500160171E+03 0.  0.
          2    1    1    2  501    0 -0.27073537924E+02  0.28083164607E+02 -0.69305464834E+03  0.69415155851E+03  0.00000000000E+00 0. -1.
          1    1    1    2  502    0  0.29782321803E+01  0.37024038563E+02 -0.21016813437E+02  0.42677344640E+02  0.00000000000E+00 0. -1.
         22    1    3    3    0    0  0.21929844887E+02  0.27793526335E+02 -0.12083507190E+02  0.37408680128E+02  0.00000000000E+00 0.  1.
         22    1    3    3    0    0  0.21654608570E+01 -0.92900729505E+02 -0.17407025549E+03  0.19732128271E+03  0.00000000000E+00 0.  1.
</event>
<event>
 7    1  0.6607887E-006  0.1172143E+03  0.7818608E-02  0.1268892E+00
          2   -1    0    0  502    0  0.00000000000E+00  0.00000000000E+00  0.14580229356E+04  0.14580229356E+04  0.00000000000E+00 0. -1.
          1   -1    0    0  501    0 -0.00000000000E+00 -0.00000000000E+00 -0.80715246967E+03  0.80715246967E+03  0.00000000000E+00 0. -1.
         25    2    1    2    0    0 -0.15701297186E+03 -0.10737714738E+03  0.15408312322E+03  0.27485988730E+03  0.12499369453E+03 0.  0.
          2    1    1    2  501    0  0.44817034474E+02  0.83970685214E+02 -0.74107306975E+03  0.74716058332E+03  0.00000000000E+00 0. -1.
          1    1    1    2  502    0  0.11219593738E+03  0.23406462163E+02  0.12378604124E+04  0.12431549346E+04  0.00000000000E+00 0. -1.
         22    1    3    3    0    0 -0.41563293574E+02 -0.37426764793E+02  0.12476061684E+03  0.13672410764E+03  0.00000000000E+00 0. -1.
         22    1    3    3    0    0 -0.11544967828E+03 -0.69950382584E+02  0.29322506378E+02  0.13813577965E+03  0.00000000000E+00 0. -1.
</event>
<event>
 7    1  0.6607887E-006  0.6345878E+02  0.7818608E-02  0.1405560E+00
          2   -1    0    0  502    0  0.00000000000E+00  0.00000000000E+00  0.21843746639E+03  0.21843746639E+03  0.00000000000E+00 0. -1.
          1   -1    0    0  501    0 -0.00000000000E+00 -0.00000000000E+00 -0.47410250235E+03  0.47410250235E+03  0.00000000000E+00 0. -1.
         25    2    1    2    0    0 -0.32747612829E+02  0.10014149720E+01 -0.13400023787E+03  0.18615742982E+03  0.12500046380E+03 0.  0.
          2    1    1    2  501    0  0.45166895608E+02 -0.52906807463E+02 -0.30634564447E+03  0.31414460464E+03  0.00000000000E+00 0. -1.
          1    1    1    2  502    0 -0.12419282779E+02  0.51905392491E+02  0.18468084639E+03  0.19223793428E+03  0.00000000000E+00 0. -1.
         22    1    3    3    0    0  0.25275489610E+02  0.80880432584E+01 -0.12405673048E+03  0.12686346676E+03  0.00000000000E+00 0. -1.
         22    1    3    3    0    0 -0.58023102439E+02 -0.70866282864E+01 -0.99435073878E+01  0.59293963067E+02  0.00000000000E+00 0. -1.
</event>
<event>
 7    1  0.6607887E-006  0.1051699E+03  0.7818608E-02  0.1372462E+00
          2   -1    0    0  502    0  0.00000000000E+00  0.00000000000E+00  0.19963349344E+04  0.19963349344E+04  0.00000000000E+00 0. -1.
          1   -1    0    0  501    0 -0.00000000000E+00 -0.00000000000E+00 -0.86015366869E+02  0.86015366869E+02  0.00000000000E+00 0. -1.
         25    2    1    2    0    0  0.13822774637E+03  0.35831755389E+02  0.13573623063E+04  0.13705651466E+04  0.12500226431E+03 0.  0.
          2    1    1    2  501    0 -0.10354775629E+03 -0.12081741476E+02 -0.44140372768E+02  0.11320988834E+03  0.00000000000E+00 0. -1.
          1    1    1    2  502    0 -0.34679990083E+02 -0.23750013913E+02  0.59709763409E+03  0.59857526637E+03  0.00000000000E+00 0. -1.
         22    1    3    3    0    0  0.10235382324E+03 -0.97906274785E+01  0.11677877628E+04  0.11723056003E+04  0.00000000000E+00 0.  1.
         22    1    3    3    0    0  0.35873923134E+02  0.45622382868E+02  0.18957454343E+03  0.19825954629E+03  0.00000000000E+00 0.  1.
</event>
<event>
 7    1  0.6607887E-006  0.8651595E+02  0.7818608E-02  0.1333988E+00
          2   -1    0    0  502    0  0.00000000000E+00  0.00000000000E+00  0.51516085579E+03  0.51516085579E+03  0.00000000000E+00 0. -1.
          1   -1    0    0  501    0 -0.00000000000E+00 -0.00000000000E+00 -0.18138877086E+03  0.18138877086E+03  0.00000000000E+00 0. -1.
         25    2    1    2    0    0 -0.24522185891E+02  0.15424263809E+02  0.10218303782E+03  0.16402934260E+03  0.12500002601E+03 0.  0.
          2    1    1    2  501    0 -0.45622517818E+02  0.54190932114E+02 -0.13520916781E+03  0.15264203325E+03  0.00000000000E+00 0. -1.
          1    1    1    2  502    0  0.70144703709E+02 -0.69615195923E+02  0.36679821492E+03  0.37987825080E+03  0.00000000000E+00 0. -1.
         22    1    3    3    0    0 -0.53006672087E+02  0.28543486258E+02  0.33013277534E+01  0.60293753063E+02  0.00000000000E+00 0.  1.
         22    1    3    3    0    0  0.28484486196E+02 -0.13119222449E+02  0.98881710063E+02  0.10373558954E+03  0.00000000000E+00 0.  1.
</event>
<event>
 7    1  0.6607887E-006  0.1869514E+03  0.7818608E-02  0.1198419E+00
          2   -1    0    0  502    0  0.00000000000E+00  0.00000000000E+00  0.60050423494E+03  0.60050423494E+03  0.00000000000E+00 0. -1.
          1   -1    0    0  501    0 -0.00000000000E+00 -0.00000000000E+00 -0.45389296448E+03  0.45389296448E+03  0.00000000000E+00 0. -1.
         25    2    1    2    0    0 -0.22841417027E+01  0.13073376874E+03 -0.15740360307E+01  0.18091986255E+03  0.12503192985E+03 0.  0.
          2    1    1    2  501    0 -0.11805004302E+03  0.34789173586E+02 -0.33061490517E+03  0.35277799644E+03  0.00000000000E+00 0. -1.
          1    1    1    2  502    0  0.12033418472E+03 -0.16552294233E+03  0.47880021165E+03  0.52069934043E+03  0.00000000000E+00 0. -1.
         22    1    3    3    0    0  0.22245013838E+02  0.19812557558E+02  0.48384142363E+02  0.56819040030E+02  0.00000000000E+00 0.  1.
         22    1    3    3    0    0 -0.24529155540E+02  0.11092121118E+03 -0.49958178394E+02  0.12410082252E+03  0.00000000000E+00 0.  1.
</event>
<event>
 7    1  0.6607887E-006  0.1380713E+03  0.7818608E-02  0.1366140E+00
          2   -1    0    0  502    0  0.00000000000E+00  0.00000000000E+00  0.39129734891E+03  0.39129734891E+03  0.00000000000E+00 0. -1.
          1   -1    0    0  501    0 -0.00000000000E+00 -0.00000000000E+00 -0.12239022249E+04  0.12239022249E+04  0.00000000000E+00 0. -1.
         25    2    1    2    0    0 -0.10871970196E+03  0.11204929399E+02  0.17679276550E+03  0.24254034884E+03  0.12499845938E+03 0.  0.
          2    1    1    2  501    0  0.13857115527E+03  0.45175596649E+01 -0.11853857401E+04  0.11934662653E+04  0.00000000000E+00 0. -1.
          1    1    1    2  502    0 -0.29851453311E+02 -0.15722489064E+02  0.17598809867E+03  0.17919295968E+03  0.00000000000E+00 0. -1.
         22    1    3    3    0    0 -0.10306969982E+02 -0.12219047629E+02  0.13017664925E+03  0.13115448435E+03  0.00000000000E+00 0.  1.
         22    1    3    3    0    0 -0.98412731977E+02  0.23423977028E+02  0.46616116253E+02  0.11138586450E+03  0.00000000000E+00 0.  1.
</event>
<event>
 7    1  0.6607887E-006  0.6117247E+02  0.7818608E-02  0.1444215E+00
          2   -1    0    0  502    0  0.00000000000E+00  0.00000000000E+00  0.69313689007E+03  0.69313689007E+03  0.00000000000E+00 0. -1.
          1   -1    0    0  501    0 -0.00000000000E+00 -0.00000000000E+00 -0.24238393563E+03  0.24238393563E+03  0.00000000000E+00 0. -1.
         25    2    1    2    0    0 -0.87214442573E+01  0.23997788168E+02  0.22350679041E+03  0.25734824424E+03  0.12498350301E+03 0.  0.
          2    1    1    2  501    0 -0.51004207035E+01  0.40894261086E+02 -0.22111821371E+03  0.22492580846E+03  0.00000000000E+00 0. -1.
          1    1    1    2  502    0  0.13821864961E+02 -0.64892049254E+02  0.44836437774E+03  0.45324677300E+03  0.00000000000E+00 0. -1.
         22    1    3    3    0    0 -0.63766115316E+02  0.16468473632E+02  0.81002401468E+02  0.10439692107E+03  0.00000000000E+00 0.  1.
         22    1    3    3    0    0  0.55044671059E+02  0.75293145368E+01  0.14250438894E+03  0.15295132316E+03  0.00000000000E+00 0.  1.
</event>
<event>
 7    1  0.6607887E-006  0.4514167E+02  0.7818608E-02  0.1484946E+00
          2   -1    0    0  502    0  0.00000000000E+00  0.00000000000E+00  0.10868960876E+04  0.10868960876E+04  0.00000000000E+00 0. -1.
          1   -1    0    0  501    0 -0.00000000000E+00 -0.00000000000E+00 -0.24795667286E+03  0.24795667286E+03  0.00000000000E+00 0. -1.
         25    2    1    2    0    0 -0.33480224932E+01  0.63474755447E+01  0.30485934357E+03  0.32957123324E+03  0.12500591473E+03 0.  0.
          2    1    1    2  501    0  0.75499959556E+01  0.40929233526E+02 -0.23302344495E+03  0.23671106965E+03  0.00000000000E+00 0. -1.
          1    1    1    2  502    0 -0.42019734624E+01 -0.47276709071E+02  0.76710351616E+03  0.76857045761E+03  0.00000000000E+00 0. -1.
         22    1    3    3    0    0  0.24703350474E+02  0.54046448613E+02  0.91118628077E+02  0.10878363165E+03  0.00000000000E+00 0.  1.
         22    1    3    3    0    0 -0.28051372967E+02 -0.47698973068E+02  0.21374071549E+03  0.22078760159E+03  0.00000000000E+00 0.  1.
</event>
<event>
 7    1  0.6607887E-006  0.8926109E+02  0.7818608E-02  0.1451204E+00
          2   -1    0    0  502    0  0.00000000000E+00  0.00000000000E+00  0.63051521206E+03  0.63051521206E+03  0.00000000000E+00 0. -1.
          1   -1    0    0  501    0 -0.00000000000E+00 -0.00000000000E+00 -0.48510104209E+02  0.48510104209E+02  0.00000000000E+00 0. -1.
         25    2    1    2    0    0 -0.65788087503E+01  0.11054023728E+03  0.21613811467E+03  0.27313697058E+03  0.12500278117E+03 0.  0.
          2    1    1    2  501    0  0.98138992072E+01 -0.24961074316E+02 -0.32037998459E+01  0.27011704539E+02  0.00000000000E+00 0. -1.
          1    1    1    2  502    0 -0.32350904568E+01 -0.85579162965E+02  0.36907079303E+03  0.37887664115E+03  0.00000000000E+00 0. -1.
         22    1    3    3    0    0  0.34843867153E+02 -0.86650477185E+01  0.78962898428E+02  0.86742823670E+02  0.00000000000E+00 0.  1.
         22    1    3    3    0    0 -0.41422675903E+02  0.11920528500E+03  0.13717521624E+03  0.18639414691E+03  0.00000000000E+00 0.  1.
</event>
<event>
 7    1  0.6607887E-006  0.7289540E+02  0.7818608E-02  0.1517826E+00
          2   -1    0    0  502    0  0.00000000000E+00  0.00000000000E+00  0.12635689216E+03  0.12635689216E+03  0.00000000000E+00 0. -1.
          1   -1    0    0  501    0 -0.00000000000E+00 -0.00000000000E+00 -0.11431613644E+04  0.11431613644E+04  0.00000000000E+00 0. -1.
         25    2    1    2    0    0  0.55795797017E+02  0.11081837022E+02 -0.10092569440E+03  0.17043329810E+03  0.12500214092E+03 0.  0.
          2    1    1    2  501    0  0.18913670161E+02 -0.80868083817E+01 -0.99210014757E+03  0.99231337096E+03  0.00000000000E+00 0. -1.
          1    1    1    2  502    0 -0.74709467177E+02 -0.29950286405E+01  0.76221369752E+02  0.10677158746E+03  0.00000000000E+00 0. -1.
         22    1    3    3    0    0  0.19257139630E+02 -0.13555421255E+02  0.26588880233E+02  0.35518381497E+02  0.00000000000E+00 0. -1.
         22    1    3    3    0    0  0.36538657386E+02  0.24637258277E+02 -0.12751457463E+03  0.13491491660E+03  0.00000000000E+00 0. -1.
</event>
<event>
 7    1  0.6607887E-006  0.1318330E+03  0.7818608E-02  0.1267882E+00
          2   -1    0    0  502    0  0.00000000000E+00  0.00000000000E+00  0.33303773220E+03  0.33303773220E+03  0.00000000000E+00 0. -1.
          1   -1    0    0  501    0 -0.00000000000E+00 -0.00000000000E+00 -0.22410940075E+04  0.22410940075E+04  0.00000000000E+00 0. -1.
         25    2    1    2    0    0 -0.44927691291E+02  0.10289293829E+03 -0.18958266350E+03  0.25332369883E+03  0.12500342353E+03 0.  0.
          2    1    1    2  501    0  0.11989548968E+03 -0.61864247882E+02 -0.20112723328E+04  0.20157922786E+04  0.00000000000E+00 0. -1.
          1    1    1    2  502    0 -0.74967798393E+02 -0.41028690404E+02  0.29279872100E+03  0.30501576230E+03  0.00000000000E+00 0. -1.
         22    1    3    3    0    0 -0.43116343435E+02 -0.48697965509E+01 -0.11317935862E+03  0.12121180308E+03  0.00000000000E+00 0.  1.
         22    1    3    3    0    0 -0.18113478564E+01  0.10776273484E+03 -0.76403304878E+02  0.13211189574E+03  0.00000000000E+00 0.  1.
</event>
<event>
 7    1  0.6607887E-006  0.6533153E+02  0.7818608E-02  0.1415961E+00
          2   -1    0    0  502    0  0.00000000000E+00  0.00000000000E+00  0.59811701198E+03  0.59811701198E+03  0.00000000000E+00 0. -1.
          1   -1    0    0  501    0 -0.00000000000E+00 -0.00000000000E+00 -0.11790229127E+04  0.11790229127E+04  0.00000000000E+00 0. -1.
         25    2    1    2    0    0 -0.10095919173E+03 -0.12720943427E+02 -0.49640394142E+02  0.16865000803E+03  0.12499630267E+03 0.  0.
          2    1    1    2  501    0  0.62815377470E+02 -0.16093352046E+02 -0.10678315642E+04  0.10697985872E+04  0.00000000000E+00 0. -1.
          1    1    1    2  502    0  0.38143814262E+02  0.28814295474E+02  0.53656605765E+03  0.53869132944E+03  0.00000000000E+00 0. -1.
         22    1    3    3    0    0 -0.12821664155E+03  0.53697008661E+01 -0.36749660769E+02  0.13348737178E+03  0.00000000000E+00 0. -1.
         22    1    3    3    0    0  0.27257449816E+02 -0.18090644293E+02 -0.12890733373E+02  0.35162636254E+02  0.00000000000E+00 0. -1.
</event>
<event>
 7    1  0.6607887E-006  0.5348797E+02  0.7818608E-02  0.1441496E+00
          2   -1    0    0  502    0  0.00000000000E+00  0.00000000000E+00  0.29652554747E+04  0.29652554747E+04  0.00000000000E+00 0. -1.
          1   -1    0    0  501    0 -0.00000000000E+00 -0.00000000000E+00 -0.10585575232E+02  0.10585575232E+02  0.00000000000E+00 0. -1.
         25    2    1    2    0    0  0.16617585284E+02  0.11642354188E+02  0.97544674014E+03  0.98363263863E+03  0.12500054556E+03 0.  0.
          2    1    1    2  501    0 -0.71649458742E+01 -0.58799670488E+02  0.13578374925E+03  0.14814170331E+03  0.00000000000E+00 0. -1.
          1    1    1    2  502    0 -0.94526394098E+01  0.47157316300E+02  0.18434394101E+04  0.18440667080E+04  0.00000000000E+00 0. -1.
         22    1    3    3    0    0 -0.36911539724E+02 -0.26094955900E+01  0.76880643855E+03  0.76969644093E+03  0.00000000000E+00 0. -1.
         22    1    3    3    0    0  0.53529125008E+02  0.14251849778E+02  0.20664030159E+03  0.21393619770E+03  0.00000000000E+00 0. -1.
</event>
<event>
 7    1  0.6607887E-006  0.1081252E+03  0.7818608E-02  0.1270654E+00
          2   -1    0    0  502    0  0.00000000000E+00  0.00000000000E+00  0.25298559180E+03  0.25298559180E+03  0.00000000000E+00 0. -1.
          1   -1    0    0  501    0 -0.00000000000E+00 -0.00000000000E+00 -0.11786053498E+04  0.11786053498E+04  0.00000000000E+00 0. -1.
         25    2    1    2    0    0 -0.26950664852E+02 -0.32890314107E+02 -0.64223698623E+02  0.14683419268E+03  0.12500994192E+03 0.  0.
          2    1    1    2  501    0  0.86861693772E+02 -0.64390182601E+02 -0.10546927722E+04  0.10602206814E+04  0.00000000000E+00 0. -1.
          1    1    1    2  502    0 -0.59911028920E+02  0.97280496708E+02  0.19329671285E+03  0.22453606753E+03  0.00000000000E+00 0. -1.
         22    1    3    3    0    0 -0.46224163847E+02 -0.34185687886E+02  0.19655718129E+02  0.60759211933E+02  0.00000000000E+00 0. -1.
         22    1    3    3    0    0  0.19273498995E+02  0.12953737793E+01 -0.83879416752E+02  0.86074980752E+02  0.00000000000E+00 0. -1.
</event>
<event>
 7    1  0.6607887E-006  0.1286350E+03  0.7818608E-02  0.1349411E+00
          2   -1    0    0  502    0  0.00000000000E+00  0.00000000000E+00  0.28512093121E+04  0.28512093121E+04  0.00000000000E+00 0. -1.
          1   -1    0    0  501    0 -0.00000000000E+00 -0.00000000000E+00 -0.57617738729E+03  0.57617738729E+03  0.00000000000E+00 0. -1.
         25    2    1    2    0    0 -0.13130972034E+03 -0.10763761972E+03  0.55688728602E+03  0.59546298484E+03  0.12499846856E+03 0.  0.
          2    1    1    2  501    0  0.98360552020E+02  0.82079503303E+02 -0.54932766013E+03  0.56406801118E+03  0.00000000000E+00 0. -1.
          1    1    1    2  502    0  0.32949168322E+02  0.25558116415E+02  0.22674722989E+04  0.22678557033E+04  0.00000000000E+00 0. -1.
         22    1    3    3    0    0 -0.74990270924E+02 -0.12283711357E+03  0.46372402024E+03  0.48554347298E+03  0.00000000000E+00 0. -1.
         22    1    3    3    0    0 -0.56319449419E+02  0.15199493852E+02  0.93163265783E+02  0.10991951186E+03  0.00000000000E+00 0. -1.
</event>
<event>
 7    1  0.6607887E-006  0.3695730E+02  0.7818608E-02  0.1535165E+00
          2   -1    0    0  502    0  0.00000000000E+00  0.00000000000E+00  0.11127726683E+04  0.11127726683E+04  0.00000000000E+00 0. -1.
          1   -1    0    0  501    0 -0.00000000000E+00 -0.00000000000E+00 -0.63560402704E+03  0.63560402704E+03  0.00000000000E+00 0. -1.
         25    2    1    2    0    0  0.66469739052E+02 -0.18841191917E+02  0.26105094984E+02  0.14518479741E+03  0.12499573069E+03 0.  0.
          2    1    1    2  501    0 -0.36720721953E+02 -0.17281399262E+01 -0.57515880223E+03  0.57633240901E+03  0.00000000000E+00 0. -1.
          1    1    1    2  502    0 -0.29749017099E+02  0.20569331844E+02  0.10262223485E+04  0.10268594889E+04  0.00000000000E+00 0. -1.
         22    1    3    3    0    0 -0.39947962771E+01 -0.60706405882E+02  0.12255665504E+02  0.62059869879E+02  0.00000000000E+00 0. -1.
         22    1    3    3    0    0  0.70464535329E+02  0.41865213965E+02  0.13849429479E+02  0.83124927527E+02  0.00000000000E+00 0. -1.
</event>
<event>
 7    1  0.6607887E-006  0.5277250E+02  0.7818608E-02  0.1486191E+00
          2   -1    0    0  502    0  0.00000000000E+00  0.00000000000E+00  0.18345603437E+03  0.18345603437E+03  0.00000000000E+00 0. -1.
          1   -1    0    0  501    0 -0.00000000000E+00 -0.00000000000E+00 -0.49463908730E+03  0.49463908730E+03  0.00000000000E+00 0. -1.
         25    2    1    2    0    0 -0.10796566048E+02  0.21346067555E+02 -0.42125288956E+03  0.44005746041E+03  0.12499740422E+03 0.  0.
          2    1    1    2  501    0 -0.34807171249E+02  0.58316715115E+01 -0.54604841644E+02  0.65017199985E+02  0.00000000000E+00 0. -1.
          1    1    1    2  502    0  0.45603737296E+02 -0.27177739066E+02  0.16467467827E+03  0.17302046127E+03  0.00000000000E+00 0. -1.
         22    1    3    3    0    0 -0.39455217806E+01 -0.47528053738E+02 -0.26360953146E+03  0.26788891002E+03  0.00000000000E+00 0.  1.
         22    1    3    3    0    0 -0.68510442674E+01  0.68874121293E+02 -0.15764335810E+03  0.17216855039E+03  0.00000000000E+00 0.  1.
</event>
<event>
 7    1  0.6607887E-006  0.7313033E+02  0.7818608E-02  0.1502056E+00
          2   -1    0    0  502    0  0.00000000000E+00  0.00000000000E+00  0.10372743925E+04  0.10372743925E+04  0.00000000000E+00 0. -1.
          1   -1    0    0  501    0 -0.00000000000E+00 -0.00000000000E+00 -0.26733432367E+03  0.26733432367E+03  0.00000000000E+00 0. -1.
         25    2    1    2    0    0  0.21338842473E+02 -0.74003521651E+02 -0.23707968487E+02  0.14872324689E+03  0.12499867591E+03 0.  0.
          2    1    1    2  501    0  0.18822490214E+02  0.12897252216E+02 -0.17902225525E+03  0.18047047717E+03  0.00000000000E+00 0. -1.
          1    1    1    2  502    0 -0.40161332687E+02  0.61106269435E+02  0.97267029259E+03  0.97541499215E+03  0.00000000000E+00 0. -1.
         22    1    3    3    0    0 -0.45207944277E+02 -0.46751365307E+02  0.15447178923E+02  0.66843576509E+02  0.00000000000E+00 0. -1.
         22    1    3    3    0    0  0.66546786751E+02 -0.27252156344E+02 -0.39155147410E+02  0.81879670376E+02  0.00000000000E+00 0. -1.
</event>
<event>
 7    1  0.6607887E-006  0.1194623E+03  0.7818608E-02  0.1263213E+00
          2   -1    0    0  502    0  0.00000000000E+00  0.00000000000E+00  0.77527159203E+03  0.77527159203E+03  0.00000000000E+00 0. -1.
          1   -1    0    0  501    0 -0.00000000000E+00 -0.00000000000E+00 -0.18849750761E+03  0.18849750761E+03  0.00000000000E+00 0. -1.
         25    2    1    2    0    0  0.65932222696E+02  0.41513318689E+02  0.15956935173E+03  0.21715966349E+03  0.12500211125E+03 0.  0.
          2    1    1    2  501    0  0.67706409227E+02 -0.71812931611E+02 -0.13540170459E+03  0.16755559257E+03  0.00000000000E+00 0. -1.
          1    1    1    2  502    0 -0.13363863192E+03  0.30299612922E+02  0.56260643728E+03  0.57905384357E+03  0.00000000000E+00 0. -1.
         22    1    3    3    0    0  0.56800655328E+02  0.75134490293E+02  0.15587883954E+03  0.18212555749E+03  0.00000000000E+00 0.  1.
         22    1    3    3    0    0  0.91315673679E+01 -0.33621171604E+02  0.36905121958E+01  0.35034105995E+02  0.00000000000E+00 0.  1.
</event>
<event>
 7    1  0.6607887E-006  0.6869167E+02  0.7818608E-02  0.1451199E+00
          2   -1    0    0  502    0  0.00000000000E+00  0.00000000000E+00  0.21925180779E+03  0.21925180779E+03  0.00000000000E+00 0. -1.
          1   -1    0    0  501    0 -0.00000000000E+00 -0.00000000000E+00 -0.21275045717E+04  0.21275045717E+04  0.00000000000E+00 0. -1.
         25    2    1    2    0    0  0.83297836631E+01 -0.40541907553E+02 -0.82578749751E+03  0.83621957396E+03  0.12500061308E+03 0.  0.
          2    1    1    2  501    0 -0.29136636837E+02  0.68503614892E+02 -0.12940052455E+04  0.12961447698E+04  0.00000000000E+00 0. -1.
          1    1    1    2  502    0  0.20806853174E+02 -0.27961707339E+02  0.21153997912E+03  0.21439203573E+03  0.00000000000E+00 0. -1.
         22    1    3    3    0    0  0.27145897795E+02 -0.53092096535E+02 -0.17203803621E+03  0.18207898392E+03  0.00000000000E+00 0. -1.
         22    1    3    3    0    0 -0.18816114132E+02  0.12550188982E+02 -0.65374946130E+03  0.65414059004E+03  0.00000000000E+00 0. -1.
</event>
<event>
 7    1  0.6607887E-006  0.1093835E+03  0.7818608E-02  0.1324163E+00
          2   -1    0    0  502    0  0.00000000000E+00  0.00000000000E+00  0.12233140918E+04  0.12233140918E+04  0.00000000000E+00 0. -1.
          1   -1    0    0  501    0 -0.00000000000E+00 -0.00000000000E+00 -0.73292426613E+02  0.73292426613E+02  0.00000000000E+00 0. -1.
         25    2    1    2    0    0 -0.11760255814E+03 -0.60197447201E+02  0.72949231105E+03  0.75182294057E+03  0.12499843101E+03 0.  0.
          2    1    1    2  501    0  0.56947943207E+02 -0.22123366866E+02 -0.40009784276E+02  0.73029408013E+02  0.00000000000E+00 0. -1.
          1    1    1    2  502    0  0.60654614934E+02  0.82320814067E+02  0.46053913839E+03  0.47175416981E+03  0.00000000000E+00 0. -1.
         22    1    3    3    0    0 -0.32385011950E+01 -0.37281089636E+02  0.50327390438E+02  0.62715339134E+02  0.00000000000E+00 0.  1.
         22    1    3    3    0    0 -0.11436405695E+03 -0.22916357566E+02  0.67916492061E+03  0.68910760143E+03  0.00000000000E+00 0.  1.
</event>
<event>
 7    1  0.6607887E-006  0.9266528E+02  0.7818608E-02  0.1330483E+00
          2   -1    0    0  502    0  0.00000000000E+00  0.00000000000E+00  0.75597797572E+03  0.75597797572E+03  0.00000000000E+00 0. -1.
          1   -1    0    0  501    0 -0.00000000000E+00 -0.00000000000E+00 -0.42669206245E+03  0.42669206245E+03  0.00000000000E+00 0. -1.
         25    2    1    2    0    0  0.61042859327E+02 -0.13531149477E+03 -0.51994914545E+02  0.20093216249E+03  0.12503931979E+03 0.  0.
          2    1    1    2  501    0 -0.57141740963E+02  0.67221874579E+02 -0.29198664972E+03  0.30502485570E+03  0.00000000000E+00 0. -1.
          1    1    1    2  502    0 -0.39011183643E+01  0.68089620191E+02  0.67326747753E+03  0.67671301997E+03  0.00000000000E+00 0. -1.
         22    1    3    3    0    0 -0.17362961498E+02  0.12775073341E+02  0.79419618451E+01  0.22972803242E+02  0.00000000000E+00 0. -1.
         22    1    3    3    0    0  0.78405820825E+02 -0.14808656811E+03 -0.59936876390E+02  0.17795935925E+03  0.00000000000E+00 0. -1.
</event>
<event>
 7    1  0.6607887E-006  0.7732902E+02  0.7818608E-02  0.1365230E+00
          2   -1    0    0  502    0  0.00000000000E+00  0.00000000000E+00  0.55234233556E+03  0.55234233556E+03  0.00000000000E+00 0. -1.
          1   -1    0    0  501    0 -0.00000000000E+00 -0.00000000000E+00 -0.34138206256E+03  0.34138206256E+03  0.00000000000E+00 0. -1.
         25    2    1    2    0    0  0.36761971127E+02  0.30320124904E+02  0.12783256459E+03  0.18503276857E+03  0.12500083351E+03 0.  0.
          2    1    1    2  501    0 -0.77429208473E+02  0.14741484336E+02 -0.30542237310E+03  0.31542894552E+03  0.00000000000E+00 0. -1.
          1    1    1    2  502    0  0.40667237346E+02 -0.45061609240E+02  0.38855008150E+03  0.39326268404E+03  0.00000000000E+00 0. -1.
         22    1    3    3    0    0  0.20261337592E+02 -0.28962423205E+02 -0.77085353798E+01  0.36176861066E+02  0.00000000000E+00 0. -1.
         22    1    3    3    0    0  0.16500633535E+02  0.59282548109E+02  0.13554109997E+03  0.14885590750E+03  0.00000000000E+00 0. -1.
</event>
<event>
 7    1  0.6607887E-006  0.1326291E+03  0.7818608E-02  0.1239185E+00
          2   -1    0    0  502    0  0.00000000000E+00  0.00000000000E+00  0.54219676112E+03  0.54219676112E+03  0.00000000000E+00 0. -1.
          1   -1    0    0  501    0 -0.00000000000E+00 -0.00000000000E+00 -0.99792406804E+03  0.99792406804E+03  0.00000000000E+00 0. -1.
         25    2    1    2    0    0 -0.14425883593E+02 -0.12096661115E+03 -0.68690736408E+03  0.70873584467E+03  0.12499497415E+03 0.  0.
          2    1    1    2  501    0 -0.11347914868E+03  0.85884162373E+02 -0.27417791411E+03  0.30891282770E+03  0.00000000000E+00 0. -1.
          1    1    1    2  502    0  0.12790503227E+03  0.35082448776E+02  0.50535797127E+03  0.52247215679E+03  0.00000000000E+00 0. -1.
         22    1    3    3    0    0  0.47414092468E+02 -0.28876820480E+02 -0.13830083007E+03  0.14902713351E+03  0.00000000000E+00 0. -1.
         22    1    3    3    0    0 -0.61839976061E+02 -0.92089790669E+02 -0.54860653402E+03  0.55970871116E+03  0.00000000000E+00 0. -1.
</event>
<event>
 7    1  0.6607887E-006  0.7740109E+02  0.7818608E-02  0.1425561E+00
          2   -1    0    0  502    0  0.00000000000E+00  0.00000000000E+00  0.46724897016E+03  0.46724897016E+03  0.00000000000E+00 0. -1.
          1   -1    0    0  501    0 -0.00000000000E+00 -0.00000000000E+00 -0.97651039849E+03  0.97651039849E+03  0.00000000000E+00 0. -1.
         25    2    1    2    0    0  0.70292337975E+02  0.87406837335E+02 -0.22457784256E+02  0.16942954468E+03  0.12498420118E+03 0.  0.
          2    1    1    2  501    0 -0.39961149489E+02 -0.65387802285E+02 -0.87800208284E+03  0.88133995463E+03  0.00000000000E+00 0. -1.
          1    1    1    2  502    0 -0.30331188486E+02 -0.22019035051E+02  0.39119843877E+03  0.39298986933E+03  0.00000000000E+00 0. -1.
         22    1    3    3    0    0  0.91458485299E+02  0.72417376113E+02  0.21277688239E+02  0.11858191647E+03  0.00000000000E+00 0.  1.
         22    1    3    3    0    0 -0.21166147324E+02  0.14989461223E+02 -0.43735472496E+02  0.50847628211E+02  0.00000000000E+00 0.  1.
</event>
<event>
 7    1  0.6607887E-006  0.1486298E+03  0.7818608E-02  0.1310697E+00
          2   -1    0    0  502    0  0.00000000000E+00  0.00000000000E+00  0.37490146048E+03  0.37490146048E+03  0.00000000000E+00 0. -1.
          1   -1    0    0  501    0 -0.00000000000E+00 -0.00000000000E+00 -0.28575296821E+04  0.28575296821E+04  0.00000000000E+00 0. -1.
         25    2    1    2    0    0 -0.15406145939E+03  0.10022533184E+03 -0.13189374151E+03  0.25845875754E+03  0.12499967955E+03 0.  0.
          2    1    1    2  501    0  0.10357085580E+03 -0.10519639950E+03 -0.26582267169E+04  0.26623227609E+04  0.00000000000E+00 0. -1.
          1    1    1    2  502    0  0.50490603593E+02  0.49710676645E+01  0.30749223678E+03  0.31164962417E+03  0.00000000000E+00 0. -1.
         22    1    3    3    0    0  0.15966635448E+01  0.61935236533E+02 -0.35294347052E+02  0.71303673066E+02  0.00000000000E+00 0.  1.
         22    1    3    3    0    0 -0.15565812294E+03  0.38290095307E+02 -0.96599394458E+02  0.18715508447E+03  0.00000000000E+00 0.  1.
</event>
<event>
 7    1  0.6607887E-006  0.1191032E+03  0.7818608E-02  0.1353089E+00
          2   -1    0    0  502    0  0.00000000000E+00  0.00000000000E+00  0.10915801447E+04  0.10915801447E+04  0.00000000000E+00 0. -1.
          1   -1    0    0  501    0 -0.00000000000E+00 -0.00000000000E+00 -0.63606827429E+03  0.63606827429E+03  0.00000000000E+00 0. -1.
         25    2    1    2    0    0  0.11977176491E+02  0.14451805739E+03  0.35978320264E+03  0.40755129851E+03  0.12500074539E+03 0.  0.
          2    1    1    2  501    0  0.24873147819E+02 -0.35867557228E+02 -0.60674661706E+03  0.60831456703E+03  0.00000000000E+00 0. -1.
          1    1    1    2  502    0 -0.36850324310E+02 -0.10865050016E+03  0.70247528484E+03  0.71178255345E+03  0.00000000000E+00 0. -1.
         22    1    3    3    0    0 -0.35237153343E+02  0.13214243075E+03  0.21546542729E+03  0.25520311389E+03  0.00000000000E+00 0. -1.
         22    1    3    3    0    0  0.47214329834E+02  0.12375626641E+02  0.14431777535E+03  0.15234818462E+03  0.00000000000E+00 0. -1.
</event>
<event>
 7    1  0.6607887E-006  0.8091586E+02  0.7818608E-02  0.1367325E+00
          2   -1    0    0  502    0  0.00000000000E+00  0.00000000000E+00  0.25472709403E+03  0.25472709403E+03  0.00000000000E+00 0. -1.
          1   -1    0    0  501    0 -0.00000000000E+00 -0.00000000000E+00 -0.23104581716E+04  0.23104581716E+04  0.00000000000E+00 0. -1.
         25    2    1    2    0    0  0.20521855957E+02  0.25705263080E+02  0.22874793474E+02  0.13125723655E+03  0.12499319521E+03 0.  0.
          2    1    1    2  501    0 -0.71264688745E+01 -0.81114398472E+02 -0.22509390041E+04  0.22524113151E+04  0.00000000000E+00 0. -1.
          1    1    1    2  502    0 -0.13395387082E+02  0.55409135392E+02  0.17233313309E+03  0.18151671394E+03  0.00000000000E+00 0. -1.
         22    1    3    3    0    0 -0.48823458525E+01  0.72976013388E+01  0.72237334273E+02  0.72768982054E+02  0.00000000000E+00 0. -1.
         22    1    3    3    0    0  0.25404201809E+02  0.18407661742E+02 -0.49362540799E+02  0.58488254500E+02  0.00000000000E+00 0. -1.
</event>
<event>
 7    1  0.6607887E-006  0.2735149E+03  0.7818608E-02  0.1309464E+00
          2   -1    0    0  502    0  0.00000000000E+00  0.00000000000E+00  0.25604136039E+03  0.25604136039E+03  0.00000000000E+00 0. -1.
          1   -1    0    0  501    0 -0.00000000000E+00 -0.00000000000E+00 -0.15356048148E+04  0.15356048148E+04  0.00000000000E+00 0. -1.
         25    2    1    2    0    0 -0.27624763527E+03 -0.32118147528E+02 -0.92588131333E+03  0.97479700855E+03  0.12501467956E+03 0.  0.
          2    1    1    2  501    0  0.30506528359E+01  0.27712204739E+02 -0.50415329756E+03  0.50492357859E+03  0.00000000000E+00 0. -1.
          1    1    1    2  502    0  0.27319698244E+03  0.44059427885E+01  0.15047115649E+03  0.31192558805E+03  0.00000000000E+00 0. -1.
         22    1    3    3    0    0 -0.28648342799E+03 -0.41232235682E+02 -0.90154877455E+03  0.94687013083E+03  0.00000000000E+00 0.  1.
         22    1    3    3    0    0  0.10235792717E+02  0.91140881540E+01 -0.24332538782E+02  0.27926877717E+02  0.00000000000E+00 0.  1.
</event>
<event>
 7    1  0.6607887E-006  0.1705210E+03  0.7818608E-02  0.1358434E+00
          2   -1    0    0  502    0  0.00000000000E+00  0.00000000000E+00  0.32838023437E+03  0.32838023437E+03  0.00000000000E+00 0. -1.
          1   -1    0    0  501    0 -0.00000000000E+00 -0.00000000000E+00 -0.10804716492E+04  0.10804716492E+04  0.00000000000E+00 0. -1.
         25    2    1    2    0    0 -0.46219108807E+02 -0.18767299538E+03 -0.45594419337E+02  0.23465015898E+03  0.12499794725E+03 0.  0.
          2    1    1    2  501    0  0.54456081175E+02  0.15972211531E+03 -0.93183291278E+03  0.94698954389E+03  0.00000000000E+00 0. -1.
          1    1    1    2  502    0 -0.82369723680E+01  0.27950880071E+02  0.22533591732E+03  0.22721218067E+03  0.00000000000E+00 0. -1.
         22    1    3    3    0    0 -0.59223795894E+02 -0.19808173530E+03 -0.25136110866E+02  0.20826823072E+03  0.00000000000E+00 0. -1.
         22    1    3    3    0    0  0.13004687087E+02  0.10408739916E+02 -0.20458308471E+02  0.26381928253E+02  0.00000000000E+00 0. -1.
</event>
<event>
 7    1  0.6607887E-006  0.1631323E+03  0.7818608E-02  0.1251505E+00
          2   -1    0    0  502    0  0.00000000000E+00  0.00000000000E+00  0.23169183608E+04  0.23169183608E+04  0.00000000000E+00 0. -1.
          1   -1    0    0  501    0 -0.00000000000E+00 -0.00000000000E+00 -0.17554409905E+03  0.17554409905E+03  0.00000000000E+00 0. -1.
         25    2    1    2    0    0  0.21709699843E+03  0.93948650913E+02  0.51069417062E+03  0.57653402898E+03  0.12500197969E+03 0.  0.
          2    1    1    2  501    0 -0.73414735422E+02 -0.34532048165E+02 -0.12737108267E+03  0.15101515960E+03  0.00000000000E+00 0. -1.
          1    1    1    2  502    0 -0.14368226301E+03 -0.59416602748E+02  0.17580511739E+04  0.17649132713E+04  0.00000000000E+00 0. -1.
         22    1    3    3    0    0  0.65327224777E+02  0.89131882648E+02  0.16080844738E+03  0.19511918294E+03  0.00000000000E+00 0. -1.
         22    1    3    3    0    0  0.15176977365E+03  0.48167682649E+01  0.34988572324E+03  0.38141484604E+03  0.00000000000E+00 0. -1.
</event>
<event>
 7    1  0.6607887E-006  0.4343811E+02  0.7818608E-02  0.1488392E+00
          2   -1    0    0  502    0  0.00000000000E+00  0.00000000000E+00  0.10786034739E+04  0.10786034739E+04  0.00000000000E+00 0. -1.
          1   -1    0    0  501    0 -0.00000000000E+00 -0.00000000000E+00 -0.57076914031E+03  0.57076914031E+03  0.00000000000E+00 0. -1.
         25    2    1    2    0    0  0.51639992059E+02 -0.21928837590E+02  0.19109301833E+03  0.23512491494E+03  0.12497848325E+03 0.  0.
          2    1    1    2  501    0 -0.39345489065E+02 -0.18463000191E+02 -0.54737638159E+03  0.54909912858E+03  0.00000000000E+00 0. -1.
          1    1    1    2  502    0 -0.12294502995E+02  0.40391837782E+02  0.86411769689E+03  0.86514857073E+03  0.00000000000E+00 0. -1.
         22    1    3    3    0    0  0.83194277312E+01 -0.60124002219E+01  0.18862808973E+03  0.18890716786E+03  0.00000000000E+00 0. -1.
         22    1    3    3    0    0  0.43320564328E+02 -0.15916437369E+02  0.24649285966E+01  0.46217747080E+02  0.00000000000E+00 0. -1.
</event>
<event>
 7    1  0.6607887E-006  0.9866402E+02  0.7818608E-02  0.1381534E+00
          2   -1    0    0  502    0  0.00000000000E+00  0.00000000000E+00  0.28794003469E+04  0.28794003469E+04  0.00000000000E+00 0. -1.
          1   -1    0    0  501    0 -0.00000000000E+00 -0.00000000000E+00 -0.77098023079E+03  0.77098023079E+03  0.00000000000E+00 0. -1.
         25    2    1    2    0    0  0.20119494445E+02 -0.73193151348E+02  0.15876843714E+03  0.21586037205E+03  0.12500500841E+03 0.  0.
          2    1    1    2  501    0 -0.32800311195E+02 -0.25579605174E+02 -0.74092981020E+03  0.74209646291E+03  0.00000000000E+00 0. -1.
          1    1    1    2  502    0  0.12680816750E+02  0.98772756523E+02  0.26905814892E+04  0.26924237428E+04  0.00000000000E+00 0. -1.
         22    1    3    3    0    0  0.71092496870E+02 -0.24650205898E+02  0.72141033144E+02  0.10424060833E+03  0.00000000000E+00 0.  1.
         22    1    3    3    0    0 -0.50973002426E+02 -0.48542945451E+02  0.86627403999E+02  0.11161976372E+03  0.00000000000E+00 0.  1.
</event>
<event>
 7    1  0.6607887E-006  0.6145103E+02  0.7818608E-02  0.1483636E+00
          2   -1    0    0  502    0  0.00000000000E+00  0.00000000000E+00  0.21585708227E+02  0.21585708227E+02  0.00000000000E+00 0. -1.
          1   -1    0    0  501    0 -0.00000000000E+00 -0.00000000000E+00 -0.13619575660E+04  0.13619575660E+04  0.00000000000E+00 0. -1.
         25    2    1    2    0    0 -0.15403938817E+02  0.45372781181E+02 -0.50989656673E+03  0.52717642280E+03  0.12499800553E+03 0.  0.
          2    1    1    2  501    0  0.24865538250E+02  0.18270673212E+02 -0.76118128217E+03  0.76180644314E+03  0.00000000000E+00 0. -1.
          1    1    1    2  502    0 -0.94615994332E+01 -0.63643454393E+02 -0.69294008908E+02  0.94560408319E+02  0.00000000000E+00 0. -1.
         22    1    3    3    0    0 -0.42718165209E+01 -0.23969342238E+02 -0.17966394523E+02  0.30258372657E+02  0.00000000000E+00 0. -1.
         22    1    3    3    0    0 -0.11132122296E+02  0.69342123418E+02 -0.49193017220E+03  0.49691805014E+03  0.00000000000E+00 0. -1.
</event>
<event>
 7    1  0.6607887E-006  0.1713308E+03  0.7818608E-02  0.1327905E+00
          2   -1    0    0  502    0  0.00000000000E+00  0.00000000000E+00  0.12782410850E+04  0.12782410850E+04  0.00000000000E+00 0. -1.
          1   -1    0    0  501    0 -0.00000000000E+00 -0.00000000000E+00 -0.16797332743E+03  0.16797332743E+03  0.00000000000E+00 0. -1.
         25    2    1    2    0    0  0.12473319254E+03  0.64739043354E+02  0.67496475765E+02  0.19982235170E+03  0.12499473966E+03 0.  0.
          2    1    1    2  501    0  0.20890187888E+02  0.31423885833E+02 -0.91395303769E+02  0.98878521945E+02  0.00000000000E+00 0. -1.
          1    1    1    2  502    0 -0.14562338043E+03 -0.96162929188E+02  0.11341665855E+04  0.11475135388E+04  0.00000000000E+00 0. -1.
         22    1    3    3    0    0  0.26377471543E+02  0.62878513483E+02  0.74754574502E+02  0.10118164296E+03  0.00000000000E+00 0. -1.
         22    1    3    3    0    0  0.98355720997E+02  0.18605298709E+01 -0.72580987364E+01  0.98640708744E+02  0.00000000000E+00 0. -1.
</event>
<event>
 7    1  0.6607887E-006  0.1601421E+03  0.7818608E-02  0.1194325E+00
          2   -1    0    0  502    0  0.00000000000E+00  0.00000000000E+00  0.25282931038E+04  0.25282931038E+04  0.00000000000E+00 0. -1.
          1   -1    0    0  501    0 -0.00000000000E+00 -0.00000000000E+00 -0.17824226423E+03  0.17824226423E+03  0.00000000000E+00 0. -1.
         25    2    1    2    0    0 -0.11885520939E+03  0.36061316608E+02  0.98492775189E+03  0.10005666055E+04  0.12499550487E+03 0.  0.
          2    1    1    2  501    0  0.47834867713E+02  0.15283102194E+03 -0.12443417936E+03  0.20280374954E+03  0.00000000000E+00 0. -1.
          1    1    1    2  502    0  0.71020341673E+02 -0.18889233854E+03  0.14895572671E+04  0.15031650130E+04  0.00000000000E+00 0. -1.
         22    1    3    3    0    0 -0.18353638539E+02 -0.39417862232E+02  0.14805023980E+03  0.15430326444E+03  0.00000000000E+00 0.  1.
         22    1    3    3    0    0 -0.10050157085E+03  0.75479178841E+02  0.83687751208E+03  0.84626334106E+03  0.00000000000E+00 0.  1.
</event>
<event>
 7    1  0.6607887E-006  0.8770466E+02  0.7818608E-02  0.1337185E+00
          2   -1    0    0  502    0  0.00000000000E+00  0.00000000000E+00  0.41199067973E+03  0.41199067973E+03  0.00000000000E+00 0. -1.
          1   -1    0    0  501    0 -0.00000000000E+00 -0.00000000000E+00 -0.84519031827E+03  0.84519031827E+03  0.00000000000E+00 0. -1.
         25    2    1    2    0    0 -0.53814040030E+02 -0.14121148689E+03 -0.86955113580E+02  0.21452818410E+03  0.12499806023E+03 0.  0.
          2    1    1    2  501    0  0.11220802562E+02  0.67024016640E+02 -0.68749394203E+03  0.69084444381E+03  0.00000000000E+00 0. -1.
          1    1    1    2  502    0  0.42593237468E+02  0.74187470254E+02  0.34124941706E+03  0.35180837009E+03  0.00000000000E+00 0. -1.
         22    1    3    3    0    0 -0.93011558308E+02 -0.77450779925E+02 -0.58788180302E+02  0.13455788135E+03  0.00000000000E+00 0. -1.
         22    1    3    3    0    0  0.39197518278E+02 -0.63760706969E+02 -0.28166933278E+02  0.79970302754E+02  0.00000000000E+00 0. -1.
</event>
<event>
 7    1  0.6607887E-006  0.6099455E+02  0.7818608E-02  0.1536718E+00
          2   -1    0    0  502    0  0.00000000000E+00  0.00000000000E+00  0.17211372033E+03  0.17211372033E+03  0.00000000000E+00 0. -1.
          1   -1    0    0  501    0 -0.00000000000E+00 -0.00000000000E+00 -0.17447911208E+04  0.17447911208E+04  0.00000000000E+00 0. -1.
         25    2    1    2    0    0  0.20292003033E+02  0.72971967009E+02 -0.15836299557E+04  0.15903599505E+04  0.12499704861E+03 0.  0.
          2    1    1    2  501    0 -0.18029040223E+02 -0.12063648132E+02 -0.15149457168E+03  0.15303980903E+03  0.00000000000E+00 0. -1.
          1    1    1    2  502    0 -0.22629628095E+01 -0.60908318877E+02  0.16244712691E+03  0.17350508163E+03  0.00000000000E+00 0. -1.
         22    1    3    3    0    0  0.50098776594E+02  0.96047348471E+02 -0.11447127948E+04  0.11498271014E+04  0.00000000000E+00 0. -1.
         22    1    3    3    0    0 -0.29806773562E+02 -0.23075381461E+02 -0.43891716091E+03  0.44053284908E+03  0.00000000000E+00 0. -1.
</event>
<event>
 7    1  0.6607887E-006  0.6767628E+02  0.7818608E-02  0.1404728E+00
          2   -1    0    0  502    0  0.00000000000E+00  0.00000000000E+00  0.27836816747E+04  0.27836816747E+04  0.00000000000E+00 0. -1.
          1   -1    0    0  501    0 -0.00000000000E+00 -0.00000000000E+00 -0.12533200446E+02  0.12533200446E+02  0.00000000000E+00 0. -1.
         25    2    1    2    0    0 -0.39963675052E+02  0.69475034512E+02  0.83091871530E+03  0.84408192517E+03  0.12499803684E+03 0.  0.
          2    1    1    2  501    0  0.50322224301E+02 -0.22583986328E+01  0.11395170161E+03  0.12458899198E+03  0.00000000000E+00 0. -1.
          1    1    1    2  502    0 -0.10358549249E+02 -0.67216635879E+02  0.18262780573E+04  0.18275439580E+04  0.00000000000E+00 0. -1.
         22    1    3    3    0    0  0.35800823567E+02  0.97452996751E+01  0.97086091907E+02  0.10393449416E+03  0.00000000000E+00 0. -1.
         22    1    3    3    0    0 -0.75764498619E+02  0.59729734837E+02  0.73383262340E+03  0.74014743101E+03  0.00000000000E+00 0. -1.
</event>
<event>
 7    1  0.6607887E-006  0.1190972E+03  0.7818608E-02  0.1356695E+00
          2   -1    0    0  502    0  0.00000000000E+00  0.00000000000E+00  0.13167533209E+04  0.13167533209E+04  0.00000000000E+00 0. -1.
          1   -1    0    0  501    0 -0.00000000000E+00 -0.00000000000E+00 -0.40680555733E+03  0.40680555733E+03  0.00000000000E+00 0. -1.
         25    2    1    2    0    0 -0.63690370511E+02  0.14168481929E+03  0.17560767415E+03  0.26567286563E+03  0.12495185072E+03 0.  0.
          2    1    1    2  501    0  0.29849928528E+02 -0.30024141412E+02 -0.35741511532E+03  0.35991392298E+03  0.00000000000E+00 0. -1.
          1    1    1    2  502    0  0.33840441982E+02 -0.11166067788E+03  0.10917552047E+04  0.10979720896E+04  0.00000000000E+00 0. -1.
         22    1    3    3    0    0  0.30371784426E+02  0.48189977959E+01  0.13455240104E+02  0.33566523729E+02  0.00000000000E+00 0.  1.
         22    1    3    3    0    0 -0.94062154936E+02  0.13686582150E+03  0.16215243405E+03  0.23210634191E+03  0.00000000000E+00 0.  1.
</event>
<event>
 7    1  0.6607887E-006  0.7412054E+02  0.7818608E-02  0.1383712E+00
          2   -1    0    0  502    0  0.00000000000E+00  0.00000000000E+00  0.13955541232E+04  0.13955541232E+04  0.00000000000E+00 0. -1.
          1   -1    0    0  501    0 -0.00000000000E+00 -0.00000000000E+00 -0.14215759058E+04  0.14215759058E+04  0.00000000000E+00 0. -1.
         25    2    1    2    0    0  0.23852690416E+02 -0.10754261855E+03  0.76852565108E+03  0.78637855569E+03  0.12500076332E+03 0.  0.
          2    1    1    2  501    0 -0.46178848259E+02  0.57937557150E+02 -0.14104784404E+04  0.14124229810E+04  0.00000000000E+00 0. -1.
          1    1    1    2  502    0  0.22326157843E+02  0.49605061400E+02  0.61593100668E+03  0.61832849233E+03  0.00000000000E+00 0. -1.
         22    1    3    3    0    0  0.54473179585E+02 -0.59576527146E+01  0.36713462763E+03  0.37120163755E+03  0.00000000000E+00 0. -1.
         22    1    3    3    0    0 -0.30620489169E+02 -0.10158496584E+03  0.40139102346E+03  0.41517691814E+03  0.00000000000E+00 0. -1.
</event>
<event>
 7    1  0.6607887E-006  0.1080629E+03  0.7818608E-02  0.1337500E+00
          2   -1    0    0  502    0  0.00000000000E+00  0.00000000000E+00  0.12300002040E+04  0.12300002040E+04  0.00000000000E+00 0. -1.
          1   -1    0    0  501    0 -0.00000000000E+00 -0.00000000000E+00 -0.44097202672E+02  0.44097202672E+02  0.00000000000E+00 0. -1.
         25    2    1    2    0    0  0.67485536707E+01 -0.72328607662E+02  0.43660568088E+03  0.45991743128E+03  0.12499020984E+03 0.  0.
          2    1    1    2  501    0  0.29079391610E+02  0.11406269098E+03  0.79305182332E+02  0.14193385937E+03  0.00000000000E+00 0. -1.
          1    1    1    2  502    0 -0.35827945280E+02 -0.41734083319E+02  0.66999213811E+03  0.67224611602E+03  0.00000000000E+00 0. -1.
         22    1    3    3    0    0 -0.52324992457E+02 -0.19676033657E+01  0.14376718011E+03  0.15300581158E+03  0.00000000000E+00 0.  1.
         22    1    3    3    0    0  0.59073546127E+02 -0.70361004296E+02  0.29283850077E+03  0.30691161970E+03  0.00000000000E+00 0.  1.
</event>
<event>
 7    1  0.6607887E-006  0.8773224E+02  0.7818608E-02  0.1404609E+00
          2   -1    0    0  502    0  0.00000000000E+00  0.00000000000E+00  0.73876910653E+03  0.73876910653E+03  0.00000000000E+00 0. -1.
          1   -1    0    0  501    0 -0.00000000000E+00 -0.00000000000E+00 -0.75312043011E+03  0.75312043011E+03  0.00000000000E+00 0. -1.
         25    2    1    2    0    0 -0.12362755255E+03  0.17182555818E+02 -0.10387019138E+03  0.20493011621E+03  0.12501329489E+03 0.  0.
          2    1    1    2  501    0  0.38811021885E+02  0.25379357502E+01 -0.59532875886E+03  0.59659791121E+03  0.00000000000E+00 0. -1.
          1    1    1    2  502    0  0.84816530664E+02 -0.19720491568E+02  0.68484762666E+03  0.69036150922E+03  0.00000000000E+00 0. -1.
         22    1    3    3    0    0 -0.14506311366E+03  0.13558310387E+02 -0.10975294749E+03  0.18240845432E+03  0.00000000000E+00 0.  1.
         22    1    3    3    0    0  0.21435561107E+02  0.36242454307E+01  0.58827561136E+01  0.22521661893E+02  0.00000000000E+00 0.  1.
</event>
<event>
 7    1  0.6607887E-006  0.1158772E+03  0.7818608E-02  0.1275267E+00
          2   -1    0    0  502    0  0.00000000000E+00  0.00000000000E+00  0.32195003242E+03  0.32195003242E+03  0.00000000000E+00 0. -1.
          1   -1    0    0  501    0 -0.00000000000E+00 -0.00000000000E+00 -0.24104169064E+03  0.24104169064E+03  0.00000000000E+00 0. -1.
         25    2    1    2    0    0  0.51377784330E+02  0.14321031062E+03 -0.37769613085E+02  0.20049960524E+03  0.12499871295E+03 0.  0.
          2    1    1    2  501    0  0.43703593141E+02 -0.79297779469E+02 -0.87950872572E+02  0.12622795993E+03  0.00000000000E+00 0. -1.
          1    1    1    2  502    0 -0.95081377472E+02 -0.63912531147E+02  0.20662882743E+03  0.23626415789E+03  0.00000000000E+00 0. -1.
         22    1    3    3    0    0  0.46686591445E+02  0.16121559798E+03 -0.53473431826E+02  0.17615196497E+03  0.00000000000E+00 0. -1.
         22    1    3    3    0    0  0.46911928853E+01 -0.18005287359E+02  0.15703818742E+02  0.24347640268E+02  0.00000000000E+00 0. -1.
</event>
<event>
 7    1  0.6607887E-006  0.1277113E+03  0.7818608E-02  0.1321526E+00
          2   -1    0    0  502    0  0.00000000000E+00  0.00000000000E+00  0.17752791651E+03  0.17752791651E+03  0.00000000000E+00 0. -1.
          1   -1    0    0  501    0 -0.00000000000E+00 -0.00000000000E+00 -0.45053187157E+03  0.45053187157E+03  0.00000000000E+00 0. -1.
         25    2    1    2    0    0 -0.13883976646E+03 -0.78664171507E+02 -0.12569580797E+03  0.23851848174E+03  0.12500838917E+03 0.  0.
          2    1    1    2  501    0  0.11719296108E+03  0.29663782895E+02 -0.24777067645E+03  0.27568902453E+03  0.00000000000E+00 0. -1.
          1    1    1    2  502    0  0.21646805373E+02  0.49000388612E+02  0.10046252935E+03  0.11385228180E+03  0.00000000000E+00 0. -1.
         22    1    3    3    0    0 -0.13483166210E+02 -0.76135346557E+02 -0.49012977286E+02  0.91545937697E+02  0.00000000000E+00 0. -1.
         22    1    3    3    0    0 -0.12535660025E+03 -0.25288249500E+01 -0.76682830680E+02  0.14697254404E+03  0.00000000000E+00 0. -1.
</event>
<event>
 7    1  0.6607887E-006  0.8376162E+02  0.7818608E-02  0.1414517E+00
          2   -1    0    0  502    0  0.00000000000E+00  0.00000000000E+00  0.26666591791E+04  0.26666591791E+04  0.00000000000E+00 0. -1.
          1   -1    0    0  501    0 -0.00000000000E+00 -0.00000000000E+00 -0.37358733290E+03  0.37358733290E+03  0.00000000000E+00 0. -1.
         25    2    1    2    0    0  0.22719760503E+01  0.80939165883E+02  0.32144347435E+03  0.35426313027E+03  0.12498058977E+03 0.  0.
          2    1    1    2  501    0 -0.39355751219E+02 -0.74123531648E+02 -0.35209270959E+03  0.36195641898E+03  0.00000000000E+00 0. -1.
          1    1    1    2  502    0  0.37083775169E+02 -0.68156342341E+01  0.23237210815E+04  0.23240269628E+04  0.00000000000E+00 0. -1.
         22    1    3    3    0    0  0.12983773475E+02  0.67697881137E+02  0.32862699170E+03  0.33577861927E+03  0.00000000000E+00 0. -1.
         22    1    3    3    0    0 -0.10711797424E+02  0.13241284746E+02 -0.71835173451E+01  0.18484511009E+02  0.00000000000E+00 0. -1.
</event>
<event>
 7    1  0.6607887E-006  0.3605903E+02  0.7818608E-02  0.1582699E+00
          2   -1    0    0  502    0  0.00000000000E+00  0.00000000000E+00  0.46825690173E+02  0.46825690173E+02  0.00000000000E+00 0. -1.
          1   -1    0    0  501    0 -0.00000000000E+00 -0.00000000000E+00 -0.81842686174E+03  0.81842686174E+03  0.00000000000E+00 0. -1.
         25    2    1    2    0    0  0.29250249970E+02 -0.19269959055E+02 -0.13351774101E+03  0.18622069778E+03  0.12499701066E+03 0.  0.
          2    1    1    2  501    0 -0.35507876544E+02 -0.74183796844E+01 -0.64864276091E+03  0.64965627291E+03  0.00000000000E+00 0. -1.
          1    1    1    2  502    0  0.62576265743E+01  0.26688338740E+02  0.10559330345E+02  0.29375581226E+02  0.00000000000E+00 0. -1.
         22    1    3    3    0    0 -0.43740079058E+02  0.37916305939E+00 -0.87236650908E+02  0.97588787995E+02  0.00000000000E+00 0. -1.
         22    1    3    3    0    0  0.72990329028E+02 -0.19649122115E+02 -0.46281090100E+02  0.88631909786E+02  0.00000000000E+00 0. -1.
</event>
<event>
 7    1  0.6607887E-006  0.7830410E+02  0.7818608E-02  0.1468012E+00
          2   -1    0    0  502    0  0.00000000000E+00  0.00000000000E+00  0.39165353917E+03  0.39165353917E+03  0.00000000000E+00 0. -1.
          1   -1    0    0  501    0 -0.00000000000E+00 -0.00000000000E+00 -0.46258175445E+02  0.46258175445E+02  0.00000000000E+00 0. -1.
         25    2    1    2    0    0 -0.51278160484E+02  0.28441896640E+02  0.12313877422E+03  0.18500763148E+03  0.12500509895E+03 0.  0.
          2    1    1    2  501    0 -0.15263665400E+02  0.22341847197E+02  0.18933718935E+02  0.33024586755E+02  0.00000000000E+00 0. -1.
          1    1    1    2  502    0  0.66541825884E+02 -0.50783743837E+02  0.20332287057E+03  0.21987949637E+03  0.00000000000E+00 0. -1.
         22    1    3    3    0    0 -0.12386815266E+02  0.62964504650E+02  0.11593196894E+03  0.13250729588E+03  0.00000000000E+00 0.  1.
         22    1    3    3    0    0 -0.38891345218E+02 -0.34522608010E+02  0.72068052835E+01  0.52500335609E+02  0.00000000000E+00 0.  1.
</event>
<event>
 7    1  0.6607887E-006  0.5034839E+02  0.7818608E-02  0.1479420E+00
          2   -1    0    0  502    0  0.00000000000E+00  0.00000000000E+00  0.14515267989E+04  0.14515267989E+04  0.00000000000E+00 0. -1.
          1   -1    0    0  501    0 -0.00000000000E+00 -0.00000000000E+00 -0.10130883835E+04  0.10130883835E+04  0.00000000000E+00 0. -1.
         25    2    1    2    0    0  0.42700443658E+01 -0.86806273501E+02  0.14028965935E+04  0.14111337002E+04  0.12500362134E+03 0.  0.
          2    1    1    2  501    0  0.73550994398E+01  0.49792386038E+02 -0.99976095234E+03  0.10010271430E+04  0.00000000000E+00 0. -1.
          1    1    1    2  502    0 -0.11625143806E+02  0.37013887463E+02  0.35302774281E+02  0.52454339244E+02  0.00000000000E+00 0. -1.
         22    1    3    3    0    0  0.56190288012E+02 -0.21731244589E+02  0.36848388055E+03  0.37337643965E+03  0.00000000000E+00 0.  1.
         22    1    3    3    0    0 -0.51920243646E+02 -0.65075028912E+02  0.10344127129E+04  0.10377572605E+04  0.00000000000E+00 0.  1.
</event>
<event>
 7    1  0.6607887E-006  0.1009967E+03  0.7818608E-02  0.1344870E+00
          2   -1    0    0  502    0  0.00000000000E+00  0.00000000000E+00  0.15455924283E+03  0.15455924283E+03  0.00000000000E+00 0. -1.
          1   -1    0    0  501    0 -0.00000000000E+00 -0.00000000000E+00 -0.26436424544E+04  0.26436424544E+04  0.00000000000E+00 0. -1.
         25    2    1    2    0    0  0.12619453432E+03 -0.89412063619E+02 -0.18136828139E+04  0.18245520215E+04  0.12500060723E+03 0.  0.
          2    1    1    2  501    0 -0.39488784881E+02  0.38596420875E+02 -0.80654083232E+03  0.80842882311E+03  0.00000000000E+00 0. -1.
          1    1    1    2  502    0 -0.86705749440E+02  0.50815642744E+02  0.13114043471E+03  0.16522085265E+03  0.00000000000E+00 0. -1.
         22    1    3    3    0    0  0.27066537248E+02  0.28251908142E+02 -0.57896311075E+03  0.58028359564E+03  0.00000000000E+00 0. -1.
         22    1    3    3    0    0  0.99127997073E+02 -0.11766397176E+03 -0.12347197032E+04  0.12442684258E+04  0.00000000000E+00 0. -1.
</event>
<event>
 7    1  0.6607887E-006  0.7507694E+02  0.7818608E-02  0.1395162E+00
          2   -1    0    0  502    0  0.00000000000E+00  0.00000000000E+00  0.76779328356E+02  0.76779328356E+02  0.00000000000E+00 0. -1.
          1   -1    0    0  501    0 -0.00000000000E+00 -0.00000000000E+00 -0.97488413999E+03  0.97488413999E+03  0.00000000000E+00 0. -1.
         25    2    1    2    0    0  0.79081828834E+02  0.37088495353E+02 -0.17788521059E+03  0.23430078323E+03  0.12499686691E+03 0.  0.
          2    1    1    2  501    0 -0.40554846708E+02  0.27466046457E+02 -0.73839645887E+03  0.74001919554E+03  0.00000000000E+00 0. -1.
          1    1    1    2  502    0 -0.38526982126E+02 -0.64554541810E+02  0.18176857818E+02  0.77343489578E+02  0.00000000000E+00 0. -1.
         22    1    3    3    0    0  0.75060011731E+02  0.10736565816E+02 -0.19033324143E+03  0.20488050663E+03  0.00000000000E+00 0.  1.
         22    1    3    3    0    0  0.40218171025E+01  0.26351929537E+02  0.12448030840E+02  0.29420276595E+02  0.00000000000E+00 0.  1.
</event>
<event>
 7    1  0.6607887E-006  0.1259331E+03  0.7818608E-02  0.1273584E+00
          2   -1    0    0  502    0  0.00000000000E+00  0.00000000000E+00  0.25129752849E+04  0.25129752849E+04  0.00000000000E+00 0. -1.
          1   -1    0    0  501    0 -0.00000000000E+00 -0.00000000000E+00 -0.80888652677E+03  0.80888652677E+03  0.00000000000E+00 0. -1.
         25    2    1    2    0    0 -0.95176642141E+02 -0.92342593024E+02  0.63626856021E+03  0.66185265071E+03  0.12500201135E+03 0.  0.
          2    1    1    2  501    0 -0.32952824836E+02  0.77994796316E+02 -0.79160453551E+03  0.79611985125E+03  0.00000000000E+00 0. -1.
          1    1    1    2  502    0  0.12812946698E+03  0.14347796708E+02  0.18594247335E+04  0.18638893097E+04  0.00000000000E+00 0. -1.
         22    1    3    3    0    0 -0.30765865163E+02 -0.83318479762E+02  0.17733801711E+03  0.19833627969E+03  0.00000000000E+00 0. -1.
         22    1    3    3    0    0 -0.64410776978E+02 -0.90241132617E+01  0.45893054310E+03  0.46351637102E+03  0.00000000000E+00 0. -1.
</event>
<event>
 7    1  0.6607887E-006  0.7970605E+02  0.7818608E-02  0.1417858E+00
          2   -1    0    0  502    0  0.00000000000E+00  0.00000000000E+00  0.17033262199E+04  0.17033262199E+04  0.00000000000E+00 0. -1.
          1   -1    0    0  501    0 -0.00000000000E+00 -0.00000000000E+00 -0.14192236981E+03  0.14192236981E+03  0.00000000000E+00 0. -1.
         25    2    1    2    0    0  0.36152196758E+02 -0.23823988156E+02 -0.22216946861E+00  0.13229617154E+03  0.12501065516E+03 0.  0.
          2    1    1    2  501    0  0.37988876405E+02 -0.69122155897E+01 -0.69685312888E+02  0.79667912531E+02  0.00000000000E+00 0. -1.
          1    1    1    2  502    0 -0.74141073163E+02  0.30736203745E+02  0.16313113324E+04  0.16332845056E+04  0.00000000000E+00 0. -1.
         22    1    3    3    0    0  0.21842902362E+02 -0.10683949785E+02 -0.62497401940E+02  0.67061049916E+02  0.00000000000E+00 0. -1.
         22    1    3    3    0    0  0.14309294395E+02 -0.13140038370E+02  0.62275232471E+02  0.65235121628E+02  0.00000000000E+00 0. -1.
</event>
<event>
 7    1  0.6607887E-006  0.3523283E+02  0.7818608E-02  0.1581666E+00
          2   -1    0    0  502    0  0.00000000000E+00  0.00000000000E+00  0.38777918659E+03  0.38777918659E+03  0.00000000000E+00 0. -1.
          1   -1    0    0  501    0 -0.00000000000E+00 -0.00000000000E+00 -0.18194601428E+03  0.18194601428E+03  0.00000000000E+00 0. -1.
         25    2    1    2    0    0  0.25912828230E+02 -0.49930918893E+02  0.22964976324E+03  0.26745074377E+03  0.12500526092E+03 0.  0.
          2    1    1    2  501    0 -0.27564628955E+02  0.21745275003E+02 -0.15968722603E+03  0.16350130247E+03  0.00000000000E+00 0. -1.
          1    1    1    2  502    0  0.16518007258E+01  0.28185643890E+02  0.13587063509E+03  0.13877315463E+03  0.00000000000E+00 0. -1.
         22    1    3    3    0    0  0.94067028520E+01 -0.73128291303E+02  0.58968961677E+02  0.94411712667E+02  0.00000000000E+00 0. -1.
         22    1    3    3    0    0  0.16506125378E+02  0.23197372410E+02  0.17068080157E+03  0.17303903110E+03  0.00000000000E+00 0. -1.
</event>
<event>
 7    1  0.6607887E-006  0.8376219E+02  0.7818608E-02  0.1365697E+00
          2   -1    0    0  502    0  0.00000000000E+00  0.00000000000E+00  0.10173549203E+04  0.10173549203E+04  0.00000000000E+00 0. -1.
          1   -1    0    0  501    0 -0.00000000000E+00 -0.00000000000E+00 -0.80062626219E+03  0.80062626219E+03  0.00000000000E+00 0. -1.
         25    2    1    2    0    0 -0.12163852288E+03 -0.10275266784E+02  0.20365096659E+03  0.26832949230E+03  0.12500195552E+03 0.  0.
          2    1    1    2  501    0  0.43631513950E+02  0.34815224533E+02 -0.76512787179E+03  0.76716130576E+03  0.00000000000E+00 0. -1.
          1    1    1    2  502    0  0.78007008935E+02 -0.24539957749E+02  0.77820556329E+03  0.78249038442E+03  0.00000000000E+00 0. -1.
         22    1    3    3    0    0 -0.31008654181E+02  0.21865670020E+02 -0.53024478748E+01  0.38311357494E+02  0.00000000000E+00 0. -1.
         22    1    3    3    0    0 -0.90629868704E+02 -0.32140936804E+02  0.20895341447E+03  0.23001813480E+03  0.00000000000E+00 0. -1.
</event>
<event>
 7    1  0.6607887E-006  0.4548842E+02  0.7818608E-02  0.1526080E+00
          2   -1    0    0  502    0  0.00000000000E+00  0.00000000000E+00  0.14979213763E+03  0.14979213763E+03  0.00000000000E+00 0. -1.
          1   -1    0    0  501    0 -0.00000000000E+00 -0.00000000000E+00 -0.48546854816E+03  0.48546854816E+03  0.00000000000E+00 0. -1.
         25    2    1    2    0    0 -0.59834507790E+02  0.13562234747E+02  0.31986843431E+02  0.14287158030E+03  0.12500011108E+03 0.  0.
          2    1    1    2  501    0  0.17434397124E+02 -0.25871937420E+02 -0.42156252847E+03  0.42271536613E+03  0.00000000000E+00 0. -1.
          1    1    1    2  502    0  0.42400110666E+02  0.12309702673E+02  0.53899274515E+02  0.69673739369E+02  0.00000000000E+00 0. -1.
         22    1    3    3    0    0 -0.90623560951E+02 -0.11232910400E+02  0.44260739452E+02  0.10147818057E+03  0.00000000000E+00 0.  1.
         22    1    3    3    0    0  0.30789053161E+02  0.24795145146E+02 -0.12273896021E+02  0.41393399727E+02  0.00000000000E+00 0.  1.
</event>
<event>
 7    1  0.6607887E-006  0.1105937E+03  0.7818608E-02  0.1316839E+00
          2   -1    0    0  502    0  0.00000000000E+00  0.00000000000E+00  0.15602886045E+04  0.15602886045E+04  0.00000000000E+00 0. -1.
          1   -1    0    0  501    0 -0.00000000000E+00 -0.00000000000E+00 -0.79798276941E+03  0.79798276941E+03  0.00000000000E+00 0. -1.
         25    2    1    2    0    0 -0.43838292898E+02  0.63022551342E+02  0.63367785390E+03  0.65043560627E+03  0.12500086990E+03 0.  0.
          2    1    1    2  501    0  0.91972906014E+01  0.63849840556E+02 -0.78356239777E+03  0.78621334477E+03  0.00000000000E+00 0. -1.
          1    1    1    2  502    0  0.34641002297E+02 -0.12687239190E+03  0.91219037900E+03  0.92162242290E+03  0.00000000000E+00 0. -1.
         22    1    3    3    0    0 -0.24305316946E+02  0.94356219320E+02  0.31764747406E+03  0.33225556779E+03  0.00000000000E+00 0.  1.
         22    1    3    3    0    0 -0.19532975952E+02 -0.31333667978E+02  0.31603037984E+03  0.31818003847E+03  0.00000000000E+00 0.  1.
</event>
<event>
 7    1  0.6607887E-006  0.7826430E+02  0.7818608E-02  0.1505153E+00
          2   -1    0    0  502    0  0.00000000000E+00  0.00000000000E+00  0.17541735039E+04  0.17541735039E+04  0.00000000000E+00 0. -1.
          1   -1    0    0  501    0 -0.00000000000E+00 -0.00000000000E+00 -0.37632859957E+03  0.37632859957E+03  0.00000000000E+00 0. -1.
         25    2    1    2    0    0  0.88212349220E+02  0.41279284490E+02  0.54962625919E+03  0.57201336249E+03  0.12499945677E+03 0.  0.
          2    1    1    2  501    0 -0.67416502455E+02 -0.39477791401E+02 -0.36086347930E+03  0.36922341680E+03  0.00000000000E+00 0. -1.
          1    1    1    2  502    0 -0.20795846765E+02 -0.18014930884E+01  0.11890821244E+04  0.11892653242E+04  0.00000000000E+00 0. -1.
         22    1    3    3    0    0  0.62905626010E+02  0.85598485186E+02  0.33688032773E+03  0.35323161475E+03  0.00000000000E+00 0.  1.
         22    1    3    3    0    0  0.25306723209E+02 -0.44319200696E+02  0.21274593146E+03  0.21878174774E+03  0.00000000000E+00 0.  1.
</event>
<event>
 7    1  0.6607887E-006  0.1710265E+03  0.7818608E-02  0.1276482E+00
          2   -1    0    0  502    0  0.00000000000E+00  0.00000000000E+00  0.27512626357E+04  0.27512626357E+04  0.00000000000E+00 0. -1.
          1   -1    0    0  501    0 -0.00000000000E+00 -0.00000000000E+00 -0.81411913931E+03  0.81411913931E+03  0.00000000000E+00 0. -1.
         25    2    1    2    0    0  0.17257598159E+03  0.52462947603E+02  0.18487227169E+03  0.28694591987E+03  0.12500149517E+03 0.  0.
          2    1    1    2  501    0 -0.13741682348E+03 -0.10186641190E+03 -0.75312469265E+03  0.77230625527E+03  0.00000000000E+00 0. -1.
          1    1    1    2  502    0 -0.35159158117E+02  0.49403464295E+02  0.25053959173E+04  0.25061295999E+04  0.00000000000E+00 0. -1.
         22    1    3    3    0    0  0.97943909141E+02 -0.34381267535E+02  0.10256538889E+03  0.14592717325E+03  0.00000000000E+00 0. -1.
         22    1    3    3    0    0  0.74632072452E+02  0.86844215138E+02  0.82306882805E+02  0.14101874662E+03  0.00000000000E+00 0. -1.
</event>
<event>
 7    1  0.6607887E-006  0.1021344E+03  0.7818608E-02  0.1369181E+00
          2   -1    0    0  502    0  0.00000000000E+00  0.00000000000E+00  0.15664427899E+04  0.15664427899E+04  0.00000000000E+00 0. -1.
          1   -1    0    0  501    0 -0.00000000000E+00 -0.00000000000E+00 -0.15647865300E+03  0.15647865300E+03  0.00000000000E+00 0. -1.
         25    2    1    2    0    0 -0.73414535812E+02  0.45812752955E+02  0.10134094694E+02  0.15237084626E+03  0.12500269002E+03 0.  0.
          2    1    1    2  501    0  0.65775968424E+02 -0.89623982254E+02 -0.48677326952E+02  0.12136069535E+03  0.00000000000E+00 0. -1.
          1    1    1    2  502    0  0.76385673878E+01  0.43811229299E+02  0.14485073691E+04  0.14491899013E+04  0.00000000000E+00 0. -1.
         22    1    3    3    0    0 -0.10683712133E+03  0.44527533061E+02 -0.45679463818E+01  0.11583495945E+03  0.00000000000E+00 0. -1.
         22    1    3    3    0    0  0.33422585523E+02  0.12852198944E+01  0.14702041076E+02  0.36535886810E+02  0.00000000000E+00 0. -1.
</event>
<event>
 7    1  0.6607887E-006  0.1499061E+03  0.7818608E-02  0.1240089E+00
          2   -1    0    0  502    0  0.00000000000E+00  0.00000000000E+00  0.17871626817E+04  0.17871626817E+04  0.00000000000E+00 0. -1.
          1   -1    0    0  501    0 -0.00000000000E+00 -0.00000000000E+00 -0.57800559749E+03  0.57800559749E+03  0.00000000000E+00 0. -1.
         25    2    1    2    0    0  0.15900342001E+03  0.48579399208E+02  0.80840030054E+02  0.22317118785E+03  0.12501289144E+03 0.  0.
          2    1    1    2  501    0 -0.14267028951E+03  0.49096496098E+02 -0.49406759222E+03  0.51659274397E+03  0.00000000000E+00 0. -1.
          1    1    1    2  502    0 -0.16333130497E+02 -0.97675895306E+02  0.16223846464E+04  0.16254043474E+04  0.00000000000E+00 0. -1.
         22    1    3    3    0    0  0.15517821471E+02 -0.20049803339E+02 -0.22165527034E+02  0.33676519800E+02  0.00000000000E+00 0.  1.
         22    1    3    3    0    0  0.14348559854E+03  0.68629202546E+02  0.10300555709E+03  0.18949466805E+03  0.00000000000E+00 0.  1.
</event>
<event>
 7    1  0.6607887E-006  0.1300754E+03  0.7818608E-02  0.1373414E+00
          2   -1    0    0  502    0  0.00000000000E+00  0.00000000000E+00  0.18757287971E+03  0.18757287971E+03  0.00000000000E+00 0. -1.
          1   -1    0    0  501    0 -0.00000000000E+00 -0.00000000000E+00 -0.19945741105E+04  0.19945741105E+04  0.00000000000E+00 0. -1.
         25    2    1    2    0    0 -0.12324750545E+03 -0.33279581564E+02 -0.26559289137E+01  0.17868931608E+03  0.12500135829E+03 0.  0.
          2    1    1    2  501    0  0.13024362356E+03  0.29419284684E+00 -0.18987500315E+04  0.19032118038E+04  0.00000000000E+00 0. -1.
          1    1    1    2  502    0 -0.69961181135E+01  0.32985388717E+02  0.94404729632E+02  0.10024587031E+03  0.00000000000E+00 0. -1.
         22    1    3    3    0    0 -0.12346723967E+03 -0.33491216622E+02 -0.45548429897E+02  0.13579573016E+03  0.00000000000E+00 0. -1.
         22    1    3    3    0    0  0.21973422365E+00  0.21163505803E+00  0.42892500983E+02  0.42893585921E+02  0.00000000000E+00 0. -1.
</event>
<event>
 7    1  0.6607887E-006  0.5956416E+02  0.7818608E-02  0.1424117E+00
          2   -1    0    0  502    0  0.00000000000E+00  0.00000000000E+00  0.75590695750E+03  0.75590695750E+03  0.00000000000E+00 0. -1.
          1   -1    0    0  501    0 -0.00000000000E+00 -0.00000000000E+00 -0.19566176276E+04  0.19566176276E+04  0.00000000000E+00 0. -1.
         25    2    1    2    0    0 -0.22505344786E+02 -0.18617395121E+02 -0.18812963718E+02  0.12975404061E+03  0.12501634096E+03 0.  0.
          2    1    1    2  501    0 -0.45599592506E+01  0.59757574034E+02 -0.18809907323E+04  0.18819452425E+04  0.00000000000E+00 0. -1.
          1    1    1    2  502    0  0.27065304036E+02 -0.41140178913E+02  0.69909302591E+03  0.70082530197E+03  0.00000000000E+00 0. -1.
         22    1    3    3    0    0 -0.16832337049E+02 -0.47038170882E+02  0.40123970810E+02  0.64076907884E+02  0.00000000000E+00 0. -1.
         22    1    3    3    0    0 -0.56730077368E+01  0.28420775761E+02 -0.58936934528E+02  0.65677132727E+02  0.00000000000E+00 0. -1.
</event>
<event>
 7    1  0.6607887E-006  0.6079197E+02  0.7818608E-02  0.1398895E+00
          2   -1    0    0  502    0  0.00000000000E+00  0.00000000000E+00  0.29569310819E+04  0.29569310819E+04  0.00000000000E+00 0. -1.
          1   -1    0    0  501    0 -0.00000000000E+00 -0.00000000000E+00 -0.48795819729E+02  0.48795819729E+02  0.00000000000E+00 0. -1.
         25    2    1    2    0    0 -0.39343095495E+02  0.96343005445E+02  0.12295998257E+03  0.20389716082E+03  0.12500016407E+03 0.  0.
          2    1    1    2  501    0  0.46233352400E+02 -0.36202549154E+02  0.99955844271E+02  0.11592807358E+03  0.00000000000E+00 0. -1.
          1    1    1    2  502    0 -0.68902569054E+01 -0.60140456291E+02  0.26852194354E+04  0.26859016673E+04  0.00000000000E+00 0. -1.
         22    1    3    3    0    0  0.33545730957E+02 -0.69897707836E+01  0.14146698693E+02  0.37071580017E+02  0.00000000000E+00 0. -1.
         22    1    3    3    0    0 -0.72888826451E+02  0.10333277623E+03  0.10881328387E+03  0.16682558081E+03  0.00000000000E+00 0. -1.
</event>
<event>
 7    1  0.6607887E-006  0.7494279E+02  0.7818608E-02  0.1369791E+00
          2   -1    0    0  502    0  0.00000000000E+00  0.00000000000E+00  0.25734381144E+03  0.25734381144E+03  0.00000000000E+00 0. -1.
          1   -1    0    0  501    0 -0.00000000000E+00 -0.00000000000E+00 -0.14572096711E+04  0.14572096711E+04  0.00000000000E+00 0. -1.
         25    2    1    2    0    0 -0.41405342488E-01 -0.19129434646E+02 -0.18199829899E+03  0.22161406176E+03  0.12499389805E+03 0.  0.
          2    1    1    2  501    0 -0.21540855699E+02  0.75437478194E+02 -0.12503269457E+04  0.12527858128E+04  0.00000000000E+00 0. -1.
          1    1    1    2  502    0  0.21582261041E+02 -0.56308043547E+02  0.23245938501E+03  0.24015360801E+03  0.00000000000E+00 0. -1.
         22    1    3    3    0    0  0.87971860634E+01  0.31934595932E+02 -0.16313582448E+03  0.16646472939E+03  0.00000000000E+00 0.  1.
         22    1    3    3    0    0 -0.88385914058E+01 -0.51064030579E+02 -0.18862474511E+02  0.55149332377E+02  0.00000000000E+00 0.  1.
</event>
<event>
 7    1  0.6607887E-006  0.8772449E+02  0.7818608E-02  0.1405024E+00
          2   -1    0    0  502    0  0.00000000000E+00  0.00000000000E+00  0.25952327730E+03  0.25952327730E+03  0.00000000000E+00 0. -1.
          1   -1    0    0  501    0 -0.00000000000E+00 -0.00000000000E+00 -0.75031451626E+03  0.75031451626E+03  0.00000000000E+00 0. -1.
         25    2    1    2    0    0 -0.71729282582E+02  0.51488399005E+02 -0.15583600006E+03  0.21842511414E+03  0.12501410464E+03 0.  0.
          2    1    1    2  501    0 -0.14929519641E+02 -0.35780772908E+02 -0.55398476698E+03  0.55533978456E+03  0.00000000000E+00 0. -1.
          1    1    1    2  502    0  0.86658802224E+02 -0.15707626097E+02  0.21902952808E+03  0.23607289487E+03  0.00000000000E+00 0. -1.
         22    1    3    3    0    0 -0.50009965103E+02 -0.34655096425E+02 -0.41578352584E+02  0.73693498502E+02  0.00000000000E+00 0.  1.
         22    1    3    3    0    0 -0.21719317480E+02  0.86143495430E+02 -0.11425764748E+03  0.14473161563E+03  0.00000000000E+00 0.  1.
</event>
<event>
 7    1  0.6607887E-006  0.6382860E+02  0.7818608E-02  0.1491034E+00
          2   -1    0    0  502    0  0.00000000000E+00  0.00000000000E+00  0.38372422451E+03  0.38372422451E+03  0.00000000000E+00 0. -1.
          1   -1    0    0  501    0 -0.00000000000E+00 -0.00000000000E+00 -0.25786290910E+03  0.25786290910E+03  0.00000000000E+00 0. -1.
         25    2    1    2    0    0 -0.30436072942E+02  0.45081667358E+02 -0.91070549529E+01  0.13662605176E+03  0.12500011320E+03 0.  0.
          2    1    1    2  501    0  0.56020703491E+02 -0.33199283136E+02 -0.17861300420E+03  0.19011343164E+03  0.00000000000E+00 0. -1.
          1    1    1    2  502    0 -0.25584630549E+02 -0.11882384222E+02  0.31358137456E+03  0.31484765021E+03  0.00000000000E+00 0. -1.
         22    1    3    3    0    0  0.43475402497E+02 -0.78684319044E+01  0.55582588208E+01  0.44529957152E+02  0.00000000000E+00 0. -1.
         22    1    3    3    0    0 -0.73911475439E+02  0.52950099262E+02 -0.14665313774E+02  0.92096094605E+02  0.00000000000E+00 0. -1.
</event>
<event>
 7    1  0.6607887E-006  0.5279485E+02  0.7818608E-02  0.1432009E+00
          2   -1    0    0  502    0  0.00000000000E+00  0.00000000000E+00  0.10114263171E+03  0.10114263171E+03  0.00000000000E+00 0. -1.
          1   -1    0    0  501    0 -0.00000000000E+00 -0.00000000000E+00 -0.10001975899E+04  0.10001975899E+04  0.00000000000E+00 0. -1.
         25    2    1    2    0    0 -0.14570251284E+01 -0.12441219414E+02 -0.13741306460E+03  0.18618284367E+03  0.12499917637E+03 0.  0.
          2    1    1    2  501    0  0.50178499870E+02 -0.14829670172E+02 -0.82730897479E+03  0.82896196579E+03  0.00000000000E+00 0. -1.
          1    1    1    2  502    0 -0.48721474742E+02  0.27270889586E+02  0.65667081205E+02  0.86195412139E+02  0.00000000000E+00 0. -1.
         22    1    3    3    0    0  0.13229612207E+02 -0.29146757905E+02 -0.15472198440E+03  0.15799825503E+03  0.00000000000E+00 0. -1.
         22    1    3    3    0    0 -0.14686637336E+02  0.16705538491E+02  0.17308919799E+02  0.28184588646E+02  0.00000000000E+00 0. -1.
</event>
<event>
 7    1  0.6607887E-006  0.1577765E+03  0.7818608E-02  0.1385653E+00
          2   -1    0    0  502    0  0.00000000000E+00  0.00000000000E+00  0.60610438682E+03  0.60610438682E+03  0.00000000000E+00 0. -1.
          1   -1    0    0  501    0 -0.00000000000E+00 -0.00000000000E+00 -0.29845463523E+04  0.29845463523E+04  0.00000000000E+00 0. -1.
         25    2    1    2    0    0  0.12317737371E+03  0.79437634343E+02 -0.60256129952E+03  0.63260631694E+03  0.12501051718E+03 0.  0.
          2    1    1    2  501    0 -0.14518993528E+03 -0.67259675466E+02 -0.23639890303E+04  0.23693982604E+04  0.00000000000E+00 0. -1.
          1    1    1    2  502    0  0.22012561561E+02 -0.12177958877E+02  0.58810836433E+03  0.58864616175E+03  0.00000000000E+00 0. -1.
         22    1    3    3    0    0  0.14178582992E+03  0.92493164888E+02 -0.51325785848E+03  0.54045521222E+03  0.00000000000E+00 0.  1.
         22    1    3    3    0    0 -0.18608456207E+02 -0.13055530545E+02 -0.89303441042E+02  0.92151104725E+02  0.00000000000E+00 0.  1.
</event>
<event>
 7    1  0.6607887E-006  0.3986594E+02  0.7818608E-02  0.1522870E+00
          2   -1    0    0  502    0  0.00000000000E+00  0.00000000000E+00  0.38760421275E+04  0.38760421275E+04  0.00000000000E+00 0. -1.
          1   -1    0    0  501    0 -0.00000000000E+00 -0.00000000000E+00 -0.42969201324E+02  0.42969201324E+02  0.00000000000E+00 0. -1.
         25    2    1    2    0    0 -0.34761744231E+02  0.48713767951E+02  0.21787849301E+04  0.21831876612E+04  0.12499272823E+03 0.  0.
          2    1    1    2  501    0  0.37823092489E+02 -0.12477161982E+02 -0.30797186710E+02  0.50346128012E+02  0.00000000000E+00 0. -1.
          1    1    1    2  502    0 -0.30613482587E+01 -0.36236605969E+02  0.16850851828E+04  0.16854775396E+04  0.00000000000E+00 0. -1.
         22    1    3    3    0    0  0.25955656874E+02  0.32133962480E+01  0.14911580441E+04  0.14913873858E+04  0.00000000000E+00 0. -1.
         22    1    3    3    0    0 -0.60717401105E+02  0.45500371703E+02  0.68762688601E+03  0.69180027536E+03  0.00000000000E+00 0. -1.
</event>
<event>
 7    1  0.6607887E-006  0.1012476E+03  0.7818608E-02  0.1376814E+00
          2   -1    0    0  502    0  0.00000000000E+00  0.00000000000E+00  0.37445848279E+04  0.37445848279E+04  0.00000000000E+00 0. -1.
          1   -1    0    0  501    0 -0.00000000000E+00 -0.00000000000E+00 -0.51737784743E+02  0.51737784743E+02  0.00000000000E+00 0. -1.
         25    2    1    2    0    0 -0.12382271200E+02 -0.11100814642E+03  0.56370456211E+03  0.58809936854E+03  0.12498761825E+03 0.  0.
          2    1    1    2  501    0  0.39822661849E+02  0.13740933328E+02 -0.27276771517E+02  0.50186451457E+02  0.00000000000E+00 0. -1.
          1    1    1    2  502    0 -0.27440390648E+02  0.97267213095E+02  0.31564192526E+04  0.31580367926E+04  0.00000000000E+00 0. -1.
         22    1    3    3    0    0  0.41965132036E+02 -0.74003459178E+02  0.43854686784E+03  0.44672244131E+03  0.00000000000E+00 0. -1.
         22    1    3    3    0    0 -0.54347403236E+02 -0.37004687246E+02  0.12515769427E+03  0.14137692723E+03  0.00000000000E+00 0. -1.
</event>
<event>
 7    1  0.6607887E-006  0.4519227E+02  0.7818608E-02  0.1507384E+00
          2   -1    0    0  502    0  0.00000000000E+00  0.00000000000E+00  0.37369882015E+04  0.37369882015E+04  0.00000000000E+00 0. -1.
          1   -1    0    0  501    0 -0.00000000000E+00 -0.00000000000E+00 -0.20594454746E+02  0.20594454746E+02  0.00000000000E+00 0. -1.
         25    2    1    2    0    0  0.89079651191E+01 -0.12252004645E+02  0.73175565586E+03  0.74250968893E+03  0.12499933920E+03 0.  0.
          2    1    1    2  501    0 -0.10485297233E+02 -0.34025107180E+02  0.60373173417E+01  0.36112305069E+02  0.00000000000E+00 0. -1.
          1    1    1    2  502    0  0.15773321138E+01  0.46277111825E+02  0.29786007736E+04  0.29789606623E+04  0.00000000000E+00 0. -1.
         22    1    3    3    0    0 -0.18821428702E+02  0.51020092809E+02  0.39639135367E+03  0.40010423806E+03  0.00000000000E+00 0. -1.
         22    1    3    3    0    0  0.27729393821E+02 -0.63272097454E+02  0.33536430219E+03  0.34240545087E+03  0.00000000000E+00 0. -1.
</event>
<event>
 7    1  0.6607887E-006  0.6676104E+02  0.7818608E-02  0.1464241E+00
          2   -1    0    0  502    0  0.00000000000E+00  0.00000000000E+00  0.28501380740E+03  0.28501380740E+03  0.00000000000E+00 0. -1.
          1   -1    0    0  501    0 -0.00000000000E+00 -0.00000000000E+00 -0.12227286657E+04  0.12227286657E+04  0.00000000000E+00 0. -1.
         25    2    1    2    0    0 -0.12397580102E+02  0.91148417494E+02  0.19763877674E+02  0.15645359732E+03  0.12500153299E+03 0.  0.
          2    1    1    2  501    0 -0.11204070123E+02 -0.30625152945E+02 -0.11487880813E+04  0.11492508372E+04  0.00000000000E+00 0. -1.
          1    1    1    2  502    0  0.23601650225E+02 -0.60523264548E+02  0.19130934528E+03  0.20203803858E+03  0.00000000000E+00 0. -1.
         22    1    3    3    0    0  0.50487157770E+02  0.67227253226E+02 -0.62790958616E+01  0.84308266029E+02  0.00000000000E+00 0.  1.
         22    1    3    3    0    0 -0.62884737872E+02  0.23921164268E+02  0.26042973535E+02  0.72145331295E+02  0.00000000000E+00 0.  1.
</event>
<event>
 7    1  0.6607887E-006  0.1881830E+03  0.7818608E-02  0.1239416E+00
          2   -1    0    0  502    0  0.00000000000E+00  0.00000000000E+00  0.18723792009E+04  0.18723792009E+04  0.00000000000E+00 0. -1.
          1   -1    0    0  501    0 -0.00000000000E+00 -0.00000000000E+00 -0.28619355309E+03  0.28619355309E+03  0.00000000000E+00 0. -1.
         25    2    1    2    0    0  0.24746990048E+03  0.23499127942E+02  0.82720237044E+03  0.87274405362E+03  0.12499944326E+03 0.  0.
          2    1    1    2  501    0 -0.78300630766E+02 -0.13346721950E+02 -0.25020455261E+03  0.26250988917E+03  0.00000000000E+00 0. -1.
          1    1    1    2  502    0 -0.16916926971E+03 -0.10152405992E+02  0.10091878299E+04  0.10233188112E+04  0.00000000000E+00 0. -1.
         22    1    3    3    0    0  0.99672217033E+02  0.62088130068E+02  0.46604539197E+03  0.48061189553E+03  0.00000000000E+00 0.  1.
         22    1    3    3    0    0  0.14779768345E+03 -0.38589002126E+02  0.36115697847E+03  0.39213215810E+03  0.00000000000E+00 0.  1.
</event>
<event>
 7    1  0.6607887E-006  0.1376995E+03  0.7818608E-02  0.1344181E+00
          2   -1    0    0  502    0  0.00000000000E+00  0.00000000000E+00  0.28179163905E+03  0.28179163905E+03  0.00000000000E+00 0. -1.
          1   -1    0    0  501    0 -0.00000000000E+00 -0.00000000000E+00 -0.74561442656E+03  0.74561442656E+03  0.00000000000E+00 0. -1.
         25    2    1    2    0    0  0.10416154896E+03 -0.12864495363E+03 -0.23336855760E+03  0.31220556600E+03  0.12494910720E+03 0.  0.
          2    1    1    2  501    0 -0.66282662919E+02  0.11364446573E+03 -0.46186172011E+03  0.48023401015E+03  0.00000000000E+00 0. -1.
          1    1    1    2  502    0 -0.37878886043E+02  0.15000487901E+02  0.23140749020E+03  0.23496648945E+03  0.00000000000E+00 0. -1.
         22    1    3    3    0    0  0.12221230572E+03 -0.91061130990E+02 -0.12848908395E+03  0.19934247400E+03  0.00000000000E+00 0. -1.
         22    1    3    3    0    0 -0.18050756755E+02 -0.37583822644E+02 -0.10487947365E+03  0.11286309200E+03  0.00000000000E+00 0. -1.
</event>
<event>
 7    1  0.6607887E-006  0.9329309E+02  0.7818608E-02  0.1354439E+00
          2   -1    0    0  502    0  0.00000000000E+00  0.00000000000E+00  0.57630681665E+02  0.57630681665E+02  0.00000000000E+00 0. -1.
          1   -1    0    0  501    0 -0.00000000000E+00 -0.00000000000E+00 -0.97408686175E+03  0.97408686175E+03  0.00000000000E+00 0. -1.
         25    2    1    2    0    0 -0.76538195980E+02  0.72381183052E+02 -0.18228513706E+03  0.24484537588E+03  0.12499702313E+03 0.  0.
          2    1    1    2  501    0  0.52330185892E+02  0.17215170104E+02 -0.67403700901E+03  0.67628448152E+03  0.00000000000E+00 0. -1.
          1    1    1    2  502    0  0.24208010088E+02 -0.89596353156E+02 -0.60134034021E+02  0.11058768602E+03  0.00000000000E+00 0. -1.
         22    1    3    3    0    0 -0.51576618040E+01  0.58105071979E+02 -0.15748691362E+03  0.16794323096E+03  0.00000000000E+00 0.  1.
         22    1    3    3    0    0 -0.71380534176E+02  0.14276111073E+02 -0.24798223442E+02  0.76902144914E+02  0.00000000000E+00 0.  1.
</event>
<event>
 7    1  0.1272820E-005  0.7078677E+02  0.7818608E-02  0.1510129E+00
          2   -1    0    0  502    0  0.00000000000E+00  0.00000000000E+00  0.11347872035E+04  0.11347872035E+04  0.00000000000E+00 0. -1.
          1   -1    0    0  501    0 -0.00000000000E+00 -0.00000000000E+00 -0.15270442323E+04  0.15270442323E+04  0.00000000000E+00 0. -1.
         25    2    1    2    0    0  0.29512869398E+02  0.81545096759E+02 -0.10903702039E+04  0.11009324848E+04  0.12499816885E+03 0.  0.
          2    1    1    2  501    0 -0.19092044447E+02 -0.11544127797E+02 -0.42999478162E+03  0.43057320547E+03  0.00000000000E+00 0. -1.
          1    1    1    2  502    0 -0.10420824951E+02 -0.70000968963E+02  0.11281079567E+04  0.11303257456E+04  0.00000000000E+00 0. -1.
         22    1    3    3    0    0 -0.38545873084E+02  0.30595154255E+02 -0.68379660822E+03  0.68556520420E+03  0.00000000000E+00 0.  1.
         22    1    3    3    0    0  0.68058742482E+02  0.50949942504E+02 -0.40657359566E+03  0.41536728056E+03  0.00000000000E+00 0.  1.
</event>
<event>
 7    1  0.6607887E-006  0.8418376E+02  0.7818608E-02  0.1443618E+00
          2   -1    0    0  502    0  0.00000000000E+00  0.00000000000E+00  0.31158980250E+03  0.31158980250E+03  0.00000000000E+00 0. -1.
          1   -1    0    0  501    0 -0.00000000000E+00 -0.00000000000E+00 -0.54842980913E+03  0.54842980913E+03  0.00000000000E+00 0. -1.
         25    2    1    2    0    0  0.44370694275E+02  0.92783503087E+02 -0.15316438993E+02  0.16259222920E+03  0.12499641090E+03 0.  0.
          2    1    1    2  501    0  0.84212293326E+01 -0.28876618596E+02 -0.45174113016E+03  0.45274145479E+03  0.00000000000E+00 0. -1.
          1    1    1    2  502    0 -0.52791923608E+02 -0.63906884491E+02  0.23021756253E+03  0.24468592763E+03  0.00000000000E+00 0. -1.
         22    1    3    3    0    0  0.60055970399E+02  0.81895253821E+02  0.36071540142E+02  0.10777155556E+03  0.00000000000E+00 0.  1.
         22    1    3    3    0    0 -0.15685276124E+02  0.10888249267E+02 -0.51387979136E+02  0.54820673644E+02  0.00000000000E+00 0.  1.
</event>
<event>
 7    1  0.6607887E-006  0.7099510E+02  0.7818608E-02  0.1463276E+00
          2   -1    0    0  502    0  0.00000000000E+00  0.00000000000E+00  0.15639534385E+04  0.15639534385E+04  0.00000000000E+00 0. -1.
          1   -1    0    0  501    0 -0.00000000000E+00 -0.00000000000E+00 -0.46832957368E+02  0.46832957368E+02  0.00000000000E+00 0. -1.
         25    2    1    2    0    0  0.60413796930E+02 -0.23795991499E+02  0.10306610916E+03  0.17453955556E+03  0.12500143011E+03 0.  0.
          2    1    1    2  501    0 -0.11922155391E+02 -0.28485744628E+02  0.13206969236E+02  0.33585703396E+02  0.00000000000E+00 0. -1.
          1    1    1    2  502    0 -0.48491641539E+02  0.52281736127E+02  0.14008474027E+04  0.14026611369E+04  0.00000000000E+00 0. -1.
         22    1    3    3    0    0  0.36836884634E+02 -0.74205731423E+02  0.45697243359E+02  0.94613343119E+02  0.00000000000E+00 0.  1.
         22    1    3    3    0    0  0.23576912296E+02  0.50409739924E+02  0.57368865797E+02  0.79926212443E+02  0.00000000000E+00 0.  1.
</event>
<event>
 7    1  0.6607887E-006  0.1093511E+03  0.7818608E-02  0.1301359E+00
          2   -1    0    0  502    0  0.00000000000E+00  0.00000000000E+00  0.52840069846E+02  0.52840069846E+02  0.00000000000E+00 0. -1.
          1   -1    0    0  501    0 -0.00000000000E+00 -0.00000000000E+00 -0.15860906232E+04  0.15860906232E+04  0.00000000000E+00 0. -1.
         25    2    1    2    0    0  0.23612766652E+02 -0.12786476692E+03 -0.49556837788E+03  0.52737010094E+03  0.12499697932E+03 0.  0.
          2    1    1    2  501    0  0.45775752495E+02  0.99147849066E+02 -0.10303347474E+04  0.10361058861E+04  0.00000000000E+00 0. -1.
          1    1    1    2  502    0 -0.69388519147E+02  0.28716917855E+02 -0.73474280697E+01  0.75454706015E+02  0.00000000000E+00 0. -1.
         22    1    3    3    0    0  0.28550188538E+02 -0.95022972880E+01 -0.17428203832E+02  0.34772822838E+02  0.00000000000E+00 0.  1.
         22    1    3    3    0    0 -0.49374218858E+01 -0.11836246963E+03 -0.47814017405E+03  0.49259727810E+03  0.00000000000E+00 0.  1.
</event>
<event>
 7    1  0.6607887E-006  0.1125431E+03  0.7818608E-02  0.1296337E+00
          2   -1    0    0  502    0  0.00000000000E+00  0.00000000000E+00  0.76726504023E+03  0.76726504023E+03  0.00000000000E+00 0. -1.
          1   -1    0    0  501    0 -0.00000000000E+00 -0.00000000000E+00 -0.16207618390E+04  0.16207618390E+04  0.00000000000E+00 0. -1.
         25    2    1    2    0    0  0.92376007328E+02  0.13009253269E+03  0.28230259213E+03  0.34753386216E+03  0.12501055169E+03 0.  0.
          2    1    1    2  501    0 -0.18414000955E+02 -0.11082736706E+03 -0.15829125384E+04  0.15868944152E+04  0.00000000000E+00 0. -1.
          1    1    1    2  502    0 -0.73962006373E+02 -0.19265165632E+02  0.44711314749E+03  0.45359860191E+03  0.00000000000E+00 0. -1.
         22    1    3    3    0    0 -0.12281875947E+02  0.57382433693E+02  0.32445036852E+02  0.67054221267E+02  0.00000000000E+00 0.  1.
         22    1    3    3    0    0  0.10465788327E+03  0.72710098997E+02  0.24985755527E+03  0.28047964089E+03  0.00000000000E+00 0.  1.
</event>
<event>
 7    1  0.6607887E-006  0.1266557E+03  0.7818608E-02  0.1432898E+00
          2   -1    0    0  502    0  0.00000000000E+00  0.00000000000E+00  0.95358233831E+03  0.95358233831E+03  0.00000000000E+00 0. -1.
          1   -1    0    0  501    0 -0.00000000000E+00 -0.00000000000E+00 -0.16879608130E+03  0.16879608130E+03  0.00000000000E+00 0. -1.
         25    2    1    2    0    0 -0.12078143378E+03 -0.11083271508E+02  0.23826349896E+03  0.29513538423E+03  0.12499762571E+03 0.  0.
          2    1    1    2  501    0  0.12315921723E+03  0.32617028970E+02 -0.11123355666E+03  0.16913003132E+03  0.00000000000E+00 0. -1.
          1    1    1    2  502    0 -0.23777834514E+01 -0.21533757462E+02  0.65775631472E+03  0.65811300406E+03  0.00000000000E+00 0. -1.
         22    1    3    3    0    0 -0.75143187771E+02  0.51681915062E+02  0.91906981368E+02  0.12947745841E+03  0.00000000000E+00 0.  1.
         22    1    3    3    0    0 -0.45638246004E+02 -0.62765186569E+02  0.14635651759E+03  0.16565792581E+03  0.00000000000E+00 0.  1.
</event>
<event>
 7    1  0.6607887E-006  0.4111085E+02  0.7818608E-02  0.1533705E+00
          2   -1    0    0  502    0  0.00000000000E+00  0.00000000000E+00  0.19078807227E+03  0.19078807227E+03  0.00000000000E+00 0. -1.
          1   -1    0    0  501    0 -0.00000000000E+00 -0.00000000000E+00 -0.31036152478E+03  0.31036152478E+03  0.00000000000E+00 0. -1.
         25    2    1    2    0    0 -0.30416688268E+02 -0.66890630603E+02 -0.17201780317E+03  0.22497860797E+03  0.12500287216E+03 0.  0.
          2    1    1    2  501    0  0.14662112439E+02  0.29369946333E+02 -0.10684068155E+03  0.11176986411E+03  0.00000000000E+00 0. -1.
          1    1    1    2  502    0  0.15754575829E+02  0.37520684270E+02  0.15928503221E+03  0.16440112497E+03  0.00000000000E+00 0. -1.
         22    1    3    3    0    0  0.19834497529E+01 -0.58363532510E+02 -0.96486993658E+01  0.59188963494E+02  0.00000000000E+00 0.  1.
         22    1    3    3    0    0 -0.32400138021E+02 -0.85270980925E+01 -0.16236910380E+03  0.16578964448E+03  0.00000000000E+00 0.  1.
</event>
<event>
 7    1  0.6607887E-006  0.1892846E+03  0.7818608E-02  0.1316683E+00
          2   -1    0    0  502    0  0.00000000000E+00  0.00000000000E+00  0.88848199644E+03  0.88848199644E+03  0.00000000000E+00 0. -1.
          1   -1    0    0  501    0 -0.00000000000E+00 -0.00000000000E+00 -0.11176413322E+04  0.11176413322E+04  0.00000000000E+00 0. -1.
         25    2    1    2    0    0  0.94146031193E+02 -0.15169221681E+03  0.25658587439E+03  0.33665473445E+03  0.12500438176E+03 0.  0.
          2    1    1    2  501    0 -0.66676251886E+02  0.17757612197E+03 -0.10686448606E+04  0.10853482574E+04  0.00000000000E+00 0. -1.
          1    1    1    2  502    0 -0.27469779307E+02 -0.25883905163E+02  0.58289965049E+03  0.58412033680E+03  0.00000000000E+00 0. -1.
         22    1    3    3    0    0  0.39147584425E+02 -0.50130975091E+01  0.12812825669E+03  0.13406906681E+03  0.00000000000E+00 0. -1.
         22    1    3    3    0    0  0.54998446767E+02 -0.14667911930E+03  0.12845761770E+03  0.20258566763E+03  0.00000000000E+00 0. -1.
</event>
<event>
 7    1  0.6607887E-006  0.2080900E+03  0.7818608E-02  0.1378650E+00
          2   -1    0    0  502    0  0.00000000000E+00  0.00000000000E+00  0.11722527170E+04  0.11722527170E+04  0.00000000000E+00 0. -1.
          1   -1    0    0  501    0 -0.00000000000E+00 -0.00000000000E+00 -0.46421397802E+03  0.46421397802E+03  0.00000000000E+00 0. -1.
         25    2    1    2    0    0  0.19199610155E+03 -0.11808272062E+03  0.15406438531E+03  0.30027826045E+03  0.12500066782E+03 0.  0.
          2    1    1    2  501    0 -0.17828553796E+03  0.10325999487E+03 -0.36385483365E+03  0.41813717791E+03  0.00000000000E+00 0. -1.
          1    1    1    2  502    0 -0.13710563589E+02  0.14822725757E+02  0.91782918735E+03  0.91805125668E+03  0.00000000000E+00 0. -1.
         22    1    3    3    0    0  0.73946682890E+02 -0.11475312578E+03  0.59198903068E+02  0.14879819190E+03  0.00000000000E+00 0.  1.
         22    1    3    3    0    0  0.11804941866E+03 -0.33295948430E+01  0.94865482242E+02  0.15148006855E+03  0.00000000000E+00 0.  1.
</event>
<event>
 7    1  0.6607887E-006  0.1317657E+03  0.7818608E-02  0.1310805E+00
          2   -1    0    0  502    0  0.00000000000E+00  0.00000000000E+00  0.42907723110E+03  0.42907723110E+03  0.00000000000E+00 0. -1.
          1   -1    0    0  501    0 -0.00000000000E+00 -0.00000000000E+00 -0.52066439865E+03  0.52066439865E+03  0.00000000000E+00 0. -1.
         25    2    1    2    0    0 -0.14915192262E+03  0.82074849720E+02  0.26408544931E+03  0.33815401368E+03  0.12499774178E+03 0.  0.
          2    1    1    2  501    0  0.92869009356E+02 -0.92118864174E+02 -0.46779009879E+03  0.48573461330E+03  0.00000000000E+00 0. -1.
          1    1    1    2  502    0  0.56282913266E+02  0.10044014454E+02  0.11211748192E+03  0.12585300277E+03  0.00000000000E+00 0. -1.
         22    1    3    3    0    0 -0.95575738148E+02  0.68679444105E+02  0.71279601694E+02  0.13759494679E+03  0.00000000000E+00 0.  1.
         22    1    3    3    0    0 -0.53576184475E+02  0.13395405615E+02  0.19280584762E+03  0.20055906689E+03  0.00000000000E+00 0.  1.
</event>
<event>
 7    1  0.6607887E-006  0.5794318E+02  0.7818608E-02  0.1447728E+00
          2   -1    0    0  502    0  0.00000000000E+00  0.00000000000E+00  0.96263179599E+03  0.96263179599E+03  0.00000000000E+00 0. -1.
          1   -1    0    0  501    0 -0.00000000000E+00 -0.00000000000E+00 -0.23492255969E+03  0.23492255969E+03  0.00000000000E+00 0. -1.
         25    2    1    2    0    0  0.24265351330E+02  0.67876478231E+01  0.17923913585E+03  0.21997080052E+03  0.12500242326E+03 0.  0.
          2    1    1    2  501    0  0.32122321891E+02 -0.27659882366E+02 -0.21126354484E+03  0.21547435587E+03  0.00000000000E+00 0. -1.
          1    1    1    2  502    0 -0.56387673221E+02  0.20872234543E+02  0.75973364529E+03  0.76210919930E+03  0.00000000000E+00 0. -1.
         22    1    3    3    0    0  0.51354117029E+02  0.30410721991E+02  0.30643532286E+02  0.67090114167E+02  0.00000000000E+00 0.  1.
         22    1    3    3    0    0 -0.27088765700E+02 -0.23623074168E+02  0.14859560356E+03  0.15288068635E+03  0.00000000000E+00 0.  1.
</event>
<event>
 7    1  0.6607887E-006  0.1548917E+03  0.7818608E-02  0.1212527E+00
          2   -1    0    0  502    0  0.00000000000E+00  0.00000000000E+00  0.11362773046E+04  0.11362773046E+04  0.00000000000E+00 0. -1.
          1   -1    0    0  501    0 -0.00000000000E+00 -0.00000000000E+00 -0.13091506740E+04  0.13091506740E+04  0.00000000000E+00 0. -1.
         25    2    1    2    0    0  0.11290344634E+03  0.19221513021E+03 -0.27628757599E+03  0.37636946283E+03  0.12500121369E+03 0.  0.
          2    1    1    2  501    0  0.77039118586E+01 -0.15048380434E+03 -0.97325577702E+03  0.98485102078E+03  0.00000000000E+00 0. -1.
          1    1    1    2  502    0 -0.12060735820E+03 -0.41731325869E+02  0.10766699836E+04  0.10842074949E+04  0.00000000000E+00 0. -1.
         22    1    3    3    0    0  0.12334957259E+02  0.10769883665E+03 -0.19139062485E+03  0.21995809116E+03  0.00000000000E+00 0.  1.
         22    1    3    3    0    0  0.10056848908E+03  0.84516293556E+02 -0.84896951138E+02  0.15641137166E+03  0.00000000000E+00 0.  1.
</event>
<event>
 7    1  0.6607887E-006  0.1272314E+03  0.7818608E-02  0.1330500E+00
          2   -1    0    0  502    0  0.00000000000E+00  0.00000000000E+00  0.29114048046E+03  0.29114048046E+03  0.00000000000E+00 0. -1.
          1   -1    0    0  501    0 -0.00000000000E+00 -0.00000000000E+00 -0.25982842072E+03  0.25982842072E+03  0.00000000000E+00 0. -1.
         25    2    1    2    0    0  0.14265870949E+02 -0.14450849788E+03 -0.11812962467E+03  0.22508894042E+03  0.12499680733E+03 0.  0.
          2    1    1    2  501    0 -0.46622071856E+02  0.10682994172E+03 -0.45188542742E+02  0.12501303303E+03  0.00000000000E+00 0. -1.
          1    1    1    2  502    0  0.32356200907E+02  0.37678556155E+02  0.19463022716E+03  0.20086692773E+03  0.00000000000E+00 0. -1.
         22    1    3    3    0    0  0.34680170588E+02 -0.98913389573E+02 -0.91630275076E+01  0.10521660488E+03  0.00000000000E+00 0.  1.
         22    1    3    3    0    0 -0.20414299639E+02 -0.45595108303E+02 -0.10896659717E+03  0.11987233554E+03  0.00000000000E+00 0.  1.
</event>
<event>
 7    1  0.6607887E-006  0.8073192E+02  0.7818608E-02  0.1418764E+00
          2   -1    0    0  502    0  0.00000000000E+00  0.00000000000E+00  0.71385056636E+03  0.71385056636E+03  0.00000000000E+00 0. -1.
          1   -1    0    0  501    0 -0.00000000000E+00 -0.00000000000E+00 -0.21428691636E+04  0.21428691636E+04  0.00000000000E+00 0. -1.
         25    2    1    2    0    0 -0.50338713730E+01  0.64850860611E+02 -0.14984561654E+03  0.20569519365E+03  0.12500331960E+03 0.  0.
          2    1    1    2  501    0  0.42619717248E+02 -0.69370725491E+02 -0.19637322500E+04  0.19654193160E+04  0.00000000000E+00 0. -1.
          1    1    1    2  502    0 -0.37585845875E+02  0.45198648799E+01  0.68455926930E+03  0.68560522035E+03  0.00000000000E+00 0. -1.
         22    1    3    3    0    0 -0.30280779051E+01  0.82978838875E+02 -0.36177265243E+02  0.90572906972E+02  0.00000000000E+00 0. -1.
         22    1    3    3    0    0 -0.20057934679E+01 -0.18127978265E+02 -0.11366835130E+03  0.11512228668E+03  0.00000000000E+00 0. -1.
</event>
<event>
 7    1  0.6607887E-006  0.3316643E+02  0.7818608E-02  0.1606745E+00
          2   -1    0    0  502    0  0.00000000000E+00  0.00000000000E+00  0.55234348166E+03  0.55234348166E+03  0.00000000000E+00 0. -1.
          1   -1    0    0  501    0 -0.00000000000E+00 -0.00000000000E+00 -0.16696154849E+03  0.16696154849E+03  0.00000000000E+00 0. -1.
         25    2    1    2    0    0  0.34740022534E+01  0.16353723943E+02  0.35491052360E+02  0.13100088977E+03  0.12498842085E+03 0.  0.
          2    1    1    2  501    0  0.19807419211E+02 -0.27385794384E+02 -0.11644825124E+03  0.12125391048E+03  0.00000000000E+00 0. -1.
          1    1    1    2  502    0 -0.23281421464E+02  0.11032070441E+02  0.46633913205E+03  0.46705022990E+03  0.00000000000E+00 0. -1.
         22    1    3    3    0    0  0.13815806998E+02 -0.35693366779E+02  0.61086063122E+02  0.72086060114E+02  0.00000000000E+00 0. -1.
         22    1    3    3    0    0 -0.10341804744E+02  0.52047090722E+02 -0.25595010762E+02  0.58914829660E+02  0.00000000000E+00 0. -1.
</event>
<event>
 7    1  0.6607887E-006  0.4930307E+02  0.7818608E-02  0.1452592E+00
          2   -1    0    0  502    0  0.00000000000E+00  0.00000000000E+00  0.51308109203E+03  0.51308109203E+03  0.00000000000E+00 0. -1.
          1   -1    0    0  501    0 -0.00000000000E+00 -0.00000000000E+00 -0.23256820761E+04  0.23256820761E+04  0.00000000000E+00 0. -1.
         25    2    1    2    0    0 -0.39393937251E+02  0.18502897906E+01  0.13155857685E+03  0.18569609832E+03  0.12498030214E+03 0.  0.
          2    1    1    2  501    0  0.23379102397E+02  0.43468705193E+02 -0.22967174836E+04  0.22972477686E+04  0.00000000000E+00 0. -1.
          1    1    1    2  502    0  0.16014834854E+02 -0.45318994984E+02  0.35255792271E+03  0.35581930120E+03  0.00000000000E+00 0. -1.
         22    1    3    3    0    0 -0.46466586550E+02  0.44837684697E+02  0.12625473106E+03  0.14180909262E+03  0.00000000000E+00 0. -1.
         22    1    3    3    0    0  0.70726492986E+01 -0.42987394906E+02  0.53038457868E+01  0.43887005697E+02  0.00000000000E+00 0. -1.
</event>
<event>
 7    1  0.6607887E-006  0.1346282E+03  0.7818608E-02  0.1269825E+00
          2   -1    0    0  502    0  0.00000000000E+00  0.00000000000E+00  0.59322521193E+03  0.59322521193E+03  0.00000000000E+00 0. -1.
          1   -1    0    0  501    0 -0.00000000000E+00 -0.00000000000E+00 -0.27289496393E+03  0.27289496393E+03  0.00000000000E+00 0. -1.
         25    2    1    2    0    0  0.74414126644E+02  0.16496993478E+03 -0.90342880330E+01  0.22013927131E+03  0.12500855487E+03 0.  0.
          2    1    1    2  501    0 -0.93071229776E+02 -0.84991789824E+02 -0.12897953041E+03  0.18033739883E+03  0.00000000000E+00 0. -1.
          1    1    1    2  502    0  0.18657103132E+02 -0.79978144954E+02  0.45834406645E+03  0.46564350571E+03  0.00000000000E+00 0. -1.
         22    1    3    3    0    0  0.40660695781E+02  0.69276000173E+02  0.57511451277E+02  0.98792830759E+02  0.00000000000E+00 0. -1.
         22    1    3    3    0    0  0.33753430863E+02  0.95693934605E+02 -0.66545739310E+02  0.12134644056E+03  0.00000000000E+00 0. -1.
</event>
<event>
 7    1  0.6607887E-006  0.4360069E+02  0.7818608E-02  0.1563188E+00
          2   -1    0    0  502    0  0.00000000000E+00  0.00000000000E+00  0.15519005922E+04  0.15519005922E+04  0.00000000000E+00 0. -1.
          1   -1    0    0  501    0 -0.00000000000E+00 -0.00000000000E+00 -0.18064699667E+03  0.18064699667E+03  0.00000000000E+00 0. -1.
         25    2    1    2    0    0  0.46655353965E+02  0.41247561834E+01  0.34458764183E+02  0.13786149356E+03  0.12499859723E+03 0.  0.
          2    1    1    2  501    0 -0.12130339044E+02  0.22545403652E+02 -0.12734674396E+03  0.12989470177E+03  0.00000000000E+00 0. -1.
          1    1    1    2  502    0 -0.34525014921E+02 -0.26670159836E+02  0.14641415753E+04  0.14647913935E+04  0.00000000000E+00 0. -1.
         22    1    3    3    0    0  0.10582179793E+02 -0.49643047778E+01 -0.46935442677E+02  0.48369025526E+02  0.00000000000E+00 0. -1.
         22    1    3    3    0    0  0.36073174172E+02  0.90890609612E+01  0.81394206859E+02  0.89492468031E+02  0.00000000000E+00 0. -1.
</event>
<event>
 7    1  0.6607887E-006  0.1306581E+03  0.7818608E-02  0.1260474E+00
          2   -1    0    0  502    0  0.00000000000E+00  0.00000000000E+00  0.91463969896E+03  0.91463969896E+03  0.00000000000E+00 0. -1.
          1   -1    0    0  501    0 -0.00000000000E+00 -0.00000000000E+00 -0.15072469519E+03  0.15072469519E+03  0.00000000000E+00 0. -1.
         25    2    1    2    0    0 -0.19255316797E+03  0.48764826311E+02  0.16098686983E+03  0.28459977790E+03  0.12500212215E+03 0.  0.
          2    1    1    2  501    0  0.89826026375E+02  0.22884172900E+02 -0.57158252294E+02  0.10890117625E+03  0.00000000000E+00 0. -1.
          1    1    1    2  502    0  0.10272714160E+03 -0.71648999211E+02  0.66008638624E+03  0.67186344000E+03  0.00000000000E+00 0. -1.
         22    1    3    3    0    0 -0.25209078813E+02  0.61172368818E+02  0.55817174097E+02  0.86562770783E+02  0.00000000000E+00 0.  1.
         22    1    3    3    0    0 -0.16734408916E+03 -0.12407542508E+02  0.10516969574E+03  0.19803700712E+03  0.00000000000E+00 0.  1.
</event>
<event>
 7    1  0.6607887E-006  0.1119424E+03  0.7818608E-02  0.1355204E+00
          2   -1    0    0  502    0  0.00000000000E+00  0.00000000000E+00  0.14383797092E+04  0.14383797092E+04  0.00000000000E+00 0. -1.
          1   -1    0    0  501    0 -0.00000000000E+00 -0.00000000000E+00 -0.39793023790E+03  0.39793023790E+03  0.00000000000E+00 0. -1.
         25    2    1    2    0    0 -0.10056061824E+03  0.10641402163E+03  0.54747214417E+03  0.58033627931E+03  0.12501226540E+03 0.  0.
          2    1    1    2  501    0  0.56063399336E+02 -0.96378499321E+02 -0.37273810310E+03  0.38905733945E+03  0.00000000000E+00 0. -1.
          1    1    1    2  502    0  0.44497218902E+02 -0.10035522308E+02  0.86571543022E+03  0.86691632833E+03  0.00000000000E+00 0. -1.
         22    1    3    3    0    0  0.18123742611E+02 -0.81626112873E+01  0.12899623567E+03  0.13051868481E+03  0.00000000000E+00 0. -1.
         22    1    3    3    0    0 -0.11868436085E+03  0.11457663292E+03  0.41847590850E+03  0.44981759449E+03  0.00000000000E+00 0. -1.
</event>
<event>
 7    1  0.6607887E-006  0.6115225E+02  0.7818608E-02  0.1478679E+00
          2   -1    0    0  502    0  0.00000000000E+00  0.00000000000E+00  0.66080541251E+03  0.66080541251E+03  0.00000000000E+00 0. -1.
          1   -1    0    0  501    0 -0.00000000000E+00 -0.00000000000E+00 -0.10975960457E+04  0.10975960457E+04  0.00000000000E+00 0. -1.
         25    2    1    2    0    0  0.60947958162E+02  0.63817228059E+02 -0.53438297502E+03  0.55585668660E+03  0.12499679932E+03 0.  0.
          2    1    1    2  501    0 -0.96685635778E+01 -0.30619827864E+02 -0.55057230854E+03  0.55150786206E+03  0.00000000000E+00 0. -1.
          1    1    1    2  502    0 -0.51279394585E+02 -0.33197400195E+02  0.64816465034E+03  0.65103690958E+03  0.00000000000E+00 0. -1.
         22    1    3    3    0    0 -0.32232099082E+02 -0.75780378689E+01 -0.80594560741E+02  0.87131039763E+02  0.00000000000E+00 0.  1.
         22    1    3    3    0    0  0.93180057244E+02  0.71395265928E+02 -0.45378841428E+03  0.46872564683E+03  0.00000000000E+00 0.  1.
</event>
<event>
 7    1  0.6607887E-006  0.1015458E+03  0.7818608E-02  0.1358743E+00
          2   -1    0    0  502    0  0.00000000000E+00  0.00000000000E+00  0.19227032939E+04  0.19227032939E+04  0.00000000000E+00 0. -1.
          1   -1    0    0  501    0 -0.00000000000E+00 -0.00000000000E+00 -0.68335973223E+03  0.68335973223E+03  0.00000000000E+00 0. -1.
         25    2    1    2    0    0 -0.23433001271E+02  0.49182453215E+02  0.31424219878E+03  0.34254262250E+03  0.12497707584E+03 0.  0.
          2    1    1    2  501    0  0.30358173810E+02 -0.97493730354E+02 -0.66493778356E+03  0.67273241499E+03  0.00000000000E+00 0. -1.
          1    1    1    2  502    0 -0.69251725388E+01  0.48311277139E+02  0.15900391464E+04  0.15907879886E+04  0.00000000000E+00 0. -1.
         22    1    3    3    0    0 -0.27682856633E+02  0.59536458744E+02  0.32219224158E+03  0.32881418918E+03  0.00000000000E+00 0.  1.
         22    1    3    3    0    0  0.42498553618E+01 -0.10354005529E+02 -0.79500427994E+01  0.13728433327E+02  0.00000000000E+00 0.  1.
</event>
<event>
 7    1  0.6607887E-006  0.2849430E+03  0.7818608E-02  0.1231879E+00
          2   -1    0    0  502    0  0.00000000000E+00  0.00000000000E+00  0.15031186910E+03  0.15031186910E+03  0.00000000000E+00 0. -1.
          1   -1    0    0  501    0 -0.00000000000E+00 -0.00000000000E+00 -0.27409404781E+04  0.27409404781E+04  0.00000000000E+00 0. -1.
         25    2    1    2    0    0 -0.19446943447E+03 -0.23216933340E+03 -0.13424010512E+04  0.13818029494E+04  0.12497139078E+03 0.  0.
          2    1    1    2  501    0  0.54790942569E+02 -0.14437852823E+02 -0.12236583219E+04  0.12249694640E+04  0.00000000000E+00 0. -1.
          1    1    1    2  502    0  0.13967849190E+03  0.24660718622E+03 -0.24569235966E+02  0.28447993383E+03  0.00000000000E+00 0. -1.
         22    1    3    3    0    0 -0.28648239737E+02 -0.11245524332E+01 -0.29794246489E+03  0.29931872417E+03  0.00000000000E+00 0. -1.
         22    1    3    3    0    0 -0.16582119473E+03 -0.23104478097E+03 -0.10444585863E+04  0.10824842252E+04  0.00000000000E+00 0. -1.
</event>
<event>
 7    1  0.6607887E-006  0.8989483E+02  0.7818608E-02  0.1481660E+00
          2   -1    0    0  502    0  0.00000000000E+00  0.00000000000E+00  0.39041849512E+03  0.39041849512E+03  0.00000000000E+00 0. -1.
          1   -1    0    0  501    0 -0.00000000000E+00 -0.00000000000E+00 -0.10807791056E+04  0.10807791056E+04  0.00000000000E+00 0. -1.
         25    2    1    2    0    0 -0.23981786063E+02 -0.78338257867E+02 -0.24258377283E+02  0.15141147806E+03  0.12499983244E+03 0.  0.
          2    1    1    2  501    0  0.60623656358E+01  0.90015361926E+02 -0.99054199362E+03  0.99464212599E+03  0.00000000000E+00 0. -1.
          1    1    1    2  502    0  0.17919420427E+02 -0.11677104060E+02  0.32443976046E+03  0.32514399665E+03  0.00000000000E+00 0. -1.
         22    1    3    3    0    0  0.24586194213E+01 -0.96333907682E+01  0.47546431913E+02  0.48574789910E+02  0.00000000000E+00 0. -1.
         22    1    3    3    0    0 -0.26440405484E+02 -0.68704867099E+02 -0.71804809196E+02  0.10283668815E+03  0.00000000000E+00 0. -1.
</event>
<event>
 7    1  0.6607887E-006  0.1096647E+03  0.7818608E-02  0.1335702E+00
          2   -1    0    0  502    0  0.00000000000E+00  0.00000000000E+00  0.13111572709E+04  0.13111572709E+04  0.00000000000E+00 0. -1.
          1   -1    0    0  501    0 -0.00000000000E+00 -0.00000000000E+00 -0.74481670564E+02  0.74481670564E+02  0.00000000000E+00 0. -1.
         25    2    1    2    0    0 -0.88858916149E+02  0.64156944348E+02  0.76068216495E+03  0.77863718985E+03  0.12500598729E+03 0.  0.
          2    1    1    2  501    0  0.10968175762E+03 -0.13191601031E+02 -0.16274671083E+02  0.11166454769E+03  0.00000000000E+00 0. -1.
          1    1    1    2  502    0 -0.20822841468E+02 -0.50965343318E+02  0.49226810643E+03  0.49533720389E+03  0.00000000000E+00 0. -1.
         22    1    3    3    0    0 -0.87510413079E+02  0.88012995372E+02  0.72592735244E+03  0.73646105177E+03  0.00000000000E+00 0.  1.
         22    1    3    3    0    0 -0.13485030696E+01 -0.23856051023E+02  0.34754812515E+02  0.42176138087E+02  0.00000000000E+00 0.  1.
</event>
<event>
 7    1  0.6607887E-006  0.5396103E+02  0.7818608E-02  0.1483799E+00
          2   -1    0    0  502    0  0.00000000000E+00  0.00000000000E+00  0.13557705586E+04  0.13557705586E+04  0.00000000000E+00 0. -1.
          1   -1    0    0  501    0 -0.00000000000E+00 -0.00000000000E+00 -0.74916128434E+03  0.74916128434E+03  0.00000000000E+00 0. -1.
         25    2    1    2    0    0  0.45524619371E+02 -0.75969140904E+02  0.63807804513E+03  0.65621096020E+03  0.12500172507E+03 0.  0.
          2    1    1    2  501    0 -0.31337100665E+02  0.43865248899E+02 -0.73867733144E+03  0.74064186617E+03  0.00000000000E+00 0. -1.
          1    1    1    2  502    0 -0.14187518706E+02  0.32103892005E+02  0.70720856059E+03  0.70807901660E+03  0.00000000000E+00 0. -1.
         22    1    3    3    0    0 -0.69371513728E+01 -0.92324144382E+02  0.30885826577E+03  0.32243650544E+03  0.00000000000E+00 0. -1.
         22    1    3    3    0    0  0.52461770743E+02  0.16355003479E+02  0.32921977936E+03  0.33377445476E+03  0.00000000000E+00 0. -1.
</event>
<event>
 7    1  0.6607887E-006  0.9561640E+02  0.7818608E-02  0.1356220E+00
          2   -1    0    0  502    0  0.00000000000E+00  0.00000000000E+00  0.71312159194E+03  0.71312159194E+03  0.00000000000E+00 0. -1.
          1   -1    0    0  501    0 -0.00000000000E+00 -0.00000000000E+00 -0.15514852629E+03  0.15514852629E+03  0.00000000000E+00 0. -1.
         25    2    1    2    0    0  0.78405992280E+02 -0.51988753943E+02 -0.18158369645E+02  0.15749721034E+03  0.12500125886E+03 0.  0.
          2    1    1    2  501    0  0.17835154076E+02  0.49852283996E+02 -0.52648128349E+02  0.74667050024E+02  0.00000000000E+00 0. -1.
          1    1    1    2  502    0 -0.96241146355E+02  0.21364699470E+01  0.62877956364E+03  0.63610585786E+03  0.00000000000E+00 0. -1.
         22    1    3    3    0    0  0.20728642277E+02  0.65521377848E+01 -0.61043895744E+02  0.64799416107E+02  0.00000000000E+00 0.  1.
         22    1    3    3    0    0  0.57677350003E+02 -0.58540891728E+02  0.42885526100E+02  0.92697794237E+02  0.00000000000E+00 0.  1.
</event>
<event>
 7    1  0.6607887E-006  0.6076102E+02  0.7818608E-02  0.1512913E+00
          2   -1    0    0  502    0  0.00000000000E+00  0.00000000000E+00  0.88896566340E+03  0.88896566340E+03  0.00000000000E+00 0. -1.
          1   -1    0    0  501    0 -0.00000000000E+00 -0.00000000000E+00 -0.35962433245E+03  0.35962433245E+03  0.00000000000E+00 0. -1.
         25    2    1    2    0    0  0.13964827532E+02  0.35943556296E+02 -0.42551952897E+02  0.13756104917E+03  0.12500167161E+03 0.  0.
          2    1    1    2  501    0 -0.11863353245E+02 -0.61364227142E+02 -0.26574833132E+03  0.27299905334E+03  0.00000000000E+00 0. -1.
          1    1    1    2  502    0 -0.21014742868E+01  0.25420670846E+02  0.83764161516E+03  0.83802989335E+03  0.00000000000E+00 0. -1.
         22    1    3    3    0    0  0.27643463478E+02  0.79930717537E+02 -0.30915329523E+02  0.90049088160E+02  0.00000000000E+00 0. -1.
         22    1    3    3    0    0 -0.13678635946E+02 -0.43987161240E+02 -0.11636623374E+02  0.47511961008E+02  0.00000000000E+00 0. -1.
</event>
<event>
 7    1  0.9679215E-006  0.1067238E+03  0.7818608E-02  0.1294127E+00
          2   -1    0    0  502    0  0.00000000000E+00  0.00000000000E+00  0.10983015481E+04  0.10983015481E+04  0.00000000000E+00 0. -1.
          1   -1    0    0  501    0 -0.00000000000E+00 -0.00000000000E+00 -0.25326307922E+04  0.25326307922E+04  0.00000000000E+00 0. -1.
         25    2    1    2    0    0 -0.56098522560E+02 -0.78867570581E+02 -0.14999129824E+04  0.15082209142E+04  0.12499693340E+03 0.  0.
          2    1    1    2  501    0 -0.91387554595E+01  0.12898976537E+03 -0.10229411109E+04  0.10310821464E+04  0.00000000000E+00 0. -1.
          1    1    1    2  502    0  0.65237278019E+02 -0.50122194791E+02  0.10885248491E+04  0.10916292796E+04  0.00000000000E+00 0. -1.
         22    1    3    3    0    0 -0.41913465702E+02 -0.57314033631E+02 -0.30998086317E+03  0.31800907627E+03  0.00000000000E+00 0. -1.
         22    1    3    3    0    0 -0.14185056857E+02 -0.21553536951E+02 -0.11899321192E+04  0.11902118379E+04  0.00000000000E+00 0. -1.
</event>
<event>
 7    1  0.6607887E-006  0.4134638E+02  0.7818608E-02  0.1557517E+00
          2   -1    0    0  502    0  0.00000000000E+00  0.00000000000E+00  0.11422344322E+03  0.11422344322E+03  0.00000000000E+00 0. -1.
          1   -1    0    0  501    0 -0.00000000000E+00 -0.00000000000E+00 -0.16022223522E+03  0.16022223522E+03  0.00000000000E+00 0. -1.
         25    2    1    2    0    0 -0.55370781979E+02  0.38293303926E+02 -0.42751892290E+02  0.14826720739E+03  0.12499255926E+03 0.  0.
          2    1    1    2  501    0  0.24340081377E+02 -0.13810513531E+02 -0.54612574137E+02  0.61365324894E+02  0.00000000000E+00 0. -1.
          1    1    1    2  502    0  0.31030700602E+02 -0.24482790394E+02  0.51365674426E+02  0.64813146155E+02  0.00000000000E+00 0. -1.
         22    1    3    3    0    0 -0.61961544772E+02  0.76804309856E+02 -0.46361490756E+02  0.10902991731E+03  0.00000000000E+00 0. -1.
         22    1    3    3    0    0  0.65907627931E+01 -0.38511005931E+02  0.36095984659E+01  0.39237290083E+02  0.00000000000E+00 0. -1.
</event>
<event>
 7    1  0.6607887E-006  0.1788215E+03  0.7818608E-02  0.1281824E+00
          2   -1    0    0  502    0  0.00000000000E+00  0.00000000000E+00  0.33186461177E+03  0.33186461177E+03  0.00000000000E+00 0. -1.
          1   -1    0    0  501    0 -0.00000000000E+00 -0.00000000000E+00 -0.11110981737E+04  0.11110981737E+04  0.00000000000E+00 0. -1.
         25    2    1    2    0    0  0.13224693211E+03  0.14217581705E+03 -0.14853164767E+03  0.27457285820E+03  0.12500156038E+03 0.  0.
          2    1    1    2  501    0  0.20331218521E+02 -0.51228801615E+02 -0.86923762786E+03  0.87098323878E+03  0.00000000000E+00 0. -1.
          1    1    1    2  502    0 -0.15257815063E+03 -0.90947015434E+02  0.23853571362E+03  0.29740668845E+03  0.00000000000E+00 0. -1.
         22    1    3    3    0    0  0.15388761764E+02  0.10626124806E+03 -0.54948384806E+02  0.12061339818E+03  0.00000000000E+00 0. -1.
         22    1    3    3    0    0  0.11685817034E+03  0.35914568985E+02 -0.93583262862E+02  0.15395946002E+03  0.00000000000E+00 0. -1.
</event>
<event>
 7    1  0.6607887E-006  0.6826843E+02  0.7818608E-02  0.1502905E+00
          2   -1    0    0  502    0  0.00000000000E+00  0.00000000000E+00  0.62699694165E+03  0.62699694165E+03  0.00000000000E+00 0. -1.
          1   -1    0    0  501    0 -0.00000000000E+00 -0.00000000000E+00 -0.66113703650E+03  0.66113703650E+03  0.00000000000E+00 0. -1.
         25    2    1    2    0    0 -0.32444321551E+02  0.41021825533E+02  0.18313392943E+03  0.22781255274E+03  0.12500039561E+03 0.  0.
          2    1    1    2  501    0 -0.24279422011E+02  0.10132346276E+01 -0.63560765880E+03  0.63607201865E+03  0.00000000000E+00 0. -1.
          1    1    1    2  502    0  0.56723743562E+02 -0.42035060161E+02  0.41833363452E+03  0.42424940677E+03  0.00000000000E+00 0. -1.
         22    1    3    3    0    0 -0.12313722479E+02  0.84614881559E+02  0.13516691189E+03  0.15994186448E+03  0.00000000000E+00 0. -1.
         22    1    3    3    0    0 -0.20130599072E+02 -0.43593056026E+02  0.47967017543E+02  0.67870688258E+02  0.00000000000E+00 0. -1.
</event>
<event>
 7    1  0.6607887E-006  0.6249412E+02  0.7818608E-02  0.1508448E+00
          2   -1    0    0  502    0  0.00000000000E+00  0.00000000000E+00  0.53703908837E+03  0.53703908837E+03  0.00000000000E+00 0. -1.
          1   -1    0    0  501    0 -0.00000000000E+00 -0.00000000000E+00 -0.13340136683E+04  0.13340136683E+04  0.00000000000E+00 0. -1.
         25    2    1    2    0    0 -0.81898785263E+02 -0.15312384002E+02 -0.87604957338E+03  0.88883436167E+03  0.12498714870E+03 0.  0.
          2    1    1    2  501    0  0.24132194027E+02 -0.84271908387E+01 -0.44936959921E+03  0.45009600868E+03  0.00000000000E+00 0. -1.
          1    1    1    2  502    0  0.57766591236E+02  0.23739574841E+02  0.52844459267E+03  0.53212238630E+03  0.00000000000E+00 0. -1.
         22    1    3    3    0    0  0.13625945340E+02 -0.19038301589E+02 -0.33450642532E+02  0.40829753852E+02  0.00000000000E+00 0. -1.
         22    1    3    3    0    0 -0.95524730604E+02  0.37259175868E+01 -0.84259893085E+03  0.84800460782E+03  0.00000000000E+00 0. -1.
</event>
<event>
 7    1  0.6607887E-006  0.2351406E+03  0.7818608E-02  0.1203479E+00
          2   -1    0    0  502    0  0.00000000000E+00  0.00000000000E+00  0.47671166838E+04  0.47671166838E+04  0.00000000000E+00 0. -1.
          1   -1    0    0  501    0 -0.00000000000E+00 -0.00000000000E+00 -0.71209030072E+03  0.71209030072E+03  0.00000000000E+00 0. -1.
         25    2    1    2    0    0 -0.28506002330E+03  0.30397188383E+02  0.11933448637E+04  0.12336448953E+04  0.12499823172E+03 0.  0.
          2    1    1    2  501    0  0.74334422937E+02  0.55260038262E+02 -0.68518084493E+03  0.69141309542E+03  0.00000000000E+00 0. -1.
          1    1    1    2  502    0  0.21072560036E+03 -0.85657226646E+02  0.35468623643E+04  0.35541489938E+04  0.00000000000E+00 0. -1.
         22    1    3    3    0    0 -0.16290590129E+03 -0.32739838810E+02  0.79663757391E+03  0.81378231357E+03  0.00000000000E+00 0.  1.
         22    1    3    3    0    0 -0.12215412201E+03  0.63137027193E+02  0.39670728980E+03  0.41986258170E+03  0.00000000000E+00 0.  1.
</event>
<event>
 7    1  0.6607887E-006  0.2169284E+03  0.7818608E-02  0.1160454E+00
          2   -1    0    0  502    0  0.00000000000E+00  0.00000000000E+00  0.49629749497E+03  0.49629749497E+03  0.00000000000E+00 0. -1.
          1   -1    0    0  501    0 -0.00000000000E+00 -0.00000000000E+00 -0.13114240956E+04  0.13114240956E+04  0.00000000000E+00 0. -1.
         25    2    1    2    0    0  0.23660244788E+03 -0.92970155788E+02  0.22425999623E+03  0.36130450779E+03  0.12499693287E+03 0.  0.
          2    1    1    2  501    0 -0.35976495044E+02  0.15856584012E+03 -0.11810619704E+04  0.11922016657E+04  0.00000000000E+00 0. -1.
          1    1    1    2  502    0 -0.20062595284E+03 -0.65595684335E+02  0.14167537360E+03  0.25421541700E+03  0.00000000000E+00 0. -1.
         22    1    3    3    0    0  0.11506904798E+03 -0.33383941509E+02  0.28246739748E+02  0.12309854451E+03  0.00000000000E+00 0. -1.
         22    1    3    3    0    0  0.12153339990E+03 -0.59586214279E+02  0.19601325648E+03  0.23820596328E+03  0.00000000000E+00 0. -1.
</event>
<event>
 7    1  0.6607887E-006  0.1311880E+03  0.7818608E-02  0.1414078E+00
          2   -1    0    0  502    0  0.00000000000E+00  0.00000000000E+00  0.39006731487E+03  0.39006731487E+03  0.00000000000E+00 0. -1.
          1   -1    0    0  501    0 -0.00000000000E+00 -0.00000000000E+00 -0.15122958158E+03  0.15122958158E+03  0.00000000000E+00 0. -1.
         25    2    1    2    0    0 -0.13360349153E+03 -0.51065714108E+02  0.16321681826E+01  0.18996158382E+03  0.12500055698E+03 0.  0.
          2    1    1    2  501    0  0.11899128870E+03  0.31830295530E+02  0.10803179891E+02  0.12364790009E+03  0.00000000000E+00 0. -1.
          1    1    1    2  502    0  0.14612202835E+02  0.19235418578E+02  0.22640238521E+03  0.22768741254E+03  0.00000000000E+00 0. -1.
         22    1    3    3    0    0 -0.15686615659E+03 -0.46853653039E+02  0.11987360258E+02  0.16415222414E+03  0.00000000000E+00 0.  1.
         22    1    3    3    0    0  0.23262665052E+02 -0.42120610684E+01 -0.10355192075E+02  0.25809359672E+02  0.00000000000E+00 0.  1.
</event>
<event>
 7    1  0.6607887E-006  0.6841752E+02  0.7818608E-02  0.1366186E+00
          2   -1    0    0  502    0  0.00000000000E+00  0.00000000000E+00  0.22272021820E+03  0.22272021820E+03  0.00000000000E+00 0. -1.
          1   -1    0    0  501    0 -0.00000000000E+00 -0.00000000000E+00 -0.47868251018E+03  0.47868251018E+03  0.00000000000E+00 0. -1.
         25    2    1    2    0    0 -0.66222591627E+02 -0.31366029212E+02 -0.55836420098E+02  0.15528146014E+03  0.12500146648E+03 0.  0.
          2    1    1    2  501    0  0.98511783759E+01  0.69504209590E+02 -0.36293343318E+03  0.36966005706E+03  0.00000000000E+00 0. -1.
          1    1    1    2  502    0  0.56371413251E+02 -0.38138180379E+02  0.16280756130E+03  0.17646121118E+03  0.00000000000E+00 0. -1.
         22    1    3    3    0    0  0.30414094798E+02 -0.27095284853E+02  0.49562022987E+01  0.41033346986E+02  0.00000000000E+00 0. -1.
         22    1    3    3    0    0 -0.96636686426E+02 -0.42707443585E+01 -0.60792622397E+02  0.11424811315E+03  0.00000000000E+00 0. -1.
</event>
<event>
 7    1  0.6607887E-006  0.4396626E+02  0.7818608E-02  0.1539264E+00
          2   -1    0    0  502    0  0.00000000000E+00  0.00000000000E+00  0.24727140098E+04  0.24727140098E+04  0.00000000000E+00 0. -1.
          1   -1    0    0  501    0 -0.00000000000E+00 -0.00000000000E+00 -0.58032979658E+03  0.58032979658E+03  0.00000000000E+00 0. -1.
         25    2    1    2    0    0 -0.97347977818E+01  0.38310410425E+02  0.14879266994E+03  0.19830979824E+03  0.12500025447E+03 0.  0.
          2    1    1    2  501    0  0.29579793567E+02  0.10569437181E+01 -0.55496548151E+03  0.55575423254E+03  0.00000000000E+00 0. -1.
          1    1    1    2  502    0 -0.19844995785E+02 -0.39367354144E+02  0.22985570248E+04  0.22989797756E+04  0.00000000000E+00 0. -1.
         22    1    3    3    0    0 -0.54119222715E+02 -0.69461566365E-01  0.12267581272E+03  0.13408299713E+03  0.00000000000E+00 0. -1.
         22    1    3    3    0    0  0.44384424933E+02  0.38379871992E+02  0.26116857218E+02  0.64226801117E+02  0.00000000000E+00 0. -1.
</event>
<event>
 7    1  0.6607887E-006  0.3139788E+03  0.7818608E-02  0.1182365E+00
          2   -1    0    0  502    0  0.00000000000E+00  0.00000000000E+00  0.12256973160E+04  0.12256973160E+04  0.00000000000E+00 0. -1.
          1   -1    0    0  501    0 -0.00000000000E+00 -0.00000000000E+00 -0.16018672051E+04  0.16018672051E+04  0.00000000000E+00 0. -1.
         25    2    1    2    0    0 -0.11066021913E+03 -0.35006493628E+03 -0.78644258710E+03  0.87687420377E+03  0.12500113091E+03 0.  0.
          2    1    1    2  501    0  0.63408903493E+02  0.27643300981E+03 -0.74238625667E+03  0.79471583100E+03  0.00000000000E+00 0. -1.
          1    1    1    2  502    0  0.47251315633E+02  0.73631926466E+02  0.11526589546E+04  0.11559744863E+04  0.00000000000E+00 0. -1.
         22    1    3    3    0    0 -0.29221861948E+01  0.76238493764E+01 -0.26033325298E+01  0.85696902938E+01  0.00000000000E+00 0. -1.
         22    1    3    3    0    0 -0.10773803293E+03 -0.35768878565E+03 -0.78383925457E+03  0.86830451348E+03  0.00000000000E+00 0. -1.
</event>
<event>
 7    1  0.6607887E-006  0.1925165E+03  0.7818608E-02  0.1225136E+00
          2   -1    0    0  502    0  0.00000000000E+00  0.00000000000E+00  0.16155070053E+04  0.16155070053E+04  0.00000000000E+00 0. -1.
          1   -1    0    0  501    0 -0.00000000000E+00 -0.00000000000E+00 -0.13644256889E+04  0.13644256889E+04  0.00000000000E+00 0. -1.
         25    2    1    2    0    0  0.11227720209E+03 -0.62775609623E+02 -0.84600622836E+02  0.19832008618E+03  0.12500657553E+03 0.  0.
          2    1    1    2  501    0  0.10913263681E+02 -0.89261293755E+02 -0.12151556183E+04  0.12184784998E+04  0.00000000000E+00 0. -1.
          1    1    1    2  502    0 -0.12319046577E+03  0.15203690338E+03  0.15508375574E+04  0.15631341082E+04  0.00000000000E+00 0. -1.
         22    1    3    3    0    0  0.67378468182E+02 -0.92616547544E+02 -0.23650658885E+02  0.11694886284E+03  0.00000000000E+00 0. -1.
         22    1    3    3    0    0  0.44898733910E+02  0.29840937920E+02 -0.60949963951E+02  0.81371223342E+02  0.00000000000E+00 0. -1.
</event>
<event>
 7    1  0.6607887E-006  0.5102221E+02  0.7818608E-02  0.1494747E+00
          2   -1    0    0  502    0  0.00000000000E+00  0.00000000000E+00  0.21892309749E+04  0.21892309749E+04  0.00000000000E+00 0. -1.
          1   -1    0    0  501    0 -0.00000000000E+00 -0.00000000000E+00 -0.37430024561E+02  0.37430024561E+02  0.00000000000E+00 0. -1.
         25    2    1    2    0    0  0.43479524145E+02 -0.67440601396E+02  0.57949626441E+03  0.59823125397E+03  0.12500403603E+03 0.  0.
          2    1    1    2  501    0 -0.66758207346E+01  0.33738000263E+02 -0.16984384901E+02  0.38357379664E+02  0.00000000000E+00 0. -1.
          1    1    1    2  502    0 -0.36803703410E+02  0.33702601133E+02  0.15892890708E+04  0.15900723658E+04  0.00000000000E+00 0. -1.
         22    1    3    3    0    0 -0.17257172859E+02  0.12920505397E+00  0.36343642968E+03  0.36384593598E+03  0.00000000000E+00 0.  1.
         22    1    3    3    0    0  0.60736697004E+02 -0.67569806450E+02  0.21605983473E+03  0.23438531799E+03  0.00000000000E+00 0.  1.
</event>
<event>
 7    1  0.6607887E-006  0.5750732E+02  0.7818608E-02  0.1556125E+00
          2   -1    0    0  502    0  0.00000000000E+00  0.00000000000E+00  0.39445740681E+03  0.39445740681E+03  0.00000000000E+00 0. -1.
          1   -1    0    0  501    0 -0.00000000000E+00 -0.00000000000E+00 -0.77347025146E+02  0.77347025146E+02  0.00000000000E+00 0. -1.
         25    2    1    2    0    0  0.55681117656E+01  0.57703034077E+02  0.19837419422E+03  0.24153340168E+03  0.12500167672E+03 0.  0.
          2    1    1    2  501    0 -0.20242128499E+02 -0.15272516418E+01 -0.48856555211E+02  0.52905947216E+02  0.00000000000E+00 0. -1.
          1    1    1    2  502    0  0.14674016733E+02 -0.56175782435E+02  0.16759274265E+03  0.17736508306E+03  0.00000000000E+00 0. -1.
         22    1    3    3    0    0 -0.36092883682E+02  0.44967230517E+02  0.25135330519E+02  0.62900977045E+02  0.00000000000E+00 0.  1.
         22    1    3    3    0    0  0.41660995447E+02  0.12735803559E+02  0.17323886370E+03  0.17863242464E+03  0.00000000000E+00 0.  1.
</event>
<event>
 7    1  0.6607887E-006  0.5610399E+02  0.7818608E-02  0.1457599E+00
          2   -1    0    0  502    0  0.00000000000E+00  0.00000000000E+00  0.18081216787E+04  0.18081216787E+04  0.00000000000E+00 0. -1.
          1   -1    0    0  501    0 -0.00000000000E+00 -0.00000000000E+00 -0.17513776515E+03  0.17513776515E+03  0.00000000000E+00 0. -1.
         25    2    1    2    0    0 -0.45200393751E+02  0.58907500896E+02  0.71746048171E+02  0.16212975147E+03  0.12500156649E+03 0.  0.
          2    1    1    2  501    0  0.40605173567E+02 -0.30587074408E+01 -0.12627932276E+03  0.13268233933E+03  0.00000000000E+00 0. -1.
          1    1    1    2  502    0  0.45952201840E+01 -0.55848793455E+02  0.16875171881E+04  0.16884473530E+04  0.00000000000E+00 0. -1.
         22    1    3    3    0    0  0.17559949133E+02  0.36450287797E+02  0.85026893014E+02  0.94162348259E+02  0.00000000000E+00 0. -1.
         22    1    3    3    0    0 -0.62760342885E+02  0.22457213100E+02 -0.13280844842E+02  0.67967403209E+02  0.00000000000E+00 0. -1.
</event>
<event>
 7    1  0.6607887E-006  0.5829462E+02  0.7818608E-02  0.1484153E+00
          2   -1    0    0  502    0  0.00000000000E+00  0.00000000000E+00  0.59501284687E+03  0.59501284687E+03  0.00000000000E+00 0. -1.
          1   -1    0    0  501    0 -0.00000000000E+00 -0.00000000000E+00 -0.17038731029E+03  0.17038731029E+03  0.00000000000E+00 0. -1.
         25    2    1    2    0    0  0.51848877104E+02 -0.12192815202E+02 -0.19217519046E+02  0.13722713871E+03  0.12500001505E+03 0.  0.
          2    1    1    2  501    0  0.31837401167E+01  0.32252417381E+02 -0.87656295479E+02  0.93455769031E+02  0.00000000000E+00 0. -1.
          1    1    1    2  502    0 -0.55032617220E+02 -0.20059602179E+02  0.53149935110E+03  0.53471724941E+03  0.00000000000E+00 0. -1.
         22    1    3    3    0    0  0.14638004169E+02 -0.67561946681E+02 -0.11316752064E+02  0.70049672967E+02  0.00000000000E+00 0. -1.
         22    1    3    3    0    0  0.37210872934E+02  0.55369131479E+02 -0.79007669819E+01  0.67177465747E+02  0.00000000000E+00 0. -1.
</event>
<event>
 7    1  0.6607887E-006  0.3707827E+02  0.7818608E-02  0.1568869E+00
          2   -1    0    0  502    0  0.00000000000E+00  0.00000000000E+00  0.11986307535E+04  0.11986307535E+04  0.00000000000E+00 0. -1.
          1   -1    0    0  501    0 -0.00000000000E+00 -0.00000000000E+00 -0.98558862384E+03  0.98558862384E+03  0.00000000000E+00 0. -1.
         25    2    1    2    0    0  0.21626098159E+01 -0.65852456563E+02  0.45822720421E+03  0.47951897357E+03  0.12500020968E+03 0.  0.
          2    1    1    2  501    0 -0.38711130930E+01  0.36854001933E+02 -0.97430129245E+03  0.97500574944E+03  0.00000000000E+00 0. -1.
          1    1    1    2  502    0  0.17085032771E+01  0.28998454629E+02  0.72911621790E+03  0.72969465433E+03  0.00000000000E+00 0. -1.
         22    1    3    3    0    0  0.55169017079E+02 -0.30550597485E+02  0.33418383822E+03  0.34008204478E+03  0.00000000000E+00 0.  1.
         22    1    3    3    0    0 -0.53006407263E+02 -0.35301859077E+02  0.12404336599E+03  0.13943692879E+03  0.00000000000E+00 0.  1.
</event>
<event>
 7    1  0.6607887E-006  0.5787636E+02  0.7818608E-02  0.1412203E+00
          2   -1    0    0  502    0  0.00000000000E+00  0.00000000000E+00  0.30926486476E+04  0.30926486476E+04  0.00000000000E+00 0. -1.
          1   -1    0    0  501    0 -0.00000000000E+00 -0.00000000000E+00 -0.94332928735E+02  0.94332928735E+02  0.00000000000E+00 0. -1.
         25    2    1    2    0    0 -0.36089185981E+02 -0.90377170017E+02  0.49764597948E+03  0.52224645946E+03  0.12497752326E+03 0.  0.
          2    1    1    2  501    0  0.45006269972E+02  0.35539830877E+02 -0.71673600769E+02  0.91791878522E+02  0.00000000000E+00 0. -1.
          1    1    1    2  502    0 -0.89170839906E+01  0.54837339140E+02  0.25723433402E+04  0.25729432384E+04  0.00000000000E+00 0. -1.
         22    1    3    3    0    0 -0.98670987980E+01 -0.10439104728E+03  0.47031211517E+03  0.48185924923E+03  0.00000000000E+00 0. -1.
         22    1    3    3    0    0 -0.26222087183E+02  0.14013877260E+02  0.27333864304E+02  0.40387210226E+02  0.00000000000E+00 0. -1.
</event>
<event>
 7    1  0.6607887E-006  0.6641369E+02  0.7818608E-02  0.1442320E+00
          2   -1    0    0  502    0  0.00000000000E+00  0.00000000000E+00  0.48943022920E+02  0.48943022920E+02  0.00000000000E+00 0. -1.
          1   -1    0    0  501    0 -0.00000000000E+00 -0.00000000000E+00 -0.23484254651E+04  0.23484254651E+04  0.00000000000E+00 0. -1.
         25    2    1    2    0    0  0.45901968635E+02  0.59294574672E+02 -0.37998747642E+03  0.40698712760E+03  0.12500080992E+03 0.  0.
          2    1    1    2  501    0 -0.79924775829E+01 -0.65998061042E+02 -0.19437457330E+04  0.19448822839E+04  0.00000000000E+00 0. -1.
          1    1    1    2  502    0 -0.37909491052E+02  0.67034863702E+01  0.24250767309E+02  0.45499076435E+02  0.00000000000E+00 0. -1.
         22    1    3    3    0    0 -0.43993434000E+01 -0.71978684356E+01  0.70976655640E+01  0.11024535765E+02  0.00000000000E+00 0.  1.
         22    1    3    3    0    0  0.50301312035E+02  0.66492443107E+02 -0.38708514199E+03  0.39596259183E+03  0.00000000000E+00 0.  1.
</event>
<event>
 7    1  0.6607887E-006  0.1343687E+03  0.7818608E-02  0.1353550E+00
          2   -1    0    0  502    0  0.00000000000E+00  0.00000000000E+00  0.64092986893E+03  0.64092986893E+03  0.00000000000E+00 0. -1.
          1   -1    0    0  501    0 -0.00000000000E+00 -0.00000000000E+00 -0.34385289155E+03  0.34385289155E+03  0.00000000000E+00 0. -1.
         25    2    1    2    0    0  0.12386342236E+03 -0.20658646975E+02  0.41224114728E+02  0.18191317915E+03  0.12499620002E+03 0.  0.
          2    1    1    2  501    0 -0.12287536366E+03  0.59184065653E+02 -0.25573612148E+03  0.28983111022E+03  0.00000000000E+00 0. -1.
          1    1    1    2  502    0 -0.98805869770E+00 -0.38525418678E+02  0.51158898414E+03  0.51303847111E+03  0.00000000000E+00 0. -1.
         22    1    3    3    0    0  0.77306917348E+02 -0.35565851354E+02  0.82059816750E+02  0.11821633888E+03  0.00000000000E+00 0.  1.
         22    1    3    3    0    0  0.46556505012E+02  0.14907204379E+02 -0.40835702021E+02  0.63696840274E+02  0.00000000000E+00 0.  1.
</event>
<event>
 7    1  0.6607887E-006  0.7842452E+02  0.7818608E-02  0.1479230E+00
          2   -1    0    0  502    0  0.00000000000E+00  0.00000000000E+00  0.10836690703E+04  0.10836690703E+04  0.00000000000E+00 0. -1.
          1   -1    0    0  501    0 -0.00000000000E+00 -0.00000000000E+00 -0.60136297551E+03  0.60136297551E+03  0.00000000000E+00 0. -1.
         25    2    1    2    0    0 -0.64858099601E+02  0.54423494042E+02  0.70959976851E+02  0.16682226125E+03  0.12500343493E+03 0.  0.
          2    1    1    2  501    0  0.72153251331E+02 -0.30573505346E+02 -0.55049539224E+03  0.55604496921E+03  0.00000000000E+00 0. -1.
          1    1    1    2  502    0 -0.72951517304E+01 -0.23849988696E+02  0.96184151017E+03  0.96216481534E+03  0.00000000000E+00 0. -1.
         22    1    3    3    0    0 -0.86127144716E+01  0.18392026249E+01 -0.34859252308E+02  0.35954540580E+02  0.00000000000E+00 0. -1.
         22    1    3    3    0    0 -0.56245385129E+02  0.52584291417E+02  0.10581922916E+03  0.13086772066E+03  0.00000000000E+00 0. -1.
</event>
<event>
 7    1  0.6607887E-006  0.1900060E+03  0.7818608E-02  0.1306950E+00
          2   -1    0    0  502    0  0.00000000000E+00  0.00000000000E+00  0.29228523545E+03  0.29228523545E+03  0.00000000000E+00 0. -1.
          1   -1    0    0  501    0 -0.00000000000E+00 -0.00000000000E+00 -0.10955021623E+04  0.10955021623E+04  0.00000000000E+00 0. -1.
         25    2    1    2    0    0  0.12943906083E+03  0.85662903714E+02 -0.17392852161E+03  0.26450813467E+03  0.12498327543E+03 0.  0.
          2    1    1    2  501    0  0.35705053787E+02  0.20278460141E+02 -0.83673635253E+03  0.83774327240E+03  0.00000000000E+00 0. -1.
          1    1    1    2  502    0 -0.16514411462E+03 -0.10594136385E+03  0.20744794726E+03  0.28553599071E+03  0.00000000000E+00 0. -1.
         22    1    3    3    0    0 -0.15556881152E+02 -0.12200682180E+02 -0.31194455122E+01  0.20015097730E+02  0.00000000000E+00 0. -1.
         22    1    3    3    0    0  0.14499594199E+03  0.97863585894E+02 -0.17080907609E+03  0.24449303694E+03  0.00000000000E+00 0. -1.
</event>
<event>
 7    1  0.6607887E-006  0.6231152E+02  0.7818608E-02  0.1497598E+00
          2   -1    0    0  502    0  0.00000000000E+00  0.00000000000E+00  0.45669297972E+02  0.45669297972E+02  0.00000000000E+00 0. -1.
          1   -1    0    0  501    0 -0.00000000000E+00 -0.00000000000E+00 -0.38703590299E+03  0.38703590299E+03  0.00000000000E+00 0. -1.
         25    2    1    2    0    0 -0.82205286935E+02 -0.42955181831E+00 -0.15617370315E+03  0.21627130495E+03  0.12500063229E+03 0.  0.
          2    1    1    2  501    0  0.26255749067E+02  0.85473212332E+01 -0.14364182717E+03  0.14627164992E+03  0.00000000000E+00 0. -1.
          1    1    1    2  502    0  0.55949537868E+02 -0.81177694149E+01 -0.41551074706E+02  0.70162246096E+02  0.00000000000E+00 0. -1.
         22    1    3    3    0    0  0.36049072284E+01 -0.18295479429E+02  0.15019804293E+02  0.23943985563E+02  0.00000000000E+00 0. -1.
         22    1    3    3    0    0 -0.85810194163E+02  0.17865927610E+02 -0.17119350744E+03  0.19232731938E+03  0.00000000000E+00 0. -1.
</event>
<event>
 7    1  0.6607887E-006  0.5730946E+02  0.7818608E-02  0.1489985E+00
          2   -1    0    0  502    0  0.00000000000E+00  0.00000000000E+00  0.19241860827E+04  0.19241860827E+04  0.00000000000E+00 0. -1.
          1   -1    0    0  501    0 -0.00000000000E+00 -0.00000000000E+00 -0.10321774821E+03  0.10321774821E+03  0.00000000000E+00 0. -1.
         25    2    1    2    0    0 -0.22903526636E+00 -0.36295457868E+02  0.21574937574E+03  0.25197474525E+03  0.12500426551E+03 0.  0.
          2    1    1    2  501    0 -0.28266143406E+02 -0.14235521049E+02 -0.81646793458E+02  0.87566111051E+02  0.00000000000E+00 0. -1.
          1    1    1    2  502    0  0.28495178673E+02  0.50530978917E+02  0.16868657522E+04  0.16878629746E+04  0.00000000000E+00 0. -1.
         22    1    3    3    0    0 -0.30886253076E+02 -0.73871833648E+02  0.11459863070E+03  0.13979933688E+03  0.00000000000E+00 0. -1.
         22    1    3    3    0    0  0.30657217809E+02  0.37576375780E+02  0.10115074504E+03  0.11217540837E+03  0.00000000000E+00 0. -1.
</event>
<event>
 7    1  0.6607887E-006  0.1338364E+03  0.7818608E-02  0.1336747E+00
          2   -1    0    0  502    0  0.00000000000E+00  0.00000000000E+00  0.29115427115E+04  0.29115427115E+04  0.00000000000E+00 0. -1.
          1   -1    0    0  501    0 -0.00000000000E+00 -0.00000000000E+00 -0.56287614058E+03  0.56287614058E+03  0.00000000000E+00 0. -1.
         25    2    1    2    0    0  0.71075600147E+01 -0.16325917340E+03  0.14713956272E+04  0.14857097942E+04  0.12499770375E+03 0.  0.
          2    1    1    2  501    0  0.24319199612E+02  0.13146760517E+03 -0.54732192679E+03  0.56341498580E+03  0.00000000000E+00 0. -1.
          1    1    1    2  502    0 -0.31426759627E+02  0.31791568236E+02  0.14245928706E+04  0.14252940721E+04  0.00000000000E+00 0. -1.
         22    1    3    3    0    0 -0.30055464030E+02 -0.27425698755E+02  0.11428000995E+03  0.12130713312E+03  0.00000000000E+00 0. -1.
         22    1    3    3    0    0  0.37163024045E+02 -0.13583347465E+03  0.13571156172E+04  0.13644026611E+04  0.00000000000E+00 0. -1.
</event>
<event>
 7    1  0.6607887E-006  0.2058074E+03  0.7818608E-02  0.1263481E+00
          2   -1    0    0  502    0  0.00000000000E+00  0.00000000000E+00  0.12037899104E+04  0.12037899104E+04  0.00000000000E+00 0. -1.
          1   -1    0    0  501    0 -0.00000000000E+00 -0.00000000000E+00 -0.17342946148E+03  0.17342946148E+03  0.00000000000E+00 0. -1.
         25    2    1    2    0    0  0.48914819519E+02 -0.23679762580E+03  0.15539022260E+03  0.31342776445E+03  0.12500026838E+03 0.  0.
          2    1    1    2  501    0 -0.15164721538E+02  0.19068995105E+03  0.43942478189E+01  0.19134245641E+03  0.00000000000E+00 0. -1.
          1    1    1    2  502    0 -0.33750097981E+02  0.46107674753E+02  0.87057597850E+03  0.87244915103E+03  0.00000000000E+00 0. -1.
         22    1    3    3    0    0  0.85130681023E+02 -0.10992052819E+03  0.94526002900E+02  0.16812174337E+03  0.00000000000E+00 0.  1.
         22    1    3    3    0    0 -0.36215861504E+02 -0.12687709761E+03  0.60864219697E+02  0.14530602108E+03  0.00000000000E+00 0.  1.
</event>
<event>
 7    1  0.6607887E-006  0.8698940E+02  0.7818608E-02  0.1421836E+00
          2   -1    0    0  502    0  0.00000000000E+00  0.00000000000E+00  0.67818021396E+03  0.67818021396E+03  0.00000000000E+00 0. -1.
          1   -1    0    0  501    0 -0.00000000000E+00 -0.00000000000E+00 -0.68617711359E+03  0.68617711359E+03  0.00000000000E+00 0. -1.
         25    2    1    2    0    0  0.52874005921E+01  0.11342965840E+03 -0.23210538945E+03  0.28704012588E+03  0.12499951218E+03 0.  0.
          2    1    1    2  501    0  0.17220875029E+02 -0.29679152285E+02 -0.42301713282E+03  0.42440653303E+03  0.00000000000E+00 0. -1.
          1    1    1    2  502    0 -0.22508275621E+02 -0.83750506118E+02  0.64712562264E+03  0.65291066864E+03  0.00000000000E+00 0. -1.
         22    1    3    3    0    0 -0.45698692276E+02  0.82519915457E+02 -0.80065198815E+02  0.12372688869E+03  0.00000000000E+00 0.  1.
         22    1    3    3    0    0  0.50986092869E+02  0.30909742945E+02 -0.15204019064E+03  0.16331323720E+03  0.00000000000E+00 0.  1.
</event>
<event>
 7    1  0.6607887E-006  0.6882835E+02  0.7818608E-02  0.1465303E+00
          2   -1    0    0  502    0  0.00000000000E+00  0.00000000000E+00  0.13380990737E+03  0.13380990737E+03  0.00000000000E+00 0. -1.
          1   -1    0    0  501    0 -0.00000000000E+00 -0.00000000000E+00 -0.32288470967E+03  0.32288470967E+03  0.00000000000E+00 0. -1.
         25    2    1    2    0    0  0.80119427989E+02 -0.19358299383E+02 -0.28931608522E+02  0.15249996151E+03  0.12500133516E+03 0.  0.
          2    1    1    2  501    0 -0.67491772825E+02 -0.93789021123E+01 -0.22340928303E+03  0.23356971325E+03  0.00000000000E+00 0. -1.
          1    1    1    2  502    0 -0.12627655164E+02  0.28737201495E+02  0.63266089247E+02  0.70624942289E+02  0.00000000000E+00 0. -1.
         22    1    3    3    0    0  0.54322311534E+02 -0.63621158842E+02 -0.49600238431E+02  0.97256100246E+02  0.00000000000E+00 0. -1.
         22    1    3    3    0    0  0.25797116455E+02  0.44262859459E+02  0.20668629909E+02  0.55243861262E+02  0.00000000000E+00 0. -1.
</event>
<event>
 7    1  0.6607887E-006  0.5482067E+02  0.7818608E-02  0.1435765E+00
          2   -1    0    0  502    0  0.00000000000E+00  0.00000000000E+00  0.98119884062E+03  0.98119884062E+03  0.00000000000E+00 0. -1.
          1   -1    0    0  501    0 -0.00000000000E+00 -0.00000000000E+00 -0.82348046816E+03  0.82348046816E+03  0.00000000000E+00 0. -1.
         25    2    1    2    0    0  0.27855677056E+02  0.48306486431E+02  0.59040008038E+02  0.14906369765E+03  0.12499923213E+03 0.  0.
          2    1    1    2  501    0  0.26868710938E+02 -0.40956858204E+02 -0.77682750135E+03  0.77837032235E+03  0.00000000000E+00 0. -1.
          1    1    1    2  502    0 -0.54724387994E+02 -0.73496282271E+01  0.87550586578E+03  0.87724528878E+03  0.00000000000E+00 0. -1.
         22    1    3    3    0    0  0.62576253877E+02  0.37851038705E+02  0.79014761719E+02  0.10766532055E+03  0.00000000000E+00 0. -1.
         22    1    3    3    0    0 -0.34720576821E+02  0.10455447726E+02 -0.19974753681E+02  0.41398377100E+02  0.00000000000E+00 0. -1.
</event>
<event>
 7    1  0.6607887E-006  0.5194088E+02  0.7818608E-02  0.1505069E+00
          2   -1    0    0  502    0  0.00000000000E+00  0.00000000000E+00  0.70044411572E+03  0.70044411572E+03  0.00000000000E+00 0. -1.
          1   -1    0    0  501    0 -0.00000000000E+00 -0.00000000000E+00 -0.66101196776E+03  0.66101196776E+03  0.00000000000E+00 0. -1.
         25    2    1    2    0    0  0.20742697267E+02  0.16723396317E+02  0.92306776494E+02  0.15765369782E+03  0.12499686386E+03 0.  0.
          2    1    1    2  501    0 -0.20042785632E+02 -0.48186192487E+02 -0.62682302990E+03  0.62899183875E+03  0.00000000000E+00 0. -1.
          1    1    1    2  502    0 -0.69991163496E+00  0.31462796170E+02  0.57394840136E+03  0.57481054691E+03  0.00000000000E+00 0. -1.
         22    1    3    3    0    0 -0.42066527903E+02 -0.16474569785E+02  0.55447068742E+01  0.45516458493E+02  0.00000000000E+00 0.  1.
         22    1    3    3    0    0  0.62809225170E+02  0.33197966102E+02  0.86762069620E+02  0.11213723933E+03  0.00000000000E+00 0.  1.
</event>
<event>
 7    1  0.6607887E-006  0.1109211E+03  0.7818608E-02  0.1366338E+00
          2   -1    0    0  502    0  0.00000000000E+00  0.00000000000E+00  0.27369601417E+04  0.27369601417E+04  0.00000000000E+00 0. -1.
          1   -1    0    0  501    0 -0.00000000000E+00 -0.00000000000E+00 -0.11942967568E+04  0.11942967568E+04  0.00000000000E+00 0. -1.
         25    2    1    2    0    0 -0.81947342504E+02 -0.97569806260E+01  0.15994882976E+03  0.21913133650E+03  0.12499739550E+03 0.  0.
          2    1    1    2  501    0  0.10090313948E+03  0.47154879521E+02 -0.11618697120E+04  0.11671958936E+04  0.00000000000E+00 0. -1.
          1    1    1    2  502    0 -0.18955796979E+02 -0.37397898894E+02  0.25445842671E+04  0.25449296685E+04  0.00000000000E+00 0. -1.
         22    1    3    3    0    0  0.19571697765E+02 -0.14181122677E+02  0.96165720659E+02  0.99156449229E+02  0.00000000000E+00 0.  1.
         22    1    3    3    0    0 -0.10151904027E+03  0.44241420514E+01  0.63783109100E+02  0.11997488727E+03  0.00000000000E+00 0.  1.
</event>
<event>
 7    1  0.6607887E-006  0.1362154E+03  0.7818608E-02  0.1246184E+00
          2   -1    0    0  502    0  0.00000000000E+00  0.00000000000E+00  0.25305820388E+03  0.25305820388E+03  0.00000000000E+00 0. -1.
          1   -1    0    0  501    0 -0.00000000000E+00 -0.00000000000E+00 -0.14932020603E+04  0.14932020603E+04  0.00000000000E+00 0. -1.
         25    2    1    2    0    0 -0.15336407827E+03  0.11447561414E+03 -0.52232941494E+03  0.57015658493E+03  0.12500122758E+03 0.  0.
          2    1    1    2  501    0  0.12882056646E+03 -0.14981485913E+02 -0.93077672762E+03  0.93976832249E+03  0.00000000000E+00 0. -1.
          1    1    1    2  502    0  0.24543511803E+02 -0.99494128231E+02  0.21296228615E+03  0.23633535675E+03  0.00000000000E+00 0. -1.
         22    1    3    3    0    0 -0.13789580436E+03  0.60468767220E+02 -0.24797203202E+03  0.29010662408E+03  0.00000000000E+00 0. -1.
         22    1    3    3    0    0 -0.15468273902E+02  0.54006846924E+02 -0.27435738292E+03  0.28004996085E+03  0.00000000000E+00 0. -1.
</event>
<event>
 7    1  0.6607887E-006  0.1096921E+03  0.7818608E-02  0.1261971E+00
          2   -1    0    0  502    0  0.00000000000E+00  0.00000000000E+00  0.17682448713E+04  0.17682448713E+04  0.00000000000E+00 0. -1.
          1   -1    0    0  501    0 -0.00000000000E+00 -0.00000000000E+00 -0.60123936990E+03  0.60123936990E+03  0.00000000000E+00 0. -1.
         25    2    1    2    0    0 -0.73070037446E+02 -0.78070579390E+02  0.48009959266E+02  0.17135816537E+03  0.12499767562E+03 0.  0.
          2    1    1    2  501    0 -0.32818221505E+02  0.10670663103E+03 -0.53195097659E+03  0.54353949467E+03  0.00000000000E+00 0. -1.
          1    1    1    2  502    0  0.10588825895E+03 -0.28636051641E+02  0.16509465187E+04  0.16545865812E+04  0.00000000000E+00 0. -1.
         22    1    3    3    0    0  0.10958617002E+01 -0.88715717967E+02  0.17356401001E+02  0.90404226577E+02  0.00000000000E+00 0. -1.
         22    1    3    3    0    0 -0.74165899146E+02  0.10645138577E+02  0.30653558265E+02  0.80953938791E+02  0.00000000000E+00 0. -1.
</event>
<event>
 7    1  0.6607887E-006  0.4548808E+02  0.7818608E-02  0.1562518E+00
          2   -1    0    0  502    0  0.00000000000E+00  0.00000000000E+00  0.98999529771E+02  0.98999529771E+02  0.00000000000E+00 0. -1.
          1   -1    0    0  501    0 -0.00000000000E+00 -0.00000000000E+00 -0.48570291526E+03  0.48570291526E+03  0.00000000000E+00 0. -1.
         25    2    1    2    0    0  0.22524441688E+02  0.23727262158E+02 -0.11302447417E+03  0.17166651926E+03  0.12499811450E+03 0.  0.
          2    1    1    2  501    0 -0.44611516374E+02 -0.12797532440E+02 -0.33954942247E+03  0.34270654287E+03  0.00000000000E+00 0. -1.
          1    1    1    2  502    0  0.22087074686E+02 -0.10929729717E+02  0.65870511151E+02  0.70329382900E+02  0.00000000000E+00 0. -1.
         22    1    3    3    0    0  0.46741181524E+02  0.56132319757E+02 -0.10872630577E+03  0.13098467444E+03  0.00000000000E+00 0.  1.
         22    1    3    3    0    0 -0.24216739836E+02 -0.32405057599E+02 -0.42981684028E+01  0.40681844820E+02  0.00000000000E+00 0.  1.
</event>
<event>
 7    1  0.6607887E-006  0.1103494E+03  0.7818608E-02  0.1349759E+00
          2   -1    0    0  502    0  0.00000000000E+00  0.00000000000E+00  0.92600406879E+02  0.92600406879E+02  0.00000000000E+00 0. -1.
          1   -1    0    0  501    0 -0.00000000000E+00 -0.00000000000E+00 -0.37621648286E+04  0.37621648286E+04  0.00000000000E+00 0. -1.
         25    2    1    2    0    0  0.23069936273E+02 -0.61681779216E+02 -0.44362464200E+03  0.46558056811E+03  0.12500231424E+03 0.  0.
          2    1    1    2  501    0  0.19546104851E+02 -0.44348944312E+02 -0.32672971558E+04  0.32676565890E+04  0.00000000000E+00 0. -1.
          1    1    1    2  502    0 -0.42616041125E+02  0.10603072353E+03  0.41357376055E+02  0.12152807843E+03  0.00000000000E+00 0. -1.
         22    1    3    3    0    0 -0.49131701951E+02 -0.41490333076E+02 -0.16629361657E+03  0.17829452820E+03  0.00000000000E+00 0.  1.
         22    1    3    3    0    0  0.72201638224E+02 -0.20191446140E+02 -0.27733102543E+03  0.28728603991E+03  0.00000000000E+00 0.  1.
</event>
<event>
 7    1  0.6607887E-006  0.1263179E+03  0.7818608E-02  0.1331646E+00
          2   -1    0    0  502    0  0.00000000000E+00  0.00000000000E+00  0.34226287671E+03  0.34226287671E+03  0.00000000000E+00 0. -1.
          1   -1    0    0  501    0 -0.00000000000E+00 -0.00000000000E+00 -0.62425826321E+03  0.62425826321E+03  0.00000000000E+00 0. -1.
         25    2    1    2    0    0 -0.16618438681E+02 -0.10219327740E+03 -0.15956635414E+03  0.22762110699E+03  0.12502123230E+03 0.  0.
          2    1    1    2  501    0 -0.22191347443E+02  0.13295564677E+03 -0.41800639066E+03  0.43920268959E+03  0.00000000000E+00 0. -1.
          1    1    1    2  502    0  0.38809786124E+02 -0.30762369369E+02  0.29557735829E+03  0.29969734333E+03  0.00000000000E+00 0. -1.
         22    1    3    3    0    0  0.31410612080E+02 -0.85382869986E+02 -0.43401077640E+02  0.10079937787E+03  0.00000000000E+00 0.  1.
         22    1    3    3    0    0 -0.48029050761E+02 -0.16810407418E+02 -0.11616527650E+03  0.12682172912E+03  0.00000000000E+00 0.  1.
</event>
<event>
 7    1  0.6607887E-006  0.2639300E+03  0.7818608E-02  0.1289436E+00
          2   -1    0    0  502    0  0.00000000000E+00  0.00000000000E+00  0.19018277686E+04  0.19018277686E+04  0.00000000000E+00 0. -1.
          1   -1    0    0  501    0 -0.00000000000E+00 -0.00000000000E+00 -0.10817865693E+04  0.10817865693E+04  0.00000000000E+00 0. -1.
         25    2    1    2    0    0  0.18781395880E+03  0.18704001075E+03  0.26604600430E+03  0.39580764841E+03  0.12500067756E+03 0.  0.
          2    1    1    2  501    0 -0.20984767082E+03 -0.16016064065E+03 -0.99957587230E+03  0.10338468940E+04  0.00000000000E+00 0. -1.
          1    1    1    2  502    0  0.22033712017E+02 -0.26879370101E+02  0.15535710673E+04  0.15539597955E+04  0.00000000000E+00 0. -1.
         22    1    3    3    0    0 -0.60898920313E+01 -0.10564983811E+02  0.51989103752E+00  0.12205570637E+02  0.00000000000E+00 0. -1.
         22    1    3    3    0    0  0.19390385083E+03  0.19760499457E+03  0.26552611326E+03  0.38360207777E+03  0.00000000000E+00 0. -1.
</event>
<event>
 7    1  0.6607887E-006  0.3986969E+02  0.7818608E-02  0.1510710E+00
          2   -1    0    0  502    0  0.00000000000E+00  0.00000000000E+00  0.16114535923E+03  0.16114535923E+03  0.00000000000E+00 0. -1.
          1   -1    0    0  501    0 -0.00000000000E+00 -0.00000000000E+00 -0.18229565619E+04  0.18229565619E+04  0.00000000000E+00 0. -1.
         25    2    1    2    0    0 -0.24412426488E+02  0.12866069363E+02 -0.47097123097E+03  0.48805760524E+03  0.12499929331E+03 0.  0.
          2    1    1    2  501    0  0.28846137473E+02  0.26920492826E+02 -0.13405213653E+04  0.13411019139E+04  0.00000000000E+00 0. -1.
          1    1    1    2  502    0 -0.44337109851E+01 -0.39786562189E+02  0.14968139364E+03  0.15494240196E+03  0.00000000000E+00 0. -1.
         22    1    3    3    0    0 -0.17947462988E+02  0.64767752505E+02 -0.34792110455E+03  0.35435302762E+03  0.00000000000E+00 0.  1.
         22    1    3    3    0    0 -0.64649634995E+01 -0.51901683142E+02 -0.12305012642E+03  0.13370457763E+03  0.00000000000E+00 0.  1.
</event>
<event>
 7    1  0.6607887E-006  0.1387620E+03  0.7818608E-02  0.1244983E+00
          2   -1    0    0  502    0  0.00000000000E+00  0.00000000000E+00  0.77024508841E+03  0.77024508841E+03  0.00000000000E+00 0. -1.
          1   -1    0    0  501    0 -0.00000000000E+00 -0.00000000000E+00 -0.98664732178E+02  0.98664732178E+02  0.00000000000E+00 0. -1.
         25    2    1    2    0    0 -0.18933671265E+02 -0.48961489622E+02  0.19651607561E+03  0.23874440069E+03  0.12499843805E+03 0.  0.
          2    1    1    2  501    0 -0.12477157339E+03  0.60720171222E+02  0.53998520527E+01  0.13886699796E+03  0.00000000000E+00 0. -1.
          1    1    1    2  502    0  0.14370524466E+03 -0.11758681600E+02  0.46966442856E+03  0.49129842193E+03  0.00000000000E+00 0. -1.
         22    1    3    3    0    0 -0.44827549465E+02  0.18275047496E+02  0.29100431250E+02  0.56482932386E+02  0.00000000000E+00 0.  1.
         22    1    3    3    0    0  0.25893878199E+02 -0.67236537118E+02  0.16741564436E+03  0.18226146831E+03  0.00000000000E+00 0.  1.
</event>
<event>
 7    1  0.6607887E-006  0.1001622E+03  0.7818608E-02  0.1436618E+00
          2   -1    0    0  502    0  0.00000000000E+00  0.00000000000E+00  0.10618111077E+04  0.10618111077E+04  0.00000000000E+00 0. -1.
          1   -1    0    0  501    0 -0.00000000000E+00 -0.00000000000E+00 -0.54893377465E+03  0.54893377465E+03  0.00000000000E+00 0. -1.
         25    2    1    2    0    0 -0.65484801038E+01  0.82863253592E+02 -0.36678221242E+02  0.15452898082E+03  0.12499885045E+03 0.  0.
          2    1    1    2  501    0  0.20667932113E+02  0.16805867685E+02 -0.45040962811E+03  0.45119666854E+03  0.00000000000E+00 0. -1.
          1    1    1    2  502    0 -0.14119452009E+02 -0.99669121277E+02  0.99996518237E+03  0.10050192330E+04  0.00000000000E+00 0. -1.
         22    1    3    3    0    0  0.17413067849E+02  0.89002347260E+01  0.40503091374E+02  0.44976988794E+02  0.00000000000E+00 0. -1.
         22    1    3    3    0    0 -0.23961547953E+02  0.73963018866E+02 -0.77181312617E+02  0.10955199203E+03  0.00000000000E+00 0. -1.
</event>
<event>
 7    1  0.6607887E-006  0.1283969E+03  0.7818608E-02  0.1233116E+00
          2   -1    0    0  502    0  0.00000000000E+00  0.00000000000E+00  0.26985695633E+04  0.26985695633E+04  0.00000000000E+00 0. -1.
          1   -1    0    0  501    0 -0.00000000000E+00 -0.00000000000E+00 -0.36711835962E+02  0.36711835962E+02  0.00000000000E+00 0. -1.
         25    2    1    2    0    0  0.29977866070E+02 -0.10408551243E+03  0.11607682103E+04  0.11724928399E+04  0.12499662071E+03 0.  0.
          2    1    1    2  501    0  0.11957359571E+03  0.46775090786E+02  0.13121687274E+03  0.18358546130E+03  0.00000000000E+00 0. -1.
          1    1    1    2  502    0 -0.14955146178E+03  0.57310421649E+02  0.13698726442E+04  0.13792030980E+04  0.00000000000E+00 0. -1.
         22    1    3    3    0    0 -0.32286188871E+02 -0.59261293477E+02  0.83878928020E+03  0.84149970617E+03  0.00000000000E+00 0. -1.
         22    1    3    3    0    0  0.62264054941E+02 -0.44824218957E+02  0.32197893010E+03  0.33099313372E+03  0.00000000000E+00 0. -1.
</event>
<event>
 7    1  0.6607887E-006  0.1243489E+03  0.7818608E-02  0.1304886E+00
          2   -1    0    0  502    0  0.00000000000E+00  0.00000000000E+00  0.20028605581E+04  0.20028605581E+04  0.00000000000E+00 0. -1.
          1   -1    0    0  501    0 -0.00000000000E+00 -0.00000000000E+00 -0.12729074266E+03  0.12729074266E+03  0.00000000000E+00 0. -1.
         25    2    1    2    0    0 -0.71421327117E+02  0.53195435438E+01  0.11307410101E+04  0.11398835708E+04  0.12502007676E+03 0.  0.
          2    1    1    2  501    0  0.12103001041E+03  0.35014636281E+02 -0.88830993102E+02  0.15415976618E+03  0.00000000000E+00 0. -1.
          1    1    1    2  502    0 -0.49608683296E+02 -0.40334179825E+02  0.83365979847E+03  0.83610796379E+03  0.00000000000E+00 0. -1.
         22    1    3    3    0    0 -0.40492301740E+02 -0.24694026197E+02  0.10192451700E+04  0.10203480475E+04  0.00000000000E+00 0. -1.
         22    1    3    3    0    0 -0.30929025377E+02  0.30013569741E+02  0.11149584004E+03  0.11953552328E+03  0.00000000000E+00 0. -1.
</event>
<event>
 7    1  0.6607887E-006  0.8292429E+02  0.7818608E-02  0.1376385E+00
          2   -1    0    0  502    0  0.00000000000E+00  0.00000000000E+00  0.84547162696E+03  0.84547162696E+03  0.00000000000E+00 0. -1.
          1   -1    0    0  501    0 -0.00000000000E+00 -0.00000000000E+00 -0.11462562181E+03  0.11462562181E+03  0.00000000000E+00 0. -1.
         25    2    1    2    0    0 -0.12708752011E+02  0.76884871809E+02  0.17916438436E+03  0.23194717553E+03  0.12500727868E+03 0.  0.
          2    1    1    2  501    0  0.61088768570E+02 -0.58894807450E+02 -0.66505398536E+02  0.10781189185E+03  0.00000000000E+00 0. -1.
          1    1    1    2  502    0 -0.48380016558E+02 -0.17990064359E+02  0.61818701933E+03  0.62033818139E+03  0.00000000000E+00 0. -1.
         22    1    3    3    0    0  0.45849582158E+02 -0.55573014305E+01  0.56049820244E+02  0.72626786605E+02  0.00000000000E+00 0.  1.
         22    1    3    3    0    0 -0.58558334169E+02  0.82442173240E+02  0.12311456411E+03  0.15932038892E+03  0.00000000000E+00 0.  1.
</event>
<event>
 7    1  0.6607887E-006  0.7004446E+02  0.7818608E-02  0.1488083E+00
          2   -1    0    0  502    0  0.00000000000E+00  0.00000000000E+00  0.33423919917E+03  0.33423919917E+03  0.00000000000E+00 0. -1.
          1   -1    0    0  501    0 -0.00000000000E+00 -0.00000000000E+00 -0.14594799518E+04  0.14594799518E+04  0.00000000000E+00 0. -1.
         25    2    1    2    0    0 -0.91505412866E+02  0.23821909660E+02  0.85238490211E+02  0.17841213613E+03  0.12499826456E+03 0.  0.
          2    1    1    2  501    0  0.69158303517E+02 -0.10068632226E+02 -0.14111743108E+04  0.14129038127E+04  0.00000000000E+00 0. -1.
          1    1    1    2  502    0  0.22347109349E+02 -0.13753277434E+02  0.20069506798E+03  0.20240320217E+03  0.00000000000E+00 0. -1.
         22    1    3    3    0    0 -0.82361841724E+02  0.39230904732E+02  0.11308731150E+03  0.14529720190E+03  0.00000000000E+00 0.  1.
         22    1    3    3    0    0 -0.91435711412E+01 -0.15408995072E+02 -0.27848821286E+02  0.33114934235E+02  0.00000000000E+00 0.  1.
</event>
<event>
 7    1  0.6607887E-006  0.9354030E+02  0.7818608E-02  0.1309448E+00
          2   -1    0    0  502    0  0.00000000000E+00  0.00000000000E+00  0.95106372636E+03  0.95106372636E+03  0.00000000000E+00 0. -1.
          1   -1    0    0  501    0 -0.00000000000E+00 -0.00000000000E+00 -0.53172521233E+03  0.53172521233E+03  0.00000000000E+00 0. -1.
         25    2    1    2    0    0  0.14375392250E+03 -0.41560782006E+02  0.13021524294E+03  0.23445981868E+03  0.12499163270E+03 0.  0.
          2    1    1    2  501    0 -0.90389767800E+02 -0.20082678139E+02 -0.47293883800E+03  0.48191780271E+03  0.00000000000E+00 0. -1.
          1    1    1    2  502    0 -0.53364154703E+02  0.61643460145E+02  0.76206210908E+03  0.76641131730E+03  0.00000000000E+00 0. -1.
         22    1    3    3    0    0  0.50132359435E+02  0.14361390897E+02  0.11247257635E+03  0.12397412408E+03  0.00000000000E+00 0. -1.
         22    1    3    3    0    0  0.93621563068E+02 -0.55922172904E+02  0.17742666598E+02  0.11048569460E+03  0.00000000000E+00 0. -1.
</event>
<event>
 7    1  0.6607887E-006  0.7077499E+02  0.7818608E-02  0.1369255E+00
          2   -1    0    0  502    0  0.00000000000E+00  0.00000000000E+00  0.29502495218E+03  0.29502495218E+03  0.00000000000E+00 0. -1.
          1   -1    0    0  501    0 -0.00000000000E+00 -0.00000000000E+00 -0.16233602831E+03  0.16233602831E+03  0.00000000000E+00 0. -1.
         25    2    1    2    0    0  0.32340379541E+02 -0.23719337948E+02  0.14982024051E+03  0.19919609449E+03  0.12499788979E+03 0.  0.
          2    1    1    2  501    0 -0.67506330221E+02 -0.29918596730E+02 -0.11766481587E+03  0.13891449148E+03  0.00000000000E+00 0. -1.
          1    1    1    2  502    0  0.35165950680E+02  0.53637934678E+02  0.10053349924E+03  0.11925039452E+03  0.00000000000E+00 0. -1.
         22    1    3    3    0    0 -0.35872601828E+02  0.21878814816E+02  0.22325342727E+02  0.47580952361E+02  0.00000000000E+00 0. -1.
         22    1    3    3    0    0  0.68212981370E+02 -0.45598152764E+02  0.12749489778E+03  0.15161514213E+03  0.00000000000E+00 0. -1.
</event>
<event>
 7    1  0.6607887E-006  0.1274153E+03  0.7818608E-02  0.1333961E+00
          2   -1    0    0  502    0  0.00000000000E+00  0.00000000000E+00  0.55527542466E+03  0.55527542466E+03  0.00000000000E+00 0. -1.
          1   -1    0    0  501    0 -0.00000000000E+00 -0.00000000000E+00 -0.18948202213E+03  0.18948202213E+03  0.00000000000E+00 0. -1.
         25    2    1    2    0    0 -0.62084821849E+02 -0.80088973768E+02  0.27198964887E+03  0.31602035747E+03  0.12498691297E+03 0.  0.
          2    1    1    2  501    0  0.10927397305E+03  0.70714426161E+02 -0.13934348348E+03  0.19067757509E+03  0.00000000000E+00 0. -1.
          1    1    1    2  502    0 -0.47189151197E+02  0.93745476071E+01  0.23314723714E+03  0.23805951423E+03  0.00000000000E+00 0. -1.
         22    1    3    3    0    0  0.18114233026E+02 -0.73458551071E+02  0.93861697280E+02  0.12055829453E+03  0.00000000000E+00 0.  1.
         22    1    3    3    0    0 -0.80199054875E+02 -0.66304226964E+01  0.17812795159E+03  0.19546206294E+03  0.00000000000E+00 0.  1.
</event>
<event>
 7    1  0.6607887E-006  0.1209300E+03  0.7818608E-02  0.1367611E+00
          2   -1    0    0  502    0  0.00000000000E+00  0.00000000000E+00  0.18859394465E+03  0.18859394465E+03  0.00000000000E+00 0. -1.
          1   -1    0    0  501    0 -0.00000000000E+00 -0.00000000000E+00 -0.45715234735E+03  0.45715234735E+03  0.00000000000E+00 0. -1.
         25    2    1    2    0    0 -0.63475967138E+02  0.12438645488E+03  0.28866909570E+02  0.18963137026E+03  0.12500227821E+03 0.  0.
          2    1    1    2  501    0  0.34693191826E+02 -0.15632480761E+02 -0.33526931961E+03  0.33742185567E+03  0.00000000000E+00 0. -1.
          1    1    1    2  502    0  0.28782775312E+02 -0.10875397412E+03  0.37844007343E+02  0.11869306607E+03  0.00000000000E+00 0. -1.
         22    1    3    3    0    0 -0.85995049010E+02  0.83919097076E+02 -0.20555336526E+02  0.12190194899E+03  0.00000000000E+00 0. -1.
         22    1    3    3    0    0  0.22519081872E+02  0.40467357803E+02  0.49422246097E+02  0.67729421267E+02  0.00000000000E+00 0. -1.
</event>
<event>
 7    1  0.6607887E-006  0.1074018E+03  0.7818608E-02  0.1285883E+00
          2   -1    0    0  502    0  0.00000000000E+00  0.00000000000E+00  0.62312554703E+03  0.62312554703E+03  0.00000000000E+00 0. -1.
          1   -1    0    0  501    0 -0.00000000000E+00 -0.00000000000E+00 -0.78746298516E+03  0.78746298516E+03  0.00000000000E+00 0. -1.
         25    2    1    2    0    0  0.10041670218E+03  0.97763445937E+02  0.12007358167E+03  0.22290051717E+03  0.12500308036E+03 0.  0.
          2    1    1    2  501    0  0.58774983192E+01 -0.88114593357E+02 -0.72703443623E+03  0.73237817964E+03  0.00000000000E+00 0. -1.
          1    1    1    2  502    0 -0.10629420050E+03 -0.96488525800E+01  0.44262341643E+03  0.45530983538E+03  0.00000000000E+00 0. -1.
         22    1    3    3    0    0  0.12557449341E+03  0.74414683030E+02  0.69221867882E+02  0.16154926629E+03  0.00000000000E+00 0. -1.
         22    1    3    3    0    0 -0.25157791231E+02  0.23348762906E+02  0.50851713788E+02  0.61351250876E+02  0.00000000000E+00 0. -1.
</event>
<event>
 7    1  0.6607887E-006  0.7078910E+02  0.7818608E-02  0.1443038E+00
          2   -1    0    0  502    0  0.00000000000E+00  0.00000000000E+00  0.11815489014E+04  0.11815489014E+04  0.00000000000E+00 0. -1.
          1   -1    0    0  501    0 -0.00000000000E+00 -0.00000000000E+00 -0.17130879367E+03  0.17130879367E+03  0.00000000000E+00 0. -1.
         25    2    1    2    0    0 -0.60087710582E+02  0.51897554232E+02  0.33069080053E+03  0.36233355289E+03  0.12500123557E+03 0.  0.
          2    1    1    2  501    0  0.33278223184E+02  0.13535917220E+02 -0.15189121395E+03  0.15608203634E+03  0.00000000000E+00 0. -1.
          1    1    1    2  502    0  0.26809487398E+02 -0.65433471452E+02  0.83144052115E+03  0.83444210585E+03  0.00000000000E+00 0. -1.
         22    1    3    3    0    0  0.35918783559E+02 -0.40764133323E+01  0.98331621884E+02  0.10476585331E+03  0.00000000000E+00 0.  1.
         22    1    3    3    0    0 -0.96006494140E+02  0.55973967564E+02  0.23235917865E+03  0.25756769958E+03  0.00000000000E+00 0.  1.
</event>
<event>
 7    1  0.6607887E-006  0.1276315E+03  0.7818608E-02  0.1269831E+00
          2   -1    0    0  502    0  0.00000000000E+00  0.00000000000E+00  0.33446258427E+04  0.33446258427E+04  0.00000000000E+00 0. -1.
          1   -1    0    0  501    0 -0.00000000000E+00 -0.00000000000E+00 -0.85836135566E+02  0.85836135566E+02  0.00000000000E+00 0. -1.
         25    2    1    2    0    0 -0.43158593492E+02 -0.11697795388E+02  0.11838631005E+04  0.11912834047E+04  0.12499922755E+03 0.  0.
          2    1    1    2  501    0  0.12694276348E+03  0.33692584898E+02 -0.28148322724E+02  0.13432045098E+03  0.00000000000E+00 0. -1.
          1    1    1    2  502    0 -0.83784169991E+02 -0.21994789510E+02  0.21030749294E+04  0.21048581226E+04  0.00000000000E+00 0. -1.
         22    1    3    3    0    0 -0.49347442334E+02 -0.27767489671E+02  0.21696759743E+03  0.22423456888E+03  0.00000000000E+00 0.  1.
         22    1    3    3    0    0  0.61888488413E+01  0.16069694282E+02  0.96689550309E+03  0.96704883580E+03  0.00000000000E+00 0.  1.
</event>
<event>
 7    1  0.6607887E-006  0.1924152E+03  0.7818608E-02  0.1296863E+00
          2   -1    0    0  502    0  0.00000000000E+00  0.00000000000E+00  0.17713523762E+03  0.17713523762E+03  0.00000000000E+00 0. -1.
          1   -1    0    0  501    0 -0.00000000000E+00 -0.00000000000E+00 -0.88675590932E+03  0.88675590932E+03  0.00000000000E+00 0. -1.
         25    2    1    2    0    0  0.11279651552E+02 -0.16565263178E+03 -0.28426770706E+03  0.35213542688E+03  0.12499281832E+03 0.  0.
          2    1    1    2  501    0 -0.32063937816E+02  0.20498518129E+03 -0.54550693244E+03  0.58363073428E+03  0.00000000000E+00 0. -1.
          1    1    1    2  502    0  0.20784286265E+02 -0.39332549506E+02  0.12015396780E+03  0.12812498579E+03  0.00000000000E+00 0. -1.
         22    1    3    3    0    0  0.37843831241E+02 -0.17465141926E+02 -0.13026549057E+03  0.13677092081E+03  0.00000000000E+00 0.  1.
         22    1    3    3    0    0 -0.26564179690E+02 -0.14818748985E+03 -0.15400221649E+03  0.21536450607E+03  0.00000000000E+00 0.  1.
</event>
<event>
 7    1  0.6607887E-006  0.7065212E+02  0.7818608E-02  0.1475684E+00
          2   -1    0    0  502    0  0.00000000000E+00  0.00000000000E+00  0.10473420225E+04  0.10473420225E+04  0.00000000000E+00 0. -1.
          1   -1    0    0  501    0 -0.00000000000E+00 -0.00000000000E+00 -0.41398231224E+02  0.41398231224E+02  0.00000000000E+00 0. -1.
         25    2    1    2    0    0 -0.57500276162E+02 -0.60179593578E+02  0.35272910018E+03  0.38336754200E+03  0.12499995563E+03 0.  0.
          2    1    1    2  501    0  0.28230264623E+02 -0.30002389464E+01 -0.15971544560E+02  0.32573601429E+02  0.00000000000E+00 0. -1.
          1    1    1    2  502    0  0.29270011539E+02  0.63179832525E+02  0.66918623565E+03  0.67279911028E+03  0.00000000000E+00 0. -1.
         22    1    3    3    0    0  0.72620323118E+01  0.36179901622E+01 -0.79794298206E+01  0.11379730505E+02  0.00000000000E+00 0.  1.
         22    1    3    3    0    0 -0.64762308474E+02 -0.63797583741E+02  0.36070853000E+03  0.37198781150E+03  0.00000000000E+00 0.  1.
</event>
<event>
 7    1  0.6607887E-006  0.6095008E+02  0.7818608E-02  0.1436697E+00
          2   -1    0    0  502    0  0.00000000000E+00  0.00000000000E+00  0.32597442690E+04  0.32597442690E+04  0.00000000000E+00 0. -1.
          1   -1    0    0  501    0 -0.00000000000E+00 -0.00000000000E+00 -0.29717323179E+03  0.29717323179E+03  0.00000000000E+00 0. -1.
         25    2    1    2    0    0 -0.22092559536E+02 -0.39596764341E+01  0.55021150633E+03  0.56467823812E+03  0.12500020274E+03 0.  0.
          2    1    1    2  501    0 -0.38774820687E+02  0.20263372066E+02 -0.28791978574E+03  0.29122481691E+03  0.00000000000E+00 0. -1.
          1    1    1    2  502    0  0.60867380223E+02 -0.16303695632E+02  0.27002793167E+04  0.27010144458E+04  0.00000000000E+00 0. -1.
         22    1    3    3    0    0 -0.21604618955E+02  0.10418040703E+02  0.54976225778E+03  0.55028523078E+03  0.00000000000E+00 0.  1.
         22    1    3    3    0    0 -0.48794058059E+00 -0.14377717137E+02  0.44924854739E+00  0.14393007342E+02  0.00000000000E+00 0.  1.
</event>
<event>
 7    1  0.6607887E-006  0.4767228E+02  0.7818608E-02  0.1483255E+00
          2   -1    0    0  502    0  0.00000000000E+00  0.00000000000E+00  0.21201273975E+04  0.21201273975E+04  0.00000000000E+00 0. -1.
          1   -1    0    0  501    0 -0.00000000000E+00 -0.00000000000E+00 -0.27029039301E+02  0.27029039301E+02  0.00000000000E+00 0. -1.
         25    2    1    2    0    0  0.17829396833E+02 -0.25417193017E+02  0.77161659688E+03  0.78229157041E+03  0.12499602978E+03 0.  0.
          2    1    1    2  501    0  0.32321850411E+02  0.23362747018E+02 -0.24740055687E+01  0.39957986258E+02  0.00000000000E+00 0. -1.
          1    1    1    2  502    0 -0.50151247244E+02  0.20544459989E+01  0.13239557669E+04  0.13249068802E+04  0.00000000000E+00 0. -1.
         22    1    3    3    0    0 -0.13682142960E+02  0.81283399096E+01  0.89914363659E+01  0.18278864122E+02  0.00000000000E+00 0.  1.
         22    1    3    3    0    0  0.31511539794E+02 -0.33545532927E+02  0.76262516052E+03  0.76401270629E+03  0.00000000000E+00 0.  1.
</event>
<event>
 7    1  0.6607887E-006  0.7685647E+02  0.7818608E-02  0.1347242E+00
          2   -1    0    0  502    0  0.00000000000E+00  0.00000000000E+00  0.91459568832E+03  0.91459568832E+03  0.00000000000E+00 0. -1.
          1   -1    0    0  501    0 -0.00000000000E+00 -0.00000000000E+00 -0.62897129802E+03  0.62897129802E+03  0.00000000000E+00 0. -1.
         25    2    1    2    0    0 -0.22811608625E+02  0.43271442663E+02  0.29042493701E+03  0.31994408192E+03  0.12499913712E+03 0.  0.
          2    1    1    2  501    0  0.62546256356E+02  0.33809928377E+02 -0.60904812280E+03  0.61318411699E+03  0.00000000000E+00 0. -1.
          1    1    1    2  502    0 -0.39734647731E+02 -0.77081371040E+02  0.60424757608E+03  0.61043878742E+03  0.00000000000E+00 0. -1.
         22    1    3    3    0    0 -0.21955304808E+02 -0.20564449552E+02  0.23026965677E+03  0.23222628366E+03  0.00000000000E+00 0.  1.
         22    1    3    3    0    0 -0.85630381627E+00  0.63835892215E+02  0.60155280248E+02  0.87717798267E+02  0.00000000000E+00 0.  1.
</event>
<event>
 7    1  0.6607887E-006  0.8296747E+02  0.7818608E-02  0.1489289E+00
          2   -1    0    0  502    0  0.00000000000E+00  0.00000000000E+00  0.87321076394E+03  0.87321076394E+03  0.00000000000E+00 0. -1.
          1   -1    0    0  501    0 -0.00000000000E+00 -0.00000000000E+00 -0.20434694070E+03  0.20434694070E+03  0.00000000000E+00 0. -1.
         25    2    1    2    0    0  0.28095227917E+02  0.63764095421E+02  0.39484670559E+03  0.41998145371E+03  0.12500119539E+03 0.  0.
          2    1    1    2  501    0 -0.15596076169E+02 -0.81828837009E+02 -0.18245715803E+03  0.20057370384E+03  0.00000000000E+00 0. -1.
          1    1    1    2  502    0 -0.12499151748E+02  0.18064741588E+02  0.45647427569E+03  0.45700254709E+03  0.00000000000E+00 0. -1.
         22    1    3    3    0    0 -0.12728746752E+02  0.39243251891E+02  0.27546936581E+02  0.49607333408E+02  0.00000000000E+00 0.  1.
         22    1    3    3    0    0  0.40823974669E+02  0.24520843530E+02  0.36729976901E+03  0.37037412030E+03  0.00000000000E+00 0.  1.
</event>
<event>
 7    1  0.6607887E-006  0.7648962E+02  0.7818608E-02  0.1372428E+00
          2   -1    0    0  502    0  0.00000000000E+00  0.00000000000E+00  0.10796022064E+04  0.10796022064E+04  0.00000000000E+00 0. -1.
          1   -1    0    0  501    0 -0.00000000000E+00 -0.00000000000E+00 -0.43539039939E+02  0.43539039939E+02  0.00000000000E+00 0. -1.
         25    2    1    2    0    0  0.96557685955E+02 -0.63589890270E+01  0.39784893692E+03  0.42810402738E+03  0.12500183277E+03 0.  0.
          2    1    1    2  501    0 -0.32835467327E+02  0.47579089899E+02  0.58158251892E+01  0.58101304054E+02  0.00000000000E+00 0. -1.
          1    1    1    2  502    0 -0.63722218628E+02 -0.41220100872E+02  0.63239840435E+03  0.63693591490E+03  0.00000000000E+00 0. -1.
         22    1    3    3    0    0  0.11938747685E+02 -0.57649664798E+02  0.16037908444E+03  0.17084340278E+03  0.00000000000E+00 0.  1.
         22    1    3    3    0    0  0.84618938270E+02  0.51290675771E+02  0.23746985248E+03  0.25726062460E+03  0.00000000000E+00 0.  1.
</event>
<event>
 7    1  0.6607887E-006  0.1778580E+03  0.7818608E-02  0.1364819E+00
          2   -1    0    0  502    0  0.00000000000E+00  0.00000000000E+00  0.91567210861E+03  0.91567210861E+03  0.00000000000E+00 0. -1.
          1   -1    0    0  501    0 -0.00000000000E+00 -0.00000000000E+00 -0.15386761111E+04  0.15386761111E+04  0.00000000000E+00 0. -1.
         25    2    1    2    0    0  0.30067922981E+02  0.15239001768E+03  0.23764558350E+02  0.20078346354E+03  0.12498978965E+03 0.  0.
          2    1    1    2  501    0  0.13649329909E+02  0.22692511957E+02 -0.14399098326E+04  0.14401533183E+04  0.00000000000E+00 0. -1.
          1    1    1    2  502    0 -0.43717252891E+02 -0.17508252963E+03  0.79314127171E+03  0.81341143788E+03  0.00000000000E+00 0. -1.
         22    1    3    3    0    0  0.46682314888E+02  0.35767315969E+02 -0.35729284687E+02  0.68812216932E+02  0.00000000000E+00 0.  1.
         22    1    3    3    0    0 -0.16614391907E+02  0.11662270171E+03  0.59493843036E+02  0.13197124661E+03  0.00000000000E+00 0.  1.
</event>
<event>
 7    1  0.6607887E-006  0.4544688E+03  0.7818608E-02  0.1174409E+00
          2   -1    0    0  502    0  0.00000000000E+00  0.00000000000E+00  0.16225942762E+04  0.16225942762E+04  0.00000000000E+00 0. -1.
          1   -1    0    0  501    0 -0.00000000000E+00 -0.00000000000E+00 -0.59975666559E+03  0.59975666559E+03  0.00000000000E+00 0. -1.
         25    2    1    2    0    0 -0.47860149806E+03 -0.14874332632E+03 -0.54158764062E+02  0.51936655466E+03  0.12499790120E+03 0.  0.
          2    1    1    2  501    0  0.40312738899E+02  0.52401946635E+02 -0.27272164825E+03  0.28062105829E+03  0.00000000000E+00 0. -1.
          1    1    1    2  502    0  0.43828875916E+03  0.96341379688E+02  0.13497180229E+04  0.14223633288E+04  0.00000000000E+00 0. -1.
         22    1    3    3    0    0 -0.48313490789E+03 -0.14210685518E+03 -0.62874872962E+02  0.50751053896E+03  0.00000000000E+00 0. -1.
         22    1    3    3    0    0  0.45334098263E+01 -0.66364711439E+01  0.87161089004E+01  0.11856015699E+02  0.00000000000E+00 0. -1.
</event>
<event>
 7    1  0.6607887E-006  0.4730230E+02  0.7818608E-02  0.1587014E+00
          2   -1    0    0  502    0  0.00000000000E+00  0.00000000000E+00  0.24019621592E+03  0.24019621592E+03  0.00000000000E+00 0. -1.
          1   -1    0    0  501    0 -0.00000000000E+00 -0.00000000000E+00 -0.87030485345E+03  0.87030485345E+03  0.00000000000E+00 0. -1.
         25    2    1    2    0    0  0.20303461858E+02  0.58671065793E+02  0.19799787945E+02  0.14096665054E+03  0.12500016175E+03 0.  0.
          2    1    1    2  501    0 -0.26260352784E+02 -0.39211902202E+02 -0.80838257315E+03  0.80975895425E+03  0.00000000000E+00 0. -1.
          1    1    1    2  502    0  0.59568909255E+01 -0.19459163591E+02  0.15847414768E+03  0.15977546458E+03  0.00000000000E+00 0. -1.
         22    1    3    3    0    0  0.11259968095E+02 -0.35078382006E+02 -0.16055712575E+02  0.40187879665E+02  0.00000000000E+00 0. -1.
         22    1    3    3    0    0  0.90434937634E+01  0.93749447798E+02  0.35855500520E+02  0.10077877088E+03  0.00000000000E+00 0. -1.
</event>
<event>
 7    1  0.6607887E-006  0.5172991E+02  0.7818608E-02  0.1568175E+00
          2   -1    0    0  502    0  0.00000000000E+00  0.00000000000E+00  0.72115614934E+03  0.72115614934E+03  0.00000000000E+00 0. -1.
          1   -1    0    0  501    0 -0.00000000000E+00 -0.00000000000E+00 -0.46927255426E+02  0.46927255426E+02  0.00000000000E+00 0. -1.
         25    2    1    2    0    0  0.22426822076E+02 -0.56140359761E+02  0.30267906834E+03  0.33300765450E+03  0.12499910881E+03 0.  0.
          2    1    1    2  501    0 -0.33857345101E+02  0.38628808894E+02 -0.10521237265E+02  0.52432824904E+02  0.00000000000E+00 0. -1.
          1    1    1    2  502    0  0.11430523025E+02  0.17511550868E+02  0.38207106283E+03  0.38264292536E+03  0.00000000000E+00 0. -1.
         22    1    3    3    0    0  0.73860734380E+02 -0.30577411280E+02  0.19948803195E+03  0.21490895992E+03  0.00000000000E+00 0. -1.
         22    1    3    3    0    0 -0.51433912304E+02 -0.25562948481E+02  0.10319103639E+03  0.11809869458E+03  0.00000000000E+00 0. -1.
</event>
<event>
 7    1  0.6607887E-006  0.5160281E+02  0.7818608E-02  0.1478445E+00
          2   -1    0    0  502    0  0.00000000000E+00  0.00000000000E+00  0.20008172614E+03  0.20008172614E+03  0.00000000000E+00 0. -1.
          1   -1    0    0  501    0 -0.00000000000E+00 -0.00000000000E+00 -0.10121184536E+03  0.10121184536E+03  0.00000000000E+00 0. -1.
         25    2    1    2    0    0 -0.59312588550E+02  0.12738099614E+02  0.30638547272E+02  0.14228177140E+03  0.12500055821E+03 0.  0.
          2    1    1    2  501    0  0.12838107478E+02 -0.35888178852E+02 -0.29598167813E+02  0.48257951913E+02  0.00000000000E+00 0. -1.
          1    1    1    2  502    0  0.46474481072E+02  0.23150079237E+02  0.97829501315E+02  0.11075384818E+03  0.00000000000E+00 0. -1.
         22    1    3    3    0    0 -0.38187856987E+02  0.44037011151E+02  0.67725021052E+02  0.89354626343E+02  0.00000000000E+00 0.  1.
         22    1    3    3    0    0 -0.21124731563E+02 -0.31298911537E+02 -0.37086473780E+02  0.52927145062E+02  0.00000000000E+00 0.  1.
</event>
<event>
 7    1  0.6607887E-006  0.3625664E+02  0.7818608E-02  0.1564639E+00
          2   -1    0    0  502    0  0.00000000000E+00  0.00000000000E+00  0.29333932524E+02  0.29333932524E+02  0.00000000000E+00 0. -1.
          1   -1    0    0  501    0 -0.00000000000E+00 -0.00000000000E+00 -0.21913093363E+04  0.21913093363E+04  0.00000000000E+00 0. -1.
         25    2    1    2    0    0 -0.45819118288E+02 -0.47122773058E+02 -0.77149632868E+03  0.78431559719E+03  0.12499769394E+03 0.  0.
          2    1    1    2  501    0  0.23970477549E+02  0.25831547370E+02 -0.14029337108E+04  0.14033762324E+04  0.00000000000E+00 0. -1.
          1    1    1    2  502    0  0.21848640739E+02  0.21291225688E+02  0.12454635776E+02  0.32951439206E+02  0.00000000000E+00 0. -1.
         22    1    3    3    0    0 -0.42604551826E+02  0.21434091298E+02 -0.55855051184E+03  0.56058294870E+03  0.00000000000E+00 0.  1.
         22    1    3    3    0    0 -0.32145664614E+01 -0.68556864356E+02 -0.21294581684E+03  0.22373264848E+03  0.00000000000E+00 0.  1.
</event>
<event>
 7    1  0.6607887E-006  0.1172911E+03  0.7818608E-02  0.1384524E+00
          2   -1    0    0  502    0  0.00000000000E+00  0.00000000000E+00  0.19723877928E+03  0.19723877928E+03  0.00000000000E+00 0. -1.
          1   -1    0    0  501    0 -0.00000000000E+00 -0.00000000000E+00 -0.53841563039E+03  0.53841563039E+03  0.00000000000E+00 0. -1.
         25    2    1    2    0    0 -0.14194882314E+03  0.46159254886E+02  0.30783193641E+02  0.19711128363E+03  0.12500043168E+03 0.  0.
          2    1    1    2  501    0  0.11031694261E+03 -0.33287536129E+02 -0.44405855270E+03  0.45876561130E+03  0.00000000000E+00 0. -1.
          1    1    1    2  502    0  0.31631880527E+02 -0.12871718757E+02  0.72098507950E+02  0.79777514740E+02  0.00000000000E+00 0. -1.
         22    1    3    3    0    0 -0.71342765519E+02  0.38941522503E+02  0.77368236274E+02  0.11221442131E+03  0.00000000000E+00 0. -1.
         22    1    3    3    0    0 -0.70606057620E+02  0.72177323832E+01 -0.46585042633E+02  0.84896862313E+02  0.00000000000E+00 0. -1.
</event>
<event>
 7    1  0.6607887E-006  0.1024543E+03  0.7818608E-02  0.1295311E+00
          2   -1    0    0  502    0  0.00000000000E+00  0.00000000000E+00  0.25304829274E+04  0.25304829274E+04  0.00000000000E+00 0. -1.
          1   -1    0    0  501    0 -0.00000000000E+00 -0.00000000000E+00 -0.20009019080E+03  0.20009019080E+03  0.00000000000E+00 0. -1.
         25    2    1    2    0    0  0.68308434534E+02 -0.33741854626E+02  0.75640487152E+03  0.77043958519E+03  0.12499707911E+03 0.  0.
          2    1    1    2  501    0 -0.17959645184E+02  0.10192590184E+03 -0.17810469074E+03  0.20599203670E+03  0.00000000000E+00 0. -1.
          1    1    1    2  502    0 -0.50348789350E+02 -0.68184047218E+02  0.17520925558E+04  0.17541414963E+04  0.00000000000E+00 0. -1.
         22    1    3    3    0    0 -0.30057064976E+02  0.16369801728E+02  0.13284667493E+03  0.13718468064E+03  0.00000000000E+00 0.  1.
         22    1    3    3    0    0  0.98365499510E+02 -0.50111656355E+02  0.62355819659E+03  0.63325490455E+03  0.00000000000E+00 0.  1.
</event>
<event>
 7    1  0.6607887E-006  0.7446340E+02  0.7818608E-02  0.1513204E+00
          2   -1    0    0  502    0  0.00000000000E+00  0.00000000000E+00  0.99541385822E+02  0.99541385822E+02  0.00000000000E+00 0. -1.
          1   -1    0    0  501    0 -0.00000000000E+00 -0.00000000000E+00 -0.23177865528E+03  0.23177865528E+03  0.00000000000E+00 0. -1.
         25    2    1    2    0    0 -0.58241914780E+02 -0.27007541745E+02 -0.12719740385E+03  0.18954086267E+03  0.12500012451E+03 0.  0.
          2    1    1    2  501    0 -0.10286195334E+01 -0.20747274972E+02 -0.49463759046E+02  0.53648587454E+02  0.00000000000E+00 0. -1.
          1    1    1    2  502    0  0.59270534313E+02  0.47754816718E+02  0.44423893436E+02  0.88130590975E+02  0.00000000000E+00 0. -1.
         22    1    3    3    0    0 -0.40797680346E+02 -0.31891771584E+02  0.86412921195E+01  0.52499597579E+02  0.00000000000E+00 0. -1.
         22    1    3    3    0    0 -0.17444234434E+02  0.48842298390E+01 -0.13583869597E+03  0.13704126509E+03  0.00000000000E+00 0. -1.
</event>
<event>
 7    1  0.6607887E-006  0.2715558E+03  0.7818608E-02  0.1195940E+00
          2   -1    0    0  502    0  0.00000000000E+00  0.00000000000E+00  0.34698667097E+03  0.34698667097E+03  0.00000000000E+00 0. -1.
          1   -1    0    0  501    0 -0.00000000000E+00 -0.00000000000E+00 -0.16718806431E+04  0.16718806431E+04  0.00000000000E+00 0. -1.
         25    2    1    2    0    0 -0.27185943603E+03 -0.58716213177E+02 -0.92010744231E+03  0.96931849094E+03  0.12500193935E+03 0.  0.
          2    1    1    2  501    0  0.23449009417E+03  0.13733631273E+03 -0.69517086983E+03  0.74639761878E+03  0.00000000000E+00 0. -1.
          1    1    1    2  502    0  0.37369341861E+02 -0.78620099553E+02  0.29038434002E+03  0.30315120434E+03  0.00000000000E+00 0. -1.
         22    1    3    3    0    0 -0.83728009778E+02  0.28508540009E+02 -0.17772003271E+03  0.19851329049E+03  0.00000000000E+00 0. -1.
         22    1    3    3    0    0 -0.18813142625E+03 -0.87224753187E+02 -0.74238740960E+03  0.77080520045E+03  0.00000000000E+00 0. -1.
</event>
<event>
 7    1  0.6607887E-006  0.6055060E+02  0.7818608E-02  0.1450161E+00
          2   -1    0    0  502    0  0.00000000000E+00  0.00000000000E+00  0.14169903458E+03  0.14169903458E+03  0.00000000000E+00 0. -1.
          1   -1    0    0  501    0 -0.00000000000E+00 -0.00000000000E+00 -0.14094449765E+04  0.14094449765E+04  0.00000000000E+00 0. -1.
         25    2    1    2    0    0  0.23296023994E+02  0.53584330005E+02 -0.86279922042E+03  0.87376244828E+03  0.12499734438E+03 0.  0.
          2    1    1    2  501    0  0.30531887235E+02 -0.25598126235E+02 -0.53362929352E+03  0.53511464482E+03  0.00000000000E+00 0. -1.
          1    1    1    2  502    0 -0.53827911229E+02 -0.27986203770E+02  0.12868257199E+03  0.14226691802E+03  0.00000000000E+00 0. -1.
         22    1    3    3    0    0 -0.44048856362E+02 -0.65974852608E+01 -0.37869130138E+03  0.38130162641E+03  0.00000000000E+00 0. -1.
         22    1    3    3    0    0  0.67344880357E+02  0.60181815266E+02 -0.48410791904E+03  0.49246082187E+03  0.00000000000E+00 0. -1.
</event>
<event>
 7    1  0.1525559E-005  0.5330025E+02  0.7818608E-02  0.1492426E+00
          2   -1    0    0  502    0  0.00000000000E+00  0.00000000000E+00  0.31738250902E+04  0.31738250902E+04  0.00000000000E+00 0. -1.
          1   -1    0    0  501    0 -0.00000000000E+00 -0.00000000000E+00 -0.80401960093E+03  0.80401960093E+03  0.00000000000E+00 0. -1.
         25    2    1    2    0    0  0.72993901582E+02 -0.12919233139E+02 -0.22184285155E+03  0.26520635266E+03  0.12500056982E+03 0.  0.
          2    1    1    2  501    0 -0.28854329276E+02 -0.16933652233E+02 -0.55977030326E+03  0.56076921573E+03  0.00000000000E+00 0. -1.
          1    1    1    2  502    0 -0.44139572307E+02  0.29852885372E+02  0.31514186441E+04  0.31518691227E+04  0.00000000000E+00 0. -1.
         22    1    3    3    0    0  0.69926803630E+02  0.26596888084E+02 -0.52776038925E+02  0.91555789584E+02  0.00000000000E+00 0.  1.
         22    1    3    3    0    0  0.30670979521E+01 -0.39516121223E+02 -0.16906681262E+03  0.17365056308E+03  0.00000000000E+00 0.  1.
</event>
<event>
 7    1  0.6607887E-006  0.1565445E+03  0.7818608E-02  0.1354312E+00
          2   -1    0    0  502    0  0.00000000000E+00  0.00000000000E+00  0.13592967239E+04  0.13592967239E+04  0.00000000000E+00 0. -1.
          1   -1    0    0  501    0 -0.00000000000E+00 -0.00000000000E+00 -0.60358559722E+03  0.60358559722E+03  0.00000000000E+00 0. -1.
         25    2    1    2    0    0 -0.29088858400E+02  0.13236828222E+03 -0.36020902432E+02  0.18787207097E+03  0.12502354105E+03 0.  0.
          2    1    1    2  501    0 -0.29867471774E+02  0.13714755857E+02 -0.48624813508E+03  0.48735757845E+03  0.00000000000E+00 0. -1.
          1    1    1    2  502    0  0.58956330175E+02 -0.14608303808E+03  0.12779801642E+04  0.12876526717E+04  0.00000000000E+00 0. -1.
         22    1    3    3    0    0 -0.44920583374E+02  0.13596968347E+03  0.54857450438E+01  0.14330285075E+03  0.00000000000E+00 0.  1.
         22    1    3    3    0    0  0.15831724973E+02 -0.36014012495E+01 -0.41506647475E+02  0.44569220222E+02  0.00000000000E+00 0.  1.
</event>
<event>
 7    1  0.6607887E-006  0.8362016E+02  0.7818608E-02  0.1452072E+00
          2   -1    0    0  502    0  0.00000000000E+00  0.00000000000E+00  0.16320834759E+04  0.16320834759E+04  0.00000000000E+00 0. -1.
          1   -1    0    0  501    0 -0.00000000000E+00 -0.00000000000E+00 -0.43735471472E+03  0.43735471472E+03  0.00000000000E+00 0. -1.
         25    2    1    2    0    0 -0.89282159879E+02  0.56722666612E+02  0.13134502623E+03  0.20991653664E+03  0.12499868583E+03 0.  0.
          2    1    1    2  501    0  0.77094991546E+02 -0.31017112657E+02 -0.39359159333E+03  0.40226861838E+03  0.00000000000E+00 0. -1.
          1    1    1    2  502    0  0.12187168333E+02 -0.25705553954E+02  0.14569753282E+04  0.14572530356E+04  0.00000000000E+00 0. -1.
         22    1    3    3    0    0 -0.46868863950E+02  0.95284906636E+02  0.79854537356E+02  0.13286327926E+03  0.00000000000E+00 0.  1.
         22    1    3    3    0    0 -0.42413295929E+02 -0.38562240024E+02  0.51490488875E+02  0.77053257373E+02  0.00000000000E+00 0.  1.
</event>
<event>
 7    1  0.6607887E-006  0.2083795E+03  0.7818608E-02  0.1244953E+00
          2   -1    0    0  502    0  0.00000000000E+00  0.00000000000E+00  0.53673769819E+03  0.53673769819E+03  0.00000000000E+00 0. -1.
          1   -1    0    0  501    0 -0.00000000000E+00 -0.00000000000E+00 -0.33706915157E+03  0.33706915157E+03  0.00000000000E+00 0. -1.
         25    2    1    2    0    0 -0.87531039211E+02  0.15138228690E+03 -0.41480433422E+02  0.21891272069E+03  0.12499549317E+03 0.  0.
          2    1    1    2  501    0 -0.67818672518E+02 -0.78145076398E+00 -0.17399709339E+03  0.18674841771E+03  0.00000000000E+00 0. -1.
          1    1    1    2  502    0  0.15534971173E+03 -0.15060083613E+03  0.41514607343E+03  0.46814571136E+03  0.00000000000E+00 0. -1.
         22    1    3    3    0    0  0.28751224292E+02  0.47014495378E+02 -0.28715895466E+02  0.62141759923E+02  0.00000000000E+00 0.  1.
         22    1    3    3    0    0 -0.11628226350E+03  0.10436779152E+03 -0.12764537956E+02  0.15677096077E+03  0.00000000000E+00 0.  1.
</event>
<event>
 7    1  0.6607887E-006  0.4434739E+02  0.7818608E-02  0.1560704E+00
          2   -1    0    0  502    0  0.00000000000E+00  0.00000000000E+00  0.83641432188E+03  0.83641432188E+03  0.00000000000E+00 0. -1.
          1   -1    0    0  501    0 -0.00000000000E+00 -0.00000000000E+00 -0.11616616303E+03  0.11616616303E+03  0.00000000000E+00 0. -1.
         25    2    1    2    0    0 -0.45212886514E+01  0.61860936463E+02  0.86004106501E+02  0.16391738345E+03  0.12499993901E+03 0.  0.
          2    1    1    2  501    0  0.16601318387E+02 -0.19446562330E+02 -0.74388199245E+02  0.78659880152E+02  0.00000000000E+00 0. -1.
          1    1    1    2  502    0 -0.12080029736E+02 -0.42414374133E+02  0.70863225160E+03  0.71000322130E+03  0.00000000000E+00 0. -1.
         22    1    3    3    0    0  0.46492503551E+02  0.32802258055E+02  0.88433982186E+02  0.10515754954E+03  0.00000000000E+00 0. -1.
         22    1    3    3    0    0 -0.51013792203E+02  0.29058678408E+02 -0.24298756852E+01  0.58759833914E+02  0.00000000000E+00 0. -1.
</event>
<event>
 7    1  0.6607887E-006  0.2620158E+03  0.7818608E-02  0.1256750E+00
          2   -1    0    0  502    0  0.00000000000E+00  0.00000000000E+00  0.51567055674E+03  0.51567055674E+03  0.00000000000E+00 0. -1.
          1   -1    0    0  501    0 -0.00000000000E+00 -0.00000000000E+00 -0.60101600103E+03  0.60101600103E+03  0.00000000000E+00 0. -1.
         25    2    1    2    0    0 -0.25343207564E+03 -0.98320759198E+02  0.65675920665E+02  0.30633119649E+03  0.12502274487E+03 0.  0.
          2    1    1    2  501    0  0.22294589148E+03  0.13533260624E+03 -0.44321351728E+03  0.51425480721E+03  0.00000000000E+00 0. -1.
          1    1    1    2  502    0  0.30486184161E+02 -0.37011847047E+02  0.29219215232E+03  0.29610055408E+03  0.00000000000E+00 0. -1.
         22    1    3    3    0    0 -0.20655008824E+03 -0.10767408701E+03  0.93524972179E+02  0.25100511625E+03  0.00000000000E+00 0. -1.
         22    1    3    3    0    0 -0.46881987406E+02  0.93533278101E+01 -0.27849051514E+02  0.55326080238E+02  0.00000000000E+00 0. -1.
</event>
<event>
 7    1  0.6607887E-006  0.6695870E+02  0.7818608E-02  0.1433078E+00
          2   -1    0    0  502    0  0.00000000000E+00  0.00000000000E+00  0.10267609077E+04  0.10267609077E+04  0.00000000000E+00 0. -1.
          1   -1    0    0  501    0 -0.00000000000E+00 -0.00000000000E+00 -0.32670077993E+03  0.32670077993E+03  0.00000000000E+00 0. -1.
         25    2    1    2    0    0  0.19778356393E+02  0.24986200904E+02  0.51420475046E+03  0.53013901752E+03  0.12500143554E+03 0.  0.
          2    1    1    2  501    0 -0.60468112489E+02 -0.29359736369E+02 -0.31434465459E+03  0.32145131609E+03  0.00000000000E+00 0. -1.
          1    1    1    2  502    0  0.40689756096E+02  0.43735354652E+01  0.50020003194E+03  0.50187135406E+03  0.00000000000E+00 0. -1.
         22    1    3    3    0    0  0.38835006068E+02  0.21163975580E+02  0.50773012649E+03  0.50965277680E+03  0.00000000000E+00 0.  1.
         22    1    3    3    0    0 -0.19056649675E+02  0.38222253236E+01  0.64746239723E+01  0.20486240720E+02  0.00000000000E+00 0.  1.
</event>
<event>
 7    1  0.6607887E-006  0.9029668E+02  0.7818608E-02  0.1370472E+00
          2   -1    0    0  502    0  0.00000000000E+00  0.00000000000E+00  0.91165969638E+03  0.91165969638E+03  0.00000000000E+00 0. -1.
          1   -1    0    0  501    0 -0.00000000000E+00 -0.00000000000E+00 -0.94882860721E+03  0.94882860721E+03  0.00000000000E+00 0. -1.
         25    2    1    2    0    0 -0.72420659518E+02  0.71542778831E+02  0.52537233366E+03  0.54954911464E+03  0.12500007720E+03 0.  0.
          2    1    1    2  501    0 -0.13485204357E+02 -0.47905567543E+02 -0.93076230704E+03  0.93209187656E+03  0.00000000000E+00 0. -1.
          1    1    1    2  502    0  0.85905863875E+02 -0.23637211288E+02  0.36822106255E+03  0.37884731240E+03  0.00000000000E+00 0. -1.
         22    1    3    3    0    0 -0.49117864366E+02  0.92718145491E+02  0.49429530231E+03  0.50530888077E+03  0.00000000000E+00 0.  1.
         22    1    3    3    0    0 -0.23302795152E+02 -0.21175366659E+02  0.31077031347E+02  0.44240233865E+02  0.00000000000E+00 0.  1.
</event>
<event>
 7    1  0.6607887E-006  0.1113264E+03  0.7818608E-02  0.1267832E+00
          2   -1    0    0  502    0  0.00000000000E+00  0.00000000000E+00  0.18196797959E+04  0.18196797959E+04  0.00000000000E+00 0. -1.
          1   -1    0    0  501    0 -0.00000000000E+00 -0.00000000000E+00 -0.23261333594E+03  0.23261333594E+03  0.00000000000E+00 0. -1.
         25    2    1    2    0    0  0.29124934284E+02 -0.12928646338E+03  0.54079488505E+03  0.57065541296E+03  0.12500096492E+03 0.  0.
          2    1    1    2  501    0  0.64720374190E+02  0.91273019569E+02 -0.20111686305E+03  0.23014665659E+03  0.00000000000E+00 0. -1.
          1    1    1    2  502    0 -0.93845308474E+02  0.38013443816E+02  0.12473884380E+04  0.12514910623E+04  0.00000000000E+00 0. -1.
         22    1    3    3    0    0 -0.45472682992E+02 -0.73759706746E+02  0.30848935781E+03  0.32042775024E+03  0.00000000000E+00 0.  1.
         22    1    3    3    0    0  0.74597617276E+02 -0.55526756639E+02  0.23230552724E+03  0.25022766272E+03  0.00000000000E+00 0.  1.
</event>
<event>
 7    1  0.6607887E-006  0.1820158E+03  0.7818608E-02  0.1211341E+00
          2   -1    0    0  502    0  0.00000000000E+00  0.00000000000E+00  0.84966403901E+03  0.84966403901E+03  0.00000000000E+00 0. -1.
          1   -1    0    0  501    0 -0.00000000000E+00 -0.00000000000E+00 -0.37287528431E+03  0.37287528431E+03  0.00000000000E+00 0. -1.
         25    2    1    2    0    0 -0.13049029663E+03 -0.95845750129E+02  0.23260893361E+03  0.30975197789E+03  0.12500098589E+03 0.  0.
          2    1    1    2  501    0  0.57154722595E+02  0.17781190188E+03 -0.30230335812E+03  0.35534638748E+03  0.00000000000E+00 0. -1.
          1    1    1    2  502    0  0.73335574035E+02 -0.81966151754E+02  0.54648317920E+03  0.55744095795E+03  0.00000000000E+00 0. -1.
         22    1    3    3    0    0 -0.23672716526E+02  0.29204373177E+02  0.26142375946E+02  0.45789919638E+02  0.00000000000E+00 0.  1.
         22    1    3    3    0    0 -0.10681758010E+03 -0.12505012331E+03  0.20646655767E+03  0.26396205825E+03  0.00000000000E+00 0.  1.
</event>
<event>
 7    1  0.6607887E-006  0.1300846E+03  0.7818608E-02  0.1293922E+00
          2   -1    0    0  502    0  0.00000000000E+00  0.00000000000E+00  0.10972972895E+04  0.10972972895E+04  0.00000000000E+00 0. -1.
          1   -1    0    0  501    0 -0.00000000000E+00 -0.00000000000E+00 -0.66649937507E+02  0.66649937507E+02  0.00000000000E+00 0. -1.
         25    2    1    2    0    0 -0.11058754082E+03  0.64537706651E+02  0.48142420491E+03  0.51360495896E+03  0.12500427604E+03 0.  0.
          2    1    1    2  501    0  0.41344170479E+02  0.53512487757E+02 -0.15412008133E+02  0.69357456507E+02  0.00000000000E+00 0. -1.
          1    1    1    2  502    0  0.69243370342E+02 -0.11805019441E+03  0.56463515523E+03  0.58098481156E+03  0.00000000000E+00 0. -1.
         22    1    3    3    0    0  0.18392030836E+02  0.40889842732E+02  0.16743689645E+03  0.17333597529E+03  0.00000000000E+00 0.  1.
         22    1    3    3    0    0 -0.12897957166E+03  0.23647863919E+02  0.31398730846E+03  0.34026898367E+03  0.00000000000E+00 0.  1.
</event>
<event>
 7    1  0.6607887E-006  0.1208411E+03  0.7818608E-02  0.1251046E+00
          2   -1    0    0  502    0  0.00000000000E+00  0.00000000000E+00  0.12524057474E+04  0.12524057474E+04  0.00000000000E+00 0. -1.
          1   -1    0    0  501    0 -0.00000000000E+00 -0.00000000000E+00 -0.90393909071E+03  0.90393909071E+03  0.00000000000E+00 0. -1.
         25    2    1    2    0    0  0.86365098557E+02 -0.75659059691E+02 -0.20746336320E+03  0.26804706642E+03  0.12499983673E+03 0.  0.
          2    1    1    2  501    0 -0.12777611669E+03 -0.26277298240E+02 -0.65728435274E+03  0.67010443422E+03  0.00000000000E+00 0. -1.
          1    1    1    2  502    0  0.41411018134E+02  0.10193635793E+03  0.12132143727E+04  0.12181933375E+04  0.00000000000E+00 0. -1.
         22    1    3    3    0    0 -0.18334912033E+02 -0.80795400878E+01 -0.10448310665E+03  0.10638687674E+03  0.00000000000E+00 0.  1.
         22    1    3    3    0    0  0.10470001059E+03 -0.67579519603E+02 -0.10298025655E+03  0.16166018968E+03  0.00000000000E+00 0.  1.
</event>
<event>
 7    1  0.6607887E-006  0.1059739E+03  0.7818608E-02  0.1313723E+00
          2   -1    0    0  502    0  0.00000000000E+00  0.00000000000E+00  0.80877218265E+03  0.80877218265E+03  0.00000000000E+00 0. -1.
          1   -1    0    0  501    0 -0.00000000000E+00 -0.00000000000E+00 -0.89742768513E+02  0.89742768513E+02  0.00000000000E+00 0. -1.
         25    2    1    2    0    0  0.11041066984E+03  0.47133397774E+02  0.49265003010E+02  0.18017838243E+03  0.12500054310E+03 0.  0.
          2    1    1    2  501    0 -0.54136994943E+02  0.43159678294E+02  0.40645416348E+02  0.80284630671E+02  0.00000000000E+00 0. -1.
          1    1    1    2  502    0 -0.56273674895E+02 -0.90293076068E+02  0.62911899478E+03  0.63805193806E+03  0.00000000000E+00 0. -1.
         22    1    3    3    0    0  0.16305158494E+00  0.38960186381E+02 -0.25640940924E+02  0.46640975120E+02  0.00000000000E+00 0. -1.
         22    1    3    3    0    0  0.11024761825E+03  0.81732113933E+01  0.74905943934E+02  0.13353740731E+03  0.00000000000E+00 0. -1.
</event>
<event>
 7    1  0.6607887E-006  0.1595814E+03  0.7818608E-02  0.1381768E+00
          2   -1    0    0  502    0  0.00000000000E+00  0.00000000000E+00  0.53208623074E+03  0.53208623074E+03  0.00000000000E+00 0. -1.
          1   -1    0    0  501    0 -0.00000000000E+00 -0.00000000000E+00 -0.55271068758E+03  0.55271068758E+03  0.00000000000E+00 0. -1.
         25    2    1    2    0    0  0.18346193514E+03 -0.18977224090E+02 -0.35697989528E+03  0.42080537051E+03  0.12499639010E+03 0.  0.
          2    1    1    2  501    0 -0.25503721646E+02  0.29007762278E+01 -0.15010085171E+03  0.15227974259E+03  0.00000000000E+00 0. -1.
          1    1    1    2  502    0 -0.15795821350E+03  0.16076447862E+02  0.48645629014E+03  0.51171180522E+03  0.00000000000E+00 0. -1.
         22    1    3    3    0    0  0.15029566208E+03  0.19315556618E+02 -0.17300843330E+03  0.22998650995E+03  0.00000000000E+00 0. -1.
         22    1    3    3    0    0  0.33166273066E+02 -0.38292780708E+02 -0.18397146198E+03  0.19081886056E+03  0.00000000000E+00 0. -1.
</event>
<event>
 7    1  0.6607887E-006  0.2340484E+03  0.7818608E-02  0.1285531E+00
          2   -1    0    0  502    0  0.00000000000E+00  0.00000000000E+00  0.20883272840E+03  0.20883272840E+03  0.00000000000E+00 0. -1.
          1   -1    0    0  501    0 -0.00000000000E+00 -0.00000000000E+00 -0.54290233308E+03  0.54290233308E+03  0.00000000000E+00 0. -1.
         25    2    1    2    0    0 -0.14196429287E+03  0.21849319209E+03 -0.22257380480E+03  0.36476984632E+03  0.12499922704E+03 0.  0.
          2    1    1    2  501    0  0.30303027127E+01 -0.40546297773E+02 -0.15222391824E+03  0.15756048452E+03  0.00000000000E+00 0. -1.
          1    1    1    2  502    0  0.13893399015E+03 -0.17794689432E+03  0.40728118363E+02  0.22940473065E+03  0.00000000000E+00 0. -1.
         22    1    3    3    0    0 -0.85539992089E+02  0.31580020258E+02 -0.94200885223E+02  0.13110375549E+03  0.00000000000E+00 0.  1.
         22    1    3    3    0    0 -0.56424300777E+02  0.18691317183E+03 -0.12837291957E+03  0.23366609083E+03  0.00000000000E+00 0.  1.
</event>
<event>
 7    1  0.6607887E-006  0.4725709E+02  0.7818608E-02  0.1466508E+00
          2   -1    0    0  502    0  0.00000000000E+00  0.00000000000E+00  0.19132701426E+03  0.19132701426E+03  0.00000000000E+00 0. -1.
          1   -1    0    0  501    0 -0.00000000000E+00 -0.00000000000E+00 -0.10354528219E+03  0.10354528219E+03  0.00000000000E+00 0. -1.
         25    2    1    2    0    0 -0.50632301716E+01  0.18704601981E+02  0.83479077636E+02  0.15157045160E+03  0.12501738663E+03 0.  0.
          2    1    1    2  501    0 -0.40728427023E+02  0.19882370988E+02 -0.46382334918E+02  0.64849321017E+02  0.00000000000E+00 0. -1.
          1    1    1    2  502    0  0.45791657195E+02 -0.38586972969E+02  0.50684989348E+02  0.78452523839E+02  0.00000000000E+00 0. -1.
         22    1    3    3    0    0  0.29516415885E+02  0.47622988734E+02 -0.75459218175E+00  0.56033358565E+02  0.00000000000E+00 0. -1.
         22    1    3    3    0    0 -0.34579646057E+02 -0.28918386754E+02  0.84233669817E+02  0.95537093031E+02  0.00000000000E+00 0. -1.
</event>
<event>
 7    1  0.7923887E-006  0.1004456E+03  0.7818608E-02  0.1349989E+00
          2   -1    0    0  502    0  0.00000000000E+00  0.00000000000E+00  0.17263466248E+04  0.17263466248E+04  0.00000000000E+00 0. -1.
          1   -1    0    0  501    0 -0.00000000000E+00 -0.00000000000E+00 -0.77804352576E+03  0.77804352576E+03  0.00000000000E+00 0. -1.
         25    2    1    2    0    0 -0.54125164079E+02 -0.51774509548E+02 -0.82111002363E+02  0.16726687175E+03  0.12500342575E+03 0.  0.
          2    1    1    2  501    0  0.27429965796E+02 -0.45512837506E+02 -0.65075948753E+03  0.65292551797E+03  0.00000000000E+00 0. -1.
          1    1    1    2  502    0  0.26695198283E+02  0.97287347054E+02  0.16811735889E+04  0.16841977608E+04  0.00000000000E+00 0. -1.
         22    1    3    3    0    0 -0.25001752535E+02  0.40316512923E+02 -0.39361339814E+02  0.61642711784E+02  0.00000000000E+00 0. -1.
         22    1    3    3    0    0 -0.29123411544E+02 -0.92091022471E+02 -0.42749662549E+02  0.10562415996E+03  0.00000000000E+00 0. -1.
</event>
<event>
 7    1  0.6607887E-006  0.6796559E+02  0.7818608E-02  0.1436804E+00
          2   -1    0    0  502    0  0.00000000000E+00  0.00000000000E+00  0.17264772476E+04  0.17264772476E+04  0.00000000000E+00 0. -1.
          1   -1    0    0  501    0 -0.00000000000E+00 -0.00000000000E+00 -0.39967221437E+03  0.39967221437E+03  0.00000000000E+00 0. -1.
         25    2    1    2    0    0 -0.81098624296E+02  0.37018427069E+02 -0.39152754669E+02  0.15844482974E+03  0.12499790026E+03 0.  0.
          2    1    1    2  501    0  0.36546384077E+02  0.14185167052E+02 -0.29890201488E+03  0.30146189088E+03  0.00000000000E+00 0. -1.
          1    1    1    2  502    0  0.44552240220E+02 -0.51203594121E+02  0.16648598028E+04  0.16662427413E+04  0.00000000000E+00 0. -1.
         22    1    3    3    0    0 -0.65989802102E+02  0.82360573759E+02 -0.30690735522E+02  0.10990832242E+03  0.00000000000E+00 0.  1.
         22    1    3    3    0    0 -0.15108822194E+02 -0.45342146690E+02 -0.84620191476E+01  0.48536507318E+02  0.00000000000E+00 0.  1.
</event>
<event>
 7    1  0.6607887E-006  0.6674341E+02  0.7818608E-02  0.1373486E+00
          2   -1    0    0  502    0  0.00000000000E+00  0.00000000000E+00  0.64159446485E+03  0.64159446485E+03  0.00000000000E+00 0. -1.
          1   -1    0    0  501    0 -0.00000000000E+00 -0.00000000000E+00 -0.56296465577E+03  0.56296465577E+03  0.00000000000E+00 0. -1.
         25    2    1    2    0    0 -0.28306016734E+02  0.18625263316E+02  0.14890142193E+03  0.19734302063E+03  0.12499801327E+03 0.  0.
          2    1    1    2  501    0 -0.30609561971E+02 -0.59310521046E+02 -0.53391824300E+03  0.53807376204E+03  0.00000000000E+00 0. -1.
          1    1    1    2  502    0  0.58915578705E+02  0.40685257730E+02  0.46364663015E+03  0.46914233795E+03  0.00000000000E+00 0. -1.
         22    1    3    3    0    0 -0.33409494560E+02 -0.26401140802E+02  0.14583517395E+03  0.15192469360E+03  0.00000000000E+00 0. -1.
         22    1    3    3    0    0  0.51034778261E+01  0.45026404119E+02  0.30662479744E+01  0.45418327032E+02  0.00000000000E+00 0. -1.
</event>
<event>
 7    1  0.6607887E-006  0.6949751E+02  0.7818608E-02  0.1362071E+00
          2   -1    0    0  502    0  0.00000000000E+00  0.00000000000E+00  0.14304546760E+04  0.14304546760E+04  0.00000000000E+00 0. -1.
          1   -1    0    0  501    0 -0.00000000000E+00 -0.00000000000E+00 -0.83717616916E+03  0.83717616916E+03  0.00000000000E+00 0. -1.
         25    2    1    2    0    0 -0.59111214430E+00 -0.98146983927E+01  0.17308223708E+03  0.21372667813E+03  0.12499981773E+03 0.  0.
          2    1    1    2  501    0 -0.68879604474E+02  0.11744144701E+02 -0.81438063755E+03  0.81737271038E+03  0.00000000000E+00 0. -1.
          1    1    1    2  502    0  0.69470716618E+02 -0.19294463084E+01  0.12345769073E+04  0.12365314566E+04  0.00000000000E+00 0. -1.
         22    1    3    3    0    0  0.54885029438E+02 -0.21847635245E+02  0.12890406274E+03  0.14179542663E+03  0.00000000000E+00 0.  1.
         22    1    3    3    0    0 -0.55476141582E+02  0.12032936853E+02  0.44178174333E+02  0.71931251494E+02  0.00000000000E+00 0.  1.
</event>
<event>
 7    1  0.6607887E-006  0.4670995E+02  0.7818608E-02  0.1475196E+00
          2   -1    0    0  502    0  0.00000000000E+00  0.00000000000E+00  0.14734710159E+04  0.14734710159E+04  0.00000000000E+00 0. -1.
          1   -1    0    0  501    0 -0.00000000000E+00 -0.00000000000E+00 -0.26190178186E+04  0.26190178186E+04  0.00000000000E+00 0. -1.
         25    2    1    2    0    0 -0.16284725496E+02  0.33354488479E+02  0.35334122310E+03  0.37663299288E+03  0.12499870878E+03 0.  0.
          2    1    1    2  501    0 -0.26498499291E+02 -0.38486039331E+02 -0.26067437214E+04  0.26071624757E+04  0.00000000000E+00 0. -1.
          1    1    1    2  502    0  0.42783224788E+02  0.51315508517E+01  0.11078556956E+04  0.11086933658E+04  0.00000000000E+00 0. -1.
         22    1    3    3    0    0 -0.41755942201E+02 -0.36607589677E+02  0.13638554874E+03  0.14725723152E+03  0.00000000000E+00 0. -1.
         22    1    3    3    0    0  0.25471216705E+02  0.69962078156E+02  0.21695567436E+03  0.22937576136E+03  0.00000000000E+00 0. -1.
</event>
<event>
 7    1  0.6607887E-006  0.2035259E+03  0.7818608E-02  0.1222145E+00
          2   -1    0    0  502    0  0.00000000000E+00  0.00000000000E+00  0.16949724752E+04  0.16949724752E+04  0.00000000000E+00 0. -1.
          1   -1    0    0  501    0 -0.00000000000E+00 -0.00000000000E+00 -0.24641317368E+04  0.24641317368E+04  0.00000000000E+00 0. -1.
         25    2    1    2    0    0  0.24086280780E+03 -0.81739526573E+02  0.57882545138E+02  0.28926616313E+03  0.12501312617E+03 0.  0.
          2    1    1    2  501    0 -0.16239968413E+03  0.12104683056E+03 -0.23428010200E+04  0.23515404764E+04  0.00000000000E+00 0. -1.
          1    1    1    2  502    0 -0.78463123675E+02 -0.39307303985E+02  0.15157592133E+04  0.15182975724E+04  0.00000000000E+00 0. -1.
         22    1    3    3    0    0  0.22676994946E+03 -0.10537452660E+03  0.33107828737E+02  0.25223903179E+03  0.00000000000E+00 0.  1.
         22    1    3    3    0    0  0.14092858345E+02  0.23635000030E+02  0.24774716401E+02  0.37027131343E+02  0.00000000000E+00 0.  1.
</event>
<event>
 7    1  0.6607887E-006  0.1768551E+03  0.7818608E-02  0.1301896E+00
          2   -1    0    0  502    0  0.00000000000E+00  0.00000000000E+00  0.61004120180E+03  0.61004120180E+03  0.00000000000E+00 0. -1.
          1   -1    0    0  501    0 -0.00000000000E+00 -0.00000000000E+00 -0.11005220064E+04  0.11005220064E+04  0.00000000000E+00 0. -1.
         25    2    1    2    0    0 -0.13160604347E+03 -0.83016885046E+01 -0.50879489945E+03  0.54026581418E+03  0.12500332614E+03 0.  0.
          2    1    1    2  501    0 -0.46203821847E+02  0.65926881092E-01 -0.56169355285E+03  0.56359067133E+03  0.00000000000E+00 0. -1.
          1    1    1    2  502    0  0.17780986532E+03  0.82357616235E+01  0.58000764770E+03  0.60670672270E+03  0.00000000000E+00 0. -1.
         22    1    3    3    0    0  0.15829383508E+01 -0.30002701202E+02 -0.21342802177E+03  0.21553233690E+03  0.00000000000E+00 0. -1.
         22    1    3    3    0    0 -0.13318898182E+03  0.21701012697E+02 -0.29536687769E+03  0.32473347728E+03  0.00000000000E+00 0. -1.
</event>
<event>
 7    1  0.6607887E-006  0.5955437E+02  0.7818608E-02  0.1468028E+00
          2   -1    0    0  502    0  0.00000000000E+00  0.00000000000E+00  0.16608837179E+04  0.16608837179E+04  0.00000000000E+00 0. -1.
          1   -1    0    0  501    0 -0.00000000000E+00 -0.00000000000E+00 -0.32932660725E+02  0.32932660725E+02  0.00000000000E+00 0. -1.
         25    2    1    2    0    0  0.70966110839E+02  0.25236092672E+01  0.11178485094E+04  0.11270551329E+04  0.12500170108E+03 0.  0.
          2    1    1    2  501    0 -0.52540204596E+02  0.27905156075E+02  0.42317462424E+01  0.59641248401E+02  0.00000000000E+00 0. -1.
          1    1    1    2  502    0 -0.18425906243E+02 -0.30428765342E+02  0.50587080159E+03  0.50711999732E+03  0.00000000000E+00 0. -1.
         22    1    3    3    0    0 -0.55683545432E+01  0.38976292767E+02  0.13686271506E+03  0.14241334468E+03  0.00000000000E+00 0.  1.
         22    1    3    3    0    0  0.76534465382E+02 -0.36452683500E+02  0.98098579431E+03  0.98464178825E+03  0.00000000000E+00 0.  1.
</event>
<event>
 7    1  0.6607887E-006  0.9832799E+02  0.7818608E-02  0.1369157E+00
          2   -1    0    0  502    0  0.00000000000E+00  0.00000000000E+00  0.53273908494E+03  0.53273908494E+03  0.00000000000E+00 0. -1.
          1   -1    0    0  501    0 -0.00000000000E+00 -0.00000000000E+00 -0.14808745263E+04  0.14808745263E+04  0.00000000000E+00 0. -1.
         25    2    1    2    0    0  0.84328737802E+02  0.11277433289E+03  0.25169783520E+02  0.18997310658E+03  0.12500750795E+03 0.  0.
          2    1    1    2  501    0 -0.46907967921E+02 -0.85674602668E+02 -0.13955055299E+04  0.13989196471E+04  0.00000000000E+00 0. -1.
          1    1    1    2  502    0 -0.37420769882E+02 -0.27099730218E+02  0.42220030497E+03  0.42472085763E+03  0.00000000000E+00 0. -1.
         22    1    3    3    0    0 -0.11217221832E+02  0.85437474034E+02 -0.44134996799E+01  0.86283642797E+02  0.00000000000E+00 0.  1.
         22    1    3    3    0    0  0.95545959635E+02  0.27336858852E+02  0.29583283200E+02  0.10368946378E+03  0.00000000000E+00 0.  1.
</event>
<event>
 7    1  0.6607887E-006  0.4156108E+02  0.7818608E-02  0.1519399E+00
          2   -1    0    0  502    0  0.00000000000E+00  0.00000000000E+00  0.63649728576E+03  0.63649728576E+03  0.00000000000E+00 0. -1.
          1   -1    0    0  501    0 -0.00000000000E+00 -0.00000000000E+00 -0.21364935216E+03  0.21364935216E+03  0.00000000000E+00 0. -1.
         25    2    1    2    0    0 -0.35890815221E+02  0.57577324922E+02  0.57542708157E+02  0.15342463319E+03  0.12499862337E+03 0.  0.
          2    1    1    2  501    0  0.34762148783E+02 -0.21894887090E+02 -0.16254982240E+03  0.16766108026E+03  0.00000000000E+00 0. -1.
          1    1    1    2  502    0  0.11286664380E+01 -0.35682437832E+02  0.52785504785E+03  0.52906092447E+03  0.00000000000E+00 0. -1.
         22    1    3    3    0    0  0.87812884015E+01  0.71748501952E+02  0.74293012399E+02  0.10365524709E+03  0.00000000000E+00 0. -1.
         22    1    3    3    0    0 -0.44672103622E+02 -0.14171177030E+02 -0.16750304242E+02  0.49769386099E+02  0.00000000000E+00 0. -1.
</event>
<event>
 7    1  0.6607887E-006  0.1431364E+03  0.7818608E-02  0.1237718E+00
          2   -1    0    0  502    0  0.00000000000E+00  0.00000000000E+00  0.50908366541E+03  0.50908366541E+03  0.00000000000E+00 0. -1.
          1   -1    0    0  501    0 -0.00000000000E+00 -0.00000000000E+00 -0.13177148630E+04  0.13177148630E+04  0.00000000000E+00 0. -1.
         25    2    1    2    0    0 -0.17357734716E+02  0.52420560451E+02  0.13577092262E+03  0.19263407603E+03  0.12499975083E+03 0.  0.
          2    1    1    2  501    0 -0.13809074896E+03 -0.37669270467E+02 -0.12673716749E+04  0.12754289441E+04  0.00000000000E+00 0. -1.
          1    1    1    2  502    0  0.15544848368E+03 -0.14751289984E+02  0.32296955474E+03  0.35873550831E+03  0.00000000000E+00 0. -1.
         22    1    3    3    0    0 -0.31608721587E+02  0.29396544930E+01  0.13749586428E+03  0.14111295313E+03  0.00000000000E+00 0.  1.
         22    1    3    3    0    0  0.14250986871E+02  0.49480905958E+02 -0.17249416536E+01  0.51521122900E+02  0.00000000000E+00 0.  1.
</event>
<event>
 7    1  0.6607887E-006  0.7681983E+02  0.7818608E-02  0.1413278E+00
          2   -1    0    0  502    0  0.00000000000E+00  0.00000000000E+00  0.85607940083E+03  0.85607940083E+03  0.00000000000E+00 0. -1.
          1   -1    0    0  501    0 -0.00000000000E+00 -0.00000000000E+00 -0.22452182356E+03  0.22452182356E+03  0.00000000000E+00 0. -1.
         25    2    1    2    0    0  0.10765379782E+03  0.41167331445E+02  0.63437671380E+02  0.18147657229E+03  0.12500127510E+03 0.  0.
          2    1    1    2  501    0 -0.70942473240E+02 -0.21795223721E+02 -0.15655857390E+03  0.17325834280E+03  0.00000000000E+00 0. -1.
          1    1    1    2  502    0 -0.36711324585E+02 -0.19372107724E+02  0.72467847979E+03  0.72586630930E+03  0.00000000000E+00 0. -1.
         22    1    3    3    0    0  0.61506823709E+02  0.85597374201E+02  0.46572593279E+02  0.11523457067E+03  0.00000000000E+00 0.  1.
         22    1    3    3    0    0  0.46146974116E+02 -0.44430042756E+02  0.16865078101E+02  0.66242001621E+02  0.00000000000E+00 0.  1.
</event>
<event>
 7    1  0.6607887E-006  0.2072962E+03  0.7818608E-02  0.1204186E+00
          2   -1    0    0  502    0  0.00000000000E+00  0.00000000000E+00  0.54572201070E+03  0.54572201070E+03  0.00000000000E+00 0. -1.
          1   -1    0    0  501    0 -0.00000000000E+00 -0.00000000000E+00 -0.23402547396E+03  0.23402547396E+03  0.00000000000E+00 0. -1.
         25    2    1    2    0    0  0.20436583443E+03 -0.43234095450E+02  0.21393943879E+03  0.32408255997E+03  0.12499936366E+03 0.  0.
          2    1    1    2  501    0  0.45926627899E+01  0.10416583406E+03 -0.11225334095E+03  0.15320713460E+03  0.00000000000E+00 0. -1.
          1    1    1    2  502    0 -0.20895849722E+03 -0.60931738615E+02  0.21001043890E+03  0.30245779008E+03  0.00000000000E+00 0. -1.
         22    1    3    3    0    0  0.13255392022E+03  0.22783133616E+02  0.17086365255E+03  0.21744884618E+03  0.00000000000E+00 0. -1.
         22    1    3    3    0    0  0.71811914210E+02 -0.66017229067E+02  0.43075786244E+02  0.10663371379E+03  0.00000000000E+00 0. -1.
</event>
<event>
 7    1  0.6607887E-006  0.7458798E+02  0.7818608E-02  0.1401211E+00
          2   -1    0    0  502    0  0.00000000000E+00  0.00000000000E+00  0.27365379434E+04  0.27365379434E+04  0.00000000000E+00 0. -1.
          1   -1    0    0  501    0 -0.00000000000E+00 -0.00000000000E+00 -0.17471031640E+04  0.17471031640E+04  0.00000000000E+00 0. -1.
         25    2    1    2    0    0 -0.70944118488E+02  0.86331204336E+02  0.20564958687E+02  0.16891848733E+03  0.12499757216E+03 0.  0.
          2    1    1    2  501    0  0.27207451072E+02 -0.69151161382E+02 -0.16718920579E+04  0.16735427039E+04  0.00000000000E+00 0. -1.
          1    1    1    2  502    0  0.43736667417E+02 -0.17180042954E+02  0.26407618787E+04  0.26411799162E+04  0.00000000000E+00 0. -1.
         22    1    3    3    0    0 -0.10294170608E+03  0.76274689122E+02 -0.26154611166E+01  0.12814703933E+03  0.00000000000E+00 0.  1.
         22    1    3    3    0    0  0.31997587593E+02  0.10056515215E+02  0.23180419804E+02  0.40771448003E+02  0.00000000000E+00 0.  1.
</event>
<event>
 7    1  0.6607887E-006  0.5767218E+02  0.7818608E-02  0.1462546E+00
          2   -1    0    0  502    0  0.00000000000E+00  0.00000000000E+00  0.37124227019E+03  0.37124227019E+03  0.00000000000E+00 0. -1.
          1   -1    0    0  501    0 -0.00000000000E+00 -0.00000000000E+00 -0.30198670920E+03  0.30198670920E+03  0.00000000000E+00 0. -1.
         25    2    1    2    0    0 -0.84867218026E+02 -0.32529519759E+02  0.86891036224E+02  0.17729943854E+03  0.12499769750E+03 0.  0.
          2    1    1    2  501    0  0.30207553927E+02  0.23406744102E+02 -0.25211288506E+03  0.25499270342E+03  0.00000000000E+00 0. -1.
          1    1    1    2  502    0  0.54659664099E+02  0.91227756568E+01  0.23447740982E+03  0.24093683743E+03  0.00000000000E+00 0. -1.
         22    1    3    3    0    0 -0.11253026665E+03 -0.23523816287E+02  0.92641594678E+02  0.14764449163E+03  0.00000000000E+00 0. -1.
         22    1    3    3    0    0  0.27663048619E+02 -0.90057034721E+01 -0.57505584540E+01  0.29654946914E+02  0.00000000000E+00 0. -1.
</event>
<event>
 7    1  0.6607887E-006  0.5039308E+02  0.7818608E-02  0.1513143E+00
          2   -1    0    0  502    0  0.00000000000E+00  0.00000000000E+00  0.95181782024E+03  0.95181782024E+03  0.00000000000E+00 0. -1.
          1   -1    0    0  501    0 -0.00000000000E+00 -0.00000000000E+00 -0.28892235032E+04  0.28892235032E+04  0.00000000000E+00 0. -1.
         25    2    1    2    0    0  0.15975929743E+02 -0.23414682298E+02  0.57774999371E+03  0.59179684895E+03  0.12499991007E+03 0.  0.
          2    1    1    2  501    0 -0.46443426581E+02  0.19582646415E+02 -0.28813370210E+04  0.28817778368E+04  0.00000000000E+00 0. -1.
          1    1    1    2  502    0  0.30467496838E+02  0.38320358830E+01  0.36618134436E+03  0.36746663770E+03  0.00000000000E+00 0. -1.
         22    1    3    3    0    0 -0.34780402264E+02 -0.10112235881E+02  0.47542814808E+03  0.47680589099E+03  0.00000000000E+00 0.  1.
         22    1    3    3    0    0  0.50756332007E+02 -0.13302446417E+02  0.10232184563E+03  0.11499095796E+03  0.00000000000E+00 0.  1.
</event>
<event>
 7    1  0.6607887E-006  0.9932251E+02  0.7818608E-02  0.1435526E+00
          2   -1    0    0  502    0  0.00000000000E+00  0.00000000000E+00  0.46272054308E+03  0.46272054308E+03  0.00000000000E+00 0. -1.
          1   -1    0    0  501    0 -0.00000000000E+00 -0.00000000000E+00 -0.77491718056E+03  0.77491718056E+03  0.00000000000E+00 0. -1.
         25    2    1    2    0    0  0.71276739058E+02 -0.19401981057E+02 -0.70924099410E+03  0.72395043910E+03  0.12499856062E+03 0.  0.
          2    1    1    2  501    0  0.21606253675E+02 -0.16332917090E+02 -0.49371502495E+02  0.56312872749E+02  0.00000000000E+00 0. -1.
          1    1    1    2  502    0 -0.92882992733E+02  0.35734898147E+02  0.44641585912E+03  0.45737441179E+03  0.00000000000E+00 0. -1.
         22    1    3    3    0    0  0.87976951943E+02 -0.31350671066E+02 -0.68834974793E+03  0.69465688230E+03  0.00000000000E+00 0.  1.
         22    1    3    3    0    0 -0.16700212885E+02  0.11948690009E+02 -0.20891246168E+02  0.29293556797E+02  0.00000000000E+00 0.  1.
</event>
<event>
 7    1  0.6607887E-006  0.9983655E+02  0.7818608E-02  0.1327495E+00
          2   -1    0    0  502    0  0.00000000000E+00  0.00000000000E+00  0.15800941019E+03  0.15800941019E+03  0.00000000000E+00 0. -1.
          1   -1    0    0  501    0 -0.00000000000E+00 -0.00000000000E+00 -0.35931863430E+03  0.35931863430E+03  0.00000000000E+00 0. -1.
         25    2    1    2    0    0  0.15421289007E+03 -0.28276879971E+02 -0.66731209098E+02  0.21132892611E+03  0.12500265333E+03 0.  0.
          2    1    1    2  501    0 -0.90324300289E+02  0.16359366425E+02 -0.19609161923E+03  0.21651335115E+03  0.00000000000E+00 0. -1.
          1    1    1    2  502    0 -0.63888589777E+02  0.11917513547E+02  0.61513604224E+02  0.89485767234E+02  0.00000000000E+00 0. -1.
         22    1    3    3    0    0  0.11365588403E+03 -0.75021108396E+02 -0.60864323624E+02  0.14916531960E+03  0.00000000000E+00 0.  1.
         22    1    3    3    0    0  0.40557006033E+02  0.46744228425E+02 -0.58668854740E+01  0.62163606512E+02  0.00000000000E+00 0.  1.
</event>
<event>
 7    1  0.6607887E-006  0.2028893E+03  0.7818608E-02  0.1278574E+00
          2   -1    0    0  502    0  0.00000000000E+00  0.00000000000E+00  0.81341126692E+03  0.81341126692E+03  0.00000000000E+00 0. -1.
          1   -1    0    0  501    0 -0.00000000000E+00 -0.00000000000E+00 -0.99568594728E+03  0.99568594728E+03  0.00000000000E+00 0. -1.
         25    2    1    2    0    0 -0.86219324176E+02  0.19891514606E+03  0.20369886940E+02  0.25108606539E+03  0.12501309029E+03 0.  0.
          2    1    1    2  501    0  0.36116619015E+02 -0.19889194061E+03 -0.86776890400E+03  0.89100240458E+03  0.00000000000E+00 0. -1.
          1    1    1    2  502    0  0.50102705161E+02 -0.23205449911E-01  0.66512433671E+03  0.66700874423E+03  0.00000000000E+00 0. -1.
         22    1    3    3    0    0 -0.26624416461E+02  0.14448863052E+03  0.62944590699E+02  0.15983693377E+03  0.00000000000E+00 0. -1.
         22    1    3    3    0    0 -0.59594907716E+02  0.54426515547E+02 -0.42574703759E+02  0.91249131615E+02  0.00000000000E+00 0. -1.
</event>
<event>
 7    1  0.6607887E-006  0.1245444E+03  0.7818608E-02  0.1386048E+00
          2   -1    0    0  502    0  0.00000000000E+00  0.00000000000E+00  0.33384793726E+03  0.33384793726E+03  0.00000000000E+00 0. -1.
          1   -1    0    0  501    0 -0.00000000000E+00 -0.00000000000E+00 -0.31751297780E+03  0.31751297780E+03  0.00000000000E+00 0. -1.
         25    2    1    2    0    0  0.85764750009E+02 -0.10759241087E+03 -0.17849421121E+03  0.25771490911E+03  0.12500028687E+03 0.  0.
          2    1    1    2  501    0  0.10789468899E+02  0.29879036292E+02 -0.83298885100E+02  0.89150848048E+02  0.00000000000E+00 0. -1.
          1    1    1    2  502    0 -0.96554218908E+02  0.77713374583E+02  0.27812805578E+03  0.30449515791E+03  0.00000000000E+00 0. -1.
         22    1    3    3    0    0  0.26609093520E+02 -0.11981244399E+03 -0.97890920523E+02  0.15698948345E+03  0.00000000000E+00 0.  1.
         22    1    3    3    0    0  0.59155656490E+02  0.12220033116E+02 -0.80603290690E+02  0.10072542566E+03  0.00000000000E+00 0.  1.
</event>
<event>
 7    1  0.6607887E-006  0.9178836E+02  0.7818608E-02  0.1443159E+00
          2   -1    0    0  502    0  0.00000000000E+00  0.00000000000E+00  0.17395905884E+04  0.17395905884E+04  0.00000000000E+00 0. -1.
          1   -1    0    0  501    0 -0.00000000000E+00 -0.00000000000E+00 -0.16233353335E+03  0.16233353335E+03  0.00000000000E+00 0. -1.
         25    2    1    2    0    0  0.94946258723E+02 -0.55551138207E+01  0.14527889997E+03  0.21394515639E+03  0.12498367826E+03 0.  0.
          2    1    1    2  501    0 -0.56940446842E+01  0.27089764779E+02 -0.12513555132E+03  0.12816077288E+03  0.00000000000E+00 0. -1.
          1    1    1    2  502    0 -0.89252214039E+02 -0.21534650958E+02  0.15571137064E+04  0.15598181925E+04  0.00000000000E+00 0. -1.
         22    1    3    3    0    0  0.56476954402E+02  0.46265188990E+02  0.12763179436E+03  0.14703737288E+03  0.00000000000E+00 0. -1.
         22    1    3    3    0    0  0.38469304322E+02 -0.51820302811E+02  0.17647105605E+02  0.66907783513E+02  0.00000000000E+00 0. -1.
</event>
<event>
 7    1  0.6607887E-006  0.5678134E+02  0.7818608E-02  0.1478242E+00
          2   -1    0    0  502    0  0.00000000000E+00  0.00000000000E+00  0.14986923933E+03  0.14986923933E+03  0.00000000000E+00 0. -1.
          1   -1    0    0  501    0 -0.00000000000E+00 -0.00000000000E+00 -0.25611526127E+03  0.25611526127E+03  0.00000000000E+00 0. -1.
         25    2    1    2    0    0  0.27247914905E+02  0.41459783871E+02  0.95671726048E+02  0.16504374412E+03  0.12499998305E+03 0.  0.
          2    1    1    2  501    0  0.34246914817E+02  0.55214085749E+01 -0.13255059545E+03  0.13701458857E+03  0.00000000000E+00 0. -1.
          1    1    1    2  502    0 -0.61494829722E+02 -0.46981192446E+02 -0.69367152530E+02  0.10392616791E+03  0.00000000000E+00 0. -1.
         22    1    3    3    0    0 -0.48817483322E+02  0.27322942053E+02  0.29540862273E+02  0.63264147700E+02  0.00000000000E+00 0.  1.
         22    1    3    3    0    0  0.76065398228E+02  0.14136841818E+02  0.66130863775E+02  0.10177959642E+03  0.00000000000E+00 0.  1.
</event>
<event>
 7    1  0.6607887E-006  0.1351944E+03  0.7818608E-02  0.1308887E+00
          2   -1    0    0  502    0  0.00000000000E+00  0.00000000000E+00  0.24065630694E+03  0.24065630694E+03  0.00000000000E+00 0. -1.
          1   -1    0    0  501    0 -0.00000000000E+00 -0.00000000000E+00 -0.15047724382E+04  0.15047724382E+04  0.00000000000E+00 0. -1.
         25    2    1    2    0    0  0.16879861993E+03 -0.52132549887E+02  0.10182626185E+02  0.21665489574E+03  0.12499952449E+03 0.  0.
          2    1    1    2  501    0 -0.13395459280E+03  0.74013819880E+01 -0.13918296844E+04  0.13982805454E+04  0.00000000000E+00 0. -1.
          1    1    1    2  502    0 -0.34844027126E+02  0.44731167899E+02  0.11753092691E+03  0.13049330400E+03  0.00000000000E+00 0. -1.
         22    1    3    3    0    0 -0.19977616869E+02 -0.12201155471E+02 -0.39078754141E+00  0.23412092719E+02  0.00000000000E+00 0.  1.
         22    1    3    3    0    0  0.18877623680E+03 -0.39931394416E+02  0.10573413727E+02  0.19324280302E+03  0.00000000000E+00 0.  1.
</event>
<event>
 7    1  0.6607887E-006  0.1457948E+03  0.7818608E-02  0.1284069E+00
          2   -1    0    0  502    0  0.00000000000E+00  0.00000000000E+00  0.12576317635E+04  0.12576317635E+04  0.00000000000E+00 0. -1.
          1   -1    0    0  501    0 -0.00000000000E+00 -0.00000000000E+00 -0.13290768988E+04  0.13290768988E+04  0.00000000000E+00 0. -1.
         25    2    1    2    0    0 -0.11906799650E+03 -0.11270653176E+03  0.97844122809E+02  0.22821075469E+03  0.12500690421E+03 0.  0.
          2    1    1    2  501    0  0.56500951800E+02  0.13427162215E+03 -0.12586885117E+04  0.12670903660E+04  0.00000000000E+00 0. -1.
          1    1    1    2  502    0  0.62567044699E+02 -0.21565090397E+02  0.10893992536E+04  0.10914075417E+04  0.00000000000E+00 0. -1.
         22    1    3    3    0    0 -0.20560152094E+01 -0.83079466996E+02  0.23168161692E+02  0.86273916980E+02  0.00000000000E+00 0.  1.
         22    1    3    3    0    0 -0.11701198129E+03 -0.29627064760E+02  0.74675961117E+02  0.14193683771E+03  0.00000000000E+00 0.  1.
</event>
<event>
 7    1  0.6607887E-006  0.6137011E+02  0.7818608E-02  0.1513636E+00
          2   -1    0    0  502    0  0.00000000000E+00  0.00000000000E+00  0.93616231087E+03  0.93616231087E+03  0.00000000000E+00 0. -1.
          1   -1    0    0  501    0 -0.00000000000E+00 -0.00000000000E+00 -0.37974914745E+02  0.37974914745E+02  0.00000000000E+00 0. -1.
         25    2    1    2    0    0 -0.45458293383E+02 -0.12813889385E+01  0.11601070671E+03  0.17649956792E+03  0.12500206003E+03 0.  0.
          2    1    1    2  501    0 -0.12169072213E+02 -0.21988561239E+02  0.17938665421E+02  0.30876833726E+02  0.00000000000E+00 0. -1.
          1    1    1    2  502    0  0.57627365596E+02  0.23269950178E+02  0.76423802400E+03  0.76676082397E+03  0.00000000000E+00 0. -1.
         22    1    3    3    0    0 -0.69284731739E+02  0.32839778515E+02  0.11053463843E+03  0.13452409226E+03  0.00000000000E+00 0. -1.
         22    1    3    3    0    0  0.23826438356E+02 -0.34121167453E+02  0.54760682726E+01  0.41975475659E+02  0.00000000000E+00 0. -1.
</event>
<event>
 7    1  0.6607887E-006  0.4529027E+02  0.7818608E-02  0.1474642E+00
          2   -1    0    0  502    0  0.00000000000E+00  0.00000000000E+00  0.56822780493E+03  0.56822780493E+03  0.00000000000E+00 0. -1.
          1   -1    0    0  501    0 -0.00000000000E+00 -0.00000000000E+00 -0.10239537101E+03  0.10239537101E+03  0.00000000000E+00 0. -1.
         25    2    1    2    0    0 -0.85231902730E+01  0.43910718799E+02  0.10065421867E+03  0.16660236599E+03  0.12499712245E+03 0.  0.
          2    1    1    2  501    0 -0.34495348373E+02 -0.29347564269E+02 -0.60696306815E+02  0.75731435011E+02  0.00000000000E+00 0. -1.
          1    1    1    2  502    0  0.43018538646E+02 -0.14563154529E+02  0.42587452207E+03  0.42828937494E+03  0.00000000000E+00 0. -1.
         22    1    3    3    0    0  0.82010997002E+01  0.85975349967E+02  0.55477957014E+02  0.10264902607E+03  0.00000000000E+00 0.  1.
         22    1    3    3    0    0 -0.16724289973E+02 -0.42064631169E+02  0.45176261652E+02  0.63953339923E+02  0.00000000000E+00 0.  1.
</event>
<event>
 7    1  0.6607887E-006  0.1701555E+03  0.7818608E-02  0.1294699E+00
          2   -1    0    0  502    0  0.00000000000E+00  0.00000000000E+00  0.40096407072E+03  0.40096407072E+03  0.00000000000E+00 0. -1.
          1   -1    0    0  501    0 -0.00000000000E+00 -0.00000000000E+00 -0.20140282024E+04  0.20140282024E+04  0.00000000000E+00 0. -1.
         25    2    1    2    0    0  0.99473881058E+02  0.16648297764E+03 -0.94159053391E+02  0.24920866989E+03  0.12500959544E+03 0.  0.
          2    1    1    2  501    0 -0.50990952575E+02 -0.58583411547E+01 -0.18201992139E+04  0.18209227265E+04  0.00000000000E+00 0. -1.
          1    1    1    2  502    0 -0.48482928483E+02 -0.16062463649E+03  0.30129413559E+03  0.34486087680E+03  0.00000000000E+00 0. -1.
         22    1    3    3    0    0  0.88296531258E+02  0.17553246014E+03 -0.49977420992E+02  0.20274531956E+03  0.00000000000E+00 0.  1.
         22    1    3    3    0    0  0.11177349800E+02 -0.90494824954E+01 -0.44181632399E+02  0.46463350325E+02  0.00000000000E+00 0.  1.
</event>
<event>
 7    1  0.6607887E-006  0.4678245E+02  0.7818608E-02  0.1522096E+00
          2   -1    0    0  502    0  0.00000000000E+00  0.00000000000E+00  0.24760701794E+04  0.24760701794E+04  0.00000000000E+00 0. -1.
          1   -1    0    0  501    0 -0.00000000000E+00 -0.00000000000E+00 -0.54834351654E+03  0.54834351654E+03  0.00000000000E+00 0. -1.
         25    2    1    2    0    0 -0.76574351802E+02 -0.10646161557E+02  0.39355928783E+03  0.42011593094E+03  0.12502603843E+03 0.  0.
          2    1    1    2  501    0  0.30693576964E+02  0.53099959091E+01 -0.53435380073E+03  0.53526094204E+03  0.00000000000E+00 0. -1.
          1    1    1    2  502    0  0.45880774838E+02  0.53361656475E+01  0.20685211757E+04  0.20690368229E+04  0.00000000000E+00 0. -1.
         22    1    3    3    0    0  0.84631272220E+01 -0.89207557433E+01 -0.44825708935E+01  0.13088080349E+02  0.00000000000E+00 0. -1.
         22    1    3    3    0    0 -0.85037479024E+02 -0.17254058133E+01  0.39804185872E+03  0.40702785059E+03  0.00000000000E+00 0. -1.
</event>
<event>
 7    1  0.6607887E-006  0.3319268E+02  0.7818608E-02  0.1588232E+00
          2   -1    0    0  502    0  0.00000000000E+00  0.00000000000E+00  0.57725178704E+03  0.57725178704E+03  0.00000000000E+00 0. -1.
          1   -1    0    0  501    0 -0.00000000000E+00 -0.00000000000E+00 -0.90617832184E+03  0.90617832184E+03  0.00000000000E+00 0. -1.
         25    2    1    2    0    0 -0.15763757425E+02 -0.46478120019E+02  0.24849149452E+02  0.13656955579E+03  0.12500020661E+03 0.  0.
          2    1    1    2  501    0  0.26597836181E+02  0.19808554305E+02 -0.84957712475E+03  0.85022415551E+03  0.00000000000E+00 0. -1.
          1    1    1    2  502    0 -0.10834078756E+02  0.26669565714E+02  0.49580144050E+03  0.49663639758E+03  0.00000000000E+00 0. -1.
         22    1    3    3    0    0 -0.38103027063E+02 -0.75279922078E+02 -0.11427605723E+02  0.85143981067E+02  0.00000000000E+00 0. -1.
         22    1    3    3    0    0  0.22339269638E+02  0.28801802059E+02  0.36276755175E+02  0.51425574725E+02  0.00000000000E+00 0. -1.
</event>
<event>
 7    1  0.6607887E-006  0.1225138E+03  0.7818608E-02  0.1394748E+00
          2   -1    0    0  502    0  0.00000000000E+00  0.00000000000E+00  0.79272530567E+03  0.79272530567E+03  0.00000000000E+00 0. -1.
          1   -1    0    0  501    0 -0.00000000000E+00 -0.00000000000E+00 -0.21076982172E+03  0.21076982172E+03  0.00000000000E+00 0. -1.
         25    2    1    2    0    0 -0.14024561900E+03 -0.33208827092E+02  0.24906592734E+02  0.19239121258E+03  0.12498952145E+03 0.  0.
          2    1    1    2  501    0  0.11065737140E+03  0.38814999910E+02 -0.99544328948E+02  0.15382045212E+03  0.00000000000E+00 0. -1.
          1    1    1    2  502    0  0.29588247599E+02 -0.56061728181E+01  0.65659322016E+03  0.65728346269E+03  0.00000000000E+00 0. -1.
         22    1    3    3    0    0 -0.82362738892E+01 -0.56085648380E+02  0.10371335034E+02  0.57628124663E+02  0.00000000000E+00 0.  1.
         22    1    3    3    0    0 -0.13200934511E+03  0.22876821288E+02  0.14535257700E+02  0.13476308792E+03  0.00000000000E+00 0.  1.
</event>
<event>
 7    1  0.6607887E-006  0.1604794E+03  0.7818608E-02  0.1215293E+00
          2   -1    0    0  502    0  0.00000000000E+00  0.00000000000E+00  0.14081223080E+03  0.14081223080E+03  0.00000000000E+00 0. -1.
          1   -1    0    0  501    0 -0.00000000000E+00 -0.00000000000E+00 -0.12542803352E+04  0.12542803352E+04  0.00000000000E+00 0. -1.
         25    2    1    2    0    0 -0.24051973531E+02  0.16396251763E+03 -0.38217425177E+03  0.43489986165E+03  0.12497410262E+03 0.  0.
          2    1    1    2  501    0  0.13017897427E+03 -0.10877726631E+03 -0.80300328104E+03  0.82072731670E+03  0.00000000000E+00 0. -1.
          1    1    1    2  502    0 -0.10612700074E+03 -0.55185251319E+02  0.71709428364E+02  0.13946538770E+03  0.00000000000E+00 0. -1.
         22    1    3    3    0    0 -0.62954969327E+02  0.14467894290E+03 -0.24858460388E+03  0.29443102752E+03  0.00000000000E+00 0.  1.
         22    1    3    3    0    0  0.38902995796E+02  0.19283574726E+02 -0.13358964790E+03  0.14046883413E+03  0.00000000000E+00 0.  1.
</event>
<event>
 7    1  0.6607887E-006  0.1762787E+03  0.7818608E-02  0.1368133E+00
          2   -1    0    0  502    0  0.00000000000E+00  0.00000000000E+00  0.22108535794E+04  0.22108535794E+04  0.00000000000E+00 0. -1.
          1   -1    0    0  501    0 -0.00000000000E+00 -0.00000000000E+00 -0.95605315383E+03  0.95605315383E+03  0.00000000000E+00 0. -1.
         25    2    1    2    0    0 -0.74855559977E+01  0.15051793492E+03  0.96288471846E+03  0.98259050635E+03  0.12500175938E+03 0.  0.
          2    1    1    2  501    0  0.52845338577E+01 -0.17641626973E+03 -0.93783128882E+03  0.95429458388E+03  0.00000000000E+00 0. -1.
          1    1    1    2  502    0  0.22010221400E+01  0.25898334809E+02  0.12297469959E+04  0.12300216430E+04  0.00000000000E+00 0. -1.
         22    1    3    3    0    0 -0.61189205083E+02  0.10042964007E+03  0.69229760228E+03  0.70221521027E+03  0.00000000000E+00 0.  1.
         22    1    3    3    0    0  0.53703649085E+02  0.50088294858E+02  0.27058711618E+03  0.28037529608E+03  0.00000000000E+00 0.  1.
</event>
<event>
 7    1  0.6607887E-006  0.1213843E+03  0.7818608E-02  0.1270525E+00
          2   -1    0    0  502    0  0.00000000000E+00  0.00000000000E+00  0.13322326693E+04  0.13322326693E+04  0.00000000000E+00 0. -1.
          1   -1    0    0  501    0 -0.00000000000E+00 -0.00000000000E+00 -0.59835831172E+03  0.59835831172E+03  0.00000000000E+00 0. -1.
         25    2    1    2    0    0  0.71179147301E+02  0.18773114586E+02  0.26185155204E+03  0.29935041877E+03  0.12500214825E+03 0.  0.
          2    1    1    2  501    0  0.10572859697E+02  0.89851941563E+02 -0.57164260137E+03  0.57875765262E+03  0.00000000000E+00 0. -1.
          1    1    1    2  502    0 -0.81752006998E+02 -0.10862505615E+03  0.10436654069E+04  0.10524829096E+04  0.00000000000E+00 0. -1.
         22    1    3    3    0    0  0.11092936339E+02  0.34312482676E+02  0.22350722044E+03  0.22639760885E+03  0.00000000000E+00 0.  1.
         22    1    3    3    0    0  0.60086210963E+02 -0.15539368090E+02  0.38344331594E+02  0.72952809911E+02  0.00000000000E+00 0.  1.
</event>
<event>
 7    1  0.6607887E-006  0.5871997E+02  0.7818608E-02  0.1460839E+00
          2   -1    0    0  502    0  0.00000000000E+00  0.00000000000E+00  0.17320106363E+04  0.17320106363E+04  0.00000000000E+00 0. -1.
          1   -1    0    0  501    0 -0.00000000000E+00 -0.00000000000E+00 -0.11111994139E+03  0.11111994139E+03  0.00000000000E+00 0. -1.
         25    2    1    2    0    0 -0.38759406027E+02 -0.86381226695E+02  0.26455704121E+03  0.30753658312E+03  0.12499725607E+03 0.  0.
          2    1    1    2  501    0  0.88539395846E+01  0.36954148094E+02 -0.84997696697E+02  0.93105369079E+02  0.00000000000E+00 0. -1.
          1    1    1    2  502    0  0.29905466442E+02  0.49427078601E+02  0.14413313504E+04  0.14424886255E+04  0.00000000000E+00 0. -1.
         22    1    3    3    0    0  0.56337276391E+01 -0.19630618843E+02  0.20901551859E+03  0.21001092137E+03  0.00000000000E+00 0. -1.
         22    1    3    3    0    0 -0.44393133666E+02 -0.66750607851E+02  0.55541522619E+02  0.97525661751E+02  0.00000000000E+00 0. -1.
</event>
<event>
 7    1  0.6607887E-006  0.1167309E+03  0.7818608E-02  0.1271410E+00
          2   -1    0    0  502    0  0.00000000000E+00  0.00000000000E+00  0.58764158860E+03  0.58764158860E+03  0.00000000000E+00 0. -1.
          1   -1    0    0  501    0 -0.00000000000E+00 -0.00000000000E+00 -0.15535247008E+03  0.15535247008E+03  0.00000000000E+00 0. -1.
         25    2    1    2    0    0  0.77818413195E+00  0.25301993210E+02  0.11768897851E+03  0.17354197804E+03  0.12500130419E+03 0.  0.
          2    1    1    2  501    0 -0.11646670768E+03  0.78492015412E+01 -0.89959024573E+02  0.14737275889E+03  0.00000000000E+00 0. -1.
          1    1    1    2  502    0  0.11568852355E+03 -0.33151194752E+02  0.40455916458E+03  0.42207932174E+03  0.00000000000E+00 0. -1.
         22    1    3    3    0    0 -0.17995456603E+00 -0.30495363969E+02 -0.11675076473E+02  0.32654356798E+02  0.00000000000E+00 0.  1.
         22    1    3    3    0    0  0.95813869798E+00  0.55797357179E+02  0.12936405499E+03  0.14088762125E+03  0.00000000000E+00 0.  1.
</event>
<event>
 7    1  0.6607887E-006  0.2106408E+03  0.7818608E-02  0.1229400E+00
          2   -1    0    0  502    0  0.00000000000E+00  0.00000000000E+00  0.88364725099E+03  0.88364725099E+03  0.00000000000E+00 0. -1.
          1   -1    0    0  501    0 -0.00000000000E+00 -0.00000000000E+00 -0.11222235246E+03  0.11222235246E+03  0.00000000000E+00 0. -1.
         25    2    1    2    0    0  0.17453146712E+03  0.10817255223E+03  0.34732772764E+03  0.42240087062E+03  0.12499364401E+03 0.  0.
          2    1    1    2  501    0 -0.21360200412E+03 -0.39932816169E+02  0.98631998575E+02  0.23863930337E+03  0.00000000000E+00 0. -1.
          1    1    1    2  502    0  0.39070536992E+02 -0.68239736060E+02  0.32546517232E+03  0.33482942946E+03  0.00000000000E+00 0. -1.
         22    1    3    3    0    0  0.10206775751E+03  0.12002776806E+02  0.24007450597E+03  0.26114682114E+03  0.00000000000E+00 0. -1.
         22    1    3    3    0    0  0.72463709615E+02  0.96169775423E+02  0.10725322167E+03  0.16125404948E+03  0.00000000000E+00 0. -1.
</event>
<event>
 7    1  0.6607887E-006  0.1118420E+03  0.7818608E-02  0.1372352E+00
          2   -1    0    0  502    0  0.00000000000E+00  0.00000000000E+00  0.87348728976E+02  0.87348728976E+02  0.00000000000E+00 0. -1.
          1   -1    0    0  501    0 -0.00000000000E+00 -0.00000000000E+00 -0.82010392440E+03  0.82010392440E+03  0.00000000000E+00 0. -1.
         25    2    1    2    0    0 -0.25243400787E+01  0.11438454542E+03 -0.12735559415E+03  0.21198281383E+03  0.12500827762E+03 0.  0.
          2    1    1    2  501    0  0.40849363934E+02 -0.10457215128E+03 -0.63576320938E+03  0.64559961567E+03  0.00000000000E+00 0. -1.
          1    1    1    2  502    0 -0.38325023855E+02 -0.98123941303E+01  0.30363608109E+02  0.49870223876E+02  0.00000000000E+00 0. -1.
         22    1    3    3    0    0  0.26149568175E+02 -0.76847278949E+01 -0.67986737249E+02  0.73246511182E+02  0.00000000000E+00 0.  1.
         22    1    3    3    0    0 -0.28673908254E+02  0.12206927331E+03 -0.59368856905E+02  0.13873630264E+03  0.00000000000E+00 0.  1.
</event>
<event>
 7    1  0.6607887E-006  0.2630240E+03  0.7818608E-02  0.1188176E+00
          2   -1    0    0  502    0  0.00000000000E+00  0.00000000000E+00  0.13075734723E+04  0.13075734723E+04  0.00000000000E+00 0. -1.
          1   -1    0    0  501    0 -0.00000000000E+00 -0.00000000000E+00 -0.16743034572E+03  0.16743034572E+03  0.00000000000E+00 0. -1.
         25    2    1    2    0    0  0.22656166000E+03 -0.48366145825E+02  0.25424569612E+03  0.36597052157E+03  0.12499631524E+03 0.  0.
          2    1    1    2  501    0  0.48915501707E+02  0.84795661895E+02 -0.65567057401E+02  0.11782219485E+03  0.00000000000E+00 0. -1.
          1    1    1    2  502    0 -0.27547716171E+03 -0.36429516070E+02  0.95146448787E+03  0.99121110161E+03  0.00000000000E+00 0. -1.
         22    1    3    3    0    0  0.12156823281E+03 -0.84577738876E+02  0.17649781758E+03  0.23039902073E+03  0.00000000000E+00 0. -1.
         22    1    3    3    0    0  0.10499342719E+03  0.36211593051E+02  0.77747878533E+02  0.13557150084E+03  0.00000000000E+00 0. -1.
</event>
<event>
 7    1  0.6607887E-006  0.8806248E+02  0.7818608E-02  0.1410905E+00
          2   -1    0    0  502    0  0.00000000000E+00  0.00000000000E+00  0.10188182388E+03  0.10188182388E+03  0.00000000000E+00 0. -1.
          1   -1    0    0  501    0 -0.00000000000E+00 -0.00000000000E+00 -0.12368009749E+04  0.12368009749E+04  0.00000000000E+00 0. -1.
         25    2    1    2    0    0  0.79750908297E+02  0.73387011438E+02 -0.12863208113E+02  0.16595297472E+03  0.12501626643E+03 0.  0.
          2    1    1    2  501    0 -0.34677546180E+02 -0.12567176164E+02 -0.10898314183E+04  0.10904554033E+04  0.00000000000E+00 0. -1.
          1    1    1    2  502    0 -0.45073362117E+02 -0.60819835274E+02 -0.32224524603E+02  0.82274420820E+02  0.00000000000E+00 0. -1.
         22    1    3    3    0    0  0.85088635916E+02  0.37096046906E+02  0.40438119375E+02  0.10124936620E+03  0.00000000000E+00 0.  1.
         22    1    3    3    0    0 -0.53377276190E+01  0.36290964532E+02 -0.53301327488E+02  0.64703608514E+02  0.00000000000E+00 0.  1.
</event>
<event>
 7    1  0.6607887E-006  0.3661050E+02  0.7818608E-02  0.1580154E+00
          2   -1    0    0  502    0  0.00000000000E+00  0.00000000000E+00  0.53583065446E+02  0.53583065446E+02  0.00000000000E+00 0. -1.
          1   -1    0    0  501    0 -0.00000000000E+00 -0.00000000000E+00 -0.48569411647E+03  0.48569411647E+03  0.00000000000E+00 0. -1.
         25    2    1    2    0    0  0.12607472103E+02 -0.52625308609E+01 -0.17094877998E+03  0.21221628866E+03  0.12500250082E+03 0.  0.
          2    1    1    2  501    0  0.24980435541E+02  0.11320923236E+02 -0.28222201394E+03  0.28355149553E+03  0.00000000000E+00 0. -1.
          1    1    1    2  502    0 -0.37587907643E+02 -0.60583923749E+01  0.21059742904E+02  0.43509397724E+02  0.00000000000E+00 0. -1.
         22    1    3    3    0    0  0.68170712596E+02 -0.54723449841E+01 -0.11183109601E+03  0.13108541739E+03  0.00000000000E+00 0. -1.
         22    1    3    3    0    0 -0.55563240494E+02  0.20981412319E+00 -0.59117683968E+02  0.81130871275E+02  0.00000000000E+00 0. -1.
</event>
<event>
 7    1  0.6607887E-006  0.7382410E+02  0.7818608E-02  0.1379549E+00
          2   -1    0    0  502    0  0.00000000000E+00  0.00000000000E+00  0.21785550959E+04  0.21785550959E+04  0.00000000000E+00 0. -1.
          1   -1    0    0  501    0 -0.00000000000E+00 -0.00000000000E+00 -0.19942067613E+02  0.19942067613E+02  0.00000000000E+00 0. -1.
         25    2    1    2    0    0 -0.36454642084E+02 -0.27593527999E+02  0.12558841617E+04  0.12629176121E+04  0.12500209519E+03 0.  0.
          2    1    1    2  501    0 -0.16782602406E+02 -0.53947325815E+02  0.44699484113E+02  0.72041748910E+02  0.00000000000E+00 0. -1.
          1    1    1    2  502    0  0.53237244491E+02  0.81540853814E+02  0.85802938254E+03  0.86353780250E+03  0.00000000000E+00 0. -1.
         22    1    3    3    0    0 -0.65681427825E+02 -0.50137655752E+02  0.56088764424E+03  0.56694160541E+03  0.00000000000E+00 0.  1.
         22    1    3    3    0    0  0.29226785741E+02  0.22544127753E+02  0.69499651744E+03  0.69597600673E+03  0.00000000000E+00 0.  1.
</event>
<event>
 7    1  0.6607887E-006  0.5458840E+02  0.7818608E-02  0.1485044E+00
          2   -1    0    0  502    0  0.00000000000E+00  0.00000000000E+00  0.12922126253E+04  0.12922126253E+04  0.00000000000E+00 0. -1.
          1   -1    0    0  501    0 -0.00000000000E+00 -0.00000000000E+00 -0.56921328848E+02  0.56921328848E+02  0.00000000000E+00 0. -1.
         25    2    1    2    0    0  0.60555213814E+02 -0.44701678666E+02  0.38153334194E+03  0.40848147449E+03  0.12499699994E+03 0.  0.
          2    1    1    2  501    0 -0.80314067683E+01  0.33442886201E+02 -0.35700912208E+02  0.49573029609E+02  0.00000000000E+00 0. -1.
          1    1    1    2  502    0 -0.52523807046E+02  0.11258792465E+02  0.88945886669E+03  0.89107945002E+03  0.00000000000E+00 0. -1.
         22    1    3    3    0    0 -0.24250159727E+02 -0.11746341605E+02  0.15029811211E+02  0.30853557541E+02  0.00000000000E+00 0.  1.
         22    1    3    3    0    0  0.84805373541E+02 -0.32955337061E+02  0.36650353073E+03  0.37762791695E+03  0.00000000000E+00 0.  1.
</event>
<event>
 7    1  0.6607887E-006  0.7569945E+02  0.7818608E-02  0.1429016E+00
          2   -1    0    0  502    0  0.00000000000E+00  0.00000000000E+00  0.10315425267E+04  0.10315425267E+04  0.00000000000E+00 0. -1.
          1   -1    0    0  501    0 -0.00000000000E+00 -0.00000000000E+00 -0.13860217709E+03  0.13860217709E+03  0.00000000000E+00 0. -1.
         25    2    1    2    0    0  0.86588888517E+02 -0.20651372361E+01  0.39496433891E+03  0.42322947375E+03  0.12499783212E+03 0.  0.
          2    1    1    2  501    0 -0.67480640119E+02  0.34132518846E+02 -0.11236044281E+03  0.13543830603E+03  0.00000000000E+00 0. -1.
          1    1    1    2  502    0 -0.19108248399E+02 -0.32067381610E+02  0.61033645349E+03  0.61147692399E+03  0.00000000000E+00 0. -1.
         22    1    3    3    0    0 -0.70992702509E+01 -0.42260658673E+02  0.64831391756E+02  0.77714041631E+02  0.00000000000E+00 0.  1.
         22    1    3    3    0    0  0.93688158768E+02  0.40195521437E+02  0.33013294715E+03  0.34551543212E+03  0.00000000000E+00 0.  1.
</event>
<event>
 7    1  0.6607887E-006  0.1308267E+03  0.7818608E-02  0.1238050E+00
          2   -1    0    0  502    0  0.00000000000E+00  0.00000000000E+00  0.51743588222E+04  0.51743588222E+04  0.00000000000E+00 0. -1.
          1   -1    0    0  501    0 -0.00000000000E+00 -0.00000000000E+00 -0.31666511779E+03  0.31666511779E+03  0.00000000000E+00 0. -1.
         25    2    1    2    0    0  0.65934032991E+02  0.81571331193E+02 -0.47529767606E+02  0.16995447610E+03  0.12499706540E+03 0.  0.
          2    1    1    2  501    0 -0.13454834801E+03  0.29818545247E+02 -0.18415382183E+03  0.23001094253E+03  0.00000000000E+00 0. -1.
          1    1    1    2  502    0  0.68614315016E+02 -0.11138987644E+03  0.50893772938E+04  0.50910585213E+04  0.00000000000E+00 0. -1.
         22    1    3    3    0    0  0.39910613736E+02  0.10405004062E+03 -0.18837506264E+00  0.11144192894E+03  0.00000000000E+00 0.  1.
         22    1    3    3    0    0  0.26023419256E+02 -0.22478709423E+02 -0.47341392543E+02  0.58512547159E+02  0.00000000000E+00 0.  1.
</event>
<event>
 7    1  0.6607887E-006  0.3284580E+03  0.7818608E-02  0.1199893E+00
          2   -1    0    0  502    0  0.00000000000E+00  0.00000000000E+00  0.22071237097E+04  0.22071237097E+04  0.00000000000E+00 0. -1.
          1   -1    0    0  501    0 -0.00000000000E+00 -0.00000000000E+00 -0.14122675682E+03  0.14122675682E+03  0.00000000000E+00 0. -1.
         25    2    1    2    0    0 -0.28169147993E+03 -0.98322853597E+02  0.46684658208E+03  0.56797218650E+03  0.12501679901E+03 0.  0.
          2    1    1    2  501    0  0.31020382278E+03  0.16108441025E+03  0.25040802110E+03  0.42997532013E+03  0.00000000000E+00 0. -1.
          1    1    1    2  502    0 -0.28512342849E+02 -0.62761556650E+02  0.13486423497E+04  0.13504029598E+04  0.00000000000E+00 0. -1.
         22    1    3    3    0    0 -0.12581669943E+03 -0.87164289875E+02  0.14811646149E+03  0.21299282018E+03  0.00000000000E+00 0.  1.
         22    1    3    3    0    0 -0.15587478050E+03 -0.11158563722E+02  0.31873012060E+03  0.35497936632E+03  0.00000000000E+00 0.  1.
</event>
<event>
 7    1  0.6607887E-006  0.2455657E+03  0.7818608E-02  0.1267500E+00
          2   -1    0    0  502    0  0.00000000000E+00  0.00000000000E+00  0.18682918001E+04  0.18682918001E+04  0.00000000000E+00 0. -1.
          1   -1    0    0  501    0 -0.00000000000E+00 -0.00000000000E+00 -0.66129251379E+03  0.66129251379E+03  0.00000000000E+00 0. -1.
         25    2    1    2    0    0 -0.21939552645E+03  0.10295336454E+03  0.74600029276E+03  0.79427627627E+03  0.12499829577E+03 0.  0.
          2    1    1    2  501    0  0.17390722835E+02  0.42640303733E+02 -0.62217724893E+03  0.62387912438E+03  0.00000000000E+00 0. -1.
          1    1    1    2  502    0  0.20200480362E+03 -0.14559366827E+03  0.10831762425E+04  0.11114289132E+04  0.00000000000E+00 0. -1.
         22    1    3    3    0    0 -0.10415643941E+03  0.55439734824E+01  0.45124483787E+03  0.46314274605E+03  0.00000000000E+00 0.  1.
         22    1    3    3    0    0 -0.11523908705E+03  0.97409391053E+02  0.29475545490E+03  0.33113353023E+03  0.00000000000E+00 0.  1.
</event>
<event>
 7    1  0.6607887E-006  0.9187122E+02  0.7818608E-02  0.1302763E+00
          2   -1    0    0  502    0  0.00000000000E+00  0.00000000000E+00  0.26400263520E+03  0.26400263520E+03  0.00000000000E+00 0. -1.
          1   -1    0    0  501    0 -0.00000000000E+00 -0.00000000000E+00 -0.40167489412E+03  0.40167489412E+03  0.00000000000E+00 0. -1.
         25    2    1    2    0    0 -0.18730784878E+02  0.15304529514E+02  0.97923019054E+02  0.16061689488E+03  0.12499519325E+03 0.  0.
          2    1    1    2  501    0 -0.22661362733E+02 -0.93232156620E+02 -0.34867062934E+03  0.36163099999E+03  0.00000000000E+00 0. -1.
          1    1    1    2  502    0  0.41392147611E+02  0.77927627106E+02  0.11307535137E+03  0.14342963445E+03  0.00000000000E+00 0. -1.
         22    1    3    3    0    0 -0.69165273163E+02 -0.58883184370E+01  0.72227905875E+02  0.10017673229E+03  0.00000000000E+00 0.  1.
         22    1    3    3    0    0  0.50434488285E+02  0.21192847951E+02  0.25695113178E+02  0.60440162592E+02  0.00000000000E+00 0.  1.
</event>
<event>
 7    1  0.6607887E-006  0.1537557E+03  0.7818608E-02  0.1306814E+00
          2   -1    0    0  502    0  0.00000000000E+00  0.00000000000E+00  0.13539115300E+04  0.13539115300E+04  0.00000000000E+00 0. -1.
          1   -1    0    0  501    0 -0.00000000000E+00 -0.00000000000E+00 -0.56906256613E+03  0.56906256613E+03  0.00000000000E+00 0. -1.
         25    2    1    2    0    0 -0.10774807208E+03  0.53965883066E+02  0.45687717480E+03  0.48875738418E+03  0.12500025667E+03 0.  0.
          2    1    1    2  501    0 -0.47482175464E+02  0.18073912645E+02 -0.54361719751E+03  0.54598615434E+03  0.00000000000E+00 0. -1.
          1    1    1    2  502    0  0.15523024754E+03 -0.72039795710E+02  0.87158898660E+03  0.88823055762E+03  0.00000000000E+00 0. -1.
         22    1    3    3    0    0 -0.85657907907E+02 -0.17629124713E+01  0.38844561153E+03  0.39778182232E+03  0.00000000000E+00 0.  1.
         22    1    3    3    0    0 -0.22090164171E+02  0.55728795537E+02  0.68431563261E+02  0.90975561858E+02  0.00000000000E+00 0.  1.
</event>
<event>
 7    1  0.6607887E-006  0.8964513E+02  0.7818608E-02  0.1361057E+00
          2   -1    0    0  502    0  0.00000000000E+00  0.00000000000E+00  0.12795062991E+03  0.12795062991E+03  0.00000000000E+00 0. -1.
          1   -1    0    0  501    0 -0.00000000000E+00 -0.00000000000E+00 -0.13704266889E+04  0.13704266889E+04  0.00000000000E+00 0. -1.
         25    2    1    2    0    0 -0.68750664612E+02 -0.12397539966E+03 -0.73366793518E+03  0.75762145235E+03  0.12500028938E+03 0.  0.
          2    1    1    2  501    0  0.19141423427E+02  0.50728296469E+02 -0.60652427084E+03  0.60894289163E+03  0.00000000000E+00 0. -1.
          1    1    1    2  502    0  0.49609241184E+02  0.73247103191E+02  0.97716147044E+02  0.13181297482E+03  0.00000000000E+00 0. -1.
         22    1    3    3    0    0 -0.36807419507E+02 -0.12147349752E+03 -0.34453417042E+03  0.36717079312E+03  0.00000000000E+00 0.  1.
         22    1    3    3    0    0 -0.31943245105E+02 -0.25019021450E+01 -0.38913376475E+03  0.39045065923E+03  0.00000000000E+00 0.  1.
</event>
<event>
 7    1  0.6607887E-006  0.1939169E+03  0.7818608E-02  0.1318149E+00
          2   -1    0    0  502    0  0.00000000000E+00  0.00000000000E+00  0.15392368478E+04  0.15392368478E+04  0.00000000000E+00 0. -1.
          1   -1    0    0  501    0 -0.00000000000E+00 -0.00000000000E+00 -0.19401609042E+03  0.19401609042E+03  0.00000000000E+00 0. -1.
         25    2    1    2    0    0  0.12186180068E+03  0.12163773970E+03 -0.84675113756E+02  0.22899012029E+03  0.12498224720E+03 0.  0.
          2    1    1    2  501    0 -0.68445303048E+01  0.35710446617E+02 -0.19882843245E+02  0.41441658366E+02  0.00000000000E+00 0. -1.
          1    1    1    2  502    0 -0.11501727037E+03 -0.15734818632E+03  0.14497787144E+04  0.14628211596E+04  0.00000000000E+00 0. -1.
         22    1    3    3    0    0  0.87891336375E+02  0.41258223552E+01 -0.52674642742E+02  0.10255012144E+03  0.00000000000E+00 0. -1.
         22    1    3    3    0    0  0.33970464304E+02  0.11751191735E+03 -0.32000471014E+02  0.12643999885E+03  0.00000000000E+00 0. -1.
</event>
<event>
 7    1  0.6607887E-006  0.5557937E+02  0.7818608E-02  0.1540642E+00
          2   -1    0    0  502    0  0.00000000000E+00  0.00000000000E+00  0.51152379480E+03  0.51152379480E+03  0.00000000000E+00 0. -1.
          1   -1    0    0  501    0 -0.00000000000E+00 -0.00000000000E+00 -0.13176879144E+03  0.13176879144E+03  0.00000000000E+00 0. -1.
         25    2    1    2    0    0  0.38524548035E+02  0.48179490980E+01  0.11144247223E+02  0.13136377942E+03  0.12499957945E+03 0.  0.
          2    1    1    2  501    0  0.11862598217E+02  0.19943766799E+02 -0.67934399454E+02  0.71788283861E+02  0.00000000000E+00 0. -1.
          1    1    1    2  502    0 -0.50387146252E+02 -0.24761715897E+02  0.43654515559E+03  0.44014052296E+03  0.00000000000E+00 0. -1.
         22    1    3    3    0    0  0.41871230306E+02  0.53300558028E+02  0.36033534174E+02  0.76763044485E+02  0.00000000000E+00 0.  1.
         22    1    3    3    0    0 -0.33466822714E+01 -0.48482608930E+02 -0.24889286951E+02  0.54600734939E+02  0.00000000000E+00 0.  1.
</event>
<event>
 7    1  0.6607887E-006  0.7662949E+02  0.7818608E-02  0.1377722E+00
          2   -1    0    0  502    0  0.00000000000E+00  0.00000000000E+00  0.51113633227E+03  0.51113633227E+03  0.00000000000E+00 0. -1.
          1   -1    0    0  501    0 -0.00000000000E+00 -0.00000000000E+00 -0.11724734649E+03  0.11724734649E+03  0.00000000000E+00 0. -1.
         25    2    1    2    0    0 -0.89354341711E+02  0.87947016166E+02  0.19498982520E+03  0.26337203827E+03  0.12499969030E+03 0.  0.
          2    1    1    2  501    0  0.38016635340E+02 -0.40088775521E+02 -0.68815764141E+02  0.88249554558E+02  0.00000000000E+00 0. -1.
          1    1    1    2  502    0  0.51337706371E+02 -0.47858240645E+02  0.26771492472E+03  0.27676208593E+03  0.00000000000E+00 0. -1.
         22    1    3    3    0    0 -0.58975122589E+02  0.24085123345E+02  0.89312139251E+01  0.64326703888E+02  0.00000000000E+00 0.  1.
         22    1    3    3    0    0 -0.30379219123E+02  0.63861892822E+02  0.18605861128E+03  0.19904533438E+03  0.00000000000E+00 0.  1.
</event>
<event>
 7    1  0.6607887E-006  0.7177056E+02  0.7818608E-02  0.1404454E+00
          2   -1    0    0  502    0  0.00000000000E+00  0.00000000000E+00  0.28925085352E+03  0.28925085352E+03  0.00000000000E+00 0. -1.
          1   -1    0    0  501    0 -0.00000000000E+00 -0.00000000000E+00 -0.15271889001E+04  0.15271889001E+04  0.00000000000E+00 0. -1.
         25    2    1    2    0    0  0.63692870041E+02  0.56396421904E+02  0.23419867140E+03  0.27876505567E+03  0.12499440180E+03 0.  0.
          2    1    1    2  501    0 -0.17929808888E+02 -0.69499030933E+02 -0.14862832238E+04  0.14880152602E+04  0.00000000000E+00 0. -1.
          1    1    1    2  502    0 -0.45763061153E+02  0.13102609029E+02  0.14146505800E+02  0.49659437731E+02  0.00000000000E+00 0. -1.
         22    1    3    3    0    0  0.26952443499E+01 -0.17338477877E+02 -0.72945908461E+01  0.19002584372E+02  0.00000000000E+00 0. -1.
         22    1    3    3    0    0  0.60997625691E+02  0.73734899781E+02  0.24149326224E+03  0.25976247130E+03  0.00000000000E+00 0. -1.
</event>
<event>
 7    1  0.6607887E-006  0.7600551E+02  0.7818608E-02  0.1373140E+00
          2   -1    0    0  502    0  0.00000000000E+00  0.00000000000E+00  0.36476939681E+03  0.36476939681E+03  0.00000000000E+00 0. -1.
          1   -1    0    0  501    0 -0.00000000000E+00 -0.00000000000E+00 -0.56293755299E+03  0.56293755299E+03  0.00000000000E+00 0. -1.
         25    2    1    2    0    0  0.50717200158E+00 -0.20488758397E+02 -0.86561676481E+02  0.15341093929E+03  0.12498778346E+03 0.  0.
          2    1    1    2  501    0 -0.74049705806E+01 -0.57361268638E+02 -0.43640794986E+03  0.44022386059E+03  0.00000000000E+00 0. -1.
          1    1    1    2  502    0  0.68977985790E+01  0.77850027035E+02  0.32480147016E+03  0.33407214992E+03  0.00000000000E+00 0. -1.
         22    1    3    3    0    0  0.31921630204E+01 -0.23090342949E+02 -0.11874495673E+03  0.12101123333E+03  0.00000000000E+00 0.  1.
         22    1    3    3    0    0 -0.26849910188E+01  0.26015845526E+01  0.32183280251E+02  0.32399705965E+02  0.00000000000E+00 0.  1.
</event>
<event>
 7    1  0.6607887E-006  0.9301081E+02  0.7818608E-02  0.1390488E+00
          2   -1    0    0  502    0  0.00000000000E+00  0.00000000000E+00  0.22266611875E+03  0.22266611875E+03  0.00000000000E+00 0. -1.
          1   -1    0    0  501    0 -0.00000000000E+00 -0.00000000000E+00 -0.65581139043E+03  0.65581139043E+03  0.00000000000E+00 0. -1.
         25    2    1    2    0    0 -0.67667397094E+02 -0.86128000624E+02 -0.19644188662E+02  0.16735583389E+03  0.12500068746E+03 0.  0.
          2    1    1    2  501    0 -0.11042000191E+02  0.39529922637E+02 -0.54741446953E+03  0.54895094681E+03  0.00000000000E+00 0. -1.
          1    1    1    2  502    0  0.78709397284E+02  0.46598077987E+02  0.13391338651E+03  0.16217072849E+03  0.00000000000E+00 0. -1.
         22    1    3    3    0    0 -0.48451775537E+02 -0.37469573413E+01  0.40746821159E+02  0.63418590938E+02  0.00000000000E+00 0. -1.
         22    1    3    3    0    0 -0.19215621556E+02 -0.82381043283E+02 -0.60391009821E+02  0.10393724295E+03  0.00000000000E+00 0. -1.
</event>
<event>
 7    1  0.6607887E-006  0.1183753E+03  0.7818608E-02  0.1298816E+00
          2   -1    0    0  502    0  0.00000000000E+00  0.00000000000E+00  0.98975853995E+03  0.98975853995E+03  0.00000000000E+00 0. -1.
          1   -1    0    0  501    0 -0.00000000000E+00 -0.00000000000E+00 -0.11810946871E+04  0.11810946871E+04  0.00000000000E+00 0. -1.
         25    2    1    2    0    0  0.14394090316E+03 -0.97196989979E+02  0.56515669392E+02  0.22132663407E+03  0.12500087839E+03 0.  0.
          2    1    1    2  501    0 -0.73136692726E+02  0.91708732438E+02 -0.10940667170E+04  0.11003369705E+04  0.00000000000E+00 0. -1.
          1    1    1    2  502    0 -0.70804210432E+02  0.54882575412E+01  0.84621490044E+03  0.84918962247E+03  0.00000000000E+00 0. -1.
         22    1    3    3    0    0  0.32206723839E+02  0.26666924265E+02 -0.78159451196E+01  0.42538064229E+02  0.00000000000E+00 0.  1.
         22    1    3    3    0    0  0.11173417932E+03 -0.12386391424E+03  0.64331614512E+02  0.17878856984E+03  0.00000000000E+00 0.  1.
</event>
<event>
 7    1  0.6607887E-006  0.1026457E+03  0.7818608E-02  0.1452422E+00
          2   -1    0    0  502    0  0.00000000000E+00  0.00000000000E+00  0.20935137530E+03  0.20935137530E+03  0.00000000000E+00 0. -1.
          1   -1    0    0  501    0 -0.00000000000E+00 -0.00000000000E+00 -0.58245866725E+03  0.58245866725E+03  0.00000000000E+00 0. -1.
         25    2    1    2    0    0 -0.90334723353E+02 -0.20624767761E+02 -0.32237965448E+03  0.35796532981E+03  0.12499916975E+03 0.  0.
          2    1    1    2  501    0 -0.12791982783E+02  0.19253811179E+02 -0.22777650048E+03  0.22894645278E+03  0.00000000000E+00 0. -1.
          1    1    1    2  502    0  0.10312670614E+03  0.13709565828E+01  0.17704886301E+03  0.20489825996E+03  0.00000000000E+00 0. -1.
         22    1    3    3    0    0 -0.35348688664E+02  0.63220884244E+01 -0.28276138698E+03  0.28503245527E+03  0.00000000000E+00 0. -1.
         22    1    3    3    0    0 -0.54986034689E+02 -0.26946856186E+02 -0.39618267503E+02  0.72932874543E+02  0.00000000000E+00 0. -1.
</event>
<event>
 7    1  0.6607887E-006  0.5836890E+02  0.7818608E-02  0.1436112E+00
          2   -1    0    0  502    0  0.00000000000E+00  0.00000000000E+00  0.13749072701E+02  0.13749072701E+02  0.00000000000E+00 0. -1.
          1   -1    0    0  501    0 -0.00000000000E+00 -0.00000000000E+00 -0.18992582795E+04  0.18992582795E+04  0.00000000000E+00 0. -1.
         25    2    1    2    0    0 -0.16426506266E+02 -0.55332083401E+02 -0.15454998840E+04  0.15516206356E+04  0.12500094385E+03 0.  0.
          2    1    1    2  501    0 -0.36416109271E+02  0.27917618027E+02 -0.24505735053E+03  0.24931632810E+03  0.00000000000E+00 0. -1.
          1    1    1    2  502    0  0.52842615537E+02  0.27414465373E+02 -0.94951972245E+02  0.11207038842E+03  0.00000000000E+00 0. -1.
         22    1    3    3    0    0 -0.67587538809E+02 -0.81541954540E+01 -0.75376310030E+03  0.75683114212E+03  0.00000000000E+00 0. -1.
         22    1    3    3    0    0  0.51161032543E+02 -0.47177887946E+02 -0.79173678368E+03  0.79478949351E+03  0.00000000000E+00 0. -1.
</event>
<event>
 7    1  0.6607887E-006  0.8136051E+02  0.7818608E-02  0.1366535E+00
          2   -1    0    0  502    0  0.00000000000E+00  0.00000000000E+00  0.58876047248E+03  0.58876047248E+03  0.00000000000E+00 0. -1.
          1   -1    0    0  501    0 -0.00000000000E+00 -0.00000000000E+00 -0.16950448694E+04  0.16950448694E+04  0.00000000000E+00 0. -1.
         25    2    1    2    0    0  0.32275607138E+02  0.11454573162E+03 -0.10635568274E+03  0.20273010347E+03  0.12500209659E+03 0.  0.
          2    1    1    2  501    0  0.12938623521E+02 -0.79726531452E+02 -0.15379331440E+04  0.15400526235E+04  0.00000000000E+00 0. -1.
          1    1    1    2  502    0 -0.45214230658E+02 -0.34819200173E+02  0.53800442980E+03  0.54102261491E+03  0.00000000000E+00 0. -1.
         22    1    3    3    0    0  0.66549368230E+02  0.81367489495E+02 -0.24413331432E+02  0.10791430633E+03  0.00000000000E+00 0. -1.
         22    1    3    3    0    0 -0.34273761093E+02  0.33178242130E+02 -0.81942351308E+02  0.94815797144E+02  0.00000000000E+00 0. -1.
</event>
<event>
 7    1  0.6607887E-006  0.7039476E+02  0.7818608E-02  0.1504294E+00
          2   -1    0    0  502    0  0.00000000000E+00  0.00000000000E+00  0.39449905109E+03  0.39449905109E+03  0.00000000000E+00 0. -1.
          1   -1    0    0  501    0 -0.00000000000E+00 -0.00000000000E+00 -0.71396123685E+03  0.71396123685E+03  0.00000000000E+00 0. -1.
         25    2    1    2    0    0  0.74111035031E+02  0.15300073341E+02  0.11776793851E+03  0.18767225950E+03  0.12500020755E+03 0.  0.
          2    1    1    2  501    0 -0.61198540730E+02 -0.34747384724E+02 -0.67661632402E+03  0.68026633906E+03  0.00000000000E+00 0. -1.
          1    1    1    2  502    0 -0.12912494301E+02  0.19447311382E+02  0.23938619975E+03  0.24052168937E+03  0.00000000000E+00 0. -1.
         22    1    3    3    0    0  0.96452425417E+02 -0.21928776241E+02  0.61025423739E+02  0.11622411083E+03  0.00000000000E+00 0.  1.
         22    1    3    3    0    0 -0.22341390386E+02  0.37228849582E+02  0.56742514766E+02  0.71448148665E+02  0.00000000000E+00 0.  1.
</event>
<event>
 7    1  0.6607887E-006  0.1563435E+03  0.7818608E-02  0.1242421E+00
          2   -1    0    0  502    0  0.00000000000E+00  0.00000000000E+00  0.13146271053E+04  0.13146271053E+04  0.00000000000E+00 0. -1.
          1   -1    0    0  501    0 -0.00000000000E+00 -0.00000000000E+00 -0.27279634393E+03  0.27279634393E+03  0.00000000000E+00 0. -1.
         25    2    1    2    0    0  0.90661056639E+02  0.24117935833E+02  0.24044704823E+03  0.28677484233E+03  0.12499570060E+03 0.  0.
          2    1    1    2  501    0  0.87248276547E+02 -0.31428708572E+02 -0.23314326059E+03  0.25090995485E+03  0.00000000000E+00 0. -1.
          1    1    1    2  502    0 -0.17790933319E+03  0.73107727392E+01  0.10345269737E+04  0.10497386520E+04  0.00000000000E+00 0. -1.
         22    1    3    3    0    0  0.15908928330E+02  0.37557400512E+02  0.71291314473E+01  0.41406241668E+02  0.00000000000E+00 0.  1.
         22    1    3    3    0    0  0.74752128309E+02 -0.13439464680E+02  0.23331791678E+03  0.24536860066E+03  0.00000000000E+00 0.  1.
</event>
<event>
 7    1  0.6607887E-006  0.2753229E+02  0.7818608E-02  0.1671487E+00
          2   -1    0    0  502    0  0.00000000000E+00  0.00000000000E+00  0.11897724332E+04  0.11897724332E+04  0.00000000000E+00 0. -1.
          1   -1    0    0  501    0 -0.00000000000E+00 -0.00000000000E+00 -0.12113482216E+04  0.12113482216E+04  0.00000000000E+00 0. -1.
         25    2    1    2    0    0  0.19532819372E+01 -0.76225027752E+01  0.10164808154E+03  0.16130532799E+03  0.12500063398E+03 0.  0.
          2    1    1    2  501    0  0.18155473766E+02 -0.11368190989E+02 -0.11812417594E+04  0.11814359699E+04  0.00000000000E+00 0. -1.
          1    1    1    2  502    0 -0.20108755703E+02  0.18990693765E+02  0.10580178894E+04  0.10583793568E+04  0.00000000000E+00 0. -1.
         22    1    3    3    0    0 -0.37947502739E+02  0.44794337092E+02  0.56218060598E+02  0.81283552685E+02  0.00000000000E+00 0. -1.
         22    1    3    3    0    0  0.39900784676E+02 -0.52416839867E+02  0.45430020947E+02  0.80021775303E+02  0.00000000000E+00 0. -1.
</event>
<event>
 7    1  0.6607887E-006  0.1292146E+03  0.7818608E-02  0.1365152E+00
          2   -1    0    0  502    0  0.00000000000E+00  0.00000000000E+00  0.68599941677E+03  0.68599941677E+03  0.00000000000E+00 0. -1.
          1   -1    0    0  501    0 -0.00000000000E+00 -0.00000000000E+00 -0.53484515035E+03  0.53484515035E+03  0.00000000000E+00 0. -1.
         25    2    1    2    0    0  0.74779537295E+02 -0.57542301124E+02  0.17121239888E+03  0.23204299419E+03  0.12500867971E+03 0.  0.
          2    1    1    2  501    0 -0.10453290994E+03  0.78423104596E+02 -0.49526042395E+03  0.51221108942E+03  0.00000000000E+00 0. -1.
          1    1    1    2  502    0  0.29753372642E+02 -0.20880803472E+02  0.47520229149E+03  0.47659048351E+03  0.00000000000E+00 0. -1.
         22    1    3    3    0    0  0.36288831191E+01 -0.53799131331E+02  0.87273336895E+01  0.54623087408E+02  0.00000000000E+00 0. -1.
         22    1    3    3    0    0  0.71150654176E+02 -0.37431697930E+01  0.16248506520E+03  0.17741990678E+03  0.00000000000E+00 0. -1.
</event>
<event>
 7    1  0.6607887E-006  0.4283868E+02  0.7818608E-02  0.1530311E+00
          2   -1    0    0  502    0  0.00000000000E+00  0.00000000000E+00  0.95766817082E+02  0.95766817082E+02  0.00000000000E+00 0. -1.
          1   -1    0    0  501    0 -0.00000000000E+00 -0.00000000000E+00 -0.78309507633E+03  0.78309507633E+03  0.00000000000E+00 0. -1.
         25    2    1    2    0    0 -0.72203757199E+02 -0.19232971066E+02 -0.61317776172E+03  0.63023435402E+03  0.12500033517E+03 0.  0.
          2    1    1    2  501    0  0.31477022663E+02  0.68501927543E+01 -0.15443350138E+03  0.15775751787E+03  0.00000000000E+00 0. -1.
          1    1    1    2  502    0  0.40726734537E+02  0.12382778311E+02  0.80283003847E+02  0.90870021522E+02  0.00000000000E+00 0. -1.
         22    1    3    3    0    0 -0.10418499139E+03 -0.14184794057E+02 -0.36145221178E+03  0.37643515008E+03  0.00000000000E+00 0. -1.
         22    1    3    3    0    0  0.31981234187E+02 -0.50481770086E+01 -0.25172554994E+03  0.25379920395E+03  0.00000000000E+00 0. -1.
</event>
<event>
 7    1  0.6607887E-006  0.9571891E+02  0.7818608E-02  0.1313277E+00
          2   -1    0    0  502    0  0.00000000000E+00  0.00000000000E+00  0.14977869216E+04  0.14977869216E+04  0.00000000000E+00 0. -1.
          1   -1    0    0  501    0 -0.00000000000E+00 -0.00000000000E+00 -0.20763302354E+03  0.20763302354E+03  0.00000000000E+00 0. -1.
         25    2    1    2    0    0 -0.54179216172E+02 -0.34987019269E+02  0.11434369714E+03  0.18127021960E+03  0.12499972982E+03 0.  0.
          2    1    1    2  501    0  0.43969520783E+02 -0.63165556623E+02 -0.16376323295E+03  0.18094640855E+03  0.00000000000E+00 0. -1.
          1    1    1    2  502    0  0.10209695389E+02  0.98152575892E+02  0.13395734339E+04  0.13432033170E+04  0.00000000000E+00 0. -1.
         22    1    3    3    0    0 -0.58512875312E+02 -0.73694125650E+00  0.13060035747E+03  0.14311098152E+03  0.00000000000E+00 0. -1.
         22    1    3    3    0    0  0.43336591401E+01 -0.34250078013E+02 -0.16256660331E+02  0.38159238076E+02  0.00000000000E+00 0. -1.
</event>
<event>
 7    1  0.6607887E-006  0.1272869E+03  0.7818608E-02  0.1303631E+00
          2   -1    0    0  502    0  0.00000000000E+00  0.00000000000E+00  0.31265824864E+04  0.31265824864E+04  0.00000000000E+00 0. -1.
          1   -1    0    0  501    0 -0.00000000000E+00 -0.00000000000E+00 -0.21750853275E+03  0.21750853275E+03  0.00000000000E+00 0. -1.
         25    2    1    2    0    0 -0.78195521669E+02  0.77127424175E+02  0.19576503071E+03  0.25692930813E+03  0.12500217181E+03 0.  0.
          2    1    1    2  501    0  0.36932520745E+02 -0.12497478000E+03 -0.16382424756E+03  0.20933487720E+03  0.00000000000E+00 0. -1.
          1    1    1    2  502    0  0.41263000924E+02  0.47847355825E+02  0.28771331705E+04  0.28778268338E+04  0.00000000000E+00 0. -1.
         22    1    3    3    0    0 -0.71712887978E+02  0.67700802544E+02  0.21386959806E+03  0.23551293370E+03  0.00000000000E+00 0. -1.
         22    1    3    3    0    0 -0.64826336918E+01  0.94266216314E+01 -0.18104567343E+02  0.21416374428E+02  0.00000000000E+00 0. -1.
</event>
<event>
 7    1  0.6607887E-006  0.1772199E+03  0.7818608E-02  0.1217944E+00
          2   -1    0    0  502    0  0.00000000000E+00  0.00000000000E+00  0.87271957207E+03  0.87271957207E+03  0.00000000000E+00 0. -1.
          1   -1    0    0  501    0 -0.00000000000E+00 -0.00000000000E+00 -0.23660926893E+04  0.23660926893E+04  0.00000000000E+00 0. -1.
         25    2    1    2    0    0 -0.13548428108E+03  0.53028850515E+02 -0.11879676417E+04  0.12033537602E+04  0.12500041994E+03 0.  0.
          2    1    1    2  501    0  0.17442514023E+03 -0.15089427765E+03 -0.11557894208E+04  0.11785764284E+04  0.00000000000E+00 0. -1.
          1    1    1    2  502    0 -0.38940859151E+02  0.97865427136E+02  0.85038394521E+03  0.85688207276E+03  0.00000000000E+00 0. -1.
         22    1    3    3    0    0 -0.75679199281E+02  0.64674488604E+02 -0.37120905138E+03  0.38432576092E+03  0.00000000000E+00 0. -1.
         22    1    3    3    0    0 -0.59805081800E+02 -0.11645638089E+02 -0.81675859036E+03  0.81902799929E+03  0.00000000000E+00 0. -1.
</event>
<event>
 7    1  0.6607887E-006  0.1033875E+03  0.7818608E-02  0.1423359E+00
          2   -1    0    0  502    0  0.00000000000E+00  0.00000000000E+00  0.48226238773E+03  0.48226238773E+03  0.00000000000E+00 0. -1.
          1   -1    0    0  501    0 -0.00000000000E+00 -0.00000000000E+00 -0.15368834666E+03  0.15368834666E+03  0.00000000000E+00 0. -1.
         25    2    1    2    0    0  0.10323354434E+03 -0.65467297035E+02  0.11762069347E+03  0.21072172905E+03  0.12500355156E+03 0.  0.
          2    1    1    2  501    0 -0.74783343563E+02  0.67681137332E+02 -0.82552751665E+02  0.13033894902E+03  0.00000000000E+00 0. -1.
          1    1    1    2  502    0 -0.28450200777E+02 -0.22138402976E+01  0.29350609926E+03  0.29489005632E+03  0.00000000000E+00 0. -1.
         22    1    3    3    0    0  0.89565969924E+02  0.16736105857E+02  0.68466457519E+02  0.11397287402E+03  0.00000000000E+00 0. -1.
         22    1    3    3    0    0  0.13667574416E+02 -0.82203402892E+02  0.49154235951E+02  0.96748855028E+02  0.00000000000E+00 0. -1.
</event>
<event>
 7    1  0.6607887E-006  0.8492819E+02  0.7818608E-02  0.1470577E+00
          2   -1    0    0  502    0  0.00000000000E+00  0.00000000000E+00  0.14921717121E+04  0.14921717121E+04  0.00000000000E+00 0. -1.
          1   -1    0    0  501    0 -0.00000000000E+00 -0.00000000000E+00 -0.10125668361E+04  0.10125668361E+04  0.00000000000E+00 0. -1.
         25    2    1    2    0    0 -0.64810471334E+02 -0.86821598311E+00  0.48330852471E+03  0.50340254856E+03  0.12500337937E+03 0.  0.
          2    1    1    2  501    0  0.83726703700E+02 -0.14690864088E+02 -0.10005671724E+04  0.10041716232E+04  0.00000000000E+00 0. -1.
          1    1    1    2  502    0 -0.18916232366E+02  0.15559080071E+02  0.99686352370E+03  0.99716437647E+03  0.00000000000E+00 0. -1.
         22    1    3    3    0    0  0.31845067075E+02  0.25287639546E+02  0.13660218142E+03  0.14252623961E+03  0.00000000000E+00 0.  1.
         22    1    3    3    0    0 -0.96655538408E+02 -0.26155855529E+02  0.34670634329E+03  0.36087630895E+03  0.00000000000E+00 0.  1.
</event>
<event>
 7    1  0.6607887E-006  0.1858468E+03  0.7818608E-02  0.1230865E+00
          2   -1    0    0  502    0  0.00000000000E+00  0.00000000000E+00  0.42740545149E+03  0.42740545149E+03  0.00000000000E+00 0. -1.
          1   -1    0    0  501    0 -0.00000000000E+00 -0.00000000000E+00 -0.37610068375E+03  0.37610068375E+03  0.00000000000E+00 0. -1.
         25    2    1    2    0    0  0.20699526560E+03  0.15202487184E+03 -0.57442922482E+01  0.28569214498E+03  0.12501361194E+03 0.  0.
          2    1    1    2  501    0 -0.14100763724E+03 -0.94129123489E+02 -0.19058494062E+03  0.25508050736E+03  0.00000000000E+00 0. -1.
          1    1    1    2  502    0 -0.65987628368E+02 -0.57895748353E+02  0.24763400061E+03  0.26273348289E+03  0.00000000000E+00 0. -1.
         22    1    3    3    0    0  0.37920948506E+02  0.34323863710E+02 -0.53715242270E+02  0.74171781748E+02  0.00000000000E+00 0. -1.
         22    1    3    3    0    0  0.16907431710E+03  0.11770100813E+03  0.47970950021E+02  0.21152036324E+03  0.00000000000E+00 0. -1.
</event>
<event>
 7    1  0.6607887E-006  0.6053977E+02  0.7818608E-02  0.1459358E+00
          2   -1    0    0  502    0  0.00000000000E+00  0.00000000000E+00  0.35440519008E+02  0.35440519008E+02  0.00000000000E+00 0. -1.
          1   -1    0    0  501    0 -0.00000000000E+00 -0.00000000000E+00 -0.10228640899E+04  0.10228640899E+04  0.00000000000E+00 0. -1.
         25    2    1    2    0    0 -0.46491444332E+02  0.29270744830E+02 -0.68665386841E+03  0.70009703879E+03  0.12499639122E+03 0.  0.
          2    1    1    2  501    0  0.24564201619E+02  0.28011546386E+02 -0.29416771910E+03  0.29651761110E+03  0.00000000000E+00 0. -1.
          1    1    1    2  502    0  0.21927242713E+02 -0.57282291216E+02 -0.66019833875E+01  0.61689959026E+02  0.00000000000E+00 0. -1.
         22    1    3    3    0    0 -0.83763164058E+02  0.12974593670E+02 -0.57599369651E+03  0.58219699943E+03  0.00000000000E+00 0.  1.
         22    1    3    3    0    0  0.37271719726E+02  0.16296151160E+02 -0.11066017190E+03  0.11790003935E+03  0.00000000000E+00 0.  1.
</event>
<event>
 7    1  0.6607887E-006  0.1285577E+03  0.7818608E-02  0.1326047E+00
          2   -1    0    0  502    0  0.00000000000E+00  0.00000000000E+00  0.18338694614E+04  0.18338694614E+04  0.00000000000E+00 0. -1.
          1   -1    0    0  501    0 -0.00000000000E+00 -0.00000000000E+00 -0.97222566968E+03  0.97222566968E+03  0.00000000000E+00 0. -1.
         25    2    1    2    0    0  0.10283181775E+03 -0.28677412380E+02  0.74055446176E+03  0.75857984056E+03  0.12500274776E+03 0.  0.
          2    1    1    2  501    0  0.15787622006E+02 -0.48622803478E+02 -0.95790664941E+03  0.95926981346E+03  0.00000000000E+00 0. -1.
          1    1    1    2  502    0 -0.11861943975E+03  0.77300215858E+02  0.10789959794E+04  0.10882454771E+04  0.00000000000E+00 0. -1.
         22    1    3    3    0    0  0.75374712890E+02 -0.52673637766E+02  0.24504794792E+03  0.26173336860E+03  0.00000000000E+00 0. -1.
         22    1    3    3    0    0  0.27457104858E+02  0.23996225386E+02  0.49550651383E+03  0.49684647195E+03  0.00000000000E+00 0. -1.
</event>
<event>
 7    1  0.6607887E-006  0.3017542E+02  0.7818608E-02  0.1609712E+00
          2   -1    0    0  502    0  0.00000000000E+00  0.00000000000E+00  0.10255060477E+03  0.10255060477E+03  0.00000000000E+00 0. -1.
          1   -1    0    0  501    0 -0.00000000000E+00 -0.00000000000E+00 -0.11775573005E+04  0.11775573005E+04  0.00000000000E+00 0. -1.
         25    2    1    2    0    0 -0.68115301868E+01  0.13402323882E+02 -0.35420602501E+03  0.37591619970E+03  0.12500024725E+03 0.  0.
          2    1    1    2  501    0 -0.18707679999E+02 -0.24482275659E+02 -0.81008631907E+03  0.81067206900E+03  0.00000000000E+00 0. -1.
          1    1    1    2  502    0  0.25519210186E+02  0.11079951776E+02  0.89285648360E+02  0.93519636563E+02  0.00000000000E+00 0. -1.
         22    1    3    3    0    0 -0.43075631803E+02 -0.41618219318E+02 -0.17644993145E+03  0.18633884336E+03  0.00000000000E+00 0.  1.
         22    1    3    3    0    0  0.36264101616E+02  0.55020543200E+02 -0.17775609356E+03  0.18957735635E+03  0.00000000000E+00 0.  1.
</event>
<event>
 7    1  0.6607887E-006  0.6139316E+02  0.7818608E-02  0.1481047E+00
          2   -1    0    0  502    0  0.00000000000E+00  0.00000000000E+00  0.20497886685E+04  0.20497886685E+04  0.00000000000E+00 0. -1.
          1   -1    0    0  501    0 -0.00000000000E+00 -0.00000000000E+00 -0.66050539382E+03  0.66050539382E+03  0.00000000000E+00 0. -1.
         25    2    1    2    0    0  0.63747640097E+02  0.26900379581E+02  0.38512585797E+03  0.41077409818E+03  0.12500416483E+03 0.  0.
          2    1    1    2  501    0 -0.39530502923E+02 -0.46971704057E+02 -0.64607626800E+03  0.64898655280E+03  0.00000000000E+00 0. -1.
          1    1    1    2  502    0 -0.24217137174E+02  0.20071324476E+02  0.16502336847E+04  0.16505334114E+04  0.00000000000E+00 0. -1.
         22    1    3    3    0    0 -0.25519097255E+02 -0.25041617084E+01  0.21406019117E+03  0.21559049282E+03  0.00000000000E+00 0.  1.
         22    1    3    3    0    0  0.89266737352E+02  0.29404541290E+02  0.17106566679E+03  0.19518360536E+03  0.00000000000E+00 0.  1.
</event>
<event>
 7    1  0.6607887E-006  0.1849234E+03  0.7818608E-02  0.1324373E+00
          2   -1    0    0  502    0  0.00000000000E+00  0.00000000000E+00  0.27671784381E+04  0.27671784381E+04  0.00000000000E+00 0. -1.
          1   -1    0    0  501    0 -0.00000000000E+00 -0.00000000000E+00 -0.80839479065E+02  0.80839479065E+02  0.00000000000E+00 0. -1.
         25    2    1    2    0    0 -0.18098448201E+03 -0.10411597198E+03  0.10639337197E+04  0.10914101793E+04  0.12500280440E+03 0.  0.
          2    1    1    2  501    0  0.20286296004E+02  0.29825174983E+02 -0.57240460975E+02  0.67657558639E+02  0.00000000000E+00 0. -1.
          1    1    1    2  502    0  0.16069818601E+03  0.74290797000E+02  0.16796457002E+04  0.16889501792E+04  0.00000000000E+00 0. -1.
         22    1    3    3    0    0 -0.54419292619E+02 -0.10233620293E+03  0.46264813208E+03  0.47694596335E+03  0.00000000000E+00 0. -1.
         22    1    3    3    0    0 -0.12656518940E+03 -0.17797690577E+01  0.60128558767E+03  0.61446421595E+03  0.00000000000E+00 0. -1.
</event>
<event>
 7    1  0.6607887E-006  0.3969804E+02  0.7818608E-02  0.1555335E+00
          2   -1    0    0  502    0  0.00000000000E+00  0.00000000000E+00  0.65899235345E+03  0.65899235345E+03  0.00000000000E+00 0. -1.
          1   -1    0    0  501    0 -0.00000000000E+00 -0.00000000000E+00 -0.66482615991E+02  0.66482615991E+02  0.00000000000E+00 0. -1.
         25    2    1    2    0    0  0.67415066431E+02 -0.45811236548E+00  0.19944646087E+03  0.24484152460E+03  0.12499392132E+03 0.  0.
          2    1    1    2  501    0 -0.38338833751E+02 -0.48394792055E+01 -0.34648428523E+02  0.51901833604E+02  0.00000000000E+00 0. -1.
          1    1    1    2  502    0 -0.29076232680E+02  0.52975915710E+01  0.42771170511E+03  0.42873161124E+03  0.00000000000E+00 0. -1.
         22    1    3    3    0    0  0.22253403059E+02 -0.40309243184E+02  0.11469541008E+02  0.47451021114E+02  0.00000000000E+00 0. -1.
         22    1    3    3    0    0  0.45161663372E+02  0.39851130819E+02  0.18797691986E+03  0.19739050349E+03  0.00000000000E+00 0. -1.
</event>
<event>
 7    1  0.6607887E-006  0.1240583E+03  0.7818608E-02  0.1334230E+00
          2   -1    0    0  502    0  0.00000000000E+00  0.00000000000E+00  0.60954811586E+03  0.60954811586E+03  0.00000000000E+00 0. -1.
          1   -1    0    0  501    0 -0.00000000000E+00 -0.00000000000E+00 -0.50065384211E+03  0.50065384211E+03  0.00000000000E+00 0. -1.
         25    2    1    2    0    0 -0.10605149191E+03 -0.63181638046E+02 -0.17211071724E+02  0.17652205563E+03  0.12499990725E+03 0.  0.
          2    1    1    2  501    0 -0.17563740890E+02  0.46061992074E+02 -0.39488574786E+03  0.39795093412E+03  0.00000000000E+00 0. -1.
          1    1    1    2  502    0  0.12361523280E+03  0.17119645972E+02  0.52099109333E+03  0.53572896822E+03  0.00000000000E+00 0. -1.
         22    1    3    3    0    0 -0.17185244942E+02 -0.46344921775E+02 -0.58931677583E+02  0.76916363934E+02  0.00000000000E+00 0. -1.
         22    1    3    3    0    0 -0.88866246970E+02 -0.16836716271E+02  0.41720605859E+02  0.99605691698E+02  0.00000000000E+00 0. -1.
</event>
<event>
 7    1  0.6607887E-006  0.1207561E+03  0.7818608E-02  0.1311851E+00
          2   -1    0    0  502    0  0.00000000000E+00  0.00000000000E+00  0.31112558743E+03  0.31112558743E+03  0.00000000000E+00 0. -1.
          1   -1    0    0  501    0 -0.00000000000E+00 -0.00000000000E+00 -0.21520991965E+04  0.21520991965E+04  0.00000000000E+00 0. -1.
         25    2    1    2    0    0  0.42879558535E+02 -0.65450185407E+02 -0.40532554597E+03  0.43131917656E+03  0.12500020215E+03 0.  0.
          2    1    1    2  501    0 -0.26695050948E+02 -0.55732871222E+02 -0.17206645692E+04  0.17217738930E+04  0.00000000000E+00 0. -1.
          1    1    1    2  502    0 -0.16184507587E+02  0.12118305663E+03  0.28501650615E+03  0.31013171440E+03  0.00000000000E+00 0. -1.
         22    1    3    3    0    0  0.59422990344E+02 -0.12302886429E+02 -0.34054451257E+03  0.34590897334E+03  0.00000000000E+00 0. -1.
         22    1    3    3    0    0 -0.16543431810E+02 -0.53147298978E+02 -0.64781033401E+02  0.85410203215E+02  0.00000000000E+00 0. -1.
</event>
<event>
 7    1  0.6607887E-006  0.7980317E+02  0.7818608E-02  0.1476125E+00
          2   -1    0    0  502    0  0.00000000000E+00  0.00000000000E+00  0.17623524267E+02  0.17623524267E+02  0.00000000000E+00 0. -1.
          1   -1    0    0  501    0 -0.00000000000E+00 -0.00000000000E+00 -0.14855324064E+04  0.14855324064E+04  0.00000000000E+00 0. -1.
         25    2    1    2    0    0  0.59045783378E+02  0.25900784036E+02 -0.73242535228E+03  0.74580761840E+03  0.12499940743E+03 0.  0.
          2    1    1    2  501    0 -0.83466750857E+02 -0.20299030694E+02 -0.72519213147E+03  0.73026185488E+03  0.00000000000E+00 0. -1.
          1    1    1    2  502    0  0.24420967479E+02 -0.56017533417E+01 -0.10291398387E+02  0.27086457389E+02  0.00000000000E+00 0. -1.
         22    1    3    3    0    0  0.29353637574E+02 -0.44891002495E+02 -0.17255416176E+03  0.18069802679E+03  0.00000000000E+00 0. -1.
         22    1    3    3    0    0  0.29692145804E+02  0.70791786531E+02 -0.55987119051E+03  0.56510959161E+03  0.00000000000E+00 0. -1.
</event>
<event>
 7    1  0.6607887E-006  0.6322229E+02  0.7818608E-02  0.1504743E+00
          2   -1    0    0  502    0  0.00000000000E+00  0.00000000000E+00  0.12275997557E+04  0.12275997557E+04  0.00000000000E+00 0. -1.
          1   -1    0    0  501    0 -0.00000000000E+00 -0.00000000000E+00 -0.11721350670E+03  0.11721350670E+03  0.00000000000E+00 0. -1.
         25    2    1    2    0    0 -0.69257124268E+02  0.13531126017E+02  0.15657120961E+03  0.21242986241E+03  0.12502904515E+03 0.  0.
          2    1    1    2  501    0  0.16005208795E+02  0.20378587321E+02 -0.86426725806E+02  0.90227670164E+02  0.00000000000E+00 0. -1.
          1    1    1    2  502    0  0.53251915473E+02 -0.33909713338E+02  0.10402417652E+04  0.10421557298E+04  0.00000000000E+00 0. -1.
         22    1    3    3    0    0 -0.22371454536E+02  0.55495959820E+02  0.13191015653E+03  0.14484672219E+03  0.00000000000E+00 0. -1.
         22    1    3    3    0    0 -0.46885669732E+02 -0.41964833803E+02  0.24661053081E+02  0.67583140215E+02  0.00000000000E+00 0. -1.
</event>
<event>
 7    1  0.6607887E-006  0.1021255E+03  0.7818608E-02  0.1301108E+00
          2   -1    0    0  502    0  0.00000000000E+00  0.00000000000E+00  0.31491402693E+03  0.31491402693E+03  0.00000000000E+00 0. -1.
          1   -1    0    0  501    0 -0.00000000000E+00 -0.00000000000E+00 -0.22510139341E+03  0.22510139341E+03  0.00000000000E+00 0. -1.
         25    2    1    2    0    0  0.10992066878E+02  0.46934896711E+02 -0.14472618593E+02  0.13475205781E+03  0.12499980132E+03 0.  0.
          2    1    1    2  501    0 -0.10330548791E+02 -0.12752739021E+03 -0.11475379883E+03  0.17186736117E+03  0.00000000000E+00 0. -1.
          1    1    1    2  502    0 -0.66151808708E+00  0.80592493494E+02  0.21903905094E+03  0.23339600136E+03  0.00000000000E+00 0. -1.
         22    1    3    3    0    0 -0.36704288045E+01  0.77339158083E+02 -0.44732398156E+02  0.89419264509E+02  0.00000000000E+00 0.  1.
         22    1    3    3    0    0  0.14662495682E+02 -0.30404261371E+02  0.30259779563E+02  0.45332793300E+02  0.00000000000E+00 0.  1.
</event>
<event>
 7    1  0.6607887E-006  0.7472614E+02  0.7818608E-02  0.1499671E+00
          2   -1    0    0  502    0  0.00000000000E+00  0.00000000000E+00  0.48353494245E+03  0.48353494245E+03  0.00000000000E+00 0. -1.
          1   -1    0    0  501    0 -0.00000000000E+00 -0.00000000000E+00 -0.26747406082E+03  0.26747406082E+03  0.00000000000E+00 0. -1.
         25    2    1    2    0    0  0.44049191396E+02 -0.52123972561E+02  0.32786570441E+03  0.35746114680E+03  0.12500124627E+03 0.  0.
          2    1    1    2  501    0 -0.63270771577E+02  0.40051291582E+02 -0.24615547952E+03  0.25729325018E+03  0.00000000000E+00 0. -1.
          1    1    1    2  502    0  0.19221580181E+02  0.12072680979E+02  0.13435065673E+03  0.13625460629E+03  0.00000000000E+00 0. -1.
         22    1    3    3    0    0 -0.41807264999E+02 -0.15596477069E+02  0.15151263888E+03  0.15794675446E+03  0.00000000000E+00 0. -1.
         22    1    3    3    0    0  0.85856456395E+02 -0.36527495492E+02  0.17635306553E+03  0.19951439234E+03  0.00000000000E+00 0. -1.
</event>
<event>
 7    1  0.6607887E-006  0.2807174E+03  0.7818608E-02  0.1239775E+00
          2   -1    0    0  502    0  0.00000000000E+00  0.00000000000E+00  0.12255313803E+04  0.12255313803E+04  0.00000000000E+00 0. -1.
          1   -1    0    0  501    0 -0.00000000000E+00 -0.00000000000E+00 -0.12857130605E+04  0.12857130605E+04  0.00000000000E+00 0. -1.
         25    2    1    2    0    0  0.27674319510E+03 -0.87836289761E+02 -0.38244860708E+03  0.49617905060E+03  0.12499881345E+03 0.  0.
          2    1    1    2  501    0 -0.29261045535E+02 -0.44254101907E+02 -0.82870434148E+03  0.83040081883E+03  0.00000000000E+00 0. -1.
          1    1    1    2  502    0 -0.24748214957E+03  0.13209039167E+03  0.11509712684E+04  0.11846645713E+04  0.00000000000E+00 0. -1.
         22    1    3    3    0    0  0.20320609303E+03 -0.62456209659E+02 -0.17744706892E+03  0.27691326555E+03  0.00000000000E+00 0. -1.
         22    1    3    3    0    0  0.73537102074E+02 -0.25380080102E+02 -0.20500153815E+03  0.21926578505E+03  0.00000000000E+00 0. -1.
</event>
<event>
 7    1  0.6607887E-006  0.1116487E+03  0.7818608E-02  0.1327123E+00
          2   -1    0    0  502    0  0.00000000000E+00  0.00000000000E+00  0.20718805041E+04  0.20718805041E+04  0.00000000000E+00 0. -1.
          1   -1    0    0  501    0 -0.00000000000E+00 -0.00000000000E+00 -0.20359700876E+03  0.20359700876E+03  0.00000000000E+00 0. -1.
         25    2    1    2    0    0 -0.18695707261E+02  0.81485866621E+02  0.32159018645E+02  0.15378280333E+03  0.12500188874E+03 0.  0.
          2    1    1    2  501    0 -0.26388534783E+02 -0.11845963318E+03 -0.11648228335E+03  0.16821760251E+03  0.00000000000E+00 0. -1.
          1    1    1    2  502    0  0.45084242044E+02  0.36973766560E+02  0.19526067600E+04  0.19534771070E+04  0.00000000000E+00 0. -1.
         22    1    3    3    0    0  0.14202306765E+02  0.45489993185E+02  0.75008594689E+02  0.88866947031E+02  0.00000000000E+00 0.  1.
         22    1    3    3    0    0 -0.32898014025E+02  0.35995873436E+02 -0.42849576044E+02  0.64915856294E+02  0.00000000000E+00 0.  1.
</event>
<event>
 7    1  0.6607887E-006  0.1189833E+03  0.7818608E-02  0.1421592E+00
          2   -1    0    0  502    0  0.00000000000E+00  0.00000000000E+00  0.98799068324E+03  0.98799068324E+03  0.00000000000E+00 0. -1.
          1   -1    0    0  501    0 -0.00000000000E+00 -0.00000000000E+00 -0.36016190864E+02  0.36016190864E+02  0.00000000000E+00 0. -1.
         25    2    1    2    0    0  0.62191256477E+02  0.88119932735E+02  0.27021154547E+03  0.31665998720E+03  0.12500557293E+03 0.  0.
          2    1    1    2  501    0 -0.80618128855E+02 -0.10521253459E+03  0.34404369977E+03  0.36869367703E+03  0.00000000000E+00 0. -1.
          1    1    1    2  502    0  0.18426872378E+02  0.17092601851E+02  0.33771924714E+03  0.33865320987E+03  0.00000000000E+00 0. -1.
         22    1    3    3    0    0 -0.24217215097E+02  0.11695131761E+02  0.48743661060E+01  0.27331466461E+02  0.00000000000E+00 0.  1.
         22    1    3    3    0    0  0.86408471574E+02  0.76424800975E+02  0.26533717936E+03  0.28932852074E+03  0.00000000000E+00 0.  1.
</event>
<event>
 7    1  0.6607887E-006  0.2325290E+03  0.7818608E-02  0.1199712E+00
          2   -1    0    0  502    0  0.00000000000E+00  0.00000000000E+00  0.15427993538E+04  0.15427993538E+04  0.00000000000E+00 0. -1.
          1   -1    0    0  501    0 -0.00000000000E+00 -0.00000000000E+00 -0.90958681436E+03  0.90958681436E+03  0.00000000000E+00 0. -1.
         25    2    1    2    0    0  0.20828955951E+03  0.19599837197E+03  0.11206116781E+02  0.31233140297E+03  0.12500170324E+03 0.  0.
          2    1    1    2  501    0 -0.48268820942E+00 -0.97563901360E+02 -0.74625541936E+03  0.75260620431E+03  0.00000000000E+00 0. -1.
          1    1    1    2  502    0 -0.20780687130E+03 -0.98434470610E+02  0.13682618420E+04  0.13874485609E+04  0.00000000000E+00 0. -1.
         22    1    3    3    0    0 -0.51832092791E+01 -0.95192213651E+01  0.11778272526E+02  0.16006527966E+02  0.00000000000E+00 0.  1.
         22    1    3    3    0    0  0.21347276879E+03  0.20551759333E+03 -0.57215574536E+00  0.29632487501E+03  0.00000000000E+00 0.  1.
</event>
<event>
 7    1  0.6607887E-006  0.7108101E+02  0.7818608E-02  0.1389048E+00
          2   -1    0    0  502    0  0.00000000000E+00  0.00000000000E+00  0.68767935029E+03  0.68767935029E+03  0.00000000000E+00 0. -1.
          1   -1    0    0  501    0 -0.00000000000E+00 -0.00000000000E+00 -0.16100547175E+04  0.16100547175E+04  0.00000000000E+00 0. -1.
         25    2    1    2    0    0 -0.20617715548E+02 -0.19804731547E+02 -0.66698352275E+02  0.14453728662E+03  0.12500015777E+03 0.  0.
          2    1    1    2  501    0  0.15593759943E+02 -0.52044855115E+02 -0.15019451632E+04  0.15029275118E+04  0.00000000000E+00 0. -1.
          1    1    1    2  502    0  0.50239556047E+01  0.71849586662E+02  0.64626814829E+03  0.65026926940E+03  0.00000000000E+00 0. -1.
         22    1    3    3    0    0 -0.44806488722E+02 -0.57508328072E+02 -0.68040700818E+02  0.99721443016E+02  0.00000000000E+00 0. -1.
         22    1    3    3    0    0  0.24188773175E+02  0.37703596525E+02  0.13423485434E+01  0.44815843607E+02  0.00000000000E+00 0. -1.
</event>
<event>
 7    1  0.6607887E-006  0.1790419E+03  0.7818608E-02  0.1275994E+00
          2   -1    0    0  502    0  0.00000000000E+00  0.00000000000E+00  0.23048592727E+04  0.23048592727E+04  0.00000000000E+00 0. -1.
          1   -1    0    0  501    0 -0.00000000000E+00 -0.00000000000E+00 -0.87381522592E+02  0.87381522592E+02  0.00000000000E+00 0. -1.
         25    2    1    2    0    0 -0.18900454226E+03 -0.13536927860E+02  0.48697275029E+03  0.53728392012E+03  0.12500234348E+03 0.  0.
          2    1    1    2  501    0  0.16529447025E+03  0.66681284797E+02  0.66969305925E+02  0.19040363330E+03  0.00000000000E+00 0. -1.
          1    1    1    2  502    0  0.23710072005E+02 -0.53144356936E+02  0.16635356939E+04  0.16645532419E+04  0.00000000000E+00 0. -1.
         22    1    3    3    0    0 -0.59484764026E+02 -0.52844986394E+02  0.27066679074E+03  0.28211972874E+03  0.00000000000E+00 0. -1.
         22    1    3    3    0    0 -0.12951977823E+03  0.39308058534E+02  0.21630595956E+03  0.25516419137E+03  0.00000000000E+00 0. -1.
</event>
<event>
 7    1  0.6607887E-006  0.5448287E+02  0.7818608E-02  0.1551567E+00
          2   -1    0    0  502    0  0.00000000000E+00  0.00000000000E+00  0.23934222024E+04  0.23934222024E+04  0.00000000000E+00 0. -1.
          1   -1    0    0  501    0 -0.00000000000E+00 -0.00000000000E+00 -0.14519673437E+03  0.14519673437E+03  0.00000000000E+00 0. -1.
         25    2    1    2    0    0  0.29101754320E+02  0.23599832081E+02  0.10593261930E+04  0.10673338752E+04  0.12500301506E+03 0.  0.
          2    1    1    2  501    0  0.67315509387E+01  0.21007622518E+02 -0.13971172825E+03  0.14144257136E+03  0.00000000000E+00 0. -1.
          1    1    1    2  502    0 -0.35833305258E+02 -0.44607454598E+02  0.13286110033E+04  0.13298424902E+04  0.00000000000E+00 0. -1.
         22    1    3    3    0    0  0.14985676320E+01  0.32030620793E+02  0.63945593892E+02  0.71534923999E+02  0.00000000000E+00 0.  1.
         22    1    3    3    0    0  0.27603186688E+02 -0.84307887122E+01  0.99538059909E+03  0.99579895117E+03  0.00000000000E+00 0.  1.
</event>
<event>
 7    1  0.6607887E-006  0.1040319E+03  0.7818608E-02  0.1316880E+00
          2   -1    0    0  502    0  0.00000000000E+00  0.00000000000E+00  0.20272561792E+04  0.20272561792E+04  0.00000000000E+00 0. -1.
          1   -1    0    0  501    0 -0.00000000000E+00 -0.00000000000E+00 -0.20845077603E+04  0.20845077603E+04  0.00000000000E+00 0. -1.
         25    2    1    2    0    0 -0.54721610819E+02 -0.15143412310E+03  0.10847694817E+03  0.23090940883E+03  0.12500063390E+03 0.  0.
          2    1    1    2  501    0 -0.58372772279E+01  0.68303321269E+02 -0.20212863565E+04  0.20224485042E+04  0.00000000000E+00 0. -1.
          1    1    1    2  502    0  0.60558888047E+02  0.83130801827E+02  0.18555578272E+04  0.18584060264E+04  0.00000000000E+00 0. -1.
         22    1    3    3    0    0  0.14130681369E+02 -0.10564519484E+02  0.66204775984E+02  0.68515382149E+02  0.00000000000E+00 0.  1.
         22    1    3    3    0    0 -0.68852292188E+02 -0.14086960361E+03  0.42272172188E+02  0.16239402668E+03  0.00000000000E+00 0.  1.
</event>
<event>
 7    1  0.6607887E-006  0.5638196E+02  0.7818608E-02  0.1548966E+00
          2   -1    0    0  502    0  0.00000000000E+00  0.00000000000E+00  0.83336685413E+02  0.83336685413E+02  0.00000000000E+00 0. -1.
          1   -1    0    0  501    0 -0.00000000000E+00 -0.00000000000E+00 -0.18049884944E+04  0.18049884944E+04  0.00000000000E+00 0. -1.
         25    2    1    2    0    0 -0.10324884780E+02  0.73339973828E+02 -0.44358740938E+03  0.46677595895E+03  0.12499860431E+03 0.  0.
          2    1    1    2  501    0 -0.20231780257E+01 -0.55525291403E+02 -0.13475839263E+04  0.13487288792E+04  0.00000000000E+00 0. -1.
          1    1    1    2  502    0  0.12348062805E+02 -0.17814682426E+02  0.69519526696E+02  0.72820341643E+02  0.00000000000E+00 0. -1.
         22    1    3    3    0    0 -0.43132268969E+02  0.58149364400E+02 -0.11291181724E+03  0.13412986125E+03  0.00000000000E+00 0. -1.
         22    1    3    3    0    0  0.32807384189E+02  0.15190609428E+02 -0.33067559215E+03  0.33264609770E+03  0.00000000000E+00 0. -1.
</event>
<event>
 7    1  0.6607887E-006  0.1011344E+03  0.7818608E-02  0.1321524E+00
          2   -1    0    0  502    0  0.00000000000E+00  0.00000000000E+00  0.26030100049E+03  0.26030100049E+03  0.00000000000E+00 0. -1.
          1   -1    0    0  501    0 -0.00000000000E+00 -0.00000000000E+00 -0.58218276679E+03  0.58218276679E+03  0.00000000000E+00 0. -1.
         25    2    1    2    0    0 -0.10897298658E+03  0.26148438880E+02  0.17069040706E+03  0.23941365318E+03  0.12499931843E+03 0.  0.
          2    1    1    2  501    0  0.45897432594E+02  0.49694717085E+02 -0.49961574542E+03  0.50417460497E+03  0.00000000000E+00 0. -1.
          1    1    1    2  502    0  0.63075553991E+02 -0.75843155966E+02  0.70435720586E+01  0.98895509127E+02  0.00000000000E+00 0. -1.
         22    1    3    3    0    0 -0.96840198027E+02  0.47154334683E+02  0.18289772947E+03  0.21225723705E+03  0.00000000000E+00 0. -1.
         22    1    3    3    0    0 -0.12132788558E+02 -0.21005895803E+02 -0.12207322414E+02  0.27156416133E+02  0.00000000000E+00 0. -1.
</event>
<event>
 7    1  0.6607887E-006  0.1315951E+03  0.7818608E-02  0.1286151E+00
          2   -1    0    0  502    0  0.00000000000E+00  0.00000000000E+00  0.21436847473E+04  0.21436847473E+04  0.00000000000E+00 0. -1.
          1   -1    0    0  501    0 -0.00000000000E+00 -0.00000000000E+00 -0.93846990717E+02  0.93846990717E+02  0.00000000000E+00 0. -1.
         25    2    1    2    0    0 -0.86284498865E+02  0.94542772045E+02  0.69446015546E+03  0.71713629599E+03  0.12500483601E+03 0.  0.
          2    1    1    2  501    0  0.12825991979E+03 -0.36176047010E+02 -0.27148530426E+02  0.13600130921E+03  0.00000000000E+00 0. -1.
          1    1    1    2  502    0 -0.41975420925E+02 -0.58366725035E+02  0.13825261316E+04  0.13843941328E+04  0.00000000000E+00 0. -1.
         22    1    3    3    0    0 -0.71147304092E+02  0.47828695052E+02  0.63149089038E+03  0.63728350644E+03  0.00000000000E+00 0.  1.
         22    1    3    3    0    0 -0.15137194773E+02  0.46714076993E+02  0.62969265074E+02  0.79852789550E+02  0.00000000000E+00 0.  1.
</event>
<event>
 7    1  0.6607887E-006  0.1223972E+03  0.7818608E-02  0.1362829E+00
          2   -1    0    0  502    0  0.00000000000E+00  0.00000000000E+00  0.60250303227E+03  0.60250303227E+03  0.00000000000E+00 0. -1.
          1   -1    0    0  501    0 -0.00000000000E+00 -0.00000000000E+00 -0.64350463572E+03  0.64350463572E+03  0.00000000000E+00 0. -1.
         25    2    1    2    0    0  0.16086498554E+02 -0.14828708680E+03 -0.30419818041E+03  0.36112229609E+03  0.12499977687E+03 0.  0.
          2    1    1    2  501    0 -0.28346807620E+02  0.26968124297E+02 -0.30309733901E+03  0.30561220222E+03  0.00000000000E+00 0. -1.
          1    1    1    2  502    0  0.12260309065E+02  0.12131896251E+03  0.56629391598E+03  0.57927316968E+03  0.00000000000E+00 0. -1.
         22    1    3    3    0    0 -0.37160819887E+02 -0.11283499572E+03 -0.13282827041E+03  0.17820216670E+03  0.00000000000E+00 0.  1.
         22    1    3    3    0    0  0.53247318441E+02 -0.35452091079E+02 -0.17136991000E+03  0.18292012939E+03  0.00000000000E+00 0.  1.
</event>
<event>
 7    1  0.6607887E-006  0.4077519E+02  0.7818608E-02  0.1513895E+00
          2   -1    0    0  502    0  0.00000000000E+00  0.00000000000E+00  0.76061969055E+03  0.76061969055E+03  0.00000000000E+00 0. -1.
          1   -1    0    0  501    0 -0.00000000000E+00 -0.00000000000E+00 -0.65410894976E+02  0.65410894976E+02  0.00000000000E+00 0. -1.
         25    2    1    2    0    0  0.18048317302E+02  0.56170878097E+02  0.13070009432E+03  0.19023197469E+03  0.12499912094E+03 0.  0.
          2    1    1    2  501    0  0.14788730993E+02 -0.37530611297E+02 -0.23429146686E+02  0.46649525862E+02  0.00000000000E+00 0. -1.
          1    1    1    2  502    0 -0.32837048295E+02 -0.18640266800E+02  0.58793784794E+03  0.58914908498E+03  0.00000000000E+00 0. -1.
         22    1    3    3    0    0 -0.38381200456E+02 -0.16804463929E+02  0.63602140849E+02  0.76162581869E+02  0.00000000000E+00 0.  1.
         22    1    3    3    0    0  0.56429517759E+02  0.72975342026E+02  0.67097953473E+02  0.11406939282E+03  0.00000000000E+00 0.  1.
</event>
<event>
 7    1  0.6607887E-006  0.7355288E+02  0.7818608E-02  0.1362996E+00
          2   -1    0    0  502    0  0.00000000000E+00  0.00000000000E+00  0.94750559185E+03  0.94750559185E+03  0.00000000000E+00 0. -1.
          1   -1    0    0  501    0 -0.00000000000E+00 -0.00000000000E+00 -0.19276003853E+03  0.19276003853E+03  0.00000000000E+00 0. -1.
         25    2    1    2    0    0  0.18208400539E+02  0.29309802738E+02  0.33962876889E+03  0.36354254398E+03  0.12499948097E+03 0.  0.
          2    1    1    2  501    0  0.64691965481E+02 -0.64904601029E+01 -0.17172222956E+03  0.18361835582E+03  0.00000000000E+00 0. -1.
          1    1    1    2  502    0 -0.82900366020E+02 -0.22819342636E+02  0.58683901400E+03  0.59310473058E+03  0.00000000000E+00 0. -1.
         22    1    3    3    0    0 -0.64702082312E+01  0.25137066717E+02  0.33741943791E+03  0.33841633058E+03  0.00000000000E+00 0. -1.
         22    1    3    3    0    0  0.24678608770E+02  0.41727360215E+01  0.22093309720E+01  0.25126213405E+02  0.00000000000E+00 0. -1.
</event>
<event>
 7    1  0.6607887E-006  0.1245268E+03  0.7818608E-02  0.1245044E+00
          2   -1    0    0  502    0  0.00000000000E+00  0.00000000000E+00  0.13874228737E+04  0.13874228737E+04  0.00000000000E+00 0. -1.
          1   -1    0    0  501    0 -0.00000000000E+00 -0.00000000000E+00 -0.36880854375E+03  0.36880854375E+03  0.00000000000E+00 0. -1.
         25    2    1    2    0    0 -0.77059684757E+02  0.14763108152E+02 -0.45880193498E+02  0.15455412312E+03  0.12500336171E+03 0.  0.
          2    1    1    2  501    0  0.38834504333E+02  0.10653159236E+03 -0.25342537762E+03  0.27763559015E+03  0.00000000000E+00 0. -1.
          1    1    1    2  502    0  0.38225180424E+02 -0.12129470051E+03  0.13179199011E+04  0.13240417042E+04  0.00000000000E+00 0. -1.
         22    1    3    3    0    0 -0.70224302490E+02  0.15034318644E+02 -0.87032692170E+02  0.11283693058E+03  0.00000000000E+00 0. -1.
         22    1    3    3    0    0 -0.68353822667E+01 -0.27121049154E+00  0.41152498671E+02  0.41717192532E+02  0.00000000000E+00 0. -1.
</event>
<event>
 7    1  0.6607887E-006  0.4399859E+02  0.7818608E-02  0.1582265E+00
          2   -1    0    0  502    0  0.00000000000E+00  0.00000000000E+00  0.11480710455E+04  0.11480710455E+04  0.00000000000E+00 0. -1.
          1   -1    0    0  501    0 -0.00000000000E+00 -0.00000000000E+00 -0.16208649959E+04  0.16208649959E+04  0.00000000000E+00 0. -1.
         25    2    1    2    0    0  0.63006368637E+02 -0.16000252749E+02  0.30197086484E+02  0.14409362249E+03  0.12500118972E+03 0.  0.
          2    1    1    2  501    0 -0.43707548207E+02  0.43829239621E+01 -0.15634886526E+04  0.15641055996E+04  0.00000000000E+00 0. -1.
          1    1    1    2  502    0 -0.19298820429E+02  0.11617328787E+02  0.10604976158E+04  0.10607368193E+04  0.00000000000E+00 0. -1.
         22    1    3    3    0    0 -0.61117411264E+01  0.18223407604E+02 -0.37068074265E+02  0.41755096623E+02  0.00000000000E+00 0.  1.
         22    1    3    3    0    0  0.69118109763E+02 -0.34223660353E+02  0.67265160749E+02  0.10233852586E+03  0.00000000000E+00 0.  1.
</event>
<event>
 7    1  0.6607887E-006  0.4786147E+02  0.7818608E-02  0.1500913E+00
          2   -1    0    0  502    0  0.00000000000E+00  0.00000000000E+00  0.43000068021E+03  0.43000068021E+03  0.00000000000E+00 0. -1.
          1   -1    0    0  501    0 -0.00000000000E+00 -0.00000000000E+00 -0.28078216574E+03  0.28078216574E+03  0.00000000000E+00 0. -1.
         25    2    1    2    0    0 -0.15261166815E+02 -0.24187996750E+02 -0.18724773350E+03  0.22694231062E+03  0.12499254476E+03 0.  0.
          2    1    1    2  501    0  0.14234275325E+02  0.59311124640E+02 -0.60153573063E+02  0.85667242587E+02  0.00000000000E+00 0. -1.
          1    1    1    2  502    0  0.10268914902E+01 -0.35123127890E+02  0.39661982104E+03  0.39817329275E+03  0.00000000000E+00 0. -1.
         22    1    3    3    0    0 -0.14770477449E+02 -0.28471321027E+02 -0.20560181877E+03  0.20808866140E+03  0.00000000000E+00 0. -1.
         22    1    3    3    0    0 -0.49068936591E+00  0.42833242763E+01  0.18354085261E+02  0.18853649214E+02  0.00000000000E+00 0. -1.
</event>
<event>
 7    1  0.6607887E-006  0.3457786E+02  0.7818608E-02  0.1601369E+00
          2   -1    0    0  502    0  0.00000000000E+00  0.00000000000E+00  0.63840134367E+03  0.63840134367E+03  0.00000000000E+00 0. -1.
          1   -1    0    0  501    0 -0.00000000000E+00 -0.00000000000E+00 -0.72976687166E+03  0.72976687166E+03  0.00000000000E+00 0. -1.
         25    2    1    2    0    0  0.14115433355E+02  0.43484893468E+02  0.11679041822E+03  0.17707530174E+03  0.12500191709E+03 0.  0.
          2    1    1    2  501    0 -0.23372021229E+02 -0.10246431862E+02 -0.69878565747E+03  0.69925148253E+03  0.00000000000E+00 0. -1.
          1    1    1    2  502    0  0.92565878745E+01 -0.33238461606E+02  0.49062971125E+03  0.49184143107E+03  0.00000000000E+00 0. -1.
         22    1    3    3    0    0  0.15581657913E+02  0.87536780059E+02  0.74643542410E+02  0.11609106059E+03  0.00000000000E+00 0. -1.
         22    1    3    3    0    0 -0.14662245584E+01 -0.44051886592E+02  0.42146875812E+02  0.60984241140E+02  0.00000000000E+00 0. -1.
</event>
<event>
 7    1  0.6607887E-006  0.7907344E+02  0.7818608E-02  0.1379938E+00
          2   -1    0    0  502    0  0.00000000000E+00  0.00000000000E+00  0.51018716129E+03  0.51018716129E+03  0.00000000000E+00 0. -1.
          1   -1    0    0  501    0 -0.00000000000E+00 -0.00000000000E+00 -0.26771242370E+04  0.26771242370E+04  0.00000000000E+00 0. -1.
         25    2    1    2    0    0  0.38685185212E+02 -0.63652583186E+00 -0.77284256581E+03  0.78384246049E+03  0.12500569032E+03 0.  0.
          2    1    1    2  501    0 -0.81477517638E+02 -0.29916253075E+02 -0.18964169230E+04  0.18984021475E+04  0.00000000000E+00 0. -1.
          1    1    1    2  502    0  0.42792332426E+02  0.30552778907E+02  0.50232241304E+03  0.50506679029E+03  0.00000000000E+00 0. -1.
         22    1    3    3    0    0  0.76334486634E+02 -0.93603223248E+01 -0.66207097888E+03  0.66652273071E+03  0.00000000000E+00 0. -1.
         22    1    3    3    0    0 -0.37649301422E+02  0.87237964929E+01 -0.11077158693E+03  0.11731972978E+03  0.00000000000E+00 0. -1.
</event>
<event>
 7    1  0.6607887E-006  0.5887169E+02  0.7818608E-02  0.1411687E+00
          2   -1    0    0  502    0  0.00000000000E+00  0.00000000000E+00  0.23362094565E+04  0.23362094565E+04  0.00000000000E+00 0. -1.
          1   -1    0    0  501    0 -0.00000000000E+00 -0.00000000000E+00 -0.19062947394E+02  0.19062947394E+02  0.00000000000E+00 0. -1.
         25    2    1    2    0    0 -0.87724651780E+01  0.35727099931E+02  0.61529027074E+03  0.62893622678E+03  0.12500111310E+03 0.  0.
          2    1    1    2  501    0 -0.51354559171E+02 -0.19233283530E+02  0.52876977195E+02  0.76178636509E+02  0.00000000000E+00 0. -1.
          1    1    1    2  502    0  0.60127024349E+02 -0.16493816401E+02  0.16489792612E+04  0.16501575406E+04  0.00000000000E+00 0. -1.
         22    1    3    3    0    0  0.53937899557E+02 -0.68232926853E+01  0.24221183224E+03  0.24823864729E+03  0.00000000000E+00 0.  1.
         22    1    3    3    0    0 -0.62710364735E+02  0.42550392616E+02  0.37307843850E+03  0.38069757949E+03  0.00000000000E+00 0.  1.
</event>
<event>
 7    1  0.6607887E-006  0.1109856E+03  0.7818608E-02  0.1276005E+00
          2   -1    0    0  502    0  0.00000000000E+00  0.00000000000E+00  0.48874165752E+03  0.48874165752E+03  0.00000000000E+00 0. -1.
          1   -1    0    0  501    0 -0.00000000000E+00 -0.00000000000E+00 -0.87591319406E+03  0.87591319406E+03  0.00000000000E+00 0. -1.
         25    2    1    2    0    0  0.31301358031E+01  0.18987179046E+02 -0.56018466680E+03  0.57428409287E+03  0.12500019073E+03 0.  0.
          2    1    1    2  501    0 -0.18615406999E+02  0.92003968777E+02 -0.29476790434E+03  0.30935316562E+03  0.00000000000E+00 0. -1.
          1    1    1    2  502    0  0.15485271196E+02 -0.11099114782E+03  0.46778103461E+03  0.48101759309E+03  0.00000000000E+00 0. -1.
         22    1    3    3    0    0  0.30582336749E+02  0.23711542351E+02 -0.53599822178E+03  0.53739334784E+03  0.00000000000E+00 0. -1.
         22    1    3    3    0    0 -0.27452200946E+02 -0.47243633048E+01 -0.24186445029E+02  0.36890745026E+02  0.00000000000E+00 0. -1.
</event>
<event>
 7    1  0.6607887E-006  0.1395194E+03  0.7818608E-02  0.1302453E+00
          2   -1    0    0  502    0  0.00000000000E+00  0.00000000000E+00  0.19064354553E+03  0.19064354553E+03  0.00000000000E+00 0. -1.
          1   -1    0    0  501    0 -0.00000000000E+00 -0.00000000000E+00 -0.13451354375E+04  0.13451354375E+04  0.00000000000E+00 0. -1.
         25    2    1    2    0    0 -0.13814932318E+03  0.94843074547E+02 -0.34471095811E+03  0.40315319703E+03  0.12500564530E+03 0.  0.
          2    1    1    2  501    0  0.51925343286E+01 -0.58037693406E+02 -0.94066062090E+03  0.94246365446E+03  0.00000000000E+00 0. -1.
          1    1    1    2  502    0  0.13295678885E+03 -0.36805381142E+02  0.13087968705E+03  0.19016213152E+03  0.00000000000E+00 0. -1.
         22    1    3    3    0    0  0.15558208713E+02  0.12468172415E+02 -0.10409473513E+03  0.10598691931E+03  0.00000000000E+00 0.  1.
         22    1    3    3    0    0 -0.15370753189E+03  0.82374902132E+02 -0.24061622297E+03  0.29716627773E+03  0.00000000000E+00 0.  1.
</event>
<event>
 7    1  0.6607887E-006  0.8990948E+02  0.7818608E-02  0.1359612E+00
          2   -1    0    0  502    0  0.00000000000E+00  0.00000000000E+00  0.11430139619E+04  0.11430139619E+04  0.00000000000E+00 0. -1.
          1   -1    0    0  501    0 -0.00000000000E+00 -0.00000000000E+00 -0.17205781711E+03  0.17205781711E+03  0.00000000000E+00 0. -1.
         25    2    1    2    0    0  0.78238066379E+02 -0.86747542330E+02  0.77991294252E+02  0.18802773234E+03  0.12500182005E+03 0.  0.
          2    1    1    2  501    0 -0.81783625843E+02  0.32142466002E+02 -0.99685399546E+02  0.13288671288E+03  0.00000000000E+00 0. -1.
          1    1    1    2  502    0  0.35455594637E+01  0.54605076328E+02  0.99265025011E+03  0.99415733382E+03  0.00000000000E+00 0. -1.
         22    1    3    3    0    0  0.21992427681E+02 -0.49251068475E+02  0.10274254456E+03  0.11604035972E+03  0.00000000000E+00 0.  1.
         22    1    3    3    0    0  0.56245638699E+02 -0.37496473855E+02 -0.24751250309E+02  0.71987372615E+02  0.00000000000E+00 0.  1.
</event>
<event>
 7    1  0.6607887E-006  0.1044915E+03  0.7818608E-02  0.1328532E+00
          2   -1    0    0  502    0  0.00000000000E+00  0.00000000000E+00  0.79738360951E+03  0.79738360951E+03  0.00000000000E+00 0. -1.
          1   -1    0    0  501    0 -0.00000000000E+00 -0.00000000000E+00 -0.43961281460E+03  0.43961281460E+03  0.00000000000E+00 0. -1.
         25    2    1    2    0    0  0.18474002947E+01  0.14584361476E+03 -0.27955732520E+03  0.33919238080E+03  0.12500160107E+03 0.  0.
          2    1    1    2  501    0  0.65924635436E+01 -0.84894993928E+02 -0.11492828890E+03  0.14303542275E+03  0.00000000000E+00 0. -1.
          1    1    1    2  502    0 -0.84398638383E+01 -0.60948620828E+02  0.75225640901E+03  0.75476862056E+03  0.00000000000E+00 0. -1.
         22    1    3    3    0    0  0.33454460823E+02  0.14436724510E+03 -0.26656254925E+03  0.30498638506E+03  0.00000000000E+00 0. -1.
         22    1    3    3    0    0 -0.31607060529E+02  0.14763696513E+01 -0.12994775941E+02  0.34205995737E+02  0.00000000000E+00 0. -1.
</event>
<event>
 7    1  0.6607887E-006  0.8370470E+02  0.7818608E-02  0.1441610E+00
          2   -1    0    0  502    0  0.00000000000E+00  0.00000000000E+00  0.26180496253E+04  0.26180496253E+04  0.00000000000E+00 0. -1.
          1   -1    0    0  501    0 -0.00000000000E+00 -0.00000000000E+00 -0.63732526735E+03  0.63732526735E+03  0.00000000000E+00 0. -1.
         25    2    1    2    0    0  0.84634458924E+02 -0.45656311003E+02  0.82341987695E+02  0.17791157219E+03  0.12499933684E+03 0.  0.
          2    1    1    2  501    0 -0.24098812878E+01  0.30612396969E+02 -0.58843791689E+03  0.58923858360E+03  0.00000000000E+00 0. -1.
          1    1    1    2  502    0 -0.82224577636E+02  0.15043914034E+02  0.24868202872E+04  0.24882247369E+04  0.00000000000E+00 0. -1.
         22    1    3    3    0    0  0.15610130632E+02 -0.77290945837E+02  0.24856154193E+02  0.82676446997E+02  0.00000000000E+00 0. -1.
         22    1    3    3    0    0  0.69024328293E+02  0.31634634834E+02  0.57485833502E+02  0.95235125194E+02  0.00000000000E+00 0. -1.
</event>
<event>
 7    1  0.6607887E-006  0.8473995E+02  0.7818608E-02  0.1418077E+00
          2   -1    0    0  502    0  0.00000000000E+00  0.00000000000E+00  0.45911866284E+02  0.45911866284E+02  0.00000000000E+00 0. -1.
          1   -1    0    0  501    0 -0.00000000000E+00 -0.00000000000E+00 -0.97678688728E+03  0.97678688728E+03  0.00000000000E+00 0. -1.
         25    2    1    2    0    0  0.11066562620E+03  0.23368299011E+02 -0.61485792082E+03  0.63754847363E+03  0.12499934084E+03 0.  0.
          2    1    1    2  501    0 -0.28064890762E+02 -0.22956150757E+02 -0.29852235644E+03  0.30071617889E+03  0.00000000000E+00 0. -1.
          1    1    1    2  502    0 -0.82600735443E+02 -0.41214825381E+00 -0.17494743744E+02  0.84434101052E+02  0.00000000000E+00 0. -1.
         22    1    3    3    0    0  0.17957483818E+02 -0.41000532895E+02 -0.87909257544E+02  0.98648631438E+02  0.00000000000E+00 0. -1.
         22    1    3    3    0    0  0.92708142387E+02  0.64368831905E+02 -0.52694866327E+03  0.53889984219E+03  0.00000000000E+00 0. -1.
</event>
<event>
 7    1  0.6607887E-006  0.1045753E+03  0.7818608E-02  0.1365919E+00
          2   -1    0    0  502    0  0.00000000000E+00  0.00000000000E+00  0.67989809061E+02  0.67989809061E+02  0.00000000000E+00 0. -1.
          1   -1    0    0  501    0 -0.00000000000E+00 -0.00000000000E+00 -0.47304477897E+03  0.47304477897E+03  0.00000000000E+00 0. -1.
         25    2    1    2    0    0 -0.77857647611E+02 -0.10047372450E+03 -0.34726404019E+03  0.39035088987E+03  0.12499888403E+03 0.  0.
          2    1    1    2  501    0  0.56623790505E+02  0.61221800912E+02 -0.64669257541E+02  0.10552950028E+03  0.00000000000E+00 0. -1.
          1    1    1    2  502    0  0.21233857107E+02  0.39251923593E+02  0.68783278123E+01  0.45154197887E+02  0.00000000000E+00 0. -1.
         22    1    3    3    0    0 -0.56429204019E+02 -0.88208893911E+01 -0.41971215078E+02  0.70877683730E+02  0.00000000000E+00 0. -1.
         22    1    3    3    0    0 -0.21428443593E+02 -0.91652835113E+02 -0.30529282511E+03  0.31947320614E+03  0.00000000000E+00 0. -1.
</event>
<event>
 7    1  0.6607887E-006  0.7230240E+02  0.7818608E-02  0.1371294E+00
          2   -1    0    0  502    0  0.00000000000E+00  0.00000000000E+00  0.57259525635E+02  0.57259525635E+02  0.00000000000E+00 0. -1.
          1   -1    0    0  501    0 -0.00000000000E+00 -0.00000000000E+00 -0.91365291919E+03  0.91365291919E+03  0.00000000000E+00 0. -1.
         25    2    1    2    0    0  0.50040094315E+02  0.39233542349E+02 -0.13178198911E+03  0.19244479560E+03  0.12500089925E+03 0.  0.
          2    1    1    2  501    0  0.31417543486E+02 -0.53139903038E+02 -0.68329574578E+03  0.68607870360E+03  0.00000000000E+00 0. -1.
          1    1    1    2  502    0 -0.81457637802E+02  0.13906360688E+02 -0.41315658665E+02  0.92388945631E+02  0.00000000000E+00 0. -1.
         22    1    3    3    0    0  0.79145526687E+02  0.72755084633E+01 -0.35782713266E+02  0.87162778677E+02  0.00000000000E+00 0. -1.
         22    1    3    3    0    0 -0.29105432372E+02  0.31958033886E+02 -0.95999275846E+02  0.10528201692E+03  0.00000000000E+00 0. -1.
</event>
<event>
 7    1  0.6607887E-006  0.1312787E+03  0.7818608E-02  0.1286778E+00
          2   -1    0    0  502    0  0.00000000000E+00  0.00000000000E+00  0.77361632175E+03  0.77361632175E+03  0.00000000000E+00 0. -1.
          1   -1    0    0  501    0 -0.00000000000E+00 -0.00000000000E+00 -0.35048647885E+03  0.35048647885E+03  0.00000000000E+00 0. -1.
         25    2    1    2    0    0 -0.70722697219E+02  0.17887158615E+03 -0.66547025137E+01  0.22950596001E+03  0.12502782243E+03 0.  0.
          2    1    1    2  501    0  0.56546626113E+02 -0.10864605333E+03 -0.21414331933E+03  0.24669585939E+03  0.00000000000E+00 0. -1.
          1    1    1    2  502    0  0.14176071106E+02 -0.70225532819E+02  0.64392786474E+03  0.64790098120E+03  0.00000000000E+00 0. -1.
         22    1    3    3    0    0 -0.12484166840E+02  0.16302444104E+03 -0.27200137176E+02  0.16574881677E+03  0.00000000000E+00 0.  1.
         22    1    3    3    0    0 -0.58238530379E+02  0.15847145107E+02  0.20545434662E+02  0.63757143240E+02  0.00000000000E+00 0.  1.
</event>
<event>
 7    1  0.6607887E-006  0.1970708E+03  0.7818608E-02  0.1298778E+00
          2   -1    0    0  502    0  0.00000000000E+00  0.00000000000E+00  0.22327474291E+04  0.22327474291E+04  0.00000000000E+00 0. -1.
          1   -1    0    0  501    0 -0.00000000000E+00 -0.00000000000E+00 -0.44130229915E+02  0.44130229915E+02  0.00000000000E+00 0. -1.
         25    2    1    2    0    0  0.16680396226E+03  0.43976974255E+02  0.67655891496E+03  0.70930544928E+03  0.12499887554E+03 0.  0.
          2    1    1    2  501    0  0.39524720614E+02 -0.16085646453E+02  0.14647947943E+01  0.42697742156E+02  0.00000000000E+00 0. -1.
          1    1    1    2  502    0 -0.20632868287E+03 -0.27891327802E+02  0.15105934894E+04  0.15248744675E+04  0.00000000000E+00 0. -1.
         22    1    3    3    0    0 -0.49751558682E+01  0.35325519058E+02  0.18800465840E+03  0.19135933751E+03  0.00000000000E+00 0. -1.
         22    1    3    3    0    0  0.17177911812E+03  0.86514551967E+01  0.48855425656E+03  0.51794611177E+03  0.00000000000E+00 0. -1.
</event>
<event>
 7    1  0.6607887E-006  0.5596073E+02  0.7818608E-02  0.1475513E+00
          2   -1    0    0  502    0  0.00000000000E+00  0.00000000000E+00  0.11511000675E+04  0.11511000675E+04  0.00000000000E+00 0. -1.
          1   -1    0    0  501    0 -0.00000000000E+00 -0.00000000000E+00 -0.26607706886E+04  0.26607706886E+04  0.00000000000E+00 0. -1.
         25    2    1    2    0    0  0.57927893972E+02  0.46339808000E+02  0.82027639898E+02  0.16690844235E+03  0.12500750263E+03 0.  0.
          2    1    1    2  501    0 -0.22381587315E+02 -0.51264597307E+02 -0.26177178050E+04  0.26183153938E+04  0.00000000000E+00 0. -1.
          1    1    1    2  502    0 -0.35546306657E+02  0.49247893066E+01  0.10260195441E+04  0.10266469199E+04  0.00000000000E+00 0. -1.
         22    1    3    3    0    0 -0.20038194295E+02  0.58784271752E+02  0.56419346154E+02  0.83906271854E+02  0.00000000000E+00 0. -1.
         22    1    3    3    0    0  0.77966088267E+02 -0.12444463752E+02  0.25608293744E+02  0.83002170491E+02  0.00000000000E+00 0. -1.
</event>
<event>
 7    1  0.6607887E-006  0.5826599E+02  0.7818608E-02  0.1433775E+00
          2   -1    0    0  502    0  0.00000000000E+00  0.00000000000E+00  0.72674005695E+02  0.72674005695E+02  0.00000000000E+00 0. -1.
          1   -1    0    0  501    0 -0.00000000000E+00 -0.00000000000E+00 -0.77572787398E+03  0.77572787398E+03  0.00000000000E+00 0. -1.
         25    2    1    2    0    0 -0.13396127354E+02  0.20814412444E+02 -0.12892374749E+03  0.18126898989E+03  0.12499767212E+03 0.  0.
          2    1    1    2  501    0 -0.46781103745E+02  0.38661870282E+00 -0.59739268749E+03  0.59922169871E+03  0.00000000000E+00 0. -1.
          1    1    1    2  502    0  0.60177231099E+02 -0.21201031147E+02  0.23262566688E+02  0.67911191076E+02  0.00000000000E+00 0. -1.
         22    1    3    3    0    0  0.26083513952E+02 -0.40644395159E+02 -0.25393392695E+02  0.54563183104E+02  0.00000000000E+00 0.  1.
         22    1    3    3    0    0 -0.39479641306E+02  0.61458807603E+02 -0.10353035479E+03  0.12670580678E+03  0.00000000000E+00 0.  1.
</event>
<event>
 7    1  0.6607887E-006  0.1772957E+03  0.7818608E-02  0.1384854E+00
          2   -1    0    0  502    0  0.00000000000E+00  0.00000000000E+00  0.15730652789E+04  0.15730652789E+04  0.00000000000E+00 0. -1.
          1   -1    0    0  501    0 -0.00000000000E+00 -0.00000000000E+00 -0.53384997081E+03  0.53384997081E+03  0.00000000000E+00 0. -1.
         25    2    1    2    0    0  0.18143339946E+03  0.55821186017E+02 -0.12014475338E+03  0.25708755127E+03  0.12500065603E+03 0.  0.
          2    1    1    2  501    0 -0.16954837889E+03 -0.36678471202E+02 -0.32335181458E+03  0.36694462665E+03  0.00000000000E+00 0. -1.
          1    1    1    2  502    0 -0.11885020568E+02 -0.19142714815E+02  0.14827118760E+04  0.14828830718E+04  0.00000000000E+00 0. -1.
         22    1    3    3    0    0  0.64389347374E+02  0.66706313136E+02 -0.10251962288E+03  0.13822443106E+03  0.00000000000E+00 0.  1.
         22    1    3    3    0    0  0.11704405208E+03 -0.10885127119E+02 -0.17625130501E+02  0.11886312021E+03  0.00000000000E+00 0.  1.
</event>
<event>
 7    1  0.6607887E-006  0.5336678E+02  0.7818608E-02  0.1504561E+00
          2   -1    0    0  502    0  0.00000000000E+00  0.00000000000E+00  0.36907377097E+04  0.36907377097E+04  0.00000000000E+00 0. -1.
          1   -1    0    0  501    0 -0.00000000000E+00 -0.00000000000E+00 -0.11189187140E+03  0.11189187140E+03  0.00000000000E+00 0. -1.
         25    2    1    2    0    0 -0.26001422022E+02  0.46706956485E+02  0.93555163393E+03  0.94537779133E+03  0.12499877944E+03 0.  0.
          2    1    1    2  501    0 -0.21687261959E+02 -0.21779836428E+02 -0.10450224626E+03  0.10892849985E+03  0.00000000000E+00 0. -1.
          1    1    1    2  502    0  0.47688683982E+02 -0.24927120058E+02  0.27477964506E+04  0.27483232900E+04  0.00000000000E+00 0. -1.
         22    1    3    3    0    0 -0.28269492253E+02  0.62759187954E+02  0.24099908627E+03  0.25063606972E+03  0.00000000000E+00 0.  1.
         22    1    3    3    0    0  0.22680702304E+01 -0.16052231469E+02  0.69455254766E+03  0.69474172160E+03  0.00000000000E+00 0.  1.
</event>
<event>
 7    1  0.6607887E-006  0.9200490E+02  0.7818608E-02  0.1441848E+00
          2   -1    0    0  502    0  0.00000000000E+00  0.00000000000E+00  0.36432854432E+03  0.36432854432E+03  0.00000000000E+00 0. -1.
          1   -1    0    0  501    0 -0.00000000000E+00 -0.00000000000E+00 -0.24721010532E+04  0.24721010532E+04  0.00000000000E+00 0. -1.
         25    2    1    2    0    0 -0.90017522492E+02 -0.32679587377E+02 -0.61952351205E+03  0.63922877532E+03  0.12503173770E+03 0.  0.
          2    1    1    2  501    0  0.91870629761E+02  0.48537020628E+01 -0.18410260195E+04  0.18433232422E+04  0.00000000000E+00 0. -1.
          1    1    1    2  502    0 -0.18531072689E+01  0.27825885314E+02  0.35277702264E+03  0.35387757996E+03  0.00000000000E+00 0. -1.
         22    1    3    3    0    0 -0.10440651047E+03  0.12519782630E+02 -0.49338334449E+03  0.50446465585E+03  0.00000000000E+00 0.  1.
         22    1    3    3    0    0  0.14388987981E+02 -0.45199370007E+02 -0.12614016756E+03  0.13476411947E+03  0.00000000000E+00 0.  1.
</event>
<event>
 7    1  0.6607887E-006  0.7556599E+02  0.7818608E-02  0.1379279E+00
          2   -1    0    0  502    0  0.00000000000E+00  0.00000000000E+00  0.15735031438E+04  0.15735031438E+04  0.00000000000E+00 0. -1.
          1   -1    0    0  501    0 -0.00000000000E+00 -0.00000000000E+00 -0.97207002457E+02  0.97207002457E+02  0.00000000000E+00 0. -1.
         25    2    1    2    0    0  0.91204432514E+02 -0.91018699304E+02  0.17465837028E+03  0.25046498792E+03  0.12499804691E+03 0.  0.
          2    1    1    2  501    0 -0.43293853785E+02  0.34433103059E+02 -0.45158648822E+02  0.71409382614E+02  0.00000000000E+00 0. -1.
          1    1    1    2  502    0 -0.47910578729E+02  0.56585596244E+02  0.13467964199E+04  0.13488357757E+04  0.00000000000E+00 0. -1.
         22    1    3    3    0    0  0.86474140095E+02 -0.11650757982E+03  0.11407073175E+03  0.18456414847E+03  0.00000000000E+00 0. -1.
         22    1    3    3    0    0  0.47302924192E+01  0.25488880517E+02  0.60587638531E+02  0.65900839442E+02  0.00000000000E+00 0. -1.
</event>
<event>
 7    1  0.6607887E-006  0.8525848E+02  0.7818608E-02  0.1373872E+00
          2   -1    0    0  502    0  0.00000000000E+00  0.00000000000E+00  0.83831060693E+03  0.83831060693E+03  0.00000000000E+00 0. -1.
          1   -1    0    0  501    0 -0.00000000000E+00 -0.00000000000E+00 -0.14553118301E+04  0.14553118301E+04  0.00000000000E+00 0. -1.
         25    2    1    2    0    0  0.39576683804E+02 -0.61230214265E+02  0.49307735414E+03  0.51387334334E+03  0.12500033116E+03 0.  0.
          2    1    1    2  501    0  0.57594968801E+01  0.85131049378E+02 -0.14416839016E+04  0.14442066817E+04  0.00000000000E+00 0. -1.
          1    1    1    2  502    0 -0.45336180685E+02 -0.23900835113E+02  0.33160532424E+03  0.33554241202E+03  0.00000000000E+00 0. -1.
         22    1    3    3    0    0  0.23879676835E+02  0.37021971053E+02  0.18276083039E+03  0.18799570855E+03  0.00000000000E+00 0. -1.
         22    1    3    3    0    0  0.15697006970E+02 -0.98252185319E+02  0.31031652375E+03  0.32587763480E+03  0.00000000000E+00 0. -1.
</event>
<event>
 7    1  0.6607887E-006  0.8354664E+02  0.7818608E-02  0.1369512E+00
          2   -1    0    0  502    0  0.00000000000E+00  0.00000000000E+00  0.36842288977E+03  0.36842288977E+03  0.00000000000E+00 0. -1.
          1   -1    0    0  501    0 -0.00000000000E+00 -0.00000000000E+00 -0.11276610285E+04  0.11276610285E+04  0.00000000000E+00 0. -1.
         25    2    1    2    0    0  0.83948669215E+02  0.10706782882E+03 -0.89800352972E+02  0.20542575374E+03  0.12499895149E+03 0.  0.
          2    1    1    2  501    0 -0.53023913388E+02 -0.62534341762E+02 -0.97594993861E+03  0.97938774852E+03  0.00000000000E+00 0. -1.
          1    1    1    2  502    0 -0.30924755827E+02 -0.44533487060E+02  0.30651215289E+03  0.31127041598E+03  0.00000000000E+00 0. -1.
         22    1    3    3    0    0  0.71367830742E+02  0.11486030896E+03 -0.23201642689E+02  0.13720267513E+03  0.00000000000E+00 0. -1.
         22    1    3    3    0    0  0.12580838472E+02 -0.77924801392E+01 -0.66598710283E+02  0.68223078608E+02  0.00000000000E+00 0. -1.
</event>
<event>
 7    1  0.6607887E-006  0.2602006E+02  0.7818608E-02  0.1652652E+00
          2   -1    0    0  502    0  0.00000000000E+00  0.00000000000E+00  0.12771354027E+03  0.12771354027E+03  0.00000000000E+00 0. -1.
          1   -1    0    0  501    0 -0.00000000000E+00 -0.00000000000E+00 -0.32585003536E+03  0.32585003536E+03  0.00000000000E+00 0. -1.
         25    2    1    2    0    0 -0.35307269959E+02 -0.62246288196E+01 -0.95006589711E+02  0.16105099562E+03  0.12500328710E+03 0.  0.
          2    1    1    2  501    0  0.13880955517E+02  0.20995807977E+02 -0.19520977373E+03  0.19682571132E+03  0.00000000000E+00 0. -1.
          1    1    1    2  502    0  0.21426314442E+02 -0.14771179157E+02  0.92079868348E+02  0.95686868688E+02  0.00000000000E+00 0. -1.
         22    1    3    3    0    0 -0.13925157176E+02 -0.58003181227E+02 -0.85466418081E+02  0.10422469791E+03  0.00000000000E+00 0. -1.
         22    1    3    3    0    0 -0.21382112783E+02  0.51778552408E+02 -0.95401716299E+01  0.56826297708E+02  0.00000000000E+00 0. -1.
</event>
<event>
 7    1  0.6607887E-006  0.2159682E+03  0.7818608E-02  0.1309079E+00
          2   -1    0    0  502    0  0.00000000000E+00  0.00000000000E+00  0.18349613672E+03  0.18349613672E+03  0.00000000000E+00 0. -1.
          1   -1    0    0  501    0 -0.00000000000E+00 -0.00000000000E+00 -0.12488619867E+04  0.12488619867E+04  0.00000000000E+00 0. -1.
         25    2    1    2    0    0 -0.23810321054E+03 -0.67923915853E+02 -0.59349394958E+02  0.28364375143E+03  0.12499851932E+03 0.  0.
          2    1    1    2  501    0  0.20664739709E+03  0.51614967745E+02 -0.10616226599E+04  0.10827787972E+04  0.00000000000E+00 0. -1.
          1    1    1    2  502    0  0.31455813445E+02  0.16308948108E+02  0.55606204946E+02  0.65935574740E+02  0.00000000000E+00 0. -1.
         22    1    3    3    0    0 -0.22621274985E+03 -0.81864814985E+02 -0.21421873091E+02  0.24152215793E+03  0.00000000000E+00 0. -1.
         22    1    3    3    0    0 -0.11890460692E+02  0.13940899132E+02 -0.37927521867E+02  0.42121593501E+02  0.00000000000E+00 0. -1.
</event>
<event>
 7    1  0.6607887E-006  0.7056687E+02  0.7818608E-02  0.1370331E+00
          2   -1    0    0  502    0  0.00000000000E+00  0.00000000000E+00  0.90984634496E+03  0.90984634496E+03  0.00000000000E+00 0. -1.
          1   -1    0    0  501    0 -0.00000000000E+00 -0.00000000000E+00 -0.12120255279E+04  0.12120255279E+04  0.00000000000E+00 0. -1.
         25    2    1    2    0    0  0.10881886644E+03 -0.42751145916E+02  0.36675538318E+02  0.17504249376E+03  0.12500229334E+03 0.  0.
          2    1    1    2  501    0 -0.69807892255E+02 -0.76769246238E+01 -0.11404962829E+04  0.11426564874E+04  0.00000000000E+00 0. -1.
          1    1    1    2  502    0 -0.39010974182E+02  0.50428070539E+02  0.80164156161E+03  0.80417289168E+03  0.00000000000E+00 0. -1.
         22    1    3    3    0    0  0.39623333367E+01  0.34395923568E+02 -0.11122170240E+02  0.36365949932E+02  0.00000000000E+00 0.  1.
         22    1    3    3    0    0  0.10485653310E+03 -0.77147069484E+02  0.47797708558E+02  0.13867654382E+03  0.00000000000E+00 0.  1.
</event>
<event>
 7    1  0.6607887E-006  0.3715235E+02  0.7818608E-02  0.1600540E+00
          2   -1    0    0  502    0  0.00000000000E+00  0.00000000000E+00  0.18097581475E+03  0.18097581475E+03  0.00000000000E+00 0. -1.
          1   -1    0    0  501    0 -0.00000000000E+00 -0.00000000000E+00 -0.24124285180E+03  0.24124285180E+03  0.00000000000E+00 0. -1.
         25    2    1    2    0    0  0.23655119779E+02 -0.52436512489E+02 -0.45054496866E+02  0.14478765474E+03  0.12499761895E+03 0.  0.
          2    1    1    2  501    0 -0.17413428931E+02  0.16325787107E+02 -0.14275059757E+03  0.14473248404E+03  0.00000000000E+00 0. -1.
          1    1    1    2  502    0 -0.62416908474E+01  0.36110725383E+02  0.12753805738E+03  0.13269852777E+03  0.00000000000E+00 0. -1.
         22    1    3    3    0    0  0.24240823633E+02 -0.37157914944E+02  0.39172227071E+02  0.59184386008E+02  0.00000000000E+00 0.  1.
         22    1    3    3    0    0 -0.58570385448E+00 -0.15278597545E+02 -0.84226723938E+02  0.85603268730E+02  0.00000000000E+00 0.  1.
</event>
<event>
 7    1  0.6607887E-006  0.1757288E+03  0.7818608E-02  0.1337659E+00
          2   -1    0    0  502    0  0.00000000000E+00  0.00000000000E+00  0.12235083097E+04  0.12235083097E+04  0.00000000000E+00 0. -1.
          1   -1    0    0  501    0 -0.00000000000E+00 -0.00000000000E+00 -0.22018857566E+03  0.22018857566E+03  0.00000000000E+00 0. -1.
         25    2    1    2    0    0  0.15413292698E+03 -0.13852660177E+02  0.28321519152E+02  0.20094017162E+03  0.12500395495E+03 0.  0.
          2    1    1    2  501    0 -0.18629808370E+03  0.24162887401E+02 -0.67570367728E+02  0.19964111729E+03  0.00000000000E+00 0. -1.
          1    1    1    2  502    0  0.32165156723E+02 -0.10310227225E+02  0.10425685827E+04  0.10431155965E+04  0.00000000000E+00 0. -1.
         22    1    3    3    0    0  0.16097823348E+03 -0.33681190524E+02 -0.15109205817E+01  0.16447096136E+03  0.00000000000E+00 0. -1.
         22    1    3    3    0    0 -0.68453065025E+01  0.19828530348E+02  0.29832439733E+02  0.36469210265E+02  0.00000000000E+00 0. -1.
</event>
<event>
 7    1  0.6607887E-006  0.2674906E+03  0.7818608E-02  0.1110607E+00
          2   -1    0    0  502    0  0.00000000000E+00  0.00000000000E+00  0.10650699138E+04  0.10650699138E+04  0.00000000000E+00 0. -1.
          1   -1    0    0  501    0 -0.00000000000E+00 -0.00000000000E+00 -0.28080968276E+03  0.28080968276E+03  0.00000000000E+00 0. -1.
         25    2    1    2    0    0 -0.90742615272E+02  0.23467253617E+03  0.28768605646E+03  0.40211143158E+03  0.12499965945E+03 0.  0.
          2    1    1    2  501    0  0.26730516983E+03 -0.99572103623E+01 -0.97358236383E+02  0.28465738362E+03  0.00000000000E+00 0. -1.
          1    1    1    2  502    0 -0.17656255456E+03 -0.22471532581E+03  0.59393241101E+03  0.65911078142E+03  0.00000000000E+00 0. -1.
         22    1    3    3    0    0 -0.66697438988E+02  0.19315085430E+03  0.28919780889E+03  0.35410616141E+03  0.00000000000E+00 0.  1.
         22    1    3    3    0    0 -0.24045176285E+02  0.41521681873E+02 -0.15117524290E+01  0.48005270164E+02  0.00000000000E+00 0.  1.
</event>
<event>
 7    1  0.6607887E-006  0.5953539E+02  0.7818608E-02  0.1404500E+00
          2   -1    0    0  502    0  0.00000000000E+00  0.00000000000E+00  0.18620199805E+04  0.18620199805E+04  0.00000000000E+00 0. -1.
          1   -1    0    0  501    0 -0.00000000000E+00 -0.00000000000E+00 -0.35984242110E+02  0.35984242110E+02  0.00000000000E+00 0. -1.
         25    2    1    2    0    0  0.37066488389E+02  0.80108384963E+01  0.64440400324E+03  0.65751030820E+03  0.12500075159E+03 0.  0.
          2    1    1    2  501    0 -0.37088728130E+02  0.49352792801E+02  0.44287724195E+01  0.61894151071E+02  0.00000000000E+00 0. -1.
          1    1    1    2  502    0  0.22239741362E-01 -0.57363631298E+02  0.11772029627E+04  0.11785997633E+04  0.00000000000E+00 0. -1.
         22    1    3    3    0    0 -0.27044247099E+02  0.25655426334E+02  0.45956956155E+03  0.46107892394E+03  0.00000000000E+00 0.  1.
         22    1    3    3    0    0  0.64110735488E+02 -0.17644587838E+02  0.18483444169E+03  0.19643138426E+03  0.00000000000E+00 0.  1.
</event>
<event>
 7    1  0.6607887E-006  0.9446908E+02  0.7818608E-02  0.1362684E+00
          2   -1    0    0  502    0  0.00000000000E+00  0.00000000000E+00  0.24072940775E+03  0.24072940775E+03  0.00000000000E+00 0. -1.
          1   -1    0    0  501    0 -0.00000000000E+00 -0.00000000000E+00 -0.82891731675E+03  0.82891731675E+03  0.00000000000E+00 0. -1.
         25    2    1    2    0    0  0.11402516618E+03  0.84940327984E+02  0.13675082353E+03  0.23354293301E+03  0.12499966392E+03 0.  0.
          2    1    1    2  501    0 -0.67192159081E+02 -0.65378736299E+02 -0.76544653884E+03  0.77116636935E+03  0.00000000000E+00 0. -1.
          1    1    1    2  502    0 -0.46833007098E+02 -0.19561591685E+02  0.40507806305E+02  0.64937422144E+02  0.00000000000E+00 0. -1.
         22    1    3    3    0    0  0.12319571621E+03  0.30051593644E+02  0.12201117537E+03  0.17597445749E+03  0.00000000000E+00 0.  1.
         22    1    3    3    0    0 -0.91705500329E+01  0.54888734340E+02  0.14739648160E+02  0.57568475516E+02  0.00000000000E+00 0.  1.
</event>
<event>
 7    1  0.6607887E-006  0.8020103E+02  0.7818608E-02  0.1354768E+00
          2   -1    0    0  502    0  0.00000000000E+00  0.00000000000E+00  0.71645817501E+03  0.71645817501E+03  0.00000000000E+00 0. -1.
          1   -1    0    0  501    0 -0.00000000000E+00 -0.00000000000E+00 -0.26929323118E+03  0.26929323118E+03  0.00000000000E+00 0. -1.
         25    2    1    2    0    0 -0.23309272863E+02  0.46190011693E+02  0.42737228031E+02  0.14187460841E+03  0.12500037788E+03 0.  0.
          2    1    1    2  501    0  0.56620854776E+02  0.29626793821E+02 -0.21225118546E+03  0.22166243218E+03  0.00000000000E+00 0. -1.
          1    1    1    2  502    0 -0.33311581913E+02 -0.75816805514E+02  0.61667890127E+03  0.62221436560E+03  0.00000000000E+00 0. -1.
         22    1    3    3    0    0  0.41736375152E+02  0.55053989965E+02  0.28308444278E+02  0.74660798545E+02  0.00000000000E+00 0.  1.
         22    1    3    3    0    0 -0.65045648015E+02 -0.88639782714E+01  0.14428783753E+02  0.67213809869E+02  0.00000000000E+00 0.  1.
</event>
<event>
 7    1  0.6607887E-006  0.9500412E+02  0.7818608E-02  0.1291834E+00
          2   -1    0    0  502    0  0.00000000000E+00  0.00000000000E+00  0.15464076105E+04  0.15464076105E+04  0.00000000000E+00 0. -1.
          1   -1    0    0  501    0 -0.00000000000E+00 -0.00000000000E+00 -0.77455968055E+02  0.77455968055E+02  0.00000000000E+00 0. -1.
         25    2    1    2    0    0  0.29929507757E+02  0.10572100949E+03  0.56759205972E+03  0.59148815211E+03  0.12499912215E+03 0.  0.
          2    1    1    2  501    0  0.59733811950E+02 -0.76150840498E+02 -0.26005583254E+02  0.10021661119E+03  0.00000000000E+00 0. -1.
          1    1    1    2  502    0 -0.89663319707E+02 -0.29570168990E+02  0.92736516597E+03  0.93215881525E+03  0.00000000000E+00 0. -1.
         22    1    3    3    0    0  0.19184766122E+02  0.85099493408E+02  0.15206067988E+03  0.17530667242E+03  0.00000000000E+00 0. -1.
         22    1    3    3    0    0  0.10744741636E+02  0.20621516080E+02  0.41553137985E+03  0.41618147969E+03  0.00000000000E+00 0. -1.
</event>
<event>
 7    1  0.6607887E-006  0.6391145E+02  0.7818608E-02  0.1420164E+00
          2   -1    0    0  502    0  0.00000000000E+00  0.00000000000E+00  0.13887132015E+04  0.13887132015E+04  0.00000000000E+00 0. -1.
          1   -1    0    0  501    0 -0.00000000000E+00 -0.00000000000E+00 -0.36421903922E+03  0.36421903922E+03  0.00000000000E+00 0. -1.
         25    2    1    2    0    0 -0.57520562428E+01 -0.59049116860E+02  0.23947799737E+03  0.27657745056E+03  0.12500196229E+03 0.  0.
          2    1    1    2  501    0 -0.40616164672E+02  0.49669843269E+02 -0.34219150834E+03  0.34815484276E+03  0.00000000000E+00 0. -1.
          1    1    1    2  502    0  0.46368220915E+02  0.93792735906E+01  0.11272076732E+04  0.11281999474E+04  0.00000000000E+00 0. -1.
         22    1    3    3    0    0 -0.44925713401E+02  0.20474614134E+02  0.95215907588E+02  0.10725483022E+03  0.00000000000E+00 0.  1.
         22    1    3    3    0    0  0.39173657158E+02 -0.79523730994E+02  0.14426208979E+03  0.16932262033E+03  0.00000000000E+00 0.  1.
</event>
<event>
 7    1  0.6607887E-006  0.1623190E+03  0.7818608E-02  0.1324544E+00
          2   -1    0    0  502    0  0.00000000000E+00  0.00000000000E+00  0.23790976553E+04  0.23790976553E+04  0.00000000000E+00 0. -1.
          1   -1    0    0  501    0 -0.00000000000E+00 -0.00000000000E+00 -0.11669693385E+03  0.11669693385E+03  0.00000000000E+00 0. -1.
         25    2    1    2    0    0  0.18789701860E+03  0.39959602416E+02  0.31326634544E+03  0.38815173961E+03  0.12499564131E+03 0.  0.
          2    1    1    2  501    0 -0.14796602720E+03 -0.49397485530E+02 -0.20696061389E+01  0.15600749998E+03  0.00000000000E+00 0. -1.
          1    1    1    2  502    0 -0.39930991409E+02  0.94378831136E+01  0.19512039821E+04  0.19516353495E+04  0.00000000000E+00 0. -1.
         22    1    3    3    0    0  0.82432382309E+02  0.54780476600E+02  0.66102601877E+02  0.11901912554E+03  0.00000000000E+00 0.  1.
         22    1    3    3    0    0  0.10546463630E+03 -0.14820874184E+02  0.24716374357E+03  0.26913261407E+03  0.00000000000E+00 0.  1.
</event>
<event>
 7    1  0.6607887E-006  0.8606923E+02  0.7818608E-02  0.1479238E+00
          2   -1    0    0  502    0  0.00000000000E+00  0.00000000000E+00  0.68387190304E+03  0.68387190304E+03  0.00000000000E+00 0. -1.
          1   -1    0    0  501    0 -0.00000000000E+00 -0.00000000000E+00 -0.12972383585E+04  0.12972383585E+04  0.00000000000E+00 0. -1.
         25    2    1    2    0    0 -0.89060108467E+02 -0.44276977552E+02  0.40979260504E+03  0.43982598220E+03  0.12499904723E+03 0.  0.
          2    1    1    2  501    0  0.22663207994E+02 -0.16653873996E+01 -0.12758268408E+04  0.12760292012E+04  0.00000000000E+00 0. -1.
          1    1    1    2  502    0  0.66396900473E+02  0.45942364952E+02  0.25266778031E+03  0.26525507817E+03  0.00000000000E+00 0. -1.
         22    1    3    3    0    0 -0.12860318039E+02 -0.29798481223E+02  0.12095374134E+02  0.34635752319E+02  0.00000000000E+00 0. -1.
         22    1    3    3    0    0 -0.76199790428E+02 -0.14478496329E+02  0.39769723091E+03  0.40519022988E+03  0.00000000000E+00 0. -1.
</event>
<event>
 7    1  0.6607887E-006  0.1075023E+03  0.7818608E-02  0.1335300E+00
          2   -1    0    0  502    0  0.00000000000E+00  0.00000000000E+00  0.36207362384E+04  0.36207362384E+04  0.00000000000E+00 0. -1.
          1   -1    0    0  501    0 -0.00000000000E+00 -0.00000000000E+00 -0.45243952676E+03  0.45243952676E+03  0.00000000000E+00 0. -1.
         25    2    1    2    0    0 -0.39483341737E+01  0.10613966625E+03  0.51364525343E+03  0.53919582603E+03  0.12497789543E+03 0.  0.
          2    1    1    2  501    0 -0.51244493405E+02 -0.94728738088E+02 -0.43280751875E+03  0.44600659212E+03  0.00000000000E+00 0. -1.
          1    1    1    2  502    0  0.55192827579E+02 -0.11410928160E+02  0.30874589769E+04  0.30879733470E+04  0.00000000000E+00 0. -1.
         22    1    3    3    0    0  0.17150655379E+01  0.45372501186E+02  0.36756920651E+02  0.58418118161E+02  0.00000000000E+00 0. -1.
         22    1    3    3    0    0 -0.56633997116E+01  0.60767165062E+02  0.47688833278E+03  0.48077770787E+03  0.00000000000E+00 0. -1.
</event>
<event>
 7    1  0.6607887E-006  0.3243352E+02  0.7818608E-02  0.1581662E+00
          2   -1    0    0  502    0  0.00000000000E+00  0.00000000000E+00  0.17900572620E+04  0.17900572620E+04  0.00000000000E+00 0. -1.
          1   -1    0    0  501    0 -0.00000000000E+00 -0.00000000000E+00 -0.11117219208E+03  0.11117219208E+03  0.00000000000E+00 0. -1.
         25    2    1    2    0    0 -0.43811169287E+02 -0.41594718786E+02  0.42288456593E+02  0.14512999805E+03  0.12499945435E+03 0.  0.
          2    1    1    2  501    0  0.26835080788E+02  0.16049591081E+02 -0.55512162899E+02  0.63712723726E+02  0.00000000000E+00 0. -1.
          1    1    1    2  502    0  0.16976088499E+02  0.25545127705E+02  0.16921087762E+04  0.16923867323E+04  0.00000000000E+00 0. -1.
         22    1    3    3    0    0 -0.49780870288E+02 -0.22253980037E+02  0.83204850765E+02  0.99480761280E+02  0.00000000000E+00 0.  1.
         22    1    3    3    0    0  0.59697010006E+01 -0.19340738749E+02 -0.40916394172E+02  0.45649236767E+02  0.00000000000E+00 0.  1.
</event>
<event>
 7    1  0.6607887E-006  0.1081681E+03  0.7818608E-02  0.1326176E+00
          2   -1    0    0  502    0  0.00000000000E+00  0.00000000000E+00  0.20905014481E+04  0.20905014481E+04  0.00000000000E+00 0. -1.
          1   -1    0    0  501    0 -0.00000000000E+00 -0.00000000000E+00 -0.80713457967E+02  0.80713457967E+02  0.00000000000E+00 0. -1.
         25    2    1    2    0    0  0.71840604631E+02  0.47090011743E+01  0.13199861140E+04  0.13278438604E+04  0.12499091743E+03 0.  0.
          2    1    1    2  501    0 -0.89874690634E+02 -0.62656208239E+02 -0.35781242638E+02  0.11525431780E+03  0.00000000000E+00 0. -1.
          1    1    1    2  502    0  0.18034086003E+02  0.57947207065E+02  0.72558311879E+03  0.72811672782E+03  0.00000000000E+00 0. -1.
         22    1    3    3    0    0  0.99192230988E+02 -0.26531854143E+02  0.95410479554E+03  0.95961398429E+03  0.00000000000E+00 0.  1.
         22    1    3    3    0    0 -0.27351626357E+02  0.31240855317E+02  0.36588131843E+03  0.36822987614E+03  0.00000000000E+00 0.  1.
</event>
<event>
 7    1  0.6607887E-006  0.9499645E+02  0.7818608E-02  0.1474511E+00
          2   -1    0    0  502    0  0.00000000000E+00  0.00000000000E+00  0.10447113669E+04  0.10447113669E+04  0.00000000000E+00 0. -1.
          1   -1    0    0  501    0 -0.00000000000E+00 -0.00000000000E+00 -0.12878631654E+03  0.12878631654E+03  0.00000000000E+00 0. -1.
         25    2    1    2    0    0  0.55413860535E+01  0.95912996310E+02  0.17429903305E+03  0.23501464088E+03  0.12498687404E+03 0.  0.
          2    1    1    2  501    0  0.15646421327E+02 -0.93820068825E+02 -0.75278737686E+02  0.12130088278E+03  0.00000000000E+00 0. -1.
          1    1    1    2  502    0 -0.21187807381E+02 -0.20929274852E+01  0.81690475504E+03  0.81718215983E+03  0.00000000000E+00 0. -1.
         22    1    3    3    0    0  0.29742152942E+02 -0.20471184730E+02  0.60476034680E+02  0.70434479032E+02  0.00000000000E+00 0. -1.
         22    1    3    3    0    0 -0.24200766889E+02  0.11638418104E+03  0.11382299837E+03  0.16458016185E+03  0.00000000000E+00 0. -1.
</event>
<event>
 7    1  0.6607887E-006  0.4250884E+02  0.7818608E-02  0.1538400E+00
          2   -1    0    0  502    0  0.00000000000E+00  0.00000000000E+00  0.14331110754E+03  0.14331110754E+03  0.00000000000E+00 0. -1.
          1   -1    0    0  501    0 -0.00000000000E+00 -0.00000000000E+00 -0.21851255552E+04  0.21851255552E+04  0.00000000000E+00 0. -1.
         25    2    1    2    0    0  0.44694423864E+02 -0.39272073063E+02 -0.42371901984E+02  0.14476873153E+03  0.12499088089E+03 0.  0.
          2    1    1    2  501    0 -0.41580791764E+02  0.86436483199E+01 -0.20887609607E+04  0.20891926732E+04  0.00000000000E+00 0. -1.
          1    1    1    2  502    0 -0.31136320998E+01  0.30628424743E+02  0.89318415029E+02  0.94475257980E+02  0.00000000000E+00 0. -1.
         22    1    3    3    0    0 -0.32975722722E+02  0.20345342516E+02 -0.22676160140E+02  0.44894760161E+02  0.00000000000E+00 0.  1.
         22    1    3    3    0    0  0.77670146586E+02 -0.59617415579E+02 -0.19695741844E+02  0.99873971373E+02  0.00000000000E+00 0.  1.
</event>
<event>
 7    1  0.6607887E-006  0.7484213E+02  0.7818608E-02  0.1362315E+00
          2   -1    0    0  502    0  0.00000000000E+00  0.00000000000E+00  0.12687425033E+04  0.12687425033E+04  0.00000000000E+00 0. -1.
          1   -1    0    0  501    0 -0.00000000000E+00 -0.00000000000E+00 -0.22840401194E+02  0.22840401194E+02  0.00000000000E+00 0. -1.
         25    2    1    2    0    0 -0.35541370576E+02 -0.27222200955E+02  0.47992005877E+03  0.49794802829E+03  0.12499895527E+03 0.  0.
          2    1    1    2  501    0  0.12928723012E+02  0.87374745178E+02  0.14823763677E+03  0.17255693243E+03  0.00000000000E+00 0. -1.
          1    1    1    2  502    0  0.22612647564E+02 -0.60152544223E+02  0.61774440658E+03  0.62107794379E+03  0.00000000000E+00 0. -1.
         22    1    3    3    0    0 -0.74978609061E+02 -0.80228561231E+01  0.39744071213E+03  0.40453093540E+03  0.00000000000E+00 0. -1.
         22    1    3    3    0    0  0.39437238485E+02 -0.19199344831E+02  0.82479346641E+02  0.93417092888E+02  0.00000000000E+00 0. -1.
</event>
<event>
 7    1  0.6607887E-006  0.3790919E+02  0.7818608E-02  0.1593475E+00
          2   -1    0    0  502    0  0.00000000000E+00  0.00000000000E+00  0.48382152103E+02  0.48382152103E+02  0.00000000000E+00 0. -1.
          1   -1    0    0  501    0 -0.00000000000E+00 -0.00000000000E+00 -0.13901957879E+04  0.13901957879E+04  0.00000000000E+00 0. -1.
         25    2    1    2    0    0 -0.17919727309E+02 -0.52519041833E+02 -0.20269921197E+03  0.24452225346E+03  0.12499918209E+03 0.  0.
          2    1    1    2  501    0  0.18916582738E+02  0.15432143783E+02 -0.11538703955E+04  0.11541286227E+04  0.00000000000E+00 0. -1.
          1    1    1    2  502    0 -0.99685542917E+00  0.37086898049E+02  0.14755971653E+02  0.39927063843E+02  0.00000000000E+00 0. -1.
         22    1    3    3    0    0 -0.40029898197E+02 -0.82778626419E+02 -0.10331334344E+03  0.13830524457E+03  0.00000000000E+00 0.  1.
         22    1    3    3    0    0  0.22110170888E+02  0.30259584586E+02 -0.99385868524E+02  0.10621700889E+03  0.00000000000E+00 0.  1.
</event>
<event>
 7    1  0.6607887E-006  0.1645339E+03  0.7818608E-02  0.1232591E+00
          2   -1    0    0  502    0  0.00000000000E+00  0.00000000000E+00  0.27194228163E+03  0.27194228163E+03  0.00000000000E+00 0. -1.
          1   -1    0    0  501    0 -0.00000000000E+00 -0.00000000000E+00 -0.22208759730E+04  0.22208759730E+04  0.00000000000E+00 0. -1.
         25    2    1    2    0    0 -0.21227935453E+03  0.14107751679E+03 -0.34058668994E+03  0.44338359051E+03  0.12499729943E+03 0.  0.
          2    1    1    2  501    0  0.12552634222E+03 -0.96773707227E+02 -0.18145087027E+04  0.18214180863E+04  0.00000000000E+00 0. -1.
          1    1    1    2  502    0  0.86753012310E+02 -0.44303809560E+02  0.20616170127E+03  0.22801657781E+03  0.00000000000E+00 0. -1.
         22    1    3    3    0    0 -0.56061689123E+02 -0.19742680604E+02 -0.79016935884E+02  0.98875490296E+02  0.00000000000E+00 0. -1.
         22    1    3    3    0    0 -0.15621766541E+03  0.16082019739E+03 -0.26156975406E+03  0.34450810022E+03  0.00000000000E+00 0. -1.
</event>
<event>
 7    1  0.6607887E-006  0.1203776E+03  0.7818608E-02  0.1267484E+00
          2   -1    0    0  502    0  0.00000000000E+00  0.00000000000E+00  0.86681461050E+03  0.86681461050E+03  0.00000000000E+00 0. -1.
          1   -1    0    0  501    0 -0.00000000000E+00 -0.00000000000E+00 -0.41595412961E+03  0.41595412961E+03  0.00000000000E+00 0. -1.
         25    2    1    2    0    0  0.13058226603E+03 -0.73341264189E+02  0.21685877708E+02  0.19628448030E+03  0.12500660255E+03 0.  0.
          2    1    1    2  501    0 -0.11875691359E+03 -0.19866744333E+02 -0.31457102474E+03  0.33682758448E+03  0.00000000000E+00 0. -1.
          1    1    1    2  502    0 -0.11825352434E+02  0.93208008522E+02  0.74374562792E+03  0.74965667533E+03  0.00000000000E+00 0. -1.
         22    1    3    3    0    0  0.76343402593E+02 -0.88052166485E+02 -0.29558955133E+02  0.12022990880E+03  0.00000000000E+00 0.  1.
         22    1    3    3    0    0  0.54238863436E+02  0.14710902296E+02  0.51244832841E+02  0.76054571500E+02  0.00000000000E+00 0.  1.
</event>
<event>
 7    1  0.6607887E-006  0.7173992E+02  0.7818608E-02  0.1403087E+00
          2   -1    0    0  502    0  0.00000000000E+00  0.00000000000E+00  0.11218757746E+04  0.11218757746E+04  0.00000000000E+00 0. -1.
          1   -1    0    0  501    0 -0.00000000000E+00 -0.00000000000E+00 -0.21224354891E+02  0.21224354891E+02  0.00000000000E+00 0. -1.
         25    2    1    2    0    0  0.16710536318E+02 -0.41628358719E+02  0.28693449868E+03  0.31617817535E+03  0.12500027904E+03 0.  0.
          2    1    1    2  501    0  0.54228934091E+02  0.52315141296E+02  0.40165898599E+03  0.40866562410E+03  0.00000000000E+00 0. -1.
          1    1    1    2  502    0 -0.70939470409E+02 -0.10686782577E+02  0.41205793503E+03  0.41825633003E+03  0.00000000000E+00 0. -1.
         22    1    3    3    0    0 -0.25907727636E+02 -0.42034838762E+02  0.34657781696E+02  0.60326609826E+02  0.00000000000E+00 0. -1.
         22    1    3    3    0    0  0.42618263954E+02  0.40648004273E+00  0.25227671699E+03  0.25585156553E+03  0.00000000000E+00 0. -1.
</event>
<event>
 7    1  0.6607887E-006  0.1458434E+03  0.7818608E-02  0.1354356E+00
          2   -1    0    0  502    0  0.00000000000E+00  0.00000000000E+00  0.13879948633E+04  0.13879948633E+04  0.00000000000E+00 0. -1.
          1   -1    0    0  501    0 -0.00000000000E+00 -0.00000000000E+00 -0.98545190662E+03  0.98545190662E+03  0.00000000000E+00 0. -1.
         25    2    1    2    0    0 -0.50264393578E+02  0.11232235707E+03  0.32069861755E+03  0.36553504682E+03  0.12500178400E+03 0.  0.
          2    1    1    2  501    0  0.32265361430E+02 -0.14264727940E+03 -0.95718025461E+03  0.96828887202E+03  0.00000000000E+00 0. -1.
          1    1    1    2  502    0  0.17999032148E+02  0.30324922329E+02  0.10390245937E+04  0.10396228511E+04  0.00000000000E+00 0. -1.
         22    1    3    3    0    0 -0.65164497838E+02  0.11445040725E+03  0.17479675093E+03  0.21885888521E+03  0.00000000000E+00 0.  1.
         22    1    3    3    0    0  0.14900104260E+02 -0.21280501860E+01  0.14590186661E+03  0.14667616162E+03  0.00000000000E+00 0.  1.
</event>
<event>
 7    1  0.6607887E-006  0.5383289E+02  0.7818608E-02  0.1564875E+00
          2   -1    0    0  502    0  0.00000000000E+00  0.00000000000E+00  0.12662239753E+03  0.12662239753E+03  0.00000000000E+00 0. -1.
          1   -1    0    0  501    0 -0.00000000000E+00 -0.00000000000E+00 -0.18975715073E+03  0.18975715073E+03  0.00000000000E+00 0. -1.
         25    2    1    2    0    0  0.17949604835E+02 -0.45004879563E+02  0.73559817427E+02  0.15292029640E+03  0.12500377120E+03 0.  0.
          2    1    1    2  501    0  0.45209076055E+01 -0.20011763089E+02 -0.37515755248E+02  0.42759106156E+02  0.00000000000E+00 0. -1.
          1    1    1    2  502    0 -0.22470512440E+02  0.65016642652E+02 -0.99178815378E+02  0.12070014569E+03  0.00000000000E+00 0. -1.
         22    1    3    3    0    0 -0.99120606382E+01  0.28505261884E+02 -0.15665996777E+02  0.34003269787E+02  0.00000000000E+00 0. -1.
         22    1    3    3    0    0  0.27861665473E+02 -0.73510141447E+02  0.89225814203E+02  0.11891702661E+03  0.00000000000E+00 0. -1.
</event>
<event>
 7    1  0.6607887E-006  0.3352009E+02  0.7818608E-02  0.1582817E+00
          2   -1    0    0  502    0  0.00000000000E+00  0.00000000000E+00  0.76358827784E+02  0.76358827784E+02  0.00000000000E+00 0. -1.
          1   -1    0    0  501    0 -0.00000000000E+00 -0.00000000000E+00 -0.77250665235E+03  0.77250665235E+03  0.00000000000E+00 0. -1.
         25    2    1    2    0    0 -0.25386046781E+02  0.89886896475E+00 -0.16287902915E+03  0.20688090332E+03  0.12499948275E+03 0.  0.
          2    1    1    2  501    0  0.59005113807E+01 -0.28870159872E+02 -0.58187237654E+03  0.58261802645E+03  0.00000000000E+00 0. -1.
          1    1    1    2  502    0  0.19485535400E+02  0.27971290907E+02  0.48603581116E+02  0.59366550364E+02  0.00000000000E+00 0. -1.
         22    1    3    3    0    0  0.32132031724E+02 -0.33348666359E+02 -0.11670924794E+03  0.12556133786E+03  0.00000000000E+00 0.  1.
         22    1    3    3    0    0 -0.57518078504E+02  0.34247535324E+02 -0.46169781209E+02  0.81319565466E+02  0.00000000000E+00 0.  1.
</event>
<event>
 7    1  0.6607887E-006  0.1516144E+03  0.7818608E-02  0.1225523E+00
          2   -1    0    0  502    0  0.00000000000E+00  0.00000000000E+00  0.63446144346E+03  0.63446144346E+03  0.00000000000E+00 0. -1.
          1   -1    0    0  501    0 -0.00000000000E+00 -0.00000000000E+00 -0.10694848841E+04  0.10694848841E+04  0.00000000000E+00 0. -1.
         25    2    1    2    0    0  0.15524512754E+03  0.36075573952E+02 -0.23721880907E+03  0.31193013004E+03  0.12500058395E+03 0.  0.
          2    1    1    2  501    0 -0.13750028533E+03  0.76258380477E+02 -0.78159423732E+03  0.79725229436E+03  0.00000000000E+00 0. -1.
          1    1    1    2  502    0 -0.17744842215E+02 -0.11233395443E+03  0.58378960573E+03  0.59476390316E+03  0.00000000000E+00 0. -1.
         22    1    3    3    0    0  0.15439590405E+03  0.22243837206E+02 -0.24894310746E+03  0.29377806970E+03  0.00000000000E+00 0. -1.
         22    1    3    3    0    0  0.84922348971E+00  0.13831736745E+02  0.11724298391E+02  0.18152060343E+02  0.00000000000E+00 0. -1.
</event>
<event>
 7    1  0.6607887E-006  0.3321961E+03  0.7818608E-02  0.1145443E+00
          2   -1    0    0  502    0  0.00000000000E+00  0.00000000000E+00  0.11016721545E+04  0.11016721545E+04  0.00000000000E+00 0. -1.
          1   -1    0    0  501    0 -0.00000000000E+00 -0.00000000000E+00 -0.11860696405E+04  0.11860696405E+04  0.00000000000E+00 0. -1.
         25    2    1    2    0    0 -0.17176021079E+03 -0.14783051617E+03  0.32718797590E+02  0.26086530252E+03  0.12499901928E+03 0.  0.
          2    1    1    2  501    0  0.27227143365E+03  0.22501048763E+03 -0.10384453906E+04  0.10968729563E+04  0.00000000000E+00 0. -1.
          1    1    1    2  502    0 -0.10051122285E+03 -0.77179971462E+02  0.92132910696E+03  0.93000353615E+03  0.00000000000E+00 0. -1.
         22    1    3    3    0    0 -0.10739140216E+03 -0.74363286972E+02 -0.42736522612E+02  0.13743806632E+03  0.00000000000E+00 0.  1.
         22    1    3    3    0    0 -0.64368808630E+02 -0.73467229198E+02  0.75455320202E+02  0.12342723620E+03  0.00000000000E+00 0.  1.
</event>
<event>
 7    1  0.6607887E-006  0.4572350E+02  0.7818608E-02  0.1540347E+00
          2   -1    0    0  502    0  0.00000000000E+00  0.00000000000E+00  0.17268128592E+04  0.17268128592E+04  0.00000000000E+00 0. -1.
          1   -1    0    0  501    0 -0.00000000000E+00 -0.00000000000E+00 -0.83765954657E+03  0.83765954657E+03  0.00000000000E+00 0. -1.
         25    2    1    2    0    0  0.26638792333E+01 -0.17381325697E+02 -0.17645505852E+02  0.12745620865E+03  0.12499805803E+03 0.  0.
          2    1    1    2  501    0  0.42811412405E+01 -0.27934998225E+02 -0.76453327739E+03  0.76505543886E+03  0.00000000000E+00 0. -1.
          1    1    1    2  502    0 -0.69450204737E+01  0.45316323922E+02  0.16713320958E+04  0.16719607582E+04  0.00000000000E+00 0. -1.
         22    1    3    3    0    0 -0.12668163524E+02 -0.70103603487E+02 -0.76661170722E+01  0.71650310117E+02  0.00000000000E+00 0. -1.
         22    1    3    3    0    0  0.15332042757E+02  0.52722277790E+02 -0.99793887796E+01  0.55805898532E+02  0.00000000000E+00 0. -1.
</event>
<event>
 7    1  0.6607887E-006  0.1976785E+03  0.7818608E-02  0.1339366E+00
          2   -1    0    0  502    0  0.00000000000E+00  0.00000000000E+00  0.66598586994E+03  0.66598586994E+03  0.00000000000E+00 0. -1.
          1   -1    0    0  501    0 -0.00000000000E+00 -0.00000000000E+00 -0.15525745095E+04  0.15525745095E+04  0.00000000000E+00 0. -1.
         25    2    1    2    0    0 -0.12077441956E+03  0.11746989308E+03  0.51123586253E+03  0.55260656773E+03  0.12500510134E+03 0.  0.
          2    1    1    2  501    0  0.14086365525E+03 -0.13918839009E+03 -0.15237679520E+04  0.15365821647E+04  0.00000000000E+00 0. -1.
          1    1    1    2  502    0 -0.20089235695E+02  0.21718497005E+02  0.12594344986E+03  0.12937164707E+03  0.00000000000E+00 0. -1.
         22    1    3    3    0    0 -0.46443301872E+02  0.41194784479E+02  0.37284634573E+03  0.37797934875E+03  0.00000000000E+00 0. -1.
         22    1    3    3    0    0 -0.74331117684E+02  0.76275108602E+02  0.13838951680E+03  0.17462721898E+03  0.00000000000E+00 0. -1.
</event>
<event>
 7    1  0.6607887E-006  0.2303397E+03  0.7818608E-02  0.1260909E+00
          2   -1    0    0  502    0  0.00000000000E+00  0.00000000000E+00  0.15966988470E+04  0.15966988470E+04  0.00000000000E+00 0. -1.
          1   -1    0    0  501    0 -0.00000000000E+00 -0.00000000000E+00 -0.90850402470E+03  0.90850402470E+03  0.00000000000E+00 0. -1.
         25    2    1    2    0    0 -0.17253194197E+03 -0.93079179349E+02  0.79329533233E+02  0.24565937462E+03  0.12499739544E+03 0.  0.
          2    1    1    2  501    0 -0.12759569233E+02 -0.50777963115E+02 -0.81490133835E+03  0.81658153261E+03  0.00000000000E+00 0. -1.
          1    1    1    2  502    0  0.18529151120E+03  0.14385714246E+03  0.14237666274E+04  0.14429619644E+04  0.00000000000E+00 0. -1.
         22    1    3    3    0    0 -0.16204532431E+03 -0.93875546850E+02  0.23376658526E+02  0.18872671669E+03  0.00000000000E+00 0.  1.
         22    1    3    3    0    0 -0.10486617659E+02  0.79636750106E+00  0.55952874707E+02  0.56932657931E+02  0.00000000000E+00 0.  1.
</event>
<event>
 7    1  0.6607887E-006  0.1172121E+03  0.7818608E-02  0.1259361E+00
          2   -1    0    0  502    0  0.00000000000E+00  0.00000000000E+00  0.18085883468E+04  0.18085883468E+04  0.00000000000E+00 0. -1.
          1   -1    0    0  501    0 -0.00000000000E+00 -0.00000000000E+00 -0.70482846524E+03  0.70482846524E+03  0.00000000000E+00 0. -1.
         25    2    1    2    0    0  0.11192957019E+03 -0.18787529126E+03 -0.30180819026E+03  0.39311775296E+03  0.12501212034E+03 0.  0.
          2    1    1    2  501    0 -0.66840358685E+02  0.80283371971E+02 -0.34775115340E+03  0.36310317825E+03  0.00000000000E+00 0. -1.
          1    1    1    2  502    0 -0.45089211501E+02  0.10759191929E+03  0.17533192253E+04  0.17571958809E+04  0.00000000000E+00 0. -1.
         22    1    3    3    0    0  0.12143207409E+03 -0.19146706317E+03 -0.30704942860E+03  0.38168669940E+03  0.00000000000E+00 0. -1.
         22    1    3    3    0    0 -0.95025039075E+01  0.35917719105E+01  0.52412383384E+01  0.11431053551E+02  0.00000000000E+00 0. -1.
</event>
<event>
 7    1  0.6607887E-006  0.5301945E+02  0.7818608E-02  0.1446705E+00
          2   -1    0    0  502    0  0.00000000000E+00  0.00000000000E+00  0.12224289639E+03  0.12224289639E+03  0.00000000000E+00 0. -1.
          1   -1    0    0  501    0 -0.00000000000E+00 -0.00000000000E+00 -0.13355082810E+04  0.13355082810E+04  0.00000000000E+00 0. -1.
         25    2    1    2    0    0  0.14279852600E+02 -0.77692900719E+01 -0.45013874713E+03  0.46745550537E+03  0.12500192709E+03 0.  0.
          2    1    1    2  501    0 -0.19191682699E+02  0.54188605802E+02 -0.87092749607E+03  0.87282267907E+03  0.00000000000E+00 0. -1.
          1    1    1    2  502    0  0.49118300983E+01 -0.46419315730E+02  0.10780085862E+03  0.11747299293E+03  0.00000000000E+00 0. -1.
         22    1    3    3    0    0 -0.10539445289E+02 -0.38618243468E+02 -0.40675661976E+03  0.40872166122E+03  0.00000000000E+00 0. -1.
         22    1    3    3    0    0  0.24819297889E+02  0.30848953396E+02 -0.43382127372E+02  0.58733844151E+02  0.00000000000E+00 0. -1.
</event>
<event>
 7    1  0.6607887E-006  0.1033760E+03  0.7818608E-02  0.1420743E+00
          2   -1    0    0  502    0  0.00000000000E+00  0.00000000000E+00  0.66482515083E+03  0.66482515083E+03  0.00000000000E+00 0. -1.
          1   -1    0    0  501    0 -0.00000000000E+00 -0.00000000000E+00 -0.18297993376E+03  0.18297993376E+03  0.00000000000E+00 0. -1.
         25    2    1    2    0    0  0.13814465713E+01 -0.76085455434E+02 -0.58572604246E+01  0.14645948729E+03  0.12500067598E+03 0.  0.
          2    1    1    2  501    0 -0.31554830825E+01 -0.28946110865E+02 -0.10009047128E+03  0.10423980453E+03  0.00000000000E+00 0. -1.
          1    1    1    2  502    0  0.17740365112E+01  0.10503156630E+03  0.58779294877E+03  0.59710579276E+03  0.00000000000E+00 0. -1.
         22    1    3    3    0    0  0.29077820433E+01 -0.72375673626E+02 -0.58842421943E+02  0.93322687216E+02  0.00000000000E+00 0. -1.
         22    1    3    3    0    0 -0.15263354720E+01 -0.37097818076E+01  0.52985161518E+02  0.53136800074E+02  0.00000000000E+00 0. -1.
</event>
<event>
 7    1  0.6607887E-006  0.1906067E+03  0.7818608E-02  0.1207798E+00
          2   -1    0    0  502    0  0.00000000000E+00  0.00000000000E+00  0.87116321236E+03  0.87116321236E+03  0.00000000000E+00 0. -1.
          1   -1    0    0  501    0 -0.00000000000E+00 -0.00000000000E+00 -0.31687771480E+03  0.31687771480E+03  0.00000000000E+00 0. -1.
         25    2    1    2    0    0 -0.12197245557E+03 -0.25760840160E+03  0.90766401320E+02  0.32419477925E+03  0.12499738713E+03 0.  0.
          2    1    1    2  501    0  0.68213532332E+02  0.85117965743E+02 -0.17170777336E+03  0.20342495795E+03  0.00000000000E+00 0. -1.
          1    1    1    2  502    0  0.53758923235E+02  0.17249043586E+03  0.63522686960E+03  0.66042118996E+03  0.00000000000E+00 0. -1.
         22    1    3    3    0    0 -0.11436947823E+03 -0.10232098428E+03  0.64744448601E+02  0.16655871337E+03  0.00000000000E+00 0. -1.
         22    1    3    3    0    0 -0.76029773414E+01 -0.15528741732E+03  0.26021952720E+02  0.15763606588E+03  0.00000000000E+00 0. -1.
</event>
<event>
 7    1  0.6607887E-006  0.8132208E+02  0.7818608E-02  0.1430167E+00
          2   -1    0    0  502    0  0.00000000000E+00  0.00000000000E+00  0.18600142132E+04  0.18600142132E+04  0.00000000000E+00 0. -1.
          1   -1    0    0  501    0 -0.00000000000E+00 -0.00000000000E+00 -0.18657065863E+04  0.18657065863E+04  0.00000000000E+00 0. -1.
         25    2    1    2    0    0 -0.38810300882E+02  0.72259930274E+02  0.29295787075E+03  0.32890273546E+03  0.12499983353E+03 0.  0.
          2    1    1    2  501    0  0.55320036943E+01 -0.81152663730E+02 -0.18466472632E+04  0.18484378466E+04  0.00000000000E+00 0. -1.
          1    1    1    2  502    0  0.33278297188E+02  0.88927334560E+01  0.15479970194E+04  0.15483802174E+04  0.00000000000E+00 0. -1.
         22    1    3    3    0    0  0.24703877341E+02  0.80421035226E+02  0.14420321851E+03  0.16695027012E+03  0.00000000000E+00 0. -1.
         22    1    3    3    0    0 -0.63514178223E+02 -0.81611049522E+01  0.14875465224E+03  0.16195246535E+03  0.00000000000E+00 0. -1.
</event>
<event>
 7    1  0.6607887E-006  0.1236339E+03  0.7818608E-02  0.1384445E+00
          2   -1    0    0  502    0  0.00000000000E+00  0.00000000000E+00  0.72081125254E+03  0.72081125254E+03  0.00000000000E+00 0. -1.
          1   -1    0    0  501    0 -0.00000000000E+00 -0.00000000000E+00 -0.50077865488E+03  0.50077865488E+03  0.00000000000E+00 0. -1.
         25    2    1    2    0    0 -0.29254872371E+02 -0.12702077176E+03  0.40378508586E+03  0.44233173334E+03  0.12499937098E+03 0.  0.
          2    1    1    2  501    0 -0.25911501409E+02  0.19483396194E+02 -0.46865735795E+03  0.46977731724E+03  0.00000000000E+00 0. -1.
          1    1    1    2  502    0  0.55166373780E+02  0.10753737556E+03  0.28490486975E+03  0.30948085683E+03  0.00000000000E+00 0. -1.
         22    1    3    3    0    0 -0.51521595965E+01 -0.35871084147E+02  0.10251007516E+02  0.37661154808E+02  0.00000000000E+00 0. -1.
         22    1    3    3    0    0 -0.24102712774E+02 -0.91149687611E+02  0.39353407834E+03  0.40467057853E+03  0.00000000000E+00 0. -1.
</event>
<event>
 7    1  0.6607887E-006  0.1083647E+03  0.7818608E-02  0.1416766E+00
          2   -1    0    0  502    0  0.00000000000E+00  0.00000000000E+00  0.82501445310E+03  0.82501445310E+03  0.00000000000E+00 0. -1.
          1   -1    0    0  501    0 -0.00000000000E+00 -0.00000000000E+00 -0.13054251862E+04  0.13054251862E+04  0.00000000000E+00 0. -1.
         25    2    1    2    0    0 -0.77044723005E+02 -0.45333252615E+02 -0.32576464727E+03  0.36018755318E+03  0.12498589889E+03 0.  0.
          2    1    1    2  501    0  0.10505761934E+03  0.39366032965E+02 -0.95892384243E+03  0.96546451178E+03  0.00000000000E+00 0. -1.
          1    1    1    2  502    0 -0.28012896337E+02  0.59672196507E+01  0.80427775659E+03  0.80478757435E+03  0.00000000000E+00 0. -1.
         22    1    3    3    0    0  0.28039897477E+02 -0.36500204044E+02 -0.72900074997E+02  0.86214393696E+02  0.00000000000E+00 0. -1.
         22    1    3    3    0    0 -0.10508462048E+03 -0.88330485715E+01 -0.25286457227E+03  0.27397315948E+03  0.00000000000E+00 0. -1.
</event>
<event>
 7    1  0.6607887E-006  0.1382109E+03  0.7818608E-02  0.1330594E+00
          2   -1    0    0  502    0  0.00000000000E+00  0.00000000000E+00  0.50498090425E+03  0.50498090425E+03  0.00000000000E+00 0. -1.
          1   -1    0    0  501    0 -0.00000000000E+00 -0.00000000000E+00 -0.12001764841E+03  0.12001764841E+03  0.00000000000E+00 0. -1.
         25    2    1    2    0    0  0.51197814957E+02 -0.95202983652E+02  0.29400716641E+03  0.33726869108E+03  0.12500052692E+03 0.  0.
          2    1    1    2  501    0 -0.37688092307E+02  0.13884134288E+03 -0.39762205553E+02  0.14925931725E+03  0.00000000000E+00 0. -1.
          1    1    1    2  502    0 -0.13509722650E+02 -0.43638359233E+02  0.13071829498E+03  0.13847054432E+03  0.00000000000E+00 0. -1.
         22    1    3    3    0    0 -0.93451490460E+01 -0.67226110010E+01  0.18148010823E+03  0.18184486518E+03  0.00000000000E+00 0. -1.
         22    1    3    3    0    0  0.60542964003E+02 -0.88480372651E+02  0.11252705818E+03  0.15542382590E+03  0.00000000000E+00 0. -1.
</event>
<event>
 7    1  0.6998255E-006  0.1362133E+03  0.7818608E-02  0.1299247E+00
          2   -1    0    0  502    0  0.00000000000E+00  0.00000000000E+00  0.11639198603E+04  0.11639198603E+04  0.00000000000E+00 0. -1.
          1   -1    0    0  501    0 -0.00000000000E+00 -0.00000000000E+00 -0.93367166111E+03  0.93367166111E+03  0.00000000000E+00 0. -1.
         25    2    1    2    0    0 -0.73506441429E+02 -0.33054947344E+02 -0.23682992185E+03  0.27965515524E+03  0.12499106967E+03 0.  0.
          2    1    1    2  501    0 -0.35446180158E+02 -0.50222432818E+02 -0.66990179773E+03  0.67271624259E+03  0.00000000000E+00 0. -1.
          1    1    1    2  502    0  0.10895262159E+03  0.83277380161E+02  0.11369799187E+04  0.11452201235E+04  0.00000000000E+00 0. -1.
         22    1    3    3    0    0  0.13640292047E+02  0.20293843233E+02 -0.32032058603E+01  0.24660863085E+02  0.00000000000E+00 0. -1.
         22    1    3    3    0    0 -0.87146733476E+02 -0.53348790577E+02 -0.23362671599E+03  0.25499429216E+03  0.00000000000E+00 0. -1.
</event>
<event>
 7    1  0.6607887E-006  0.1087842E+03  0.7818608E-02  0.1449868E+00
          2   -1    0    0  502    0  0.00000000000E+00  0.00000000000E+00  0.93729122126E+02  0.93729122126E+02  0.00000000000E+00 0. -1.
          1   -1    0    0  501    0 -0.00000000000E+00 -0.00000000000E+00 -0.12582914466E+04  0.12582914466E+04  0.00000000000E+00 0. -1.
         25    2    1    2    0    0  0.88883415491E+02 -0.42974554262E+02 -0.22139954630E+03  0.27274492548E+03  0.12499984565E+03 0.  0.
          2    1    1    2  501    0 -0.88763963959E+02  0.65199227714E+02 -0.10063164279E+04  0.10123254090E+04  0.00000000000E+00 0. -1.
          1    1    1    2  502    0 -0.11945153213E+00 -0.22224673452E+02  0.63153649788E+02  0.66950234207E+02  0.00000000000E+00 0. -1.
         22    1    3    3    0    0  0.42036752555E+02  0.36482583085E+02 -0.37814292582E+02  0.67290327369E+02  0.00000000000E+00 0.  1.
         22    1    3    3    0    0  0.46846662936E+02 -0.79457137347E+02 -0.18358525372E+03  0.20545459811E+03  0.00000000000E+00 0.  1.
</event>
<event>
 7    1  0.6607887E-006  0.1736065E+03  0.7818608E-02  0.1293619E+00
          2   -1    0    0  502    0  0.00000000000E+00  0.00000000000E+00  0.30775411659E+03  0.30775411659E+03  0.00000000000E+00 0. -1.
          1   -1    0    0  501    0 -0.00000000000E+00 -0.00000000000E+00 -0.12127311484E+04  0.12127311484E+04  0.00000000000E+00 0. -1.
         25    2    1    2    0    0  0.14013480266E+03 -0.57592775974E+02 -0.21877568109E+03  0.29400513066E+03  0.12498610907E+03 0.  0.
          2    1    1    2  501    0 -0.62979055294E+00 -0.50809936681E+02 -0.92668423715E+03  0.92807635552E+03  0.00000000000E+00 0. -1.
          1    1    1    2  502    0 -0.13950501210E+03  0.10840271266E+03  0.24048288645E+03  0.29840377878E+03  0.00000000000E+00 0. -1.
         22    1    3    3    0    0 -0.23443879244E+02 -0.11432179414E+02 -0.35442260672E+02  0.44005272885E+02  0.00000000000E+00 0. -1.
         22    1    3    3    0    0  0.16357868190E+03 -0.46160596561E+02 -0.18333342041E+03  0.24999985778E+03  0.00000000000E+00 0. -1.
</event>
<event>
 7    1  0.6607887E-006  0.6773542E+02  0.7818608E-02  0.1433822E+00
          2   -1    0    0  502    0  0.00000000000E+00  0.00000000000E+00  0.50932368158E+02  0.50932368158E+02  0.00000000000E+00 0. -1.
          1   -1    0    0  501    0 -0.00000000000E+00 -0.00000000000E+00 -0.66070694770E+03  0.66070694770E+03  0.00000000000E+00 0. -1.
         25    2    1    2    0    0  0.88722443877E+02 -0.46672764656E+01 -0.20062842447E+03  0.25252700572E+03  0.12499867358E+03 0.  0.
          2    1    1    2  501    0 -0.61476759252E+02 -0.24929960149E+02 -0.41337313969E+03  0.41866245050E+03  0.00000000000E+00 0. -1.
          1    1    1    2  502    0 -0.27245684624E+02  0.29597236615E+02  0.42269846144E+01  0.40449859639E+02  0.00000000000E+00 0. -1.
         22    1    3    3    0    0  0.10400716775E+03  0.67330915505E+01 -0.82651726288E+02  0.13301929681E+03  0.00000000000E+00 0.  1.
         22    1    3    3    0    0 -0.15284723878E+02 -0.11400368016E+02 -0.11797669818E+03  0.11950770891E+03  0.00000000000E+00 0.  1.
</event>
<event>
 7    1  0.6607887E-006  0.4519596E+02  0.7818608E-02  0.1485949E+00
          2   -1    0    0  502    0  0.00000000000E+00  0.00000000000E+00  0.81535970353E+03  0.81535970353E+03  0.00000000000E+00 0. -1.
          1   -1    0    0  501    0 -0.00000000000E+00 -0.00000000000E+00 -0.59095453950E+03  0.59095453950E+03  0.00000000000E+00 0. -1.
         25    2    1    2    0    0 -0.13895204854E+02  0.20922012513E+01 -0.16179370688E+03  0.20493898840E+03  0.12500132542E+03 0.  0.
          2    1    1    2  501    0 -0.11504509576E+02 -0.39642873054E+02 -0.40589327816E+03  0.40798684340E+03  0.00000000000E+00 0. -1.
          1    1    1    2  502    0  0.25399714430E+02  0.37550671802E+02  0.79209214908E+03  0.79338841123E+03  0.00000000000E+00 0. -1.
         22    1    3    3    0    0  0.18847332340E+02  0.24677069000E+02 -0.16221532811E+03  0.16516050480E+03  0.00000000000E+00 0. -1.
         22    1    3    3    0    0 -0.32742537194E+02 -0.22584867748E+02  0.42162123306E+00  0.39778483601E+02  0.00000000000E+00 0. -1.
</event>
<event>
 7    1  0.6607887E-006  0.4329197E+02  0.7818608E-02  0.1501561E+00
          2   -1    0    0  502    0  0.00000000000E+00  0.00000000000E+00  0.33681847371E+03  0.33681847371E+03  0.00000000000E+00 0. -1.
          1   -1    0    0  501    0 -0.00000000000E+00 -0.00000000000E+00 -0.27656634061E+04  0.27656634061E+04  0.00000000000E+00 0. -1.
         25    2    1    2    0    0  0.69208770099E+01 -0.52379086053E+02  0.49158919459E+02  0.14429575567E+03  0.12495278528E+03 0.  0.
          2    1    1    2  501    0 -0.34055733776E+02  0.18328580306E+02 -0.27159822070E+04  0.27162575501E+04  0.00000000000E+00 0. -1.
          1    1    1    2  502    0  0.27134856766E+02  0.34050505748E+02  0.23797835516E+03  0.24192857400E+03  0.00000000000E+00 0. -1.
         22    1    3    3    0    0  0.34799392548E+02 -0.84301817911E+02  0.45029561799E+02  0.10171261309E+03  0.00000000000E+00 0.  1.
         22    1    3    3    0    0 -0.27878515538E+02  0.31922731858E+02  0.41293576598E+01  0.42583142587E+02  0.00000000000E+00 0.  1.
</event>
<event>
 7    1  0.6607887E-006  0.1612343E+03  0.7818608E-02  0.1230877E+00
          2   -1    0    0  502    0  0.00000000000E+00  0.00000000000E+00  0.23410057659E+04  0.23410057659E+04  0.00000000000E+00 0. -1.
          1   -1    0    0  501    0 -0.00000000000E+00 -0.00000000000E+00 -0.29125637792E+03  0.29125637792E+03  0.00000000000E+00 0. -1.
         25    2    1    2    0    0  0.20795677339E+03 -0.10850520117E+02  0.39607194821E+03  0.46460757731E+03  0.12499383727E+03 0.  0.
          2    1    1    2  501    0 -0.14463201331E+03 -0.68054520881E+02 -0.23064450696E+03  0.28061846995E+03  0.00000000000E+00 0. -1.
          1    1    1    2  502    0 -0.63324760081E+02  0.78905040998E+02  0.18843219468E+04  0.18870360966E+04  0.00000000000E+00 0. -1.
         22    1    3    3    0    0  0.13527577235E+03 -0.65211652910E+02  0.27448963337E+03  0.31288440851E+03  0.00000000000E+00 0.  1.
         22    1    3    3    0    0  0.72681001047E+02  0.54361132793E+02  0.12158231484E+03  0.15172316881E+03  0.00000000000E+00 0.  1.
</event>
<event>
 7    1  0.6607887E-006  0.4978245E+02  0.7818608E-02  0.1452147E+00
          2   -1    0    0  502    0  0.00000000000E+00  0.00000000000E+00  0.26669662087E+04  0.26669662087E+04  0.00000000000E+00 0. -1.
          1   -1    0    0  501    0 -0.00000000000E+00 -0.00000000000E+00 -0.13350794211E+03  0.13350794211E+03  0.00000000000E+00 0. -1.
         25    2    1    2    0    0 -0.72380799581E+01  0.24908764205E+02 -0.56532147007E+02  0.13962685665E+03  0.12500775623E+03 0.  0.
          2    1    1    2  501    0 -0.31967881321E+01 -0.71513460691E+02  0.11781803189E+01  0.71594571186E+02  0.00000000000E+00 0. -1.
          1    1    1    2  502    0  0.10434868090E+02  0.46604696486E+02  0.25888122333E+04  0.25892527230E+04  0.00000000000E+00 0. -1.
         22    1    3    3    0    0  0.17797421680E+02 -0.35412206095E+02 -0.62540446358E+02  0.74041069614E+02  0.00000000000E+00 0.  1.
         22    1    3    3    0    0 -0.25035501638E+02  0.60320970300E+02  0.60082993505E+01  0.65585787038E+02  0.00000000000E+00 0.  1.
</event>
<event>
 7    1  0.6607887E-006  0.6357498E+02  0.7818608E-02  0.1493947E+00
          2   -1    0    0  502    0  0.00000000000E+00  0.00000000000E+00  0.20601467632E+03  0.20601467632E+03  0.00000000000E+00 0. -1.
          1   -1    0    0  501    0 -0.00000000000E+00 -0.00000000000E+00 -0.20611679250E+03  0.20611679250E+03  0.00000000000E+00 0. -1.
         25    2    1    2    0    0 -0.24966003425E+02  0.28357116924E+02 -0.43271291998E+02  0.13756846468E+03  0.12500100142E+03 0.  0.
          2    1    1    2  501    0 -0.17531068457E+02  0.21517196550E+02 -0.10709543034E+03  0.11063344571E+03  0.00000000000E+00 0. -1.
          1    1    1    2  502    0  0.42497071882E+02 -0.49874313474E+02  0.15026460617E+03  0.16392955844E+03  0.00000000000E+00 0. -1.
         22    1    3    3    0    0 -0.29286311463E+02 -0.31348493444E+02 -0.61507543885E+02  0.74990626315E+02  0.00000000000E+00 0. -1.
         22    1    3    3    0    0  0.43203080383E+01  0.59705610368E+02  0.18236251888E+02  0.62577838360E+02  0.00000000000E+00 0. -1.
</event>
<event>
 7    1  0.6607887E-006  0.9111183E+02  0.7818608E-02  0.1317546E+00
          2   -1    0    0  502    0  0.00000000000E+00  0.00000000000E+00  0.25543453817E+04  0.25543453817E+04  0.00000000000E+00 0. -1.
          1   -1    0    0  501    0 -0.00000000000E+00 -0.00000000000E+00 -0.31669457019E+03  0.31669457019E+03  0.00000000000E+00 0. -1.
         25    2    1    2    0    0 -0.13659927628E+03 -0.17731434173E+02  0.46711734123E+03  0.50280229199E+03  0.12505106280E+03 0.  0.
          2    1    1    2  501    0  0.67280961772E+02 -0.39079382069E+02 -0.29279845528E+03  0.30296016460E+03  0.00000000000E+00 0. -1.
          1    1    1    2  502    0  0.69318314507E+02  0.56810816242E+02  0.20633319256E+04  0.20652774953E+04  0.00000000000E+00 0. -1.
         22    1    3    3    0    0 -0.12071247201E+03 -0.15762166348E+01  0.19230649716E+03  0.22705896637E+03  0.00000000000E+00 0. -1.
         22    1    3    3    0    0 -0.15886804267E+02 -0.16155217538E+02  0.27481084407E+03  0.27574332562E+03  0.00000000000E+00 0. -1.
</event>
<event>
 7    1  0.6607887E-006  0.1771685E+03  0.7818608E-02  0.1178474E+00
          2   -1    0    0  502    0  0.00000000000E+00  0.00000000000E+00  0.16217504688E+04  0.16217504688E+04  0.00000000000E+00 0. -1.
          1   -1    0    0  501    0 -0.00000000000E+00 -0.00000000000E+00 -0.38882225745E+04  0.38882225745E+04  0.00000000000E+00 0. -1.
         25    2    1    2    0    0  0.14820555210E+03 -0.22316013877E+03 -0.71254093615E+03  0.77143045048E+03  0.12500008414E+03 0.  0.
          2    1    1    2  501    0  0.17426685014E+02  0.16103339741E+03 -0.31392292176E+04  0.31434050844E+04  0.00000000000E+00 0. -1.
          1    1    1    2  502    0 -0.16563223711E+03  0.62126741367E+02  0.15852980479E+04  0.15951375084E+04  0.00000000000E+00 0. -1.
         22    1    3    3    0    0  0.18715873711E+02 -0.50627625364E+02 -0.46224481787E+02  0.71064358825E+02  0.00000000000E+00 0. -1.
         22    1    3    3    0    0  0.12948967839E+03 -0.17253251341E+03 -0.66631645436E+03  0.70036609166E+03  0.00000000000E+00 0. -1.
</event>
<event>
 7    1  0.6607887E-006  0.1061650E+03  0.7818608E-02  0.1415472E+00
          2   -1    0    0  502    0  0.00000000000E+00  0.00000000000E+00  0.39777642520E+02  0.39777642520E+02  0.00000000000E+00 0. -1.
          1   -1    0    0  501    0 -0.00000000000E+00 -0.00000000000E+00 -0.18422773134E+04  0.18422773134E+04  0.00000000000E+00 0. -1.
         25    2    1    2    0    0  0.42926752725E+02 -0.11352178264E+03 -0.60466246774E+03  0.62926259746E+03  0.12499926178E+03 0.  0.
          2    1    1    2  501    0 -0.56342245744E+02  0.87216240366E+02 -0.12144704871E+04  0.12189010153E+04  0.00000000000E+00 0. -1.
          1    1    1    2  502    0  0.13415493019E+02  0.26305542272E+02  0.16633283895E+02  0.33891343147E+02  0.00000000000E+00 0. -1.
         22    1    3    3    0    0 -0.42612002534E+02 -0.35990179495E+02 -0.14593348316E+03  0.15622950198E+03  0.00000000000E+00 0. -1.
         22    1    3    3    0    0  0.85538755259E+02 -0.77531603143E+02 -0.45872898458E+03  0.47303309549E+03  0.00000000000E+00 0. -1.
</event>
<event>
 7    1  0.6607887E-006  0.7632912E+02  0.7818608E-02  0.1474891E+00
          2   -1    0    0  502    0  0.00000000000E+00  0.00000000000E+00  0.35410940096E+03  0.35410940096E+03  0.00000000000E+00 0. -1.
          1   -1    0    0  501    0 -0.00000000000E+00 -0.00000000000E+00 -0.12063807958E+04  0.12063807958E+04  0.00000000000E+00 0. -1.
         25    2    1    2    0    0 -0.12254985766E+02  0.10161765456E+03 -0.75685946566E+03  0.77391053876E+03  0.12499975542E+03 0.  0.
          2    1    1    2  501    0  0.63023757603E+01 -0.25663882969E+02 -0.43639223729E+03  0.43719165088E+03  0.00000000000E+00 0. -1.
          1    1    1    2  502    0  0.59526100061E+01 -0.75953771587E+02  0.34098030812E+03  0.34938800711E+03  0.00000000000E+00 0. -1.
         22    1    3    3    0    0  0.39977332665E+02  0.68687717164E+02 -0.60154619445E+03  0.60677344509E+03  0.00000000000E+00 0.  1.
         22    1    3    3    0    0 -0.52232318432E+02  0.32929937391E+02 -0.15531327121E+03  0.16713709367E+03  0.00000000000E+00 0.  1.
</event>
<event>
 7    1  0.6607887E-006  0.9669102E+02  0.7818608E-02  0.1328078E+00
          2   -1    0    0  502    0  0.00000000000E+00  0.00000000000E+00  0.44782049959E+03  0.44782049959E+03  0.00000000000E+00 0. -1.
          1   -1    0    0  501    0 -0.00000000000E+00 -0.00000000000E+00 -0.15061622214E+04  0.15061622214E+04  0.00000000000E+00 0. -1.
         25    2    1    2    0    0  0.54970968732E+02 -0.12457975539E+03 -0.40292544427E+03  0.44329798549E+03  0.12498906927E+03 0.  0.
          2    1    1    2  501    0  0.43028093936E+01  0.93861281457E+02 -0.10783895762E+04  0.10824751879E+04  0.00000000000E+00 0. -1.
          1    1    1    2  502    0 -0.59273778126E+02  0.30718473934E+02  0.42297329859E+03  0.42820954770E+03  0.00000000000E+00 0. -1.
         22    1    3    3    0    0 -0.43442119487E+01  0.17708647939E+02 -0.11747115058E+03  0.11887783480E+03  0.00000000000E+00 0.  1.
         22    1    3    3    0    0  0.59315180681E+02 -0.14228840333E+03 -0.28545429370E+03  0.32442015068E+03  0.00000000000E+00 0.  1.
</event>
<event>
 7    1  0.6607887E-006  0.5623623E+02  0.7818608E-02  0.1511066E+00
          2   -1    0    0  502    0  0.00000000000E+00  0.00000000000E+00  0.88695472034E+03  0.88695472034E+03  0.00000000000E+00 0. -1.
          1   -1    0    0  501    0 -0.00000000000E+00 -0.00000000000E+00 -0.88285958772E+03  0.88285958772E+03  0.00000000000E+00 0. -1.
         25    2    1    2    0    0 -0.28811766735E+02  0.91838038580E+01 -0.15139376165E+03  0.19865675778E+03  0.12501990317E+03 0.  0.
          2    1    1    2  501    0  0.51866831561E+02 -0.24906515272E+02 -0.70643890612E+03  0.70877812522E+03  0.00000000000E+00 0. -1.
          1    1    1    2  502    0 -0.23055064826E+02  0.15722711414E+02  0.86192780039E+03  0.86237942505E+03  0.00000000000E+00 0. -1.
         22    1    3    3    0    0  0.35730590428E+02 -0.35174126216E+02 -0.54144152173E+02  0.73793519105E+02  0.00000000000E+00 0.  1.
         22    1    3    3    0    0 -0.64542357163E+02  0.44357930074E+02 -0.97249609481E+02  0.12486323868E+03  0.00000000000E+00 0.  1.
</event>
<event>
 7    1  0.6607887E-006  0.2922818E+02  0.7818608E-02  0.1657927E+00
          2   -1    0    0  502    0  0.00000000000E+00  0.00000000000E+00  0.60978611149E+03  0.60978611149E+03  0.00000000000E+00 0. -1.
          1   -1    0    0  501    0 -0.00000000000E+00 -0.00000000000E+00 -0.46011638832E+02  0.46011638832E+02  0.00000000000E+00 0. -1.
         25    2    1    2    0    0 -0.45624861411E+02  0.21705880967E+02  0.16382740028E+03  0.21217400713E+03  0.12500247586E+03 0.  0.
          2    1    1    2  501    0  0.19343669371E+02 -0.99519116089E+01 -0.15796854994E+02  0.26884172242E+02  0.00000000000E+00 0. -1.
          1    1    1    2  502    0  0.26281192040E+02 -0.11753969358E+02  0.41574392737E+03  0.41673957095E+03  0.00000000000E+00 0. -1.
         22    1    3    3    0    0  0.40342485881E+02 -0.14920517786E+00  0.25102832966E+02  0.47515162339E+02  0.00000000000E+00 0.  1.
         22    1    3    3    0    0 -0.85967347292E+02  0.21855086145E+02  0.13872456732E+03  0.16465884479E+03  0.00000000000E+00 0.  1.
</event>
<event>
 7    1  0.6607887E-006  0.1376547E+03  0.7818608E-02  0.1349785E+00
          2   -1    0    0  502    0  0.00000000000E+00  0.00000000000E+00  0.16169176205E+03  0.16169176205E+03  0.00000000000E+00 0. -1.
          1   -1    0    0  501    0 -0.00000000000E+00 -0.00000000000E+00 -0.15138339948E+04  0.15138339948E+04  0.00000000000E+00 0. -1.
         25    2    1    2    0    0 -0.78634231886E+02  0.90363005926E+02 -0.33722129851E+03  0.37906622390E+03  0.12499673062E+03 0.  0.
          2    1    1    2  501    0  0.64490751398E+02 -0.12653969634E+03 -0.11485508076E+04  0.11572987122E+04  0.00000000000E+00 0. -1.
          1    1    1    2  502    0  0.14143480488E+02  0.36176690412E+02  0.13362987334E+03  0.13916082070E+03  0.00000000000E+00 0. -1.
         22    1    3    3    0    0 -0.68218533647E+02  0.98686427098E+02 -0.15330319879E+03  0.19466548226E+03  0.00000000000E+00 0.  1.
         22    1    3    3    0    0 -0.10415698239E+02 -0.83234211720E+01 -0.18391809972E+03  0.18440074163E+03  0.00000000000E+00 0.  1.
</event>
<event>
 7    1  0.6607887E-006  0.1219167E+03  0.7818608E-02  0.1379730E+00
          2   -1    0    0  502    0  0.00000000000E+00  0.00000000000E+00  0.83331003325E+03  0.83331003325E+03  0.00000000000E+00 0. -1.
          1   -1    0    0  501    0 -0.00000000000E+00 -0.00000000000E+00 -0.98530505568E+02  0.98530505568E+02  0.00000000000E+00 0. -1.
         25    2    1    2    0    0  0.90284365330E+02  0.86559581861E+02  0.24113109568E+03  0.29901939972E+03  0.12499827307E+03 0.  0.
          2    1    1    2  501    0  0.17537415685E+02 -0.29315167306E+02 -0.58279931546E+02  0.67553611333E+02  0.00000000000E+00 0. -1.
          1    1    1    2  502    0 -0.10782178102E+03 -0.57244414555E+02  0.55192836354E+03  0.56526752776E+03  0.00000000000E+00 0. -1.
         22    1    3    3    0    0  0.52183315042E+02  0.10385925977E+03  0.22669310175E+03  0.25475401192E+03  0.00000000000E+00 0. -1.
         22    1    3    3    0    0  0.38101050288E+02 -0.17299677904E+02  0.14437993935E+02  0.44265387805E+02  0.00000000000E+00 0. -1.
</event>
<event>
 7    1  0.6607887E-006  0.5590182E+02  0.7818608E-02  0.1429141E+00
          2   -1    0    0  502    0  0.00000000000E+00  0.00000000000E+00  0.32843020844E+04  0.32843020844E+04  0.00000000000E+00 0. -1.
          1   -1    0    0  501    0 -0.00000000000E+00 -0.00000000000E+00 -0.52438252933E+03  0.52438252933E+03  0.00000000000E+00 0. -1.
         25    2    1    2    0    0 -0.92904006060E+01 -0.70494299359E+02  0.12946327548E+03  0.19349734936E+03  0.12499890690E+03 0.  0.
          2    1    1    2  501    0 -0.33979796031E+02  0.44454964303E+02 -0.49057084919E+03  0.49375158579E+03  0.00000000000E+00 0. -1.
          1    1    1    2  502    0  0.43270196637E+02  0.26039335057E+02  0.31210271288E+04  0.31214356786E+04  0.00000000000E+00 0. -1.
         22    1    3    3    0    0 -0.66342091104E+02 -0.50414621755E+02  0.74682438917E+02  0.11189447628E+03  0.00000000000E+00 0.  1.
         22    1    3    3    0    0  0.57051690498E+02 -0.20079677604E+02  0.54780836560E+02  0.81602873084E+02  0.00000000000E+00 0.  1.
</event>
<event>
 7    1  0.6607887E-006  0.1163317E+03  0.7818608E-02  0.1379572E+00
          2   -1    0    0  502    0  0.00000000000E+00  0.00000000000E+00  0.32759637853E+03  0.32759637853E+03  0.00000000000E+00 0. -1.
          1   -1    0    0  501    0 -0.00000000000E+00 -0.00000000000E+00 -0.35336128271E+03  0.35336128271E+03  0.00000000000E+00 0. -1.
         25    2    1    2    0    0 -0.86100247334E+02  0.55553621730E+02  0.13721311312E+03  0.21202017947E+03  0.12500264243E+03 0.  0.
          2    1    1    2  501    0 -0.27943693029E+01  0.35737598670E+02 -0.28811952172E+03  0.29034090868E+03  0.00000000000E+00 0. -1.
          1    1    1    2  502    0  0.88894616637E+02 -0.91291220400E+02  0.12514150442E+03  0.17859657308E+03  0.00000000000E+00 0. -1.
         22    1    3    3    0    0 -0.11483016059E+02  0.62424014453E+02  0.98246839949E+01  0.64227265658E+02  0.00000000000E+00 0.  1.
         22    1    3    3    0    0 -0.74617231275E+02 -0.68703927229E+01  0.12738842913E+03  0.14779291382E+03  0.00000000000E+00 0.  1.
</event>
<event>
 7    1  0.6607887E-006  0.9489506E+02  0.7818608E-02  0.1365364E+00
          2   -1    0    0  502    0  0.00000000000E+00  0.00000000000E+00  0.12553948385E+03  0.12553948385E+03  0.00000000000E+00 0. -1.
          1   -1    0    0  501    0 -0.00000000000E+00 -0.00000000000E+00 -0.16161912581E+04  0.16161912581E+04  0.00000000000E+00 0. -1.
         25    2    1    2    0    0  0.13520625024E+03  0.27468567815E+02 -0.34410074727E+03  0.39122906662E+03  0.12497842204E+03 0.  0.
          2    1    1    2  501    0 -0.91821855362E+02 -0.38273556038E+01 -0.12407409006E+04  0.12441398170E+04  0.00000000000E+00 0. -1.
          1    1    1    2  502    0 -0.43384394882E+02 -0.23641212211E+02  0.94189873586E+02  0.10636185839E+03  0.00000000000E+00 0. -1.
         22    1    3    3    0    0  0.42026388937E+02  0.50595975407E+02 -0.52276677534E+02  0.84017980864E+02  0.00000000000E+00 0. -1.
         22    1    3    3    0    0  0.93179861306E+02 -0.23127407592E+02 -0.29182406973E+03  0.30721108575E+03  0.00000000000E+00 0. -1.
</event>
<event>
 7    1  0.6607887E-006  0.1448087E+03  0.7818608E-02  0.1365921E+00
          2   -1    0    0  502    0  0.00000000000E+00  0.00000000000E+00  0.13302250802E+04  0.13302250802E+04  0.00000000000E+00 0. -1.
          1   -1    0    0  501    0 -0.00000000000E+00 -0.00000000000E+00 -0.10127551040E+04  0.10127551040E+04  0.00000000000E+00 0. -1.
         25    2    1    2    0    0 -0.23938767535E+02 -0.11199500344E+03  0.36132257085E+02  0.17333807554E+03  0.12499841217E+03 0.  0.
          2    1    1    2  501    0 -0.73007780335E+01 -0.31389860202E+02 -0.93948173578E+03  0.94003433796E+03  0.00000000000E+00 0. -1.
          1    1    1    2  502    0  0.31239545569E+02  0.14338486364E+03  0.12208194549E+04  0.12296077707E+04  0.00000000000E+00 0. -1.
         22    1    3    3    0    0  0.32586529382E+02 -0.20490764357E+02  0.51916995320E+02  0.64630702643E+02  0.00000000000E+00 0.  1.
         22    1    3    3    0    0 -0.56525296917E+02 -0.91504239084E+02 -0.15784738235E+02  0.10870737290E+03  0.00000000000E+00 0.  1.
</event>
<event>
 7    1  0.6607887E-006  0.6143712E+02  0.7818608E-02  0.1430967E+00
          2   -1    0    0  502    0  0.00000000000E+00  0.00000000000E+00  0.24893888668E+03  0.24893888668E+03  0.00000000000E+00 0. -1.
          1   -1    0    0  501    0 -0.00000000000E+00 -0.00000000000E+00 -0.95389732682E+03  0.95389732682E+03  0.00000000000E+00 0. -1.
         25    2    1    2    0    0  0.50037363507E+00  0.31888533556E+02 -0.45357815133E+03  0.47156658614E+03  0.12499910744E+03 0.  0.
          2    1    1    2  501    0 -0.43600209691E+02  0.12364225193E+02 -0.48627798625E+03  0.48838522937E+03  0.00000000000E+00 0. -1.
          1    1    1    2  502    0  0.43099836056E+02 -0.44252758749E+02  0.23489769744E+03  0.24288439799E+03  0.00000000000E+00 0. -1.
         22    1    3    3    0    0 -0.57401899915E+02  0.26205738408E+02 -0.15462747334E+03  0.16700710868E+03  0.00000000000E+00 0.  1.
         22    1    3    3    0    0  0.57902273550E+02  0.56827951478E+01 -0.29895067799E+03  0.30455947746E+03  0.00000000000E+00 0.  1.
</event>
<event>
 7    1  0.6607887E-006  0.1245242E+03  0.7818608E-02  0.1419462E+00
          2   -1    0    0  502    0  0.00000000000E+00  0.00000000000E+00  0.16977611663E+04  0.16977611663E+04  0.00000000000E+00 0. -1.
          1   -1    0    0  501    0 -0.00000000000E+00 -0.00000000000E+00 -0.80563635330E+03  0.80563635330E+03  0.00000000000E+00 0. -1.
         25    2    1    2    0    0  0.80938721019E+02  0.65290494475E+02  0.32287046521E+03  0.36150253275E+03  0.12499927461E+03 0.  0.
          2    1    1    2  501    0  0.22291343788E+02  0.99512551127E+01 -0.78312031895E+03  0.78350071183E+03  0.00000000000E+00 0. -1.
          1    1    1    2  502    0 -0.10323006481E+03 -0.75241749588E+02  0.13523746667E+04  0.13583942750E+04  0.00000000000E+00 0. -1.
         22    1    3    3    0    0  0.25633246150E+02  0.65203645102E+01 -0.22224877974E+01  0.26542756329E+02  0.00000000000E+00 0. -1.
         22    1    3    3    0    0  0.55305474868E+02  0.58770129965E+02  0.32509295301E+03  0.33495977642E+03  0.00000000000E+00 0. -1.
</event>
<event>
 7    1  0.6607887E-006  0.5854070E+02  0.7818608E-02  0.1413034E+00
          2   -1    0    0  502    0  0.00000000000E+00  0.00000000000E+00  0.66745710824E+03  0.66745710824E+03  0.00000000000E+00 0. -1.
          1   -1    0    0  501    0 -0.00000000000E+00 -0.00000000000E+00 -0.29761092963E+03  0.29761092963E+03  0.00000000000E+00 0. -1.
         25    2    1    2    0    0 -0.12514179813E+02  0.63180978148E+02 -0.29471295588E+02  0.14367364948E+03  0.12500047838E+03 0.  0.
          2    1    1    2  501    0  0.53386776835E+02 -0.27018603395E+02 -0.20554402649E+03  0.21407592041E+03  0.00000000000E+00 0. -1.
          1    1    1    2  502    0 -0.40872597022E+02 -0.36162374753E+02  0.60486150070E+03  0.60731846799E+03  0.00000000000E+00 0. -1.
         22    1    3    3    0    0  0.45929148995E+02  0.59106927828E+02  0.61548583512E+01  0.75106577115E+02  0.00000000000E+00 0. -1.
         22    1    3    3    0    0 -0.58443328808E+02  0.40740503195E+01 -0.35626153939E+02  0.68567072364E+02  0.00000000000E+00 0. -1.
</event>
<event>
 7    1  0.6607887E-006  0.1609135E+03  0.7818608E-02  0.1300753E+00
          2   -1    0    0  502    0  0.00000000000E+00  0.00000000000E+00  0.27647143081E+03  0.27647143081E+03  0.00000000000E+00 0. -1.
          1   -1    0    0  501    0 -0.00000000000E+00 -0.00000000000E+00 -0.19697799744E+04  0.19697799744E+04  0.00000000000E+00 0. -1.
         25    2    1    2    0    0 -0.92551384439E+02 -0.62121154605E+02  0.61167117091E+02  0.17826670618E+03  0.12495121331E+03 0.  0.
          2    1    1    2  501    0  0.13011923166E+03  0.97081146326E+02 -0.19034801525E+04  0.19103906549E+04  0.00000000000E+00 0. -1.
          1    1    1    2  502    0 -0.37567847224E+02 -0.34959991721E+02  0.14900449180E+03  0.15759404412E+03  0.00000000000E+00 0. -1.
         22    1    3    3    0    0 -0.79616607549E+00 -0.74804615989E+02  0.26474988623E+02  0.79355462800E+02  0.00000000000E+00 0.  1.
         22    1    3    3    0    0 -0.91755218364E+02  0.12683461384E+02  0.34692128468E+02  0.98911243382E+02  0.00000000000E+00 0.  1.
</event>
<event>
 7    1  0.6607887E-006  0.1262492E+03  0.7818608E-02  0.1321829E+00
          2   -1    0    0  502    0  0.00000000000E+00  0.00000000000E+00  0.53048428183E+03  0.53048428183E+03  0.00000000000E+00 0. -1.
          1   -1    0    0  501    0 -0.00000000000E+00 -0.00000000000E+00 -0.50640724581E+03  0.50640724581E+03  0.00000000000E+00 0. -1.
         25    2    1    2    0    0  0.11435265271E+03  0.44629183425E+02  0.29255057741E+03  0.34099760203E+03  0.12500092421E+03 0.  0.
          2    1    1    2  501    0 -0.19337633715E+02  0.50464500478E+02 -0.45930240898E+03  0.46247087777E+03  0.00000000000E+00 0. -1.
          1    1    1    2  502    0 -0.95015018999E+02 -0.95093683903E+02  0.19082886760E+03  0.23342304784E+03  0.00000000000E+00 0. -1.
         22    1    3    3    0    0  0.10311943326E+03  0.10245254127E+02  0.28605495563E+03  0.30424664401E+03  0.00000000000E+00 0.  1.
         22    1    3    3    0    0  0.11233219451E+02  0.34383929297E+02  0.64956217750E+01  0.36750958020E+02  0.00000000000E+00 0.  1.
</event>
<event>
 7    1  0.6607887E-006  0.5839021E+02  0.7818608E-02  0.1437538E+00
          2   -1    0    0  502    0  0.00000000000E+00  0.00000000000E+00  0.11459659757E+03  0.11459659757E+03  0.00000000000E+00 0. -1.
          1   -1    0    0  501    0 -0.00000000000E+00 -0.00000000000E+00 -0.16949624707E+04  0.16949624707E+04  0.00000000000E+00 0. -1.
         25    2    1    2    0    0 -0.59933058641E+02 -0.53060639515E+02 -0.86082190749E+02  0.17154622846E+03  0.12494223445E+03 0.  0.
          2    1    1    2  501    0  0.14675745552E+02  0.56406940492E+02 -0.15583845059E+04  0.15594740744E+04  0.00000000000E+00 0. -1.
          1    1    1    2  502    0  0.45257313088E+02 -0.33463009771E+01  0.64100823459E+02  0.78538765501E+02  0.00000000000E+00 0. -1.
         22    1    3    3    0    0 -0.23166579414E+02 -0.89219948971E+02 -0.74917156659E+02  0.11878329031E+03  0.00000000000E+00 0.  1.
         22    1    3    3    0    0 -0.36766479227E+02  0.36159309456E+02 -0.11165034090E+02  0.52762938141E+02  0.00000000000E+00 0.  1.
</event>
<event>
 7    1  0.6607887E-006  0.5873170E+02  0.7818608E-02  0.1422051E+00
          2   -1    0    0  502    0  0.00000000000E+00  0.00000000000E+00  0.10341266942E+03  0.10341266942E+03  0.00000000000E+00 0. -1.
          1   -1    0    0  501    0 -0.00000000000E+00 -0.00000000000E+00 -0.70521567100E+03  0.70521567100E+03  0.00000000000E+00 0. -1.
         25    2    1    2    0    0  0.99207648288E+02 -0.10754916741E+02 -0.20680835890E+03  0.26143911485E+03  0.12499155072E+03 0.  0.
          2    1    1    2  501    0 -0.43986316583E+02  0.25291248347E+02 -0.45878048016E+03  0.46157769905E+03  0.00000000000E+00 0. -1.
          1    1    1    2  502    0 -0.55221331705E+02 -0.14536331607E+02  0.63785837470E+02  0.85611526523E+02  0.00000000000E+00 0. -1.
         22    1    3    3    0    0 -0.27672290760E+01 -0.31862450144E+02 -0.12495752979E+03  0.12898549351E+03  0.00000000000E+00 0. -1.
         22    1    3    3    0    0  0.10197487736E+03  0.21107533404E+02 -0.81850829107E+02  0.13245362134E+03  0.00000000000E+00 0. -1.
</event>
<event>
 7    1  0.6607887E-006  0.1671678E+03  0.7818608E-02  0.1288670E+00
          2   -1    0    0  502    0  0.00000000000E+00  0.00000000000E+00  0.26491609204E+04  0.26491609204E+04  0.00000000000E+00 0. -1.
          1   -1    0    0  501    0 -0.00000000000E+00 -0.00000000000E+00 -0.22630334026E+04  0.22630334026E+04  0.00000000000E+00 0. -1.
         25    2    1    2    0    0 -0.18419931302E+03  0.24059703059E+02 -0.21856991029E+03  0.31290117729E+03  0.12500433929E+03 0.  0.
          2    1    1    2  501    0  0.16407440092E+03  0.27415896476E+02 -0.19935397724E+04  0.20004681613E+04  0.00000000000E+00 0. -1.
          1    1    1    2  502    0  0.20124912106E+02 -0.51475599535E+02  0.25982372005E+04  0.25988249844E+04  0.00000000000E+00 0. -1.
         22    1    3    3    0    0 -0.21974334965E+02  0.54568899632E+02 -0.56075117541E+02  0.81271489537E+02  0.00000000000E+00 0. -1.
         22    1    3    3    0    0 -0.16222497806E+03 -0.30509196573E+02 -0.16249479274E+03  0.23162968776E+03  0.00000000000E+00 0. -1.
</event>
<event>
 7    1  0.6607887E-006  0.8314920E+02  0.7818608E-02  0.1359818E+00
          2   -1    0    0  502    0  0.00000000000E+00  0.00000000000E+00  0.87617723307E+03  0.87617723307E+03  0.00000000000E+00 0. -1.
          1   -1    0    0  501    0 -0.00000000000E+00 -0.00000000000E+00 -0.86538488690E+02  0.86538488690E+02  0.00000000000E+00 0. -1.
         25    2    1    2    0    0 -0.45434266070E+02  0.31785061591E+02  0.36868813441E+03  0.39323237604E+03  0.12500479368E+03 0.  0.
          2    1    1    2  501    0  0.85129334844E+02  0.11954371810E+02 -0.46895104517E+02  0.97923753421E+02  0.00000000000E+00 0. -1.
          1    1    1    2  502    0 -0.39695068774E+02 -0.43739433402E+02  0.46784571449E+03  0.47155959230E+03  0.00000000000E+00 0. -1.
         22    1    3    3    0    0 -0.35283653509E+02  0.79590718794E+02  0.25613929821E+03  0.27053088329E+03  0.00000000000E+00 0.  1.
         22    1    3    3    0    0 -0.10150612561E+02 -0.47805657203E+02  0.11254883620E+03  0.12270149276E+03  0.00000000000E+00 0.  1.
</event>
<event>
 7    1  0.6607887E-006  0.8002339E+02  0.7818608E-02  0.1432421E+00
          2   -1    0    0  502    0  0.00000000000E+00  0.00000000000E+00  0.14485292318E+04  0.14485292318E+04  0.00000000000E+00 0. -1.
          1   -1    0    0  501    0 -0.00000000000E+00 -0.00000000000E+00 -0.26686138369E+03  0.26686138369E+03  0.00000000000E+00 0. -1.
         25    2    1    2    0    0  0.11228930340E+02  0.53370490924E+02  0.52966922278E+03  0.54694517937E+03  0.12500018202E+03 0.  0.
          2    1    1    2  501    0  0.22502448084E+02  0.26036294873E+02 -0.25502076171E+03  0.25733215447E+03  0.00000000000E+00 0. -1.
          1    1    1    2  502    0 -0.33731378424E+02 -0.79406785797E+02  0.90701938701E+03  0.91111328161E+03  0.00000000000E+00 0. -1.
         22    1    3    3    0    0  0.46412241496E+02 -0.13651794356E+02  0.10535094075E+03  0.11592794472E+03  0.00000000000E+00 0. -1.
         22    1    3    3    0    0 -0.35183311156E+02  0.67022285280E+02  0.42431828202E+03  0.43101723465E+03  0.00000000000E+00 0. -1.
</event>
<event>
 7    1  0.6607887E-006  0.5275848E+02  0.7818608E-02  0.1523892E+00
          2   -1    0    0  502    0  0.00000000000E+00  0.00000000000E+00  0.51307060998E+03  0.51307060998E+03  0.00000000000E+00 0. -1.
          1   -1    0    0  501    0 -0.00000000000E+00 -0.00000000000E+00 -0.86755218200E+02  0.86755218200E+02  0.00000000000E+00 0. -1.
         25    2    1    2    0    0  0.14172550758E+02  0.61177531266E+02 -0.60564785401E+01  0.14001050561E+03  0.12499083655E+03 0.  0.
          2    1    1    2  501    0  0.93048823041E+01 -0.47259654622E+02  0.30486428625E+02  0.57004193881E+02  0.00000000000E+00 0. -1.
          1    1    1    2  502    0 -0.23477433062E+02 -0.13917876644E+02  0.40188544169E+03  0.40281112869E+03  0.00000000000E+00 0. -1.
         22    1    3    3    0    0  0.58161690370E+02  0.13957307823E+01 -0.25134719042E+02  0.63375739778E+02  0.00000000000E+00 0.  1.
         22    1    3    3    0    0 -0.43989139612E+02  0.59781800484E+02  0.19078240502E+02  0.76634765828E+02  0.00000000000E+00 0.  1.
</event>
<event>
 7    1  0.6607887E-006  0.1003502E+03  0.7818608E-02  0.1359729E+00
          2   -1    0    0  502    0  0.00000000000E+00  0.00000000000E+00  0.77188674912E+03  0.77188674912E+03  0.00000000000E+00 0. -1.
          1   -1    0    0  501    0 -0.00000000000E+00 -0.00000000000E+00 -0.81093319508E+03  0.81093319508E+03  0.00000000000E+00 0. -1.
         25    2    1    2    0    0 -0.65962837124E+02 -0.12795669876E+02  0.52429199106E+02  0.15130010372E+03  0.12501230106E+03 0.  0.
          2    1    1    2  501    0  0.82969355401E+02  0.58727035090E+02 -0.75720182811E+03  0.76399436325E+03  0.00000000000E+00 0. -1.
          1    1    1    2  502    0 -0.17006518276E+02 -0.45931365214E+02  0.66572618304E+03  0.66752547723E+03  0.00000000000E+00 0. -1.
         22    1    3    3    0    0 -0.10055832433E+03 -0.15799552255E+02  0.56359241949E+02  0.11635276789E+03  0.00000000000E+00 0. -1.
         22    1    3    3    0    0  0.34595487205E+02  0.30038823789E+01 -0.39300428434E+01  0.34947335822E+02  0.00000000000E+00 0. -1.
</event>
<event>
 7    1  0.6607887E-006  0.1286190E+03  0.7818608E-02  0.1273223E+00
          2   -1    0    0  502    0  0.00000000000E+00  0.00000000000E+00  0.16605066190E+04  0.16605066190E+04  0.00000000000E+00 0. -1.
          1   -1    0    0  501    0 -0.00000000000E+00 -0.00000000000E+00 -0.43478976430E+02  0.43478976430E+02  0.00000000000E+00 0. -1.
         25    2    1    2    0    0 -0.64399679008E+02  0.25610815815E+02  0.11632572985E+04  0.11720053782E+04  0.12500332558E+03 0.  0.
          2    1    1    2  501    0  0.86092680094E+02 -0.10592363704E+03  0.10171250744E+03  0.17022690921E+03  0.00000000000E+00 0. -1.
          1    1    1    2  502    0 -0.21693001086E+02  0.80312821224E+02  0.35205783658E+03  0.36175330800E+03  0.00000000000E+00 0. -1.
         22    1    3    3    0    0 -0.27122328664E+02  0.74905879157E+02  0.57061601162E+03  0.57615027915E+03  0.00000000000E+00 0.  1.
         22    1    3    3    0    0 -0.37277350344E+02 -0.49295063342E+02  0.59264128690E+03  0.59585509905E+03  0.00000000000E+00 0.  1.
</event>
<event>
 7    1  0.6607887E-006  0.1126196E+03  0.7818608E-02  0.1321234E+00
          2   -1    0    0  502    0  0.00000000000E+00  0.00000000000E+00  0.21252530884E+04  0.21252530884E+04  0.00000000000E+00 0. -1.
          1   -1    0    0  501    0 -0.00000000000E+00 -0.00000000000E+00 -0.34232483946E+03  0.34232483946E+03  0.00000000000E+00 0. -1.
         25    2    1    2    0    0 -0.42477019978E+02 -0.50376155575E+02  0.44553634535E+03  0.46740745359E+03  0.12500015347E+03 0.  0.
          2    1    1    2  501    0  0.10331874210E+03  0.47590739592E+02 -0.32105213789E+03  0.34060845000E+03  0.00000000000E+00 0. -1.
          1    1    1    2  502    0 -0.60841722123E+02  0.27854159822E+01  0.16584440415E+04  0.16595620243E+04  0.00000000000E+00 0. -1.
         22    1    3    3    0    0  0.20309489606E+02 -0.71320651534E+02  0.26241434064E+03  0.27269102823E+03  0.00000000000E+00 0. -1.
         22    1    3    3    0    0 -0.62786509584E+02  0.20944495959E+02  0.18312200471E+03  0.19471642536E+03  0.00000000000E+00 0. -1.
</event>
<event>
 7    1  0.6607887E-006  0.7186764E+02  0.7818608E-02  0.1354386E+00
          2   -1    0    0  502    0  0.00000000000E+00  0.00000000000E+00  0.16937640042E+03  0.16937640042E+03  0.00000000000E+00 0. -1.
          1   -1    0    0  501    0 -0.00000000000E+00 -0.00000000000E+00 -0.16307622610E+03  0.16307622610E+03  0.00000000000E+00 0. -1.
         25    2    1    2    0    0  0.36943495213E+02 -0.14238474885E+02  0.49210479991E+01  0.13121749221E+03  0.12500503007E+03 0.  0.
          2    1    1    2  501    0 -0.72709869448E+02 -0.48097099048E+02 -0.60731957927E+02  0.10624700827E+03  0.00000000000E+00 0. -1.
          1    1    1    2  502    0  0.35766374235E+02  0.62335573933E+02  0.62111084250E+02  0.94988126048E+02  0.00000000000E+00 0. -1.
         22    1    3    3    0    0  0.91939589365E+00 -0.57320725135E+02 -0.30384830178E+02  0.64882576427E+02  0.00000000000E+00 0. -1.
         22    1    3    3    0    0  0.36024099319E+02  0.43082250250E+02  0.35305878177E+02  0.66334915785E+02  0.00000000000E+00 0. -1.
</event>
<event>
 7    1  0.6607887E-006  0.8567448E+02  0.7818608E-02  0.1360074E+00
          2   -1    0    0  502    0  0.00000000000E+00  0.00000000000E+00  0.18949195976E+04  0.18949195976E+04  0.00000000000E+00 0. -1.
          1   -1    0    0  501    0 -0.00000000000E+00 -0.00000000000E+00 -0.53509004661E+03  0.53509004661E+03  0.00000000000E+00 0. -1.
         25    2    1    2    0    0 -0.61464006855E+02  0.51456073584E+02  0.33676118337E+02  0.15226231886E+03  0.12499672456E+03 0.  0.
          2    1    1    2  501    0  0.46492931809E+02  0.33324179817E+02 -0.47304465895E+03  0.47649065366E+03  0.00000000000E+00 0. -1.
          1    1    1    2  502    0  0.14971075046E+02 -0.84780253401E+02  0.17991980916E+04  0.18012566717E+04  0.00000000000E+00 0. -1.
         22    1    3    3    0    0 -0.41972368597E+02 -0.31619019745E+02 -0.14178349033E+02  0.54428556077E+02  0.00000000000E+00 0.  1.
         22    1    3    3    0    0 -0.19491638258E+02  0.83075093329E+02  0.47854467370E+02  0.97833762786E+02  0.00000000000E+00 0.  1.
</event>
<event>
 7    1  0.6607887E-006  0.1155573E+03  0.7818608E-02  0.1336228E+00
          2   -1    0    0  502    0  0.00000000000E+00  0.00000000000E+00  0.53595854696E+03  0.53595854696E+03  0.00000000000E+00 0. -1.
          1   -1    0    0  501    0 -0.00000000000E+00 -0.00000000000E+00 -0.27361062006E+04  0.27361062006E+04  0.00000000000E+00 0. -1.
         25    2    1    2    0    0  0.71675574737E+02  0.32586826826E+01 -0.36147674345E+03  0.38915151254E+03  0.12500182649E+03 0.  0.
          2    1    1    2  501    0  0.41128676924E+02 -0.31832941284E+02 -0.23540174882E+04  0.23545919474E+04  0.00000000000E+00 0. -1.
          1    1    1    2  502    0 -0.11280425166E+03  0.28574258602E+02  0.51534657801E+03  0.52832128758E+03  0.00000000000E+00 0. -1.
         22    1    3    3    0    0  0.58646784924E+02 -0.57032594728E+02 -0.18770290919E+03  0.20475483966E+03  0.00000000000E+00 0. -1.
         22    1    3    3    0    0  0.13028789813E+02  0.60291277410E+02 -0.17377383426E+03  0.18439667288E+03  0.00000000000E+00 0. -1.
</event>
<event>
 7    1  0.6607887E-006  0.1068468E+03  0.7818608E-02  0.1287402E+00
          2   -1    0    0  502    0  0.00000000000E+00  0.00000000000E+00  0.13653412978E+04  0.13653412978E+04  0.00000000000E+00 0. -1.
          1   -1    0    0  501    0 -0.00000000000E+00 -0.00000000000E+00 -0.39513975113E+02  0.39513975113E+02  0.00000000000E+00 0. -1.
         25    2    1    2    0    0  0.84836400988E+02 -0.30700165274E+01  0.24052040332E+03  0.28404976964E+03  0.12501026872E+03 0.  0.
          2    1    1    2  501    0 -0.13542246348E+02 -0.86455116507E+02  0.11882474018E+03  0.14757099473E+03  0.00000000000E+00 0. -1.
          1    1    1    2  502    0 -0.71294154640E+02  0.89525133034E+02  0.96648217923E+03  0.97323450858E+03  0.00000000000E+00 0. -1.
         22    1    3    3    0    0  0.60608993519E+02 -0.32828682891E+02  0.23546243165E+03  0.24534410373E+03  0.00000000000E+00 0.  1.
         22    1    3    3    0    0  0.24227407469E+02  0.29758666363E+02  0.50579716694E+01  0.38705665914E+02  0.00000000000E+00 0.  1.
</event>
<event>
 7    1  0.6607887E-006  0.1695447E+03  0.7818608E-02  0.1290633E+00
          2   -1    0    0  502    0  0.00000000000E+00  0.00000000000E+00  0.44387309419E+03  0.44387309419E+03  0.00000000000E+00 0. -1.
          1   -1    0    0  501    0 -0.00000000000E+00 -0.00000000000E+00 -0.92624598310E+03  0.92624598310E+03  0.00000000000E+00 0. -1.
         25    2    1    2    0    0 -0.96175073122E+02 -0.14438138002E+03  0.17343725764E+03  0.27532095691E+03  0.12500207755E+03 0.  0.
          2    1    1    2  501    0 -0.37169081834E+02  0.38482800253E+02 -0.84130101511E+03  0.84300051280E+03  0.00000000000E+00 0. -1.
          1    1    1    2  502    0  0.13334415496E+03  0.10589857977E+03  0.18549086857E+03  0.25179760757E+03  0.00000000000E+00 0. -1.
         22    1    3    3    0    0 -0.11622609543E+03 -0.67940297050E+02  0.10393321219E+03  0.17007792866E+03  0.00000000000E+00 0.  1.
         22    1    3    3    0    0  0.20051022307E+02 -0.76441082973E+02  0.69504045449E+02  0.10524302825E+03  0.00000000000E+00 0.  1.
</event>
<event>
 7    1  0.6607887E-006  0.7830796E+02  0.7818608E-02  0.1338421E+00
          2   -1    0    0  502    0  0.00000000000E+00  0.00000000000E+00  0.15125132204E+04  0.15125132204E+04  0.00000000000E+00 0. -1.
          1   -1    0    0  501    0 -0.00000000000E+00 -0.00000000000E+00 -0.53704886820E+03  0.53704886820E+03  0.00000000000E+00 0. -1.
         25    2    1    2    0    0  0.92062041445E+02  0.27605957462E+02 -0.16516446879E+03  0.22834525263E+03  0.12499897715E+03 0.  0.
          2    1    1    2  501    0 -0.32191882882E+02 -0.73272244606E+02 -0.33461489302E+03  0.34405270786E+03  0.00000000000E+00 0. -1.
          1    1    1    2  502    0 -0.59870158563E+02  0.45666287144E+02  0.14752437140E+04  0.14771641281E+04  0.00000000000E+00 0. -1.
         22    1    3    3    0    0  0.59512542221E+02  0.51131159219E+02 -0.24707347952E+02  0.82259292286E+02  0.00000000000E+00 0.  1.
         22    1    3    3    0    0  0.32549499225E+02 -0.23525201756E+02 -0.14045712083E+03  0.14608596035E+03  0.00000000000E+00 0.  1.
</event>
<event>
 7    1  0.6607887E-006  0.2796781E+02  0.7818608E-02  0.1639264E+00
          2   -1    0    0  502    0  0.00000000000E+00  0.00000000000E+00  0.36909824407E+02  0.36909824407E+02  0.00000000000E+00 0. -1.
          1   -1    0    0  501    0 -0.00000000000E+00 -0.00000000000E+00 -0.18366163080E+04  0.18366163080E+04  0.00000000000E+00 0. -1.
         25    2    1    2    0    0  0.29213918777E+02  0.26669797842E+02 -0.70765787887E+03  0.71970065922E+03  0.12499853674E+03 0.  0.
          2    1    1    2  501    0 -0.25245758014E+02  0.99098497915E+00 -0.11164446952E+04  0.11167305350E+04  0.00000000000E+00 0. -1.
          1    1    1    2  502    0 -0.39681607632E+01 -0.27660782821E+02  0.24396090500E+02  0.37094938170E+02  0.00000000000E+00 0. -1.
         22    1    3    3    0    0  0.62094100744E+02  0.33691729989E+02 -0.22401319376E+03  0.23488874173E+03  0.00000000000E+00 0.  1.
         22    1    3    3    0    0 -0.32880181967E+02 -0.70219321468E+01 -0.48364468511E+03  0.48481191748E+03  0.00000000000E+00 0.  1.
</event>
<event>
 7    1  0.6607887E-006  0.9396666E+02  0.7818608E-02  0.1333343E+00
          2   -1    0    0  502    0  0.00000000000E+00  0.00000000000E+00  0.28141985556E+03  0.28141985556E+03  0.00000000000E+00 0. -1.
          1   -1    0    0  501    0 -0.00000000000E+00 -0.00000000000E+00 -0.16557127896E+04  0.16557127896E+04  0.00000000000E+00 0. -1.
         25    2    1    2    0    0  0.12550001061E+03 -0.79375598554E+02  0.82724555456E+02  0.21099391410E+03  0.12499736558E+03 0.  0.
          2    1    1    2  501    0 -0.53715050141E+02  0.37640928146E+02 -0.15780216876E+04  0.15793842448E+04  0.00000000000E+00 0. -1.
          1    1    1    2  502    0 -0.71784960472E+02  0.41734670408E+02  0.12100419815E+03  0.14675448625E+03  0.00000000000E+00 0. -1.
         22    1    3    3    0    0  0.13087160461E+03 -0.43723503687E+02  0.10059027832E+03  0.17075574883E+03  0.00000000000E+00 0. -1.
         22    1    3    3    0    0 -0.53715939938E+01 -0.35652094868E+02 -0.17865722863E+02  0.40238165265E+02  0.00000000000E+00 0. -1.
</event>
<event>
 7    1  0.6607887E-006  0.1121834E+03  0.7818608E-02  0.1337508E+00
          2   -1    0    0  502    0  0.00000000000E+00  0.00000000000E+00  0.64319234666E+03  0.64319234666E+03  0.00000000000E+00 0. -1.
          1   -1    0    0  501    0 -0.00000000000E+00 -0.00000000000E+00 -0.22356238024E+04  0.22356238024E+04  0.00000000000E+00 0. -1.
         25    2    1    2    0    0 -0.13707038828E+03  0.51602795380E+01 -0.18030134735E+03  0.25874196971E+03  0.12499564474E+03 0.  0.
          2    1    1    2  501    0  0.10210171423E+03 -0.44959881838E+02 -0.20133931147E+04  0.20164815856E+04  0.00000000000E+00 0. -1.
          1    1    1    2  502    0  0.34968674057E+02  0.39799602300E+02  0.60126300626E+03  0.60359259373E+03  0.00000000000E+00 0. -1.
         22    1    3    3    0    0 -0.11791589935E+02 -0.35770455490E+02 -0.93841459036E+02  0.10111768645E+03  0.00000000000E+00 0. -1.
         22    1    3    3    0    0 -0.12527879835E+03  0.40930735028E+02 -0.86459888310E+02  0.15762428325E+03  0.00000000000E+00 0. -1.
</event>
<event>
 7    1  0.8195279E-006  0.6524836E+02  0.7818608E-02  0.1404366E+00
          2   -1    0    0  502    0  0.00000000000E+00  0.00000000000E+00  0.79732911424E+03  0.79732911424E+03  0.00000000000E+00 0. -1.
          1   -1    0    0  501    0 -0.00000000000E+00 -0.00000000000E+00 -0.12745066335E+04  0.12745066335E+04  0.00000000000E+00 0. -1.
         25    2    1    2    0    0  0.36004945775E+02 -0.24747620582E+02 -0.67094899671E+03  0.68389018141E+03  0.12499769279E+03 0.  0.
          2    1    1    2  501    0 -0.33220115383E+02 -0.40519066495E+02 -0.59458397714E+03  0.59688816095E+03  0.00000000000E+00 0. -1.
          1    1    1    2  502    0 -0.27848303920E+01  0.65266687077E+02  0.78835545462E+03  0.79105740534E+03  0.00000000000E+00 0. -1.
         22    1    3    3    0    0 -0.15187442974E+02 -0.62581585313E+02 -0.25027787740E+03  0.25843012433E+03  0.00000000000E+00 0. -1.
         22    1    3    3    0    0  0.51192388749E+02  0.37833964731E+02 -0.42067111931E+03  0.42546005708E+03  0.00000000000E+00 0. -1.
</event>
<event>
 7    1  0.6607887E-006  0.4093924E+02  0.7818608E-02  0.1561711E+00
          2   -1    0    0  502    0  0.00000000000E+00  0.00000000000E+00  0.14150022071E+04  0.14150022071E+04  0.00000000000E+00 0. -1.
          1   -1    0    0  501    0 -0.00000000000E+00 -0.00000000000E+00 -0.11132638614E+04  0.11132638614E+04  0.00000000000E+00 0. -1.
         25    2    1    2    0    0 -0.47815913878E+02  0.29399463106E+02  0.23886652151E+03  0.27537874200E+03  0.12500218558E+03 0.  0.
          2    1    1    2  501    0  0.20908650205E+02 -0.35182119089E+02 -0.10944616930E+04  0.10952266206E+04  0.00000000000E+00 0. -1.
          1    1    1    2  502    0  0.26907263673E+02  0.57826559829E+01  0.11573335172E+04  0.11576607059E+04  0.00000000000E+00 0. -1.
         22    1    3    3    0    0  0.40310803992E+02  0.27588993632E+02  0.82284632498E+02  0.95691557796E+02  0.00000000000E+00 0.  1.
         22    1    3    3    0    0 -0.88126717870E+02  0.18104694740E+01  0.15658188901E+03  0.17968718421E+03  0.00000000000E+00 0.  1.
</event>
<event>
 7    1  0.6607887E-006  0.3099772E+02  0.7818608E-02  0.1606912E+00
          2   -1    0    0  502    0  0.00000000000E+00  0.00000000000E+00  0.61830763199E+03  0.61830763199E+03  0.00000000000E+00 0. -1.
          1   -1    0    0  501    0 -0.00000000000E+00 -0.00000000000E+00 -0.10415210193E+04  0.10415210193E+04  0.00000000000E+00 0. -1.
         25    2    1    2    0    0  0.22555299181E+02  0.44802659992E+02 -0.22869813928E+03  0.26541303838E+03  0.12500088865E+03 0.  0.
          2    1    1    2  501    0  0.11356232305E+01 -0.30763973037E+02 -0.79385092836E+03  0.79444761195E+03  0.00000000000E+00 0. -1.
          1    1    1    2  502    0 -0.23690922412E+02 -0.14038686955E+02  0.59933568031E+03  0.59996800100E+03  0.00000000000E+00 0. -1.
         22    1    3    3    0    0  0.50054367253E+02 -0.15933906471E+02 -0.16516662196E+03  0.17331861431E+03  0.00000000000E+00 0.  1.
         22    1    3    3    0    0 -0.27499068072E+02  0.60736566463E+02 -0.63531517320E+02  0.92094424063E+02  0.00000000000E+00 0.  1.
</event>
<event>
 7    1  0.6607887E-006  0.6092347E+02  0.7818608E-02  0.1476034E+00
          2   -1    0    0  502    0  0.00000000000E+00  0.00000000000E+00  0.38430893822E+03  0.38430893822E+03  0.00000000000E+00 0. -1.
          1   -1    0    0  501    0 -0.00000000000E+00 -0.00000000000E+00 -0.77576280733E+03  0.77576280733E+03  0.00000000000E+00 0. -1.
         25    2    1    2    0    0  0.36390134414E+02  0.10481352553E+02  0.14449879134E+03  0.19477780380E+03  0.12499756607E+03 0.  0.
          2    1    1    2  501    0  0.17234148263E+02  0.27955480316E+02 -0.74518375011E+03  0.74590706270E+03  0.00000000000E+00 0. -1.
          1    1    1    2  502    0 -0.53624282678E+02 -0.38436832869E+02  0.20923108967E+03  0.21938687904E+03  0.00000000000E+00 0. -1.
         22    1    3    3    0    0  0.15654092731E+02  0.58184867073E+02  0.12583206868E+03  0.13951429634E+03  0.00000000000E+00 0.  1.
         22    1    3    3    0    0  0.20736041683E+02 -0.47703514520E+02  0.18666722655E+02  0.55263507462E+02  0.00000000000E+00 0.  1.
</event>
<event>
 7    1  0.6607887E-006  0.7877698E+02  0.7818608E-02  0.1499647E+00
          2   -1    0    0  502    0  0.00000000000E+00  0.00000000000E+00  0.24966661364E+03  0.24966661364E+03  0.00000000000E+00 0. -1.
          1   -1    0    0  501    0 -0.00000000000E+00 -0.00000000000E+00 -0.30584453987E+03  0.30584453987E+03  0.00000000000E+00 0. -1.
         25    2    1    2    0    0 -0.31077828577E+02 -0.61880331726E+02 -0.62985453008E+01  0.14304373145E+03  0.12500732198E+03 0.  0.
          2    1    1    2  501    0  0.16946739612E+02  0.78130305188E+02 -0.22357648117E+03  0.23744047571E+03  0.00000000000E+00 0. -1.
          1    1    1    2  502    0  0.14131088965E+02 -0.16249973462E+02  0.17369710025E+03  0.17502694635E+03  0.00000000000E+00 0. -1.
         22    1    3    3    0    0  0.89052833761E+01 -0.67452025776E+02  0.42107514598E+02  0.80013265393E+02  0.00000000000E+00 0. -1.
         22    1    3    3    0    0 -0.39983111953E+02  0.55716940496E+01 -0.48406059899E+02  0.63030466054E+02  0.00000000000E+00 0. -1.
</event>
<event>
 7    1  0.6607887E-006  0.8172130E+02  0.7818608E-02  0.1429110E+00
          2   -1    0    0  502    0  0.00000000000E+00  0.00000000000E+00  0.54262074336E+03  0.54262074336E+03  0.00000000000E+00 0. -1.
          1   -1    0    0  501    0 -0.00000000000E+00 -0.00000000000E+00 -0.12814018224E+04  0.12814018224E+04  0.00000000000E+00 0. -1.
         25    2    1    2    0    0  0.17727247383E+02  0.11063158783E+03  0.20310230180E+03  0.26349344395E+03  0.12499858593E+03 0.  0.
          2    1    1    2  501    0  0.93646656599E+00 -0.81552231668E+02 -0.12489070425E+04  0.12515671953E+04  0.00000000000E+00 0. -1.
          1    1    1    2  502    0 -0.18663713949E+02 -0.29079356163E+02  0.30702366171E+03  0.30896192650E+03  0.00000000000E+00 0. -1.
         22    1    3    3    0    0  0.19389117098E+02  0.32923668284E+01 -0.12036794212E+02  0.23057795994E+02  0.00000000000E+00 0.  1.
         22    1    3    3    0    0 -0.16618697152E+01  0.10733922100E+03  0.21513909601E+03  0.24043564796E+03  0.00000000000E+00 0.  1.
</event>
<event>
 7    1  0.6607887E-006  0.3686971E+03  0.7818608E-02  0.1211729E+00
          2   -1    0    0  502    0  0.00000000000E+00  0.00000000000E+00  0.39323331076E+03  0.39323331076E+03  0.00000000000E+00 0. -1.
          1   -1    0    0  501    0 -0.00000000000E+00 -0.00000000000E+00 -0.14814597064E+04  0.14814597064E+04  0.00000000000E+00 0. -1.
         25    2    1    2    0    0 -0.37799980874E+03  0.16211446168E+03 -0.82263280472E+03  0.92817804747E+03  0.12499920925E+03 0.  0.
          2    1    1    2  501    0  0.34469680643E+02 -0.41661331591E+02 -0.50689286134E+03  0.50976876945E+03  0.00000000000E+00 0. -1.
          1    1    1    2  502    0  0.34353012810E+03 -0.12045313008E+03  0.24129927047E+03  0.43674620020E+03  0.00000000000E+00 0. -1.
         22    1    3    3    0    0  0.39718902433E+01 -0.76924980107E+01 -0.52938241248E+01  0.10147660401E+02  0.00000000000E+00 0.  1.
         22    1    3    3    0    0 -0.38197169898E+03  0.16980695969E+03 -0.81733898059E+03  0.91803038707E+03  0.00000000000E+00 0.  1.
</event>
<event>
 7    1  0.6607887E-006  0.1028467E+03  0.7818608E-02  0.1351315E+00
          2   -1    0    0  502    0  0.00000000000E+00  0.00000000000E+00  0.68758108120E+03  0.68758108120E+03  0.00000000000E+00 0. -1.
          1   -1    0    0  501    0 -0.00000000000E+00 -0.00000000000E+00 -0.34913085269E+03  0.34913085269E+03  0.00000000000E+00 0. -1.
         25    2    1    2    0    0  0.11238452298E+03  0.14540514405E+02 -0.64359093991E+02  0.18057929007E+03  0.12500031784E+03 0.  0.
          2    1    1    2  501    0 -0.15413407976E+02 -0.48946163046E+02 -0.21947741658E+03  0.22539662023E+03  0.00000000000E+00 0. -1.
          1    1    1    2  502    0 -0.96971115002E+02  0.34405648640E+02  0.62228673909E+03  0.63073602359E+03  0.00000000000E+00 0. -1.
         22    1    3    3    0    0  0.61100124350E+02 -0.10045162752E+02 -0.96945014236E+02  0.11503245749E+03  0.00000000000E+00 0.  1.
         22    1    3    3    0    0  0.51284398629E+02  0.24585677157E+02  0.32585920245E+02  0.65546832588E+02  0.00000000000E+00 0.  1.
</event>
<event>
 7    1  0.6607887E-006  0.1017326E+03  0.7818608E-02  0.1347242E+00
          2   -1    0    0  502    0  0.00000000000E+00  0.00000000000E+00  0.11699500123E+04  0.11699500123E+04  0.00000000000E+00 0. -1.
          1   -1    0    0  501    0 -0.00000000000E+00 -0.00000000000E+00 -0.10713187714E+03  0.10713187714E+03  0.00000000000E+00 0. -1.
         25    2    1    2    0    0  0.12575692488E+03  0.64835440404E+02  0.10210111788E+03  0.21463401670E+03  0.12499873745E+03 0.  0.
          2    1    1    2  501    0 -0.87531166203E+02 -0.27099467755E+02 -0.82429978977E+01  0.92000180564E+02  0.00000000000E+00 0. -1.
          1    1    1    2  502    0 -0.38225758680E+02 -0.37735972649E+02  0.96896001518E+03  0.97044769219E+03  0.00000000000E+00 0. -1.
         22    1    3    3    0    0  0.51321061799E+01 -0.24409871018E+02 -0.10469324120E+02  0.27051563070E+02  0.00000000000E+00 0. -1.
         22    1    3    3    0    0  0.12062481870E+03  0.89245311422E+02  0.11257044200E+03  0.18758245363E+03  0.00000000000E+00 0. -1.
</event>
<event>
 7    1  0.6607887E-006  0.1310715E+03  0.7818608E-02  0.1313871E+00
          2   -1    0    0  502    0  0.00000000000E+00  0.00000000000E+00  0.17310600808E+04  0.17310600808E+04  0.00000000000E+00 0. -1.
          1   -1    0    0  501    0 -0.00000000000E+00 -0.00000000000E+00 -0.17100760436E+03  0.17100760436E+03  0.00000000000E+00 0. -1.
         25    2    1    2    0    0  0.26533881068E+02  0.16168087119E+03  0.12151841487E+04  0.12325350374E+04  0.12500140920E+03 0.  0.
          2    1    1    2  501    0 -0.53656740194E+00 -0.55900798238E+02 -0.15143088842E+03  0.16142026241E+03  0.00000000000E+00 0. -1.
          1    1    1    2  502    0 -0.25997313666E+02 -0.10578007295E+03  0.49629921623E+03  0.50811238538E+03  0.00000000000E+00 0. -1.
         22    1    3    3    0    0  0.66064043467E+02  0.65651303042E+02  0.39656643617E+03  0.40735671067E+03  0.00000000000E+00 0.  1.
         22    1    3    3    0    0 -0.39530162399E+02  0.96029568144E+02  0.81861771249E+03  0.82517832673E+03  0.00000000000E+00 0.  1.
</event>
<event>
 7    1  0.6607887E-006  0.5695792E+02  0.7818608E-02  0.1501410E+00
          2   -1    0    0  502    0  0.00000000000E+00  0.00000000000E+00  0.12208652582E+03  0.12208652582E+03  0.00000000000E+00 0. -1.
          1   -1    0    0  501    0 -0.00000000000E+00 -0.00000000000E+00 -0.47740434399E+03  0.47740434399E+03  0.00000000000E+00 0. -1.
         25    2    1    2    0    0  0.33834066914E+02 -0.77810208849E+01 -0.88776605313E+02  0.15719800105E+03  0.12499855004E+03 0.  0.
          2    1    1    2  501    0 -0.58032285613E+02 -0.89621010607E+01 -0.34943329630E+03  0.35433274473E+03  0.00000000000E+00 0. -1.
          1    1    1    2  502    0  0.24198218699E+02  0.16743121946E+02  0.82892083448E+02  0.87960124028E+02  0.00000000000E+00 0. -1.
         22    1    3    3    0    0  0.11011223933E+02  0.44419045344E+02 -0.89167394316E+02  0.10022536032E+03  0.00000000000E+00 0.  1.
         22    1    3    3    0    0  0.22822842980E+02 -0.52200066229E+02  0.39078900294E+00  0.56972640732E+02  0.00000000000E+00 0.  1.
</event>
<event>
 7    1  0.6607887E-006  0.2112554E+03  0.7818608E-02  0.1195696E+00
          2   -1    0    0  502    0  0.00000000000E+00  0.00000000000E+00  0.11607254488E+04  0.11607254488E+04  0.00000000000E+00 0. -1.
          1   -1    0    0  501    0 -0.00000000000E+00 -0.00000000000E+00 -0.61928244000E+03  0.61928244000E+03  0.00000000000E+00 0. -1.
         25    2    1    2    0    0  0.39680793913E+02 -0.14291812255E+03  0.22751938810E+03  0.29898185158E+03  0.12499968183E+03 0.  0.
          2    1    1    2  501    0  0.48799500739E+02  0.21190611821E+03 -0.55958016874E+03  0.60034619967E+03  0.00000000000E+00 0. -1.
          1    1    1    2  502    0 -0.88480294652E+02 -0.68987995656E+02  0.87350378947E+03  0.88067983757E+03  0.00000000000E+00 0. -1.
         22    1    3    3    0    0 -0.15520985517E+02 -0.31468977153E+02  0.14627852167E+03  0.15042806725E+03  0.00000000000E+00 0.  1.
         22    1    3    3    0    0  0.55201779430E+02 -0.11144914540E+03  0.81240866428E+02  0.14855378433E+03  0.00000000000E+00 0.  1.
</event>
<event>
 7    1  0.6607887E-006  0.1154338E+03  0.7818608E-02  0.1274257E+00
          2   -1    0    0  502    0  0.00000000000E+00  0.00000000000E+00  0.54200765186E+03  0.54200765186E+03  0.00000000000E+00 0. -1.
          1   -1    0    0  501    0 -0.00000000000E+00 -0.00000000000E+00 -0.18528645898E+04  0.18528645898E+04  0.00000000000E+00 0. -1.
         25    2    1    2    0    0 -0.15488652530E+03  0.70830250401E+02 -0.73748494225E+03  0.76714764372E+03  0.12499882852E+03 0.  0.
          2    1    1    2  501    0  0.40307269703E+02 -0.82451333956E+02 -0.10923110150E+04  0.10961597749E+04  0.00000000000E+00 0. -1.
          1    1    1    2  502    0  0.11457925560E+03  0.11621083555E+02  0.51893901932E+03  0.53156482311E+03  0.00000000000E+00 0. -1.
         22    1    3    3    0    0 -0.12879339210E+03  0.58112850302E+02 -0.71895961222E+03  0.73271260752E+03  0.00000000000E+00 0. -1.
         22    1    3    3    0    0 -0.26093133196E+02  0.12717400099E+02 -0.18525330030E+02  0.34435036198E+02  0.00000000000E+00 0. -1.
</event>
<event>
 7    1  0.6607887E-006  0.4423252E+02  0.7818608E-02  0.1543496E+00
          2   -1    0    0  502    0  0.00000000000E+00  0.00000000000E+00  0.15082226033E+03  0.15082226033E+03  0.00000000000E+00 0. -1.
          1   -1    0    0  501    0 -0.00000000000E+00 -0.00000000000E+00 -0.10779216182E+03  0.10779216182E+03  0.00000000000E+00 0. -1.
         25    2    1    2    0    0  0.33423740079E+02  0.69106147291E+01  0.50388665002E+02  0.13901249721E+03  0.12498221403E+03 0.  0.
          2    1    1    2  501    0 -0.40884891850E+02  0.20722368946E+02 -0.50264042439E+02  0.68025472572E+02  0.00000000000E+00 0. -1.
          1    1    1    2  502    0  0.74611517711E+01 -0.27632983675E+02  0.42905475944E+02  0.51576452365E+02  0.00000000000E+00 0. -1.
         22    1    3    3    0    0 -0.17251529605E+02 -0.42018945830E+02 -0.96728653235E+01  0.46441053024E+02  0.00000000000E+00 0. -1.
         22    1    3    3    0    0  0.50675269684E+02  0.48929560559E+02  0.60061530325E+02  0.92571444188E+02  0.00000000000E+00 0. -1.
</event>
<event>
 7    1  0.6607887E-006  0.6207588E+02  0.7818608E-02  0.1478638E+00
          2   -1    0    0  502    0  0.00000000000E+00  0.00000000000E+00  0.17214896472E+04  0.17214896472E+04  0.00000000000E+00 0. -1.
          1   -1    0    0  501    0 -0.00000000000E+00 -0.00000000000E+00 -0.44225811214E+03  0.44225811214E+03  0.00000000000E+00 0. -1.
         25    2    1    2    0    0 -0.10948244056E+02  0.33757611276E+02  0.76572990563E+02  0.15082478463E+03  0.12500100963E+03 0.  0.
          2    1    1    2  501    0 -0.19357588052E+01 -0.62657218645E+02 -0.40255043599E+03  0.40740216952E+03  0.00000000000E+00 0. -1.
          1    1    1    2  502    0  0.12884002862E+02  0.28899607369E+02  0.16052089805E+04  0.16055208052E+04  0.00000000000E+00 0. -1.
         22    1    3    3    0    0 -0.52370795269E+02 -0.25011188603E+02  0.34824178900E+02  0.67682960843E+02  0.00000000000E+00 0. -1.
         22    1    3    3    0    0  0.41422551213E+02  0.58768799878E+02  0.41748811663E+02  0.83141823791E+02  0.00000000000E+00 0. -1.
</event>
<event>
 7    1  0.6607887E-006  0.8696307E+02  0.7818608E-02  0.1342858E+00
          2   -1    0    0  502    0  0.00000000000E+00  0.00000000000E+00  0.32287481605E+03  0.32287481605E+03  0.00000000000E+00 0. -1.
          1   -1    0    0  501    0 -0.00000000000E+00 -0.00000000000E+00 -0.22135343686E+03  0.22135343686E+03  0.00000000000E+00 0. -1.
         25    2    1    2    0    0 -0.87727438980E+00 -0.59859764804E+02  0.22107952549E+02  0.14034954551E+03  0.12500108922E+03 0.  0.
          2    1    1    2  501    0  0.65665474762E+02  0.67605166038E+02 -0.14346099980E+03  0.17164926890E+03  0.00000000000E+00 0. -1.
          1    1    1    2  502    0 -0.64788200372E+02 -0.77454012346E+01  0.22287442644E+03  0.23222943850E+03  0.00000000000E+00 0. -1.
         22    1    3    3    0    0  0.16327812155E+02 -0.10497520444E+02  0.68044581505E+02  0.70759172249E+02  0.00000000000E+00 0. -1.
         22    1    3    3    0    0 -0.17205086545E+02 -0.49362244360E+02 -0.45936628956E+02  0.69590373264E+02  0.00000000000E+00 0. -1.
</event>
<event>
 7    1  0.6607887E-006  0.1410393E+03  0.7818608E-02  0.1342853E+00
          2   -1    0    0  502    0  0.00000000000E+00  0.00000000000E+00  0.61178823684E+03  0.61178823684E+03  0.00000000000E+00 0. -1.
          1   -1    0    0  501    0 -0.00000000000E+00 -0.00000000000E+00 -0.69910136967E+03  0.69910136967E+03  0.00000000000E+00 0. -1.
         25    2    1    2    0    0  0.29809872803E+02  0.12772421476E+03 -0.56978106912E+02  0.18993190431E+03  0.12500208021E+03 0.  0.
          2    1    1    2  501    0 -0.37640119909E+02  0.14212511718E+02 -0.56565553698E+03  0.56708461505E+03  0.00000000000E+00 0. -1.
          1    1    1    2  502    0  0.78302471062E+01 -0.14193672648E+03  0.53532051107E+03  0.55387308714E+03  0.00000000000E+00 0. -1.
         22    1    3    3    0    0  0.50033924857E+01 -0.17334304340E+02  0.17377595113E+02  0.25049807489E+02  0.00000000000E+00 0. -1.
         22    1    3    3    0    0  0.24806480317E+02  0.14505851910E+03 -0.74355702025E+02  0.16488209682E+03  0.00000000000E+00 0. -1.
</event>
<event>
 7    1  0.6607887E-006  0.1368247E+03  0.7818608E-02  0.1218442E+00
          2   -1    0    0  502    0  0.00000000000E+00  0.00000000000E+00  0.22806962355E+04  0.22806962355E+04  0.00000000000E+00 0. -1.
          1   -1    0    0  501    0 -0.00000000000E+00 -0.00000000000E+00 -0.11568428163E+03  0.11568428163E+03  0.00000000000E+00 0. -1.
         25    2    1    2    0    0  0.52785399141E+02 -0.57030223221E+02  0.13267610736E+03  0.19815295275E+03  0.12499159370E+03 0.  0.
          2    1    1    2  501    0 -0.53421175725E+01  0.18417839836E+03  0.24577435017E+02  0.18588779130E+03  0.00000000000E+00 0. -1.
          1    1    1    2  502    0 -0.47443281568E+02 -0.12714817514E+03  0.20077584115E+04  0.20123397731E+04  0.00000000000E+00 0. -1.
         22    1    3    3    0    0 -0.17798397241E+02  0.30007230429E+01  0.97316012044E+02  0.98975721686E+02  0.00000000000E+00 0.  1.
         22    1    3    3    0    0  0.70583796381E+02 -0.60030946263E+02  0.35360095320E+02  0.99177231066E+02  0.00000000000E+00 0.  1.
</event>
<event>
 7    1  0.6607887E-006  0.8715641E+02  0.7818608E-02  0.1311388E+00
          2   -1    0    0  502    0  0.00000000000E+00  0.00000000000E+00  0.36946538343E+03  0.36946538343E+03  0.00000000000E+00 0. -1.
          1   -1    0    0  501    0 -0.00000000000E+00 -0.00000000000E+00 -0.14807446603E+04  0.14807446603E+04  0.00000000000E+00 0. -1.
         25    2    1    2    0    0  0.60960787931E+02  0.89236136491E+02  0.10700893614E+03  0.19686368616E+03  0.12500037118E+03 0.  0.
          2    1    1    2  501    0 -0.87021914917E+02 -0.48400083744E+01 -0.14254645980E+04  0.14281265909E+04  0.00000000000E+00 0. -1.
          1    1    1    2  502    0  0.26061126986E+02 -0.84396128117E+02  0.20717638503E+03  0.22521976666E+03  0.00000000000E+00 0. -1.
         22    1    3    3    0    0  0.15463829409E+02  0.76492099207E+01 -0.27879994425E+02  0.32786194069E+02  0.00000000000E+00 0. -1.
         22    1    3    3    0    0  0.45496958523E+02  0.81586926571E+02  0.13488893057E+03  0.16407749209E+03  0.00000000000E+00 0. -1.
</event>
<event>
 7    1  0.6607887E-006  0.4607000E+02  0.7818608E-02  0.1561054E+00
          2   -1    0    0  502    0  0.00000000000E+00  0.00000000000E+00  0.18185983928E+04  0.18185983928E+04  0.00000000000E+00 0. -1.
          1   -1    0    0  501    0 -0.00000000000E+00 -0.00000000000E+00 -0.17682188717E+04  0.17682188717E+04  0.00000000000E+00 0. -1.
         25    2    1    2    0    0  0.44710775613E+01 -0.40043633538E+02  0.25755991395E+03  0.28911063838E+03  0.12499747529E+03 0.  0.
          2    1    1    2  501    0 -0.24497179484E+02 -0.17340514786E+01 -0.17520101755E+04  0.17521822890E+04  0.00000000000E+00 0. -1.
          1    1    1    2  502    0  0.20026101923E+02  0.41777685017E+02  0.15448297826E+04  0.15455243372E+04  0.00000000000E+00 0. -1.
         22    1    3    3    0    0  0.62076962354E+02 -0.90345957294E+01  0.94601762975E+02  0.11351064590E+03  0.00000000000E+00 0. -1.
         22    1    3    3    0    0 -0.57605884793E+02 -0.31009037809E+02  0.16295815098E+03  0.17559999248E+03  0.00000000000E+00 0. -1.
</event>
<event>
 7    1  0.6607887E-006  0.6835334E+02  0.7818608E-02  0.1424607E+00
          2   -1    0    0  502    0  0.00000000000E+00  0.00000000000E+00  0.32480103380E+04  0.32480103380E+04  0.00000000000E+00 0. -1.
          1   -1    0    0  501    0 -0.00000000000E+00 -0.00000000000E+00 -0.53098023959E+01  0.53098023959E+01  0.00000000000E+00 0. -1.
         25    2    1    2    0    0 -0.43161988790E+02  0.24009502804E+01  0.21169404243E+04  0.21210682366E+04  0.12499992865E+03 0.  0.
          2    1    1    2  501    0  0.73041472610E+02  0.28176558778E+02  0.74054620338E+03  0.74467285067E+03  0.00000000000E+00 0. -1.
          1    1    1    2  502    0 -0.29879483820E+02 -0.30577509059E+02  0.38521390791E+03  0.38757905317E+03  0.00000000000E+00 0. -1.
         22    1    3    3    0    0  0.34732082078E+02 -0.30502869787E+02  0.90656459412E+03  0.90774231250E+03  0.00000000000E+00 0.  1.
         22    1    3    3    0    0 -0.77894070868E+02  0.32903820068E+02  0.12103758302E+04  0.12133259241E+04  0.00000000000E+00 0.  1.
</event>
<event>
 7    1  0.6607887E-006  0.1806565E+03  0.7818608E-02  0.1345436E+00
          2   -1    0    0  502    0  0.00000000000E+00  0.00000000000E+00  0.72216604402E+03  0.72216604402E+03  0.00000000000E+00 0. -1.
          1   -1    0    0  501    0 -0.00000000000E+00 -0.00000000000E+00 -0.76257567309E+03  0.76257567309E+03  0.00000000000E+00 0. -1.
         25    2    1    2    0    0 -0.13541395943E+03  0.15851505115E+03 -0.61520615821E+00  0.24305712955E+03  0.12494970149E+03 0.  0.
          2    1    1    2  501    0  0.11688693013E+03 -0.13401035025E+03 -0.62799311914E+03  0.65268421622E+03  0.00000000000E+00 0. -1.
          1    1    1    2  502    0  0.18527029298E+02 -0.24504700899E+02  0.58819869623E+03  0.58900037133E+03  0.00000000000E+00 0. -1.
         22    1    3    3    0    0 -0.10076451562E+03  0.16151828806E+03  0.34680192422E+02  0.19350545401E+03  0.00000000000E+00 0. -1.
         22    1    3    3    0    0 -0.34649443804E+02 -0.30032369160E+01 -0.35295398580E+02  0.49551675540E+02  0.00000000000E+00 0. -1.
</event>
<event>
 7    1  0.6607887E-006  0.8908482E+02  0.7818608E-02  0.1457975E+00
          2   -1    0    0  502    0  0.00000000000E+00  0.00000000000E+00  0.90581851459E+02  0.90581851459E+02  0.00000000000E+00 0. -1.
          1   -1    0    0  501    0 -0.00000000000E+00 -0.00000000000E+00 -0.12909070894E+04  0.12909070894E+04  0.00000000000E+00 0. -1.
         25    2    1    2    0    0 -0.29349133707E+02 -0.63146974452E+02 -0.43695566607E+03  0.45978685346E+03  0.12499913788E+03 0.  0.
          2    1    1    2  501    0 -0.23531098312E+02 -0.10017345603E+02 -0.81653549732E+03  0.81693590824E+03  0.00000000000E+00 0. -1.
          1    1    1    2  502    0  0.52880232019E+02  0.73164320055E+02  0.53165925443E+02  0.10476617916E+03  0.00000000000E+00 0. -1.
         22    1    3    3    0    0  0.20324722792E+00  0.28483760573E+02 -0.22734196055E+03  0.22911947310E+03  0.00000000000E+00 0.  1.
         22    1    3    3    0    0 -0.29552380934E+02 -0.91630735025E+02 -0.20961370552E+03  0.23066738036E+03  0.00000000000E+00 0.  1.
</event>
<event>
 7    1  0.6607887E-006  0.1719925E+03  0.7818608E-02  0.1395626E+00
          2   -1    0    0  502    0  0.00000000000E+00  0.00000000000E+00  0.11417361681E+04  0.11417361681E+04  0.00000000000E+00 0. -1.
          1   -1    0    0  501    0 -0.00000000000E+00 -0.00000000000E+00 -0.52574219933E+03  0.52574219933E+03  0.00000000000E+00 0. -1.
         25    2    1    2    0    0  0.11579155844E+03 -0.10217264479E+03  0.57636553335E+03  0.60964682826E+03  0.12500037132E+03 0.  0.
          2    1    1    2  501    0 -0.13693022878E+03  0.10480305307E+03 -0.49428207116E+03  0.52349625916E+03  0.00000000000E+00 0. -1.
          1    1    1    2  502    0  0.21138670340E+02 -0.26304082730E+01  0.53391050660E+03  0.53433528003E+03  0.00000000000E+00 0. -1.
         22    1    3    3    0    0  0.12790911405E+02 -0.63400072560E+02  0.89057887152E+02  0.11006581612E+03  0.00000000000E+00 0. -1.
         22    1    3    3    0    0  0.10300064704E+03 -0.38772572232E+02  0.48730764620E+03  0.49958101214E+03  0.00000000000E+00 0. -1.
</event>
<event>
 7    1  0.6607887E-006  0.5491115E+02  0.7818608E-02  0.1547502E+00
          2   -1    0    0  502    0  0.00000000000E+00  0.00000000000E+00  0.67893757983E+03  0.67893757983E+03  0.00000000000E+00 0. -1.
          1   -1    0    0  501    0 -0.00000000000E+00 -0.00000000000E+00 -0.83056187963E+03  0.83056187963E+03  0.00000000000E+00 0. -1.
         25    2    1    2    0    0 -0.68082589807E+02  0.28803430630E+02  0.10626277473E+03  0.17994898823E+03  0.12499993768E+03 0.  0.
          2    1    1    2  501    0  0.45664238305E+02 -0.30284226441E+02 -0.79253690358E+03  0.79442878886E+03  0.00000000000E+00 0. -1.
          1    1    1    2  502    0  0.22418351502E+02  0.14807958110E+01  0.53464982906E+03  0.53512168238E+03  0.00000000000E+00 0. -1.
         22    1    3    3    0    0 -0.75768453107E+02 -0.25061403208E+02  0.95550137603E+02  0.12449402079E+03  0.00000000000E+00 0.  1.
         22    1    3    3    0    0  0.76858632998E+01  0.53864833838E+02  0.10712637122E+02  0.55454967435E+02  0.00000000000E+00 0.  1.
</event>
<event>
 7    1  0.6607887E-006  0.6002079E+02  0.7818608E-02  0.1413474E+00
          2   -1    0    0  502    0  0.00000000000E+00  0.00000000000E+00  0.61109239066E+03  0.61109239066E+03  0.00000000000E+00 0. -1.
          1   -1    0    0  501    0 -0.00000000000E+00 -0.00000000000E+00 -0.13105962461E+03  0.13105962461E+03  0.00000000000E+00 0. -1.
         25    2    1    2    0    0  0.45332083370E+02  0.40366429766E+02  0.45474977413E+03  0.47550794715E+03  0.12500401714E+03 0.  0.
          2    1    1    2  501    0  0.23658884523E+02 -0.47478053402E+02 -0.10579434127E+03  0.11834843056E+03  0.00000000000E+00 0. -1.
          1    1    1    2  502    0 -0.68990967892E+02  0.71116236359E+01  0.13107733319E+03  0.14829563756E+03  0.00000000000E+00 0. -1.
         22    1    3    3    0    0  0.56955350859E+02  0.43283233212E+02  0.11425206545E+03  0.13479942407E+03  0.00000000000E+00 0. -1.
         22    1    3    3    0    0 -0.11623267489E+02 -0.29168034457E+01  0.34049770868E+03  0.34070852309E+03  0.00000000000E+00 0. -1.
</event>
<event>
 7    1  0.6607887E-006  0.2371194E+02  0.7818608E-02  0.1687105E+00
          2   -1    0    0  502    0  0.00000000000E+00  0.00000000000E+00  0.11882314989E+04  0.11882314989E+04  0.00000000000E+00 0. -1.
          1   -1    0    0  501    0 -0.00000000000E+00 -0.00000000000E+00 -0.21425313732E+03  0.21425313732E+03  0.00000000000E+00 0. -1.
         25    2    1    2    0    0  0.57999861965E+01  0.88370641356E+01  0.17960950566E+03  0.21908727429E+03  0.12501170222E+03 0.  0.
          2    1    1    2  501    0 -0.20596668907E+02  0.98814235706E+01 -0.19369899839E+03  0.19504145015E+03  0.00000000000E+00 0. -1.
          1    1    1    2  502    0  0.14796682711E+02 -0.18718487706E+02  0.98806785428E+03  0.98835591174E+03  0.00000000000E+00 0. -1.
         22    1    3    3    0    0 -0.51027195602E+02  0.35992203214E+02  0.86940369193E+02  0.10704130595E+03  0.00000000000E+00 0.  1.
         22    1    3    3    0    0  0.56827181799E+02 -0.27155139079E+02  0.92669136465E+02  0.11204596835E+03  0.00000000000E+00 0.  1.
</event>
<event>
 7    1  0.6607887E-006  0.1869582E+03  0.7818608E-02  0.1264366E+00
          2   -1    0    0  502    0  0.00000000000E+00  0.00000000000E+00  0.19969472318E+03  0.19969472318E+03  0.00000000000E+00 0. -1.
          1   -1    0    0  501    0 -0.00000000000E+00 -0.00000000000E+00 -0.39350852087E+03  0.39350852087E+03  0.00000000000E+00 0. -1.
         25    2    1    2    0    0  0.15132624295E+03  0.58587123814E+01 -0.82930826949E+02  0.21315610418E+03  0.12499618545E+03 0.  0.
          2    1    1    2  501    0  0.55163873030E+02 -0.29080270039E+02 -0.15548360037E+03  0.16752272974E+03  0.00000000000E+00 0. -1.
          1    1    1    2  502    0 -0.20649011598E+03  0.23221557658E+02  0.44600629632E+02  0.21252441013E+03  0.00000000000E+00 0. -1.
         22    1    3    3    0    0  0.10948648874E+03  0.42384793317E+02 -0.10087541282E+03  0.15478892349E+03  0.00000000000E+00 0.  1.
         22    1    3    3    0    0  0.41839754208E+02 -0.36526080936E+02  0.17944585872E+02  0.58367180699E+02  0.00000000000E+00 0.  1.
</event>
<event>
 7    1  0.6607887E-006  0.4413643E+02  0.7818608E-02  0.1525137E+00
          2   -1    0    0  502    0  0.00000000000E+00  0.00000000000E+00  0.68151039027E+03  0.68151039027E+03  0.00000000000E+00 0. -1.
          1   -1    0    0  501    0 -0.00000000000E+00 -0.00000000000E+00 -0.44970706958E+02  0.44970706958E+02  0.00000000000E+00 0. -1.
         25    2    1    2    0    0 -0.35917597659E+02 -0.13043046307E+02  0.23838368603E+03  0.27187443773E+03  0.12501493210E+03 0.  0.
          2    1    1    2  501    0  0.19498044362E+02  0.40922894458E+02 -0.89594873112E+01  0.46207460844E+02  0.00000000000E+00 0. -1.
          1    1    1    2  502    0  0.16419553298E+02 -0.27879848151E+02  0.40711548460E+03  0.40839919866E+03  0.00000000000E+00 0. -1.
         22    1    3    3    0    0  0.15860001696E+02 -0.53018507393E+02  0.16262405270E+03  0.17178208374E+03  0.00000000000E+00 0. -1.
         22    1    3    3    0    0 -0.51777599355E+02  0.39975461086E+02  0.75759633330E+02  0.10009235399E+03  0.00000000000E+00 0. -1.
</event>
<event>
 7    1  0.6607887E-006  0.2890285E+02  0.7818608E-02  0.1610856E+00
          2   -1    0    0  502    0  0.00000000000E+00  0.00000000000E+00  0.61360461163E+02  0.61360461163E+02  0.00000000000E+00 0. -1.
          1   -1    0    0  501    0 -0.00000000000E+00 -0.00000000000E+00 -0.53647840419E+03  0.53647840419E+03  0.00000000000E+00 0. -1.
         25    2    1    2    0    0 -0.58142585999E+01  0.36222543480E+01 -0.10340331547E+03  0.16237269674E+03  0.12500288264E+03 0.  0.
          2    1    1    2  501    0 -0.17506668217E+02 -0.22997638496E+02 -0.39573235303E+03  0.39678642875E+03  0.00000000000E+00 0. -1.
          1    1    1    2  502    0  0.23320926817E+02  0.19375384148E+02  0.24017725470E+02  0.38679739855E+02  0.00000000000E+00 0. -1.
         22    1    3    3    0    0  0.44828845707E+02  0.37866940883E+02 -0.74259952040E+02  0.94647087099E+02  0.00000000000E+00 0. -1.
         22    1    3    3    0    0 -0.50643104307E+02 -0.34244686535E+02 -0.29143363425E+02  0.67725609642E+02  0.00000000000E+00 0. -1.
</event>
<event>
 7    1  0.6607887E-006  0.3696041E+02  0.7818608E-02  0.1542582E+00
          2   -1    0    0  502    0  0.00000000000E+00  0.00000000000E+00  0.37973387032E+03  0.37973387032E+03  0.00000000000E+00 0. -1.
          1   -1    0    0  501    0 -0.00000000000E+00 -0.00000000000E+00 -0.21705219275E+03  0.21705219275E+03  0.00000000000E+00 0. -1.
         25    2    1    2    0    0 -0.22122440096E+02 -0.82742024241E+01  0.12215391785E+03  0.17636398848E+03  0.12499924801E+03 0.  0.
          2    1    1    2  501    0  0.17146027631E+02 -0.29888830226E+02 -0.18675329944E+03  0.18990556413E+03  0.00000000000E+00 0. -1.
          1    1    1    2  502    0  0.49764124645E+01  0.38163032650E+02  0.22728105916E+03  0.23051651046E+03  0.00000000000E+00 0. -1.
         22    1    3    3    0    0 -0.26522473405E+02 -0.47119766978E+02  0.12596973747E+03  0.13708423977E+03  0.00000000000E+00 0. -1.
         22    1    3    3    0    0  0.44000333090E+01  0.38845564554E+02 -0.38158196259E+01  0.39279748701E+02  0.00000000000E+00 0. -1.
</event>
<event>
 7    1  0.6607887E-006  0.6173763E+02  0.7818608E-02  0.1430407E+00
          2   -1    0    0  502    0  0.00000000000E+00  0.00000000000E+00  0.53933760416E+03  0.53933760416E+03  0.00000000000E+00 0. -1.
          1   -1    0    0  501    0 -0.00000000000E+00 -0.00000000000E+00 -0.35040672840E+03  0.35040672840E+03  0.00000000000E+00 0. -1.
         25    2    1    2    0    0 -0.25325228053E+02  0.13415614105E+02  0.89446957423E+02  0.15635321467E+03  0.12499689463E+03 0.  0.
          2    1    1    2  501    0 -0.18492493197E+01  0.45252526272E+02 -0.31280323594E+03  0.31606498584E+03  0.00000000000E+00 0. -1.
          1    1    1    2  502    0  0.27174477373E+02 -0.58668140376E+02  0.41228715428E+03  0.41732613206E+03  0.00000000000E+00 0. -1.
         22    1    3    3    0    0  0.24292956696E+02 -0.10875465017E+02  0.97007984871E+02  0.10059310420E+03  0.00000000000E+00 0.  1.
         22    1    3    3    0    0 -0.49618184749E+02  0.24291079122E+02 -0.75610274478E+01  0.55760110463E+02  0.00000000000E+00 0.  1.
</event>
<event>
 7    1  0.6607887E-006  0.7092695E+02  0.7818608E-02  0.1368808E+00
          2   -1    0    0  502    0  0.00000000000E+00  0.00000000000E+00  0.24442957402E+03  0.24442957402E+03  0.00000000000E+00 0. -1.
          1   -1    0    0  501    0 -0.00000000000E+00 -0.00000000000E+00 -0.18735018998E+03  0.18735018998E+03  0.00000000000E+00 0. -1.
         25    2    1    2    0    0 -0.56596882654E+01  0.10917209964E+02 -0.91427022383E+02  0.15535539714E+03  0.12500072581E+03 0.  0.
          2    1    1    2  501    0 -0.57986848484E+02  0.27641117802E+02 -0.38682945819E+02  0.74985840581E+02  0.00000000000E+00 0. -1.
          1    1    1    2  502    0  0.63646536749E+02 -0.38558327765E+02  0.18718935224E+03  0.20143852629E+03  0.00000000000E+00 0. -1.
         22    1    3    3    0    0 -0.35199062282E+00 -0.38485748782E+02  0.12247582446E+02  0.40389107845E+02  0.00000000000E+00 0. -1.
         22    1    3    3    0    0 -0.53076976426E+01  0.49402958746E+02 -0.10367460483E+03  0.11496628929E+03  0.00000000000E+00 0. -1.
</event>
<event>
 7    1  0.6607887E-006  0.1000622E+03  0.7818608E-02  0.1342684E+00
          2   -1    0    0  502    0  0.00000000000E+00  0.00000000000E+00  0.66926291101E+03  0.66926291101E+03  0.00000000000E+00 0. -1.
          1   -1    0    0  501    0 -0.00000000000E+00 -0.00000000000E+00 -0.12477445910E+04  0.12477445910E+04  0.00000000000E+00 0. -1.
         25    2    1    2    0    0  0.10532818699E+03  0.35675727636E+02 -0.83263574688E+02  0.18688074443E+03  0.12499922100E+03 0.  0.
          2    1    1    2  501    0 -0.98071676779E+02  0.20651945764E+02 -0.11091021669E+04  0.11136211983E+04  0.00000000000E+00 0. -1.
          1    1    1    2  502    0 -0.72565102123E+01 -0.56327673399E+02  0.61388406153E+03  0.61650555936E+03  0.00000000000E+00 0. -1.
         22    1    3    3    0    0  0.65799653561E+02 -0.16261147282E+02 -0.98775912272E+02  0.11979440790E+03  0.00000000000E+00 0. -1.
         22    1    3    3    0    0  0.39528533430E+02  0.51936874918E+02  0.15512337583E+02  0.67086336527E+02  0.00000000000E+00 0. -1.
</event>
<event>
 7    1  0.6607887E-006  0.6521994E+02  0.7818608E-02  0.1423530E+00
          2   -1    0    0  502    0  0.00000000000E+00  0.00000000000E+00  0.15422028656E+04  0.15422028656E+04  0.00000000000E+00 0. -1.
          1   -1    0    0  501    0 -0.00000000000E+00 -0.00000000000E+00 -0.26772468835E+03  0.26772468835E+03  0.00000000000E+00 0. -1.
         25    2    1    2    0    0 -0.22498712039E+02 -0.13373436134E+02 -0.12960852463E+03  0.18195839170E+03  0.12500178325E+03 0.  0.
          2    1    1    2  501    0 -0.42911675566E+02  0.14125838845E+02 -0.10664635806E+03  0.11582053751E+03  0.00000000000E+00 0. -1.
          1    1    1    2  502    0  0.65410387605E+02 -0.75240271055E+00  0.15107330600E+04  0.15121486248E+04  0.00000000000E+00 0. -1.
         22    1    3    3    0    0 -0.47852167805E+01 -0.56567452378E+02 -0.15770303145E+02  0.58919244984E+02  0.00000000000E+00 0. -1.
         22    1    3    3    0    0 -0.17713495258E+02  0.43194016244E+02 -0.11383822148E+03  0.12303914671E+03  0.00000000000E+00 0. -1.
</event>
<event>
 7    1  0.6607887E-006  0.4482477E+02  0.7818608E-02  0.1530459E+00
          2   -1    0    0  502    0  0.00000000000E+00  0.00000000000E+00  0.12018030423E+04  0.12018030423E+04  0.00000000000E+00 0. -1.
          1   -1    0    0  501    0 -0.00000000000E+00 -0.00000000000E+00 -0.11299332443E+03  0.11299332443E+03  0.00000000000E+00 0. -1.
         25    2    1    2    0    0  0.50335099457E+02 -0.22063322985E+02  0.38389485671E+03  0.40745586092E+03  0.12499842050E+03 0.  0.
          2    1    1    2  501    0 -0.44084787141E+02 -0.80513206201E+01 -0.95942558223E+02  0.10589271316E+03  0.00000000000E+00 0. -1.
          1    1    1    2  502    0 -0.62503123150E+01  0.30114643605E+02  0.80085741940E+03  0.80144779266E+03  0.00000000000E+00 0. -1.
         22    1    3    3    0    0 -0.25491727990E+02  0.77212298410E+01  0.24491359827E+03  0.24635769970E+03  0.00000000000E+00 0.  1.
         22    1    3    3    0    0  0.75826827447E+02 -0.29784552826E+02  0.13898125844E+03  0.16109816121E+03  0.00000000000E+00 0.  1.
</event>
<event>
 7    1  0.6607887E-006  0.1229827E+03  0.7818608E-02  0.1382908E+00
          2   -1    0    0  502    0  0.00000000000E+00  0.00000000000E+00  0.15016171394E+04  0.15016171394E+04  0.00000000000E+00 0. -1.
          1   -1    0    0  501    0 -0.00000000000E+00 -0.00000000000E+00 -0.46472439704E+03  0.46472439704E+03  0.00000000000E+00 0. -1.
         25    2    1    2    0    0  0.67147560405E+02 -0.66898156762E+02  0.29770866149E+02  0.15966984128E+03  0.12499598192E+03 0.  0.
          2    1    1    2  501    0 -0.97556311996E+02  0.79715824445E+02 -0.38964969525E+03  0.40951035602E+03  0.00000000000E+00 0. -1.
          1    1    1    2  502    0  0.30408751591E+02 -0.12817667683E+02  0.13967715715E+04  0.13971613392E+04  0.00000000000E+00 0. -1.
         22    1    3    3    0    0  0.60897443440E+02  0.23696070491E+02  0.19993044190E+02  0.68335380223E+02  0.00000000000E+00 0.  1.
         22    1    3    3    0    0  0.62501169648E+01 -0.90594227253E+02  0.97778219592E+01  0.91334461053E+02  0.00000000000E+00 0.  1.
</event>
<event>
 7    1  0.6607887E-006  0.4302054E+03  0.7818608E-02  0.1226089E+00
          2   -1    0    0  502    0  0.00000000000E+00  0.00000000000E+00  0.93113745900E+03  0.93113745900E+03  0.00000000000E+00 0. -1.
          1   -1    0    0  501    0 -0.00000000000E+00 -0.00000000000E+00 -0.31706996141E+03  0.31706996141E+03  0.00000000000E+00 0. -1.
         25    2    1    2    0    0  0.41562593067E+03  0.17434851778E+03  0.32708375135E+03  0.57074081419E+03  0.12497590443E+03 0.  0.
          2    1    1    2  501    0 -0.39788675274E+02  0.21176215085E+01 -0.10138799318E+03  0.10893644093E+03  0.00000000000E+00 0. -1.
          1    1    1    2  502    0 -0.37583725540E+03 -0.17646613929E+03  0.38837173942E+03  0.56853016529E+03  0.00000000000E+00 0. -1.
         22    1    3    3    0    0  0.15177890951E+03  0.56567496096E+01  0.13605294980E+03  0.20390988534E+03  0.00000000000E+00 0. -1.
         22    1    3    3    0    0  0.26384702117E+03  0.16869176817E+03  0.19103080154E+03  0.36683092886E+03  0.00000000000E+00 0. -1.
</event>
<event>
 7    1  0.6607887E-006  0.7473756E+02  0.7818608E-02  0.1409226E+00
          2   -1    0    0  502    0  0.00000000000E+00  0.00000000000E+00  0.35739292631E+03  0.35739292631E+03  0.00000000000E+00 0. -1.
          1   -1    0    0  501    0 -0.00000000000E+00 -0.00000000000E+00 -0.14653752936E+04  0.14653752936E+04  0.00000000000E+00 0. -1.
         25    2    1    2    0    0  0.60248580676E+02  0.34338469391E+02 -0.12037947140E+03  0.18687758517E+03  0.12499197074E+03 0.  0.
          2    1    1    2  501    0 -0.32046332629E+02 -0.68155263939E+02 -0.13091640623E+04  0.13113285818E+04  0.00000000000E+00 0. -1.
          1    1    1    2  502    0 -0.28202248048E+02  0.33816794549E+02  0.32156116647E+03  0.32456205288E+03  0.00000000000E+00 0. -1.
         22    1    3    3    0    0 -0.47723827342E+01  0.63340097624E+02 -0.25949261103E+02  0.68615652411E+02  0.00000000000E+00 0. -1.
         22    1    3    3    0    0  0.65020963410E+02 -0.29001628233E+02 -0.94430210293E+02  0.11826193276E+03  0.00000000000E+00 0. -1.
</event>
<event>
 7    1  0.6607887E-006  0.1251515E+03  0.7818608E-02  0.1377515E+00
          2   -1    0    0  502    0  0.00000000000E+00  0.00000000000E+00  0.38023035065E+04  0.38023035065E+04  0.00000000000E+00 0. -1.
          1   -1    0    0  501    0 -0.00000000000E+00 -0.00000000000E+00 -0.28954756427E+03  0.28954756427E+03  0.00000000000E+00 0. -1.
         25    2    1    2    0    0  0.86535454028E+02  0.92501294421E+02  0.20408326101E+04  0.20485766716E+04  0.12499505053E+03 0.  0.
          2    1    1    2  501    0 -0.10677440913E+03 -0.65323942446E+02 -0.27179166814E+03  0.29923018359E+03  0.00000000000E+00 0. -1.
          1    1    1    2  502    0  0.20238955106E+02 -0.27177351974E+02  0.17437150002E+04  0.17440442155E+04  0.00000000000E+00 0. -1.
         22    1    3    3    0    0  0.60429440371E+02  0.87494569463E+02  0.19708386215E+04  0.19737051170E+04  0.00000000000E+00 0.  1.
         22    1    3    3    0    0  0.26106013657E+02  0.50067249578E+01  0.69993988626E+02  0.74871554596E+02  0.00000000000E+00 0.  1.
</event>
<event>
 7    1  0.6823584E-006  0.8706809E+02  0.7818608E-02  0.1357026E+00
          2   -1    0    0  502    0  0.00000000000E+00  0.00000000000E+00  0.24202050982E+04  0.24202050982E+04  0.00000000000E+00 0. -1.
          1   -1    0    0  501    0 -0.00000000000E+00 -0.00000000000E+00 -0.60007983831E+03  0.60007983831E+03  0.00000000000E+00 0. -1.
         25    2    1    2    0    0 -0.30159675812E+02  0.13963405252E+03 -0.63303752630E+02  0.20010228452E+03  0.12500513791E+03 0.  0.
          2    1    1    2  501    0  0.16218123696E+01 -0.57727735638E+02 -0.46579330675E+03  0.46935969826E+03  0.00000000000E+00 0. -1.
          1    1    1    2  502    0  0.28537863442E+02 -0.81906316878E+02  0.23492223192E+04  0.23508229537E+04  0.00000000000E+00 0. -1.
         22    1    3    3    0    0 -0.16795687578E+02  0.91066195721E+01 -0.66157957554E+02  0.68861462291E+02  0.00000000000E+00 0. -1.
         22    1    3    3    0    0 -0.13363988234E+02  0.13052743294E+03  0.28542049237E+01  0.13124082222E+03  0.00000000000E+00 0. -1.
</event>
<event>
 7    1  0.6607887E-006  0.1107363E+03  0.7818608E-02  0.1260827E+00
          2   -1    0    0  502    0  0.00000000000E+00  0.00000000000E+00  0.49052554743E+03  0.49052554743E+03  0.00000000000E+00 0. -1.
          1   -1    0    0  501    0 -0.00000000000E+00 -0.00000000000E+00 -0.13244444971E+04  0.13244444971E+04  0.00000000000E+00 0. -1.
         25    2    1    2    0    0  0.52943190017E+02  0.63350246402E+02 -0.16146784358E+02  0.15067277075E+03  0.12500132044E+03 0.  0.
          2    1    1    2  501    0 -0.99315711081E+02  0.44898874708E+02 -0.12303874711E+04  0.12352055896E+04  0.00000000000E+00 0. -1.
          1    1    1    2  502    0  0.46372521064E+02 -0.10824912111E+03  0.41261530578E+03  0.42909168425E+03  0.00000000000E+00 0. -1.
         22    1    3    3    0    0 -0.18756753153E+02  0.45789119338E+02 -0.49211227874E+02  0.69786848241E+02  0.00000000000E+00 0. -1.
         22    1    3    3    0    0  0.71699943170E+02  0.17561127064E+02  0.33064443516E+02  0.80885922504E+02  0.00000000000E+00 0. -1.
</event>
<event>
 7    1  0.6607887E-006  0.1562983E+03  0.7818608E-02  0.1333203E+00
          2   -1    0    0  502    0  0.00000000000E+00  0.00000000000E+00  0.67298650320E+03  0.67298650320E+03  0.00000000000E+00 0. -1.
          1   -1    0    0  501    0 -0.00000000000E+00 -0.00000000000E+00 -0.16084841628E+04  0.16084841628E+04  0.00000000000E+00 0. -1.
         25    2    1    2    0    0  0.10426731514E+03 -0.14171569023E+03 -0.33713088049E+03  0.40029644035E+03  0.12499999884E+03 0.  0.
          2    1    1    2  501    0  0.11816007941E+02  0.37671631446E+02 -0.12299774651E+04  0.12306109598E+04  0.00000000000E+00 0. -1.
          1    1    1    2  502    0 -0.11608332308E+03  0.10404405879E+03  0.63161068602E+03  0.65056326577E+03  0.00000000000E+00 0. -1.
         22    1    3    3    0    0  0.57911012071E+02 -0.25376251766E+02 -0.32849958369E+02  0.71251380602E+02  0.00000000000E+00 0. -1.
         22    1    3    3    0    0  0.46356303069E+02 -0.11633943847E+03 -0.30428092212E+03  0.32904505975E+03  0.00000000000E+00 0. -1.
</event>
<event>
 7    1  0.6607887E-006  0.9053474E+02  0.7818608E-02  0.1368158E+00
          2   -1    0    0  502    0  0.00000000000E+00  0.00000000000E+00  0.13745730465E+03  0.13745730465E+03  0.00000000000E+00 0. -1.
          1   -1    0    0  501    0 -0.00000000000E+00 -0.00000000000E+00 -0.72958202248E+03  0.72958202248E+03  0.00000000000E+00 0. -1.
         25    2    1    2    0    0 -0.38251288402E+02 -0.52968233571E+02 -0.27723613053E+02  0.14373018878E+03  0.12498389342E+03 0.  0.
          2    1    1    2  501    0  0.85610651790E+02  0.35158387912E+02 -0.63207324793E+03  0.63881287298E+03  0.00000000000E+00 0. -1.
          1    1    1    2  502    0 -0.47359363389E+02  0.17809845660E+02  0.67672143150E+02  0.84496265370E+02  0.00000000000E+00 0. -1.
         22    1    3    3    0    0  0.38662337502E+02 -0.76230060981E+01 -0.36885135684E+02  0.53975918682E+02  0.00000000000E+00 0.  1.
         22    1    3    3    0    0 -0.76913625904E+02 -0.45345227473E+02  0.91615226311E+01  0.89754270100E+02  0.00000000000E+00 0.  1.
</event>
<event>
 7    1  0.6607887E-006  0.3043962E+02  0.7818608E-02  0.1594605E+00
          2   -1    0    0  502    0  0.00000000000E+00  0.00000000000E+00  0.91518244489E+03  0.91518244489E+03  0.00000000000E+00 0. -1.
          1   -1    0    0  501    0 -0.00000000000E+00 -0.00000000000E+00 -0.60575763339E+03  0.60575763339E+03  0.00000000000E+00 0. -1.
         25    2    1    2    0    0 -0.26738902514E+02 -0.16024250252E+02  0.36017214998E+03  0.38251600700E+03  0.12499108961E+03 0.  0.
          2    1    1    2  501    0  0.21385162586E+00  0.30453807169E+02 -0.59377601367E+03  0.59455650237E+03  0.00000000000E+00 0. -1.
          1    1    1    2  502    0  0.26525050888E+02 -0.14429556917E+02  0.54302867518E+03  0.54386756891E+03  0.00000000000E+00 0. -1.
         22    1    3    3    0    0  0.78721754064E+01  0.14480051907E+02  0.32259039469E+03  0.32301115429E+03  0.00000000000E+00 0.  1.
         22    1    3    3    0    0 -0.34611077921E+02 -0.30504302159E+02  0.37581755291E+02  0.59504852708E+02  0.00000000000E+00 0.  1.
</event>
<event>
 7    1  0.6607887E-006  0.8534825E+02  0.7818608E-02  0.1386094E+00
          2   -1    0    0  502    0  0.00000000000E+00  0.00000000000E+00  0.23760675894E+03  0.23760675894E+03  0.00000000000E+00 0. -1.
          1   -1    0    0  501    0 -0.00000000000E+00 -0.00000000000E+00 -0.65686150506E+03  0.65686150506E+03  0.00000000000E+00 0. -1.
         25    2    1    2    0    0  0.21839295056E+02  0.57103141841E+02 -0.29862004415E+02  0.14229523096E+03  0.12497387659E+03 0.  0.
          2    1    1    2  501    0  0.46334823419E+02  0.66368619776E+00 -0.55876037336E+03  0.56067861666E+03  0.00000000000E+00 0. -1.
          1    1    1    2  502    0 -0.68174118475E+02 -0.57766828039E+02  0.16936763166E+03  0.19149441638E+03  0.00000000000E+00 0. -1.
         22    1    3    3    0    0 -0.17979899246E+02 -0.84601661983E+01  0.36046990054E+02  0.41161106411E+02  0.00000000000E+00 0. -1.
         22    1    3    3    0    0  0.39819194302E+02  0.65563308040E+02 -0.65908994469E+02  0.10113412455E+03  0.00000000000E+00 0. -1.
</event>
<event>
 7    1  0.6607887E-006  0.9424655E+02  0.7818608E-02  0.1378210E+00
          2   -1    0    0  502    0  0.00000000000E+00  0.00000000000E+00  0.13093611679E+04  0.13093611679E+04  0.00000000000E+00 0. -1.
          1   -1    0    0  501    0 -0.00000000000E+00 -0.00000000000E+00 -0.42372470341E+03  0.42372470341E+03  0.00000000000E+00 0. -1.
         25    2    1    2    0    0  0.23491884195E+01 -0.13593661926E+03  0.31758171741E+03  0.36737921312E+03  0.12500022344E+03 0.  0.
          2    1    1    2  501    0  0.10313887413E+02  0.93024278858E+02 -0.39280717104E+03  0.40380362350E+03  0.00000000000E+00 0. -1.
          1    1    1    2  502    0 -0.12663075833E+02  0.42912340404E+02  0.96086191807E+03  0.96190303464E+03  0.00000000000E+00 0. -1.
         22    1    3    3    0    0  0.51220284921E+02 -0.12198053277E+03  0.20683616158E+03  0.24552793263E+03  0.00000000000E+00 0. -1.
         22    1    3    3    0    0 -0.48871096502E+02 -0.13956086493E+02  0.11074555582E+03  0.12185128050E+03  0.00000000000E+00 0. -1.
</event>
<event>
 7    1  0.6607887E-006  0.1122733E+03  0.7818608E-02  0.1341500E+00
          2   -1    0    0  502    0  0.00000000000E+00  0.00000000000E+00  0.17033018342E+04  0.17033018342E+04  0.00000000000E+00 0. -1.
          1   -1    0    0  501    0 -0.00000000000E+00 -0.00000000000E+00 -0.11847561446E+04  0.11847561446E+04  0.00000000000E+00 0. -1.
         25    2    1    2    0    0 -0.15622225305E+02  0.91360007670E+02  0.69384212952E+03  0.71107956672E+03  0.12500617820E+03 0.  0.
          2    1    1    2  501    0  0.42179201754E+02  0.28910485122E+02 -0.11717883128E+04  0.11729035558E+04  0.00000000000E+00 0. -1.
          1    1    1    2  502    0 -0.26556976449E+02 -0.12027049279E+03  0.99649187286E+03  0.10040748563E+04  0.00000000000E+00 0. -1.
         22    1    3    3    0    0  0.44829737973E+02  0.22722260035E+01  0.27403816457E+03  0.27769008636E+03  0.00000000000E+00 0.  1.
         22    1    3    3    0    0 -0.60451963278E+02  0.89087781667E+02  0.41980396494E+03  0.43338948036E+03  0.00000000000E+00 0.  1.
</event>
<event>
 7    1  0.6607887E-006  0.6513014E+02  0.7818608E-02  0.1395654E+00
          2   -1    0    0  502    0  0.00000000000E+00  0.00000000000E+00  0.41089855643E+03  0.41089855643E+03  0.00000000000E+00 0. -1.
          1   -1    0    0  501    0 -0.00000000000E+00 -0.00000000000E+00 -0.16335956415E+03  0.16335956415E+03  0.00000000000E+00 0. -1.
         25    2    1    2    0    0  0.33008437543E+02 -0.15216445981E+02  0.62880362370E+02  0.14456593136E+03  0.12499708541E+03 0.  0.
          2    1    1    2  501    0 -0.13515383283E+02  0.67970044452E+02 -0.10983836487E+03  0.12987324176E+03  0.00000000000E+00 0. -1.
          1    1    1    2  502    0 -0.19493054260E+02 -0.52753598471E+02  0.29449699479E+03  0.29981894746E+03  0.00000000000E+00 0. -1.
         22    1    3    3    0    0 -0.20448640916E+02 -0.57456846061E+02  0.20555737175E+02  0.64358172794E+02  0.00000000000E+00 0. -1.
         22    1    3    3    0    0  0.53457078460E+02  0.42240400080E+02  0.42324625195E+02  0.80207758566E+02  0.00000000000E+00 0. -1.
</event>
<event>
 7    1  0.6607887E-006  0.9853153E+02  0.7818608E-02  0.1323417E+00
          2   -1    0    0  502    0  0.00000000000E+00  0.00000000000E+00  0.29694208133E+03  0.29694208133E+03  0.00000000000E+00 0. -1.
          1   -1    0    0  501    0 -0.00000000000E+00 -0.00000000000E+00 -0.33528639801E+03  0.33528639801E+03  0.00000000000E+00 0. -1.
         25    2    1    2    0    0  0.96084663277E+02  0.92764095458E+02  0.17517511854E+02  0.18376799584E+03  0.12500549248E+03 0.  0.
          2    1    1    2  501    0 -0.27811120197E+02 -0.92573252473E+02 -0.23642465223E+03  0.25542098908E+03  0.00000000000E+00 0. -1.
          1    1    1    2  502    0 -0.68273543080E+02 -0.19084298509E+00  0.18056282370E+03  0.19303949442E+03  0.00000000000E+00 0. -1.
         22    1    3    3    0    0  0.68835212506E+02  0.42921533401E+01 -0.34993498169E+02  0.77338567191E+02  0.00000000000E+00 0.  1.
         22    1    3    3    0    0  0.27249450771E+02  0.88471942118E+02  0.52511010023E+02  0.10642942865E+03  0.00000000000E+00 0.  1.
</event>
<event>
 7    1  0.6607887E-006  0.1475823E+03  0.7818608E-02  0.1366709E+00
          2   -1    0    0  502    0  0.00000000000E+00  0.00000000000E+00  0.16985609693E+04  0.16985609693E+04  0.00000000000E+00 0. -1.
          1   -1    0    0  501    0 -0.00000000000E+00 -0.00000000000E+00 -0.36140285056E+03  0.36140285056E+03  0.00000000000E+00 0. -1.
         25    2    1    2    0    0  0.81691014692E+01 -0.14186603514E+03  0.51624410732E+03  0.54984196281E+03  0.12500199832E+03 0.  0.
          2    1    1    2  501    0 -0.39579143285E+02  0.14244233863E+03 -0.32852330558E+03  0.36025531325E+03  0.00000000000E+00 0. -1.
          1    1    1    2  502    0  0.31410041816E+02 -0.57630348464E+00  0.11494373170E+04  0.11498665438E+04  0.00000000000E+00 0. -1.
         22    1    3    3    0    0  0.14370562585E+02  0.56557919687E+01  0.20252768416E+03  0.20311564170E+03  0.00000000000E+00 0.  1.
         22    1    3    3    0    0 -0.62014611157E+01 -0.14752182711E+03  0.31371642316E+03  0.34672632112E+03  0.00000000000E+00 0.  1.
</event>
<event>
 7    1  0.6607887E-006  0.1200090E+03  0.7818608E-02  0.1323191E+00
          2   -1    0    0  502    0  0.00000000000E+00  0.00000000000E+00  0.16010844272E+04  0.16010844272E+04  0.00000000000E+00 0. -1.
          1   -1    0    0  501    0 -0.00000000000E+00 -0.00000000000E+00 -0.13742639854E+03  0.13742639854E+03  0.00000000000E+00 0. -1.
         25    2    1    2    0    0  0.69940484780E+02 -0.71438527321E+02  0.64390645885E+03  0.66350305571E+03  0.12500257033E+03 0.  0.
          2    1    1    2  501    0  0.52242541672E+02  0.20629163381E+02 -0.11656234657E+03  0.12938943612E+03  0.00000000000E+00 0. -1.
          1    1    1    2  502    0 -0.12218302645E+03  0.50809363940E+02  0.93631391636E+03  0.94561833389E+03  0.00000000000E+00 0. -1.
         22    1    3    3    0    0  0.38302032031E+02 -0.66617048127E+02  0.61678371830E+03  0.62155211521E+03  0.00000000000E+00 0.  1.
         22    1    3    3    0    0  0.31638452749E+02 -0.48214791937E+01  0.27122740548E+02  0.41950940500E+02  0.00000000000E+00 0.  1.
</event>
<event>
 7    1  0.6607887E-006  0.1165006E+03  0.7818608E-02  0.1401963E+00
          2   -1    0    0  502    0  0.00000000000E+00  0.00000000000E+00  0.24663706195E+04  0.24663706195E+04  0.00000000000E+00 0. -1.
          1   -1    0    0  501    0 -0.00000000000E+00 -0.00000000000E+00 -0.23786557213E+04  0.23786557213E+04  0.00000000000E+00 0. -1.
         25    2    1    2    0    0 -0.11299815666E+03 -0.13815387301E+02  0.77605014341E+03  0.79425309157E+03  0.12499880022E+03 0.  0.
          2    1    1    2  501    0  0.10815670945E+03  0.43327371968E+02 -0.23679888094E+04  0.23708534616E+04  0.00000000000E+00 0. -1.
          1    1    1    2  502    0  0.48414472106E+01 -0.29511984667E+02  0.16796535643E+04  0.16799197876E+04  0.00000000000E+00 0. -1.
         22    1    3    3    0    0 -0.10312315129E+03  0.27818937992E+02  0.34679588094E+03  0.36287141067E+03  0.00000000000E+00 0. -1.
         22    1    3    3    0    0 -0.98750053666E+01 -0.41634325293E+02  0.42925426247E+03  0.43138168090E+03  0.00000000000E+00 0. -1.
</event>
<event>
 7    1  0.6607887E-006  0.1048443E+03  0.7818608E-02  0.1335041E+00
          2   -1    0    0  502    0  0.00000000000E+00  0.00000000000E+00  0.60579212902E+03  0.60579212902E+03  0.00000000000E+00 0. -1.
          1   -1    0    0  501    0 -0.00000000000E+00 -0.00000000000E+00 -0.11272516502E+04  0.11272516502E+04  0.00000000000E+00 0. -1.
         25    2    1    2    0    0  0.48865662093E+02 -0.44296645025E+02 -0.14574037696E+03  0.20301448990E+03  0.12499831975E+03 0.  0.
          2    1    1    2  501    0 -0.10529196409E+03  0.31230536166E+02 -0.94824366668E+03  0.95458252419E+03  0.00000000000E+00 0. -1.
          1    1    1    2  502    0  0.56426302001E+02  0.13066108859E+02  0.57252452243E+03  0.57544676517E+03  0.00000000000E+00 0. -1.
         22    1    3    3    0    0 -0.72593312089E+01 -0.28300093169E+02  0.14399370263E+02  0.32571997589E+02  0.00000000000E+00 0.  1.
         22    1    3    3    0    0  0.56124993302E+02 -0.15996551857E+02 -0.16013974723E+03  0.17044249231E+03  0.00000000000E+00 0.  1.
</event>
<event>
 7    1  0.6607887E-006  0.8194748E+02  0.7818608E-02  0.1337327E+00
          2   -1    0    0  502    0  0.00000000000E+00  0.00000000000E+00  0.54331309639E+03  0.54331309639E+03  0.00000000000E+00 0. -1.
          1   -1    0    0  501    0 -0.00000000000E+00 -0.00000000000E+00 -0.13102918962E+04  0.13102918962E+04  0.00000000000E+00 0. -1.
         25    2    1    2    0    0 -0.84477156976E+02  0.52818985345E+02 -0.15058745550E+03  0.21960712727E+03  0.12499789331E+03 0.  0.
          2    1    1    2  501    0  0.80054235978E+02  0.19687322330E+02 -0.11210806354E+04  0.11241076738E+04  0.00000000000E+00 0. -1.
          1    1    1    2  502    0  0.44229209979E+01 -0.72506307676E+02  0.50468929105E+03  0.50989019149E+03  0.00000000000E+00 0. -1.
         22    1    3    3    0    0 -0.49780122816E+02  0.87161866968E+02 -0.13526555673E+03  0.16843996711E+03  0.00000000000E+00 0. -1.
         22    1    3    3    0    0 -0.34697034160E+02 -0.34342881623E+02 -0.15321898772E+02  0.51167160168E+02  0.00000000000E+00 0. -1.
</event>
<event>
 7    1  0.6607887E-006  0.1115699E+03  0.7818608E-02  0.1431397E+00
          2   -1    0    0  502    0  0.00000000000E+00  0.00000000000E+00  0.63319334190E+03  0.63319334190E+03  0.00000000000E+00 0. -1.
          1   -1    0    0  501    0 -0.00000000000E+00 -0.00000000000E+00 -0.20107746780E+03  0.20107746780E+03  0.00000000000E+00 0. -1.
         25    2    1    2    0    0  0.11711341787E+03 -0.64178945443E+02 -0.22539605783E+02  0.18430309535E+03  0.12500042977E+03 0.  0.
          2    1    1    2  501    0 -0.24553644429E+02  0.39820191708E+01 -0.90441984421E+02  0.93800269069E+02  0.00000000000E+00 0. -1.
          1    1    1    2  502    0 -0.92559773445E+02  0.60196926272E+02  0.54509746431E+03  0.55616744528E+03  0.00000000000E+00 0. -1.
         22    1    3    3    0    0  0.11385294585E+03 -0.27014429041E+02  0.29117841080E+02  0.12058242544E+03  0.00000000000E+00 0. -1.
         22    1    3    3    0    0  0.32604720213E+01 -0.37164516403E+02 -0.51657446863E+02  0.63720669909E+02  0.00000000000E+00 0. -1.
</event>
<event>
 7    1  0.6607887E-006  0.1261433E+03  0.7818608E-02  0.1332739E+00
          2   -1    0    0  502    0  0.00000000000E+00  0.00000000000E+00  0.13518510084E+04  0.13518510084E+04  0.00000000000E+00 0. -1.
          1   -1    0    0  501    0 -0.00000000000E+00 -0.00000000000E+00 -0.16658196894E+03  0.16658196894E+03  0.00000000000E+00 0. -1.
         25    2    1    2    0    0 -0.12672246758E+03  0.51144042104E+01  0.19142102645E+03  0.26144154116E+03  0.12499971663E+03 0.  0.
          2    1    1    2  501    0  0.11563995582E+03 -0.52966658359E+02 -0.10015134331E+03  0.16188995598E+03  0.00000000000E+00 0. -1.
          1    1    1    2  502    0  0.11082511759E+02  0.47852254149E+02  0.10939993564E+04  0.10951014802E+04  0.00000000000E+00 0. -1.
         22    1    3    3    0    0 -0.12782944939E+02  0.52619450655E+02  0.49765155284E+02  0.73544414805E+02  0.00000000000E+00 0. -1.
         22    1    3    3    0    0 -0.11393952264E+03 -0.47505046445E+02  0.14165587117E+03  0.18789712636E+03  0.00000000000E+00 0. -1.
</event>
<event>
 7    1  0.6607887E-006  0.5897036E+02  0.7818608E-02  0.1468776E+00
          2   -1    0    0  502    0  0.00000000000E+00  0.00000000000E+00  0.52842967501E+02  0.52842967501E+02  0.00000000000E+00 0. -1.
          1   -1    0    0  501    0 -0.00000000000E+00 -0.00000000000E+00 -0.16701438304E+04  0.16701438304E+04  0.00000000000E+00 0. -1.
         25    2    1    2    0    0  0.14663003510E+02 -0.19646499470E+02 -0.88683566729E+02  0.15521651147E+03  0.12500560712E+03 0.  0.
          2    1    1    2  501    0 -0.26483192605E+02  0.53367667383E+02 -0.15308112772E+04  0.15319701804E+04  0.00000000000E+00 0. -1.
          1    1    1    2  502    0  0.11820189095E+02 -0.33721167913E+02  0.21939810182E+01  0.35800105983E+02  0.00000000000E+00 0. -1.
         22    1    3    3    0    0  0.38692243124E+01 -0.63254391901E+02 -0.93667726346E+01  0.64061106930E+02  0.00000000000E+00 0.  1.
         22    1    3    3    0    0  0.10793779197E+02  0.43607892431E+02 -0.79316794095E+02  0.91155404541E+02  0.00000000000E+00 0.  1.
</event>
<event>
 7    1  0.6607887E-006  0.1037193E+03  0.7818608E-02  0.1340995E+00
          2   -1    0    0  502    0  0.00000000000E+00  0.00000000000E+00  0.13703375314E+04  0.13703375314E+04  0.00000000000E+00 0. -1.
          1   -1    0    0  501    0 -0.00000000000E+00 -0.00000000000E+00 -0.22708905100E+03  0.22708905100E+03  0.00000000000E+00 0. -1.
         25    2    1    2    0    0 -0.74115421677E+02 -0.70717984087E+02  0.15925568681E+03  0.22689689720E+03  0.12500279666E+03 0.  0.
          2    1    1    2  501    0  0.46572544342E+02 -0.30362377610E+02 -0.18688246314E+03  0.19497674449E+03  0.00000000000E+00 0. -1.
          1    1    1    2  502    0  0.27542877335E+02  0.10108036170E+03  0.11708752567E+04  0.11755529407E+04  0.00000000000E+00 0. -1.
         22    1    3    3    0    0 -0.73763886210E+02 -0.69586067403E+02  0.17974286800E+03  0.20637545950E+03  0.00000000000E+00 0.  1.
         22    1    3    3    0    0 -0.35153546736E+00 -0.11319166839E+01 -0.20487181185E+02  0.20521437705E+02  0.00000000000E+00 0.  1.
</event>
<event>
 7    1  0.6607887E-006  0.1347807E+03  0.7818608E-02  0.1412943E+00
          2   -1    0    0  502    0  0.00000000000E+00  0.00000000000E+00  0.10345210474E+04  0.10345210474E+04  0.00000000000E+00 0. -1.
          1   -1    0    0  501    0 -0.00000000000E+00 -0.00000000000E+00 -0.15025501790E+03  0.15025501790E+03  0.00000000000E+00 0. -1.
         25    2    1    2    0    0 -0.69646241172E+02 -0.12537773126E+03  0.72642504315E+03  0.75092499739E+03  0.12499933594E+03 0.  0.
          2    1    1    2  501    0 -0.39892435732E+01  0.23382358968E+02 -0.12345185659E+03  0.12571002216E+03  0.00000000000E+00 0. -1.
          1    1    1    2  502    0  0.73635484746E+02  0.10199537229E+03  0.28129284294E+03  0.30814104574E+03  0.00000000000E+00 0. -1.
         22    1    3    3    0    0 -0.20279840563E-01 -0.10771706872E+03  0.30594643912E+03  0.32435503837E+03  0.00000000000E+00 0.  1.
         22    1    3    3    0    0 -0.69625961332E+02 -0.17660662537E+02  0.42047860404E+03  0.42656995903E+03  0.00000000000E+00 0.  1.
</event>
<event>
 7    1  0.6607887E-006  0.7805041E+02  0.7818608E-02  0.1506814E+00
          2   -1    0    0  502    0  0.00000000000E+00  0.00000000000E+00  0.13478766174E+04  0.13478766174E+04  0.00000000000E+00 0. -1.
          1   -1    0    0  501    0 -0.00000000000E+00 -0.00000000000E+00 -0.51205339707E+02  0.51205339707E+02  0.00000000000E+00 0. -1.
         25    2    1    2    0    0  0.18353063902E+02  0.70985747308E+02  0.26567065919E+03  0.30262486092E+03  0.12500038408E+03 0.  0.
          2    1    1    2  501    0 -0.19241517677E+02  0.76199076015E+01 -0.27847126407E+02  0.34695265434E+02  0.00000000000E+00 0. -1.
          1    1    1    2  502    0  0.88845377565E+00 -0.78605654910E+02  0.10588477450E+04  0.10617618308E+04  0.00000000000E+00 0. -1.
         22    1    3    3    0    0 -0.31678278162E+02  0.86770412644E+02  0.17430318484E+03  0.19726687016E+03  0.00000000000E+00 0.  1.
         22    1    3    3    0    0  0.50031342064E+02 -0.15784665336E+02  0.91367474352E+02  0.10535799076E+03  0.00000000000E+00 0.  1.
</event>
<event>
 7    1  0.6607887E-006  0.2332519E+03  0.7818608E-02  0.1263532E+00
          2   -1    0    0  502    0  0.00000000000E+00  0.00000000000E+00  0.12761974068E+04  0.12761974068E+04  0.00000000000E+00 0. -1.
          1   -1    0    0  501    0 -0.00000000000E+00 -0.00000000000E+00 -0.61203901581E+03  0.61203901581E+03  0.00000000000E+00 0. -1.
         25    2    1    2    0    0 -0.11219025180E+03 -0.16420417104E+03 -0.59496323442E+02  0.24231080780E+03  0.12500021075E+03 0.  0.
          2    1    1    2  501    0  0.15506105543E+03  0.19068829965E+03 -0.42779671301E+03  0.49337205656E+03  0.00000000000E+00 0. -1.
          1    1    1    2  502    0 -0.42870803624E+02 -0.26484128615E+02  0.11514514274E+04  0.11525535582E+04  0.00000000000E+00 0. -1.
         22    1    3    3    0    0 -0.74751973685E+02 -0.99057594992E+02 -0.97771539816E+02  0.15798588131E+03  0.00000000000E+00 0. -1.
         22    1    3    3    0    0 -0.37438278119E+02 -0.65146576046E+02  0.38275216374E+02  0.84324926490E+02  0.00000000000E+00 0. -1.
</event>
<event>
 7    1  0.6607887E-006  0.1229184E+03  0.7818608E-02  0.1289063E+00
          2   -1    0    0  502    0  0.00000000000E+00  0.00000000000E+00  0.17691914963E+03  0.17691914963E+03  0.00000000000E+00 0. -1.
          1   -1    0    0  501    0 -0.00000000000E+00 -0.00000000000E+00 -0.10406933343E+04  0.10406933343E+04  0.00000000000E+00 0. -1.
         25    2    1    2    0    0  0.27298891132E+02 -0.74324190965E+02 -0.10726155952E+02  0.14837042505E+03  0.12501766990E+03 0.  0.
          2    1    1    2  501    0  0.37942041408E+02 -0.64566918151E+02 -0.90434788713E+03  0.90744343426E+03  0.00000000000E+00 0. -1.
          1    1    1    2  502    0 -0.65240932540E+02  0.13889110912E+03  0.51299858381E+02  0.16179862466E+03  0.00000000000E+00 0. -1.
         22    1    3    3    0    0  0.26513365590E+02 -0.10908003095E+03 -0.15345981868E+02  0.11330009208E+03  0.00000000000E+00 0. -1.
         22    1    3    3    0    0  0.78552554289E+00  0.34755839980E+02  0.46198259154E+01  0.35070332969E+02  0.00000000000E+00 0. -1.
</event>
<event>
 7    1  0.9473321E-006  0.6716814E+02  0.7818608E-02  0.1531120E+00
          2   -1    0    0  502    0  0.00000000000E+00  0.00000000000E+00  0.11560994088E+04  0.11560994088E+04  0.00000000000E+00 0. -1.
          1   -1    0    0  501    0 -0.00000000000E+00 -0.00000000000E+00 -0.15847934993E+04  0.15847934993E+04  0.00000000000E+00 0. -1.
         25    2    1    2    0    0 -0.82465449875E+01  0.73515464018E+02 -0.10757657339E+04  0.10855273076E+04  0.12500036950E+03 0.  0.
          2    1    1    2  501    0  0.19112322637E+02 -0.72357468097E+01 -0.50295966944E+03  0.50337467754E+03  0.00000000000E+00 0. -1.
          1    1    1    2  502    0 -0.10865777650E+02 -0.66279717208E+02  0.11500313129E+04  0.11519909230E+04  0.00000000000E+00 0. -1.
         22    1    3    3    0    0 -0.11551414715E+02  0.60844623951E+02 -0.10689916970E+04  0.10707841760E+04  0.00000000000E+00 0.  1.
         22    1    3    3    0    0  0.33048697272E+01  0.12670840067E+02 -0.67740369006E+01  0.14743131548E+02  0.00000000000E+00 0.  1.
</event>
<event>
 7    1  0.6607887E-006  0.8264788E+02  0.7818608E-02  0.1414112E+00
          2   -1    0    0  502    0  0.00000000000E+00  0.00000000000E+00  0.23033219081E+04  0.23033219081E+04  0.00000000000E+00 0. -1.
          1   -1    0    0  501    0 -0.00000000000E+00 -0.00000000000E+00 -0.17785896115E+02  0.17785896115E+02  0.00000000000E+00 0. -1.
         25    2    1    2    0    0  0.85519930327E+02  0.46963696721E+02  0.14609728896E+04  0.14695534160E+04  0.12500484384E+03 0.  0.
          2    1    1    2  501    0 -0.35935222380E+02  0.13344604172E+02  0.20046697323E+02  0.43258395041E+02  0.00000000000E+00 0. -1.
          1    1    1    2  502    0 -0.49584707948E+02 -0.60308300893E+02  0.80451642508E+03  0.80829599321E+03  0.00000000000E+00 0. -1.
         22    1    3    3    0    0 -0.30014104698E+01  0.61581252543E+02  0.82248756176E+03  0.82479515541E+03  0.00000000000E+00 0.  1.
         22    1    3    3    0    0  0.88521340797E+02 -0.14617555822E+02  0.63848532787E+03  0.64475826060E+03  0.00000000000E+00 0.  1.
</event>
<event>
 7    1  0.6607887E-006  0.4189293E+02  0.7818608E-02  0.1573343E+00
          2   -1    0    0  502    0  0.00000000000E+00  0.00000000000E+00  0.11041171924E+04  0.11041171924E+04  0.00000000000E+00 0. -1.
          1   -1    0    0  501    0 -0.00000000000E+00 -0.00000000000E+00 -0.55575261528E+02  0.55575261528E+02  0.00000000000E+00 0. -1.
         25    2    1    2    0    0  0.16179636021E+02 -0.45844664683E+02  0.84518124580E+03  0.85575684180E+03  0.12499968055E+03 0.  0.
          2    1    1    2  501    0 -0.32273731163E+02  0.26711970976E+02 -0.40811501031E+02  0.58486765452E+02  0.00000000000E+00 0. -1.
          1    1    1    2  502    0  0.16094095143E+02  0.19132693707E+02  0.24417218607E+03  0.24544884664E+03  0.00000000000E+00 0. -1.
         22    1    3    3    0    0  0.10725231611E+02  0.41672791276E+02  0.37576364048E+03  0.37821946755E+03  0.00000000000E+00 0. -1.
         22    1    3    3    0    0  0.54544044097E+01 -0.87517455959E+02  0.46941760532E+03  0.47753737425E+03  0.00000000000E+00 0. -1.
</event>
<event>
 7    1  0.6607887E-006  0.4531140E+02  0.7818608E-02  0.1561735E+00
          2   -1    0    0  502    0  0.00000000000E+00  0.00000000000E+00  0.93209352036E+02  0.93209352036E+02  0.00000000000E+00 0. -1.
          1   -1    0    0  501    0 -0.00000000000E+00 -0.00000000000E+00 -0.11840814065E+04  0.11840814065E+04  0.00000000000E+00 0. -1.
         25    2    1    2    0    0  0.31229267566E+02 -0.36449905538E+02 -0.17313166646E+03  0.21886849448E+03  0.12499992470E+03 0.  0.
          2    1    1    2  501    0 -0.43004797453E+02  0.14553069053E+02 -0.98534526803E+03  0.98639064354E+03  0.00000000000E+00 0. -1.
          1    1    1    2  502    0  0.11775529887E+02  0.21896836485E+02  0.67604880028E+02  0.72031620527E+02  0.00000000000E+00 0. -1.
         22    1    3    3    0    0  0.25127235631E+02  0.32138908977E+02 -0.10300727469E+02  0.42076031503E+02  0.00000000000E+00 0.  1.
         22    1    3    3    0    0  0.61020319345E+01 -0.68588814515E+02 -0.16283093899E+03  0.17679246297E+03  0.00000000000E+00 0.  1.
</event>
<event>
 7    1  0.6607887E-006  0.6484557E+02  0.7818608E-02  0.1395823E+00
          2   -1    0    0  502    0  0.00000000000E+00  0.00000000000E+00  0.32530835810E+03  0.32530835810E+03  0.00000000000E+00 0. -1.
          1   -1    0    0  501    0 -0.00000000000E+00 -0.00000000000E+00 -0.11719341381E+03  0.11719341381E+03  0.00000000000E+00 0. -1.
         25    2    1    2    0    0 -0.11482167562E+02 -0.26763892997E+02  0.58992285651E+02  0.14125367562E+03  0.12499745985E+03 0.  0.
          2    1    1    2  501    0 -0.27521712191E+02  0.67517392341E+02 -0.53812087446E+02  0.90618892433E+02  0.00000000000E+00 0. -1.
          1    1    1    2  502    0  0.39003879753E+02 -0.40753499344E+02  0.20293474609E+03  0.21062920386E+03  0.00000000000E+00 0. -1.
         22    1    3    3    0    0  0.16692384726E+02 -0.26110407380E+02  0.92451473229E+02  0.97507250929E+02  0.00000000000E+00 0.  1.
         22    1    3    3    0    0 -0.28174552288E+02 -0.65348561702E+00 -0.33459187578E+02  0.43746424693E+02  0.00000000000E+00 0.  1.
</event>
<event>
 7    1  0.6607887E-006  0.5042531E+02  0.7818608E-02  0.1501585E+00
          2   -1    0    0  502    0  0.00000000000E+00  0.00000000000E+00  0.30099275678E+04  0.30099275678E+04  0.00000000000E+00 0. -1.
          1   -1    0    0  501    0 -0.00000000000E+00 -0.00000000000E+00 -0.11283425161E+03  0.11283425161E+03  0.00000000000E+00 0. -1.
         25    2    1    2    0    0 -0.36294157326E+01 -0.24103687701E+02  0.16159607233E+03  0.20574850485E+03  0.12499998495E+03 0.  0.
          2    1    1    2  501    0  0.24898843251E+02 -0.21958290819E+02 -0.87486579765E+02  0.93573610435E+02  0.00000000000E+00 0. -1.
          1    1    1    2  502    0 -0.21269427518E+02  0.46061978520E+02  0.28229838237E+04  0.28234397042E+04  0.00000000000E+00 0. -1.
         22    1    3    3    0    0 -0.46296927342E+02  0.30815546837E+02  0.91009772689E+02  0.10665731167E+03  0.00000000000E+00 0. -1.
         22    1    3    3    0    0  0.42667511609E+02 -0.54919234538E+02  0.70586299640E+02  0.99091193181E+02  0.00000000000E+00 0. -1.
</event>
<event>
 7    1  0.7631019E-006  0.1065267E+03  0.7818608E-02  0.1310245E+00
          2   -1    0    0  502    0  0.00000000000E+00  0.00000000000E+00  0.26986269468E+04  0.26986269468E+04  0.00000000000E+00 0. -1.
          1   -1    0    0  501    0 -0.00000000000E+00 -0.00000000000E+00 -0.46635584739E+03  0.46635584739E+03  0.00000000000E+00 0. -1.
         25    2    1    2    0    0 -0.13613000988E+03  0.10722559891E+03 -0.13974606908E+03  0.25530717116E+03  0.12499631663E+03 0.  0.
          2    1    1    2  501    0  0.65262278384E+02 -0.28157332144E+02 -0.26304313341E+03  0.27247695383E+03  0.00000000000E+00 0. -1.
          1    1    1    2  502    0  0.70867731497E+02 -0.79068266767E+02  0.26350603019E+04  0.26371986692E+04  0.00000000000E+00 0. -1.
         22    1    3    3    0    0 -0.10663266671E+03  0.12031967990E+03 -0.15155253659E+03  0.22094235069E+03  0.00000000000E+00 0. -1.
         22    1    3    3    0    0 -0.29497343168E+02 -0.13094080991E+02  0.11806467510E+02  0.34364820472E+02  0.00000000000E+00 0. -1.
</event>
<event>
 7    1  0.6607887E-006  0.8824401E+02  0.7818608E-02  0.1310109E+00
          2   -1    0    0  502    0  0.00000000000E+00  0.00000000000E+00  0.10486644613E+04  0.10486644613E+04  0.00000000000E+00 0. -1.
          1   -1    0    0  501    0 -0.00000000000E+00 -0.00000000000E+00 -0.13142454766E+03  0.13142454766E+03  0.00000000000E+00 0. -1.
         25    2    1    2    0    0 -0.37932655188E+02 -0.46566305690E+02 -0.11147471154E+01  0.13867971518E+03  0.12499405420E+03 0.  0.
          2    1    1    2  501    0 -0.12417926580E+02  0.11903577941E+03  0.86411275059E+00  0.11968487110E+03  0.00000000000E+00 0. -1.
          1    1    1    2  502    0  0.50350581768E+02 -0.72469473715E+02  0.91749054798E+03  0.92172442267E+03  0.00000000000E+00 0. -1.
         22    1    3    3    0    0  0.13631833130E+02  0.29461263661E+02  0.27412149519E+02  0.42487867353E+02  0.00000000000E+00 0.  1.
         22    1    3    3    0    0 -0.51564488318E+02 -0.76027569351E+02 -0.28526896634E+02  0.96191847827E+02  0.00000000000E+00 0.  1.
</event>
<event>
 7    1  0.6607887E-006  0.7431143E+02  0.7818608E-02  0.1378025E+00
          2   -1    0    0  502    0  0.00000000000E+00  0.00000000000E+00  0.92572036668E+03  0.92572036668E+03  0.00000000000E+00 0. -1.
          1   -1    0    0  501    0 -0.00000000000E+00 -0.00000000000E+00 -0.71786569562E+03  0.71786569562E+03  0.00000000000E+00 0. -1.
         25    2    1    2    0    0  0.57287496536E+02  0.99012270488E+02  0.99193923656E+02  0.19634057203E+03  0.12499959508E+03 0.  0.
          2    1    1    2  501    0 -0.64444261211E+01 -0.73621520073E+02 -0.66620848788E+03  0.67029501577E+03  0.00000000000E+00 0. -1.
          1    1    1    2  502    0 -0.50843070414E+02 -0.25390750415E+02  0.77486923529E+03  0.77695047449E+03  0.00000000000E+00 0. -1.
         22    1    3    3    0    0  0.68183683161E+01  0.11153472027E+03  0.90120284310E+02  0.14355538867E+03  0.00000000000E+00 0. -1.
         22    1    3    3    0    0  0.50469128219E+02 -0.12522449782E+02  0.90736393466E+01  0.52785183364E+02  0.00000000000E+00 0. -1.
</event>
<event>
 7    1  0.6607887E-006  0.7965428E+02  0.7818608E-02  0.1333141E+00
          2   -1    0    0  502    0  0.00000000000E+00  0.00000000000E+00  0.12263869851E+04  0.12263869851E+04  0.00000000000E+00 0. -1.
          1   -1    0    0  501    0 -0.00000000000E+00 -0.00000000000E+00 -0.15169394331E+03  0.15169394331E+03  0.00000000000E+00 0. -1.
         25    2    1    2    0    0 -0.17340545359E+01  0.15050705903E+01  0.30088111589E+03  0.32582095354E+03  0.12499830273E+03 0.  0.
          2    1    1    2  501    0 -0.29389301810E+02 -0.74827242784E+02 -0.12571038482E+03  0.14921778773E+03  0.00000000000E+00 0. -1.
          1    1    1    2  502    0  0.31123356346E+02  0.73322172193E+02  0.89952231077E+03  0.90304218718E+03  0.00000000000E+00 0. -1.
         22    1    3    3    0    0 -0.18866007927E+00 -0.43167642414E+01 -0.12065763731E+02  0.12816110976E+02  0.00000000000E+00 0. -1.
         22    1    3    3    0    0 -0.15453944567E+01  0.58218348318E+01  0.31294687962E+03  0.31300484256E+03  0.00000000000E+00 0. -1.
</event>
<event>
 7    1  0.6607887E-006  0.1206466E+03  0.7818608E-02  0.1356732E+00
          2   -1    0    0  502    0  0.00000000000E+00  0.00000000000E+00  0.11294366980E+03  0.11294366980E+03  0.00000000000E+00 0. -1.
          1   -1    0    0  501    0 -0.00000000000E+00 -0.00000000000E+00 -0.80073463292E+03  0.80073463292E+03  0.00000000000E+00 0. -1.
         25    2    1    2    0    0  0.79126932803E+02  0.99360523662E+02 -0.42658209577E+03  0.46231160412E+03  0.12500459879E+03 0.  0.
          2    1    1    2  501    0  0.22897477029E+02 -0.34947636046E+02 -0.31607272307E+03  0.31882220435E+03  0.00000000000E+00 0. -1.
          1    1    1    2  502    0 -0.10202440983E+03 -0.64412887616E+02  0.54863855713E+02  0.13254449425E+03  0.00000000000E+00 0. -1.
         22    1    3    3    0    0  0.81920981308E+02  0.74583868836E+02 -0.42282291180E+03  0.43709611690E+03  0.00000000000E+00 0. -1.
         22    1    3    3    0    0 -0.27940485050E+01  0.24776654826E+02 -0.37591839648E+01  0.25215487215E+02  0.00000000000E+00 0. -1.
</event>
<event>
 7    1  0.6607887E-006  0.1417415E+03  0.7818608E-02  0.1322215E+00
          2   -1    0    0  502    0  0.00000000000E+00  0.00000000000E+00  0.82420945627E+03  0.82420945627E+03  0.00000000000E+00 0. -1.
          1   -1    0    0  501    0 -0.00000000000E+00 -0.00000000000E+00 -0.36556486914E+03  0.36556486914E+03  0.00000000000E+00 0. -1.
         25    2    1    2    0    0  0.35560026234E+02  0.10829307355E+03  0.15765452917E+02  0.16989498579E+03  0.12499540570E+03 0.  0.
          2    1    1    2  501    0 -0.84688569255E+01 -0.14788177625E+03 -0.26862631082E+03  0.30675859588E+03  0.00000000000E+00 0. -1.
          1    1    1    2  502    0 -0.27091169308E+02  0.39588702695E+02  0.71150544503E+03  0.71312074374E+03  0.00000000000E+00 0. -1.
         22    1    3    3    0    0  0.69393502419E+02  0.20675275176E+02  0.22246181004E+02  0.75748384477E+02  0.00000000000E+00 0. -1.
         22    1    3    3    0    0 -0.33833476185E+02  0.87617798374E+02 -0.64807280869E+01  0.94146601315E+02  0.00000000000E+00 0. -1.
</event>
<event>
 7    1  0.6607887E-006  0.3092991E+02  0.7818608E-02  0.1632083E+00
          2   -1    0    0  502    0  0.00000000000E+00  0.00000000000E+00  0.25985880958E+03  0.25985880958E+03  0.00000000000E+00 0. -1.
          1   -1    0    0  501    0 -0.00000000000E+00 -0.00000000000E+00 -0.19583198624E+03  0.19583198624E+03  0.00000000000E+00 0. -1.
         25    2    1    2    0    0 -0.37580387502E+02  0.34377680368E+02 -0.13118982787E+03  0.18822712117E+03  0.12499827109E+03 0.  0.
          2    1    1    2  501    0  0.21386472424E+02 -0.16924918689E+02 -0.30258008694E+02  0.40735502519E+02  0.00000000000E+00 0. -1.
          1    1    1    2  502    0  0.16193915078E+02 -0.17452761679E+02  0.22547465991E+03  0.22672817213E+03  0.00000000000E+00 0. -1.
         22    1    3    3    0    0  0.45997911906E+02  0.47719165400E+01 -0.47757574631E+02  0.66478304896E+02  0.00000000000E+00 0. -1.
         22    1    3    3    0    0 -0.83578299407E+02  0.29605763828E+02 -0.83432253243E+02  0.12174881628E+03  0.00000000000E+00 0. -1.
</event>
<event>
 7    1  0.6607887E-006  0.5240625E+02  0.7818608E-02  0.1534219E+00
          2   -1    0    0  502    0  0.00000000000E+00  0.00000000000E+00  0.12637824169E+04  0.12637824169E+04  0.00000000000E+00 0. -1.
          1   -1    0    0  501    0 -0.00000000000E+00 -0.00000000000E+00 -0.63484086107E+03  0.63484086107E+03  0.00000000000E+00 0. -1.
         25    2    1    2    0    0 -0.71253852387E+02 -0.22656265059E+02  0.35130791176E+03  0.38030609923E+03  0.12500024969E+03 0.  0.
          2    1    1    2  501    0  0.25648997476E+02 -0.89022771696E+00 -0.61934240897E+03  0.61987392519E+03  0.00000000000E+00 0. -1.
          1    1    1    2  502    0  0.45604854912E+02  0.23546492776E+02  0.89697605305E+03  0.89844325356E+03  0.00000000000E+00 0. -1.
         22    1    3    3    0    0 -0.31260422184E+02  0.71725863675E+01  0.31956830912E+03  0.32117372897E+03  0.00000000000E+00 0. -1.
         22    1    3    3    0    0 -0.39993430203E+02 -0.29828851427E+02  0.31739602644E+02  0.59132370263E+02  0.00000000000E+00 0. -1.
</event>
<event>
 7    1  0.7925907E-006  0.5013664E+02  0.7818608E-02  0.1448144E+00
          2   -1    0    0  502    0  0.00000000000E+00  0.00000000000E+00  0.23461182229E+04  0.23461182229E+04  0.00000000000E+00 0. -1.
          1   -1    0    0  501    0 -0.00000000000E+00 -0.00000000000E+00 -0.15861528902E+04  0.15861528902E+04  0.00000000000E+00 0. -1.
         25    2    1    2    0    0  0.36731193762E+02 -0.86892174847E+02 -0.49881786247E+02  0.16435362591E+03  0.12499796441E+03 0.  0.
          2    1    1    2  501    0 -0.31906364787E+02  0.38290808659E+02 -0.14783546209E+04  0.14791945738E+04  0.00000000000E+00 0. -1.
          1    1    1    2  502    0 -0.48248289747E+01  0.48601366188E+02  0.22882017399E+04  0.22887229134E+04  0.00000000000E+00 0. -1.
         22    1    3    3    0    0  0.74950039549E+02 -0.48871196048E+02 -0.62304467838E+02  0.10903095406E+03  0.00000000000E+00 0. -1.
         22    1    3    3    0    0 -0.38218845787E+02 -0.38020978798E+02  0.12422681591E+02  0.55322671845E+02  0.00000000000E+00 0. -1.
</event>
<event>
 7    1  0.6607887E-006  0.6535984E+02  0.7818608E-02  0.1402814E+00
          2   -1    0    0  502    0  0.00000000000E+00  0.00000000000E+00  0.44088678551E+03  0.44088678551E+03  0.00000000000E+00 0. -1.
          1   -1    0    0  501    0 -0.00000000000E+00 -0.00000000000E+00 -0.25781127374E+04  0.25781127374E+04  0.00000000000E+00 0. -1.
         25    2    1    2    0    0  0.18422603312E+02  0.10482630725E+03 -0.37071455945E+03  0.40544071459E+03  0.12499976583E+03 0.  0.
          2    1    1    2  501    0  0.16997423419E+02 -0.50147778321E+02 -0.21872074219E+04  0.21878482622E+04  0.00000000000E+00 0. -1.
          1    1    1    2  502    0 -0.35420026730E+02 -0.54678528925E+02  0.42069602948E+03  0.42571054608E+03  0.00000000000E+00 0. -1.
         22    1    3    3    0    0  0.46661807327E+02  0.71082984262E+02 -0.10040037054E+03  0.13156880071E+03  0.00000000000E+00 0. -1.
         22    1    3    3    0    0 -0.28239204016E+02  0.33743322984E+02 -0.27031418891E+03  0.27387191388E+03  0.00000000000E+00 0. -1.
</event>
<event>
 7    1  0.6607887E-006  0.6531629E+02  0.7818608E-02  0.1413276E+00
          2   -1    0    0  502    0  0.00000000000E+00  0.00000000000E+00  0.32708845814E+03  0.32708845814E+03  0.00000000000E+00 0. -1.
          1   -1    0    0  501    0 -0.00000000000E+00 -0.00000000000E+00 -0.43186110951E+04  0.43186110951E+04  0.00000000000E+00 0. -1.
         25    2    1    2    0    0 -0.17571607742E+02  0.50068104670E+01 -0.32573460142E+02  0.13046190002E+03  0.12500178999E+03 0.  0.
          2    1    1    2  501    0  0.65386244427E+02  0.48519015845E+01 -0.42346954193E+04  0.42352029699E+04  0.00000000000E+00 0. -1.
          1    1    1    2  502    0 -0.47814636685E+02 -0.98587120515E+01  0.27574624243E+03  0.28003468338E+03  0.00000000000E+00 0. -1.
         22    1    3    3    0    0 -0.41894183837E+02  0.29357133736E+02 -0.65311599860E+02  0.82961250092E+02  0.00000000000E+00 0. -1.
         22    1    3    3    0    0  0.24322576095E+02 -0.24350323269E+02  0.32738139717E+02  0.47500649926E+02  0.00000000000E+00 0. -1.
</event>
<event>
 7    1  0.6607887E-006  0.1074049E+03  0.7818608E-02  0.1307786E+00
          2   -1    0    0  502    0  0.00000000000E+00  0.00000000000E+00  0.62212763501E+03  0.62212763501E+03  0.00000000000E+00 0. -1.
          1   -1    0    0  501    0 -0.00000000000E+00 -0.00000000000E+00 -0.78600057215E+03  0.78600057215E+03  0.00000000000E+00 0. -1.
         25    2    1    2    0    0 -0.47965845112E+02 -0.77960831856E+00 -0.86188846786E+02  0.15923461042E+03  0.12500325500E+03 0.  0.
          2    1    1    2  501    0  0.11067259552E+03 -0.34784116924E+02 -0.65596102157E+03  0.66614054073E+03  0.00000000000E+00 0. -1.
          1    1    1    2  502    0 -0.62706750411E+02  0.35563725242E+02  0.57827693121E+03  0.58275305600E+03  0.00000000000E+00 0. -1.
         22    1    3    3    0    0 -0.36899836878E+01  0.42159707619E+02  0.11363311269E+02  0.43819878698E+02  0.00000000000E+00 0.  1.
         22    1    3    3    0    0 -0.44275861424E+02 -0.42939315938E+02 -0.97552158055E+02  0.11541473173E+03  0.00000000000E+00 0.  1.
</event>
<event>
 7    1  0.6607887E-006  0.6668446E+02  0.7818608E-02  0.1380528E+00
          2   -1    0    0  502    0  0.00000000000E+00  0.00000000000E+00  0.15194155522E+03  0.15194155522E+03  0.00000000000E+00 0. -1.
          1   -1    0    0  501    0 -0.00000000000E+00 -0.00000000000E+00 -0.11503005710E+04  0.11503005710E+04  0.00000000000E+00 0. -1.
         25    2    1    2    0    0 -0.86536955322E+02  0.43793195578E+02 -0.16824811434E+03  0.23095273037E+03  0.12500098827E+03 0.  0.
          2    1    1    2  501    0  0.26826426181E+02 -0.60668910795E+02 -0.94147318785E+03  0.94380725645E+03  0.00000000000E+00 0. -1.
          1    1    1    2  502    0  0.59710529142E+02  0.16875715217E+02  0.11136228637E+03  0.12748213945E+03  0.00000000000E+00 0. -1.
         22    1    3    3    0    0  0.24747408773E+02  0.95344846176E+01 -0.21753852960E+00  0.26521462270E+02  0.00000000000E+00 0.  1.
         22    1    3    3    0    0 -0.11128436410E+03  0.34258710960E+02 -0.16803057581E+03  0.20443126810E+03  0.00000000000E+00 0.  1.
</event>
<event>
 7    1  0.6607887E-006  0.1398462E+03  0.7818608E-02  0.1340931E+00
          2   -1    0    0  502    0  0.00000000000E+00  0.00000000000E+00  0.28210344828E+03  0.28210344828E+03  0.00000000000E+00 0. -1.
          1   -1    0    0  501    0 -0.00000000000E+00 -0.00000000000E+00 -0.11660473966E+04  0.11660473966E+04  0.00000000000E+00 0. -1.
         25    2    1    2    0    0  0.14712404387E+02 -0.17627962397E+03 -0.15709328834E+03  0.26757172165E+03  0.12500145726E+03 0.  0.
          2    1    1    2  501    0 -0.19032775390E+02  0.13524991827E+03 -0.94689792003E+03  0.95669768365E+03  0.00000000000E+00 0. -1.
          1    1    1    2  502    0  0.43203710025E+01  0.41029705697E+02  0.22004726002E+03  0.22388143960E+03  0.00000000000E+00 0. -1.
         22    1    3    3    0    0 -0.48746181839E+02 -0.12593985360E+03 -0.10737666881E+03  0.17253053635E+03  0.00000000000E+00 0.  1.
         22    1    3    3    0    0  0.63458586226E+02 -0.50339770371E+02 -0.49716619529E+02  0.95041185305E+02  0.00000000000E+00 0.  1.
</event>
<event>
 7    1  0.6607887E-006  0.6398044E+02  0.7818608E-02  0.1429922E+00
          2   -1    0    0  502    0  0.00000000000E+00  0.00000000000E+00  0.79477292724E+03  0.79477292724E+03  0.00000000000E+00 0. -1.
          1   -1    0    0  501    0 -0.00000000000E+00 -0.00000000000E+00 -0.87815226246E+03  0.87815226246E+03  0.00000000000E+00 0. -1.
         25    2    1    2    0    0  0.40877254540E+01  0.30211296884E+02 -0.32976445725E+03  0.35397388525E+03  0.12499392870E+03 0.  0.
          2    1    1    2  501    0  0.16696394092E+02 -0.68838206507E+02 -0.53332498360E+03  0.53800837018E+03  0.00000000000E+00 0. -1.
          1    1    1    2  502    0 -0.20784119546E+02  0.38626909622E+02  0.77971010563E+03  0.78094293428E+03  0.00000000000E+00 0. -1.
         22    1    3    3    0    0  0.23889069979E+01  0.74052962398E+02 -0.26905307677E+03  0.27906828239E+03  0.00000000000E+00 0. -1.
         22    1    3    3    0    0  0.16988184561E+01 -0.43841665514E+02 -0.60711380477E+02  0.74905602852E+02  0.00000000000E+00 0. -1.
</event>
<event>
 7    1  0.6607887E-006  0.5318631E+02  0.7818608E-02  0.1455369E+00
          2   -1    0    0  502    0  0.00000000000E+00  0.00000000000E+00  0.37229290651E+04  0.37229290651E+04  0.00000000000E+00 0. -1.
          1   -1    0    0  501    0 -0.00000000000E+00 -0.00000000000E+00 -0.23705508555E+02  0.23705508555E+02  0.00000000000E+00 0. -1.
         25    2    1    2    0    0 -0.78851314379E+02 -0.40685175619E+02  0.26548699178E+04  0.26592921264E+04  0.12501007686E+03 0.  0.
          2    1    1    2  501    0  0.37184016700E+02  0.22878753934E+02  0.16866748090E+01  0.43691341836E+02  0.00000000000E+00 0. -1.
          1    1    1    2  502    0  0.41667297679E+02  0.17806421684E+02  0.10426669639E+04  0.10436511055E+04  0.00000000000E+00 0. -1.
         22    1    3    3    0    0 -0.89051971801E+02  0.19086995314E+02  0.14012265297E+04  0.14041831627E+04  0.00000000000E+00 0.  1.
         22    1    3    3    0    0  0.10200657421E+02 -0.59772170933E+02  0.12536433882E+04  0.12551089636E+04  0.00000000000E+00 0.  1.
</event>
<event>
 7    1  0.6607887E-006  0.4504404E+02  0.7818608E-02  0.1535553E+00
          2   -1    0    0  502    0  0.00000000000E+00  0.00000000000E+00  0.10852621318E+04  0.10852621318E+04  0.00000000000E+00 0. -1.
          1   -1    0    0  501    0 -0.00000000000E+00 -0.00000000000E+00 -0.24713646009E+02  0.24713646009E+02  0.00000000000E+00 0. -1.
         25    2    1    2    0    0 -0.15243609037E+02 -0.23643972703E+02  0.21301153507E+03  0.24857516411E+03  0.12499717227E+03 0.  0.
          2    1    1    2  501    0  0.43880322652E+02  0.31130706472E+02  0.10237818809E+03  0.11565421306E+03  0.00000000000E+00 0. -1.
          1    1    1    2  502    0 -0.28636713615E+02 -0.74867337693E+01  0.74515876265E+03  0.74574640067E+03  0.00000000000E+00 0. -1.
         22    1    3    3    0    0  0.53238826024E+02 -0.25977119257E+02  0.10813786048E+03  0.12330036573E+03  0.00000000000E+00 0.  1.
         22    1    3    3    0    0 -0.68482435061E+02  0.23331465538E+01  0.10487367459E+03  0.12527479837E+03  0.00000000000E+00 0.  1.
</event>
<event>
 7    1  0.6607887E-006  0.3829264E+02  0.7818608E-02  0.1563752E+00
          2   -1    0    0  502    0  0.00000000000E+00  0.00000000000E+00  0.10750223844E+04  0.10750223844E+04  0.00000000000E+00 0. -1.
          1   -1    0    0  501    0 -0.00000000000E+00 -0.00000000000E+00 -0.41294552686E+03  0.41294552686E+03  0.00000000000E+00 0. -1.
         25    2    1    2    0    0 -0.11701916497E+02 -0.14192438472E+02  0.27034660537E+03  0.29841237881E+03  0.12499720250E+03 0.  0.
          2    1    1    2  501    0 -0.27241835776E+02  0.10080046746E+02 -0.39789800684E+03  0.39895682574E+03  0.00000000000E+00 0. -1.
          1    1    1    2  502    0  0.38943752274E+02  0.41123917260E+01  0.78962825897E+03  0.79059870665E+03  0.00000000000E+00 0. -1.
         22    1    3    3    0    0 -0.23423271430E+01 -0.27739836486E+02  0.27860427573E+03  0.27999165609E+03  0.00000000000E+00 0. -1.
         22    1    3    3    0    0 -0.93595893543E+01  0.13547398014E+02 -0.82576703584E+01  0.18420722721E+02  0.00000000000E+00 0. -1.
</event>
<event>
 7    1  0.6607887E-006  0.1594970E+03  0.7818608E-02  0.1244053E+00
          2   -1    0    0  502    0  0.00000000000E+00  0.00000000000E+00  0.28681223073E+04  0.28681223073E+04  0.00000000000E+00 0. -1.
          1   -1    0    0  501    0 -0.00000000000E+00 -0.00000000000E+00 -0.20555194477E+03  0.20555194477E+03  0.00000000000E+00 0. -1.
         25    2    1    2    0    0 -0.22373782407E+02 -0.72468143699E+02  0.10910831822E+03  0.18242931752E+03  0.12499445106E+03 0.  0.
          2    1    1    2  501    0 -0.24059279811E+02 -0.86118779443E+02 -0.15435864642E+03  0.17838689650E+03  0.00000000000E+00 0. -1.
          1    1    1    2  502    0  0.46433062219E+02  0.15858692314E+03  0.27078206907E+04  0.27128580380E+04  0.00000000000E+00 0. -1.
         22    1    3    3    0    0  0.21812163088E+02 -0.94388813963E+02  0.72925053567E+02  0.12125626622E+03  0.00000000000E+00 0. -1.
         22    1    3    3    0    0 -0.44185945496E+02  0.21920670264E+02  0.36183264650E+02  0.61173051296E+02  0.00000000000E+00 0. -1.
</event>
<event>
 7    1  0.6607887E-006  0.1087549E+03  0.7818608E-02  0.1326658E+00
          2   -1    0    0  502    0  0.00000000000E+00  0.00000000000E+00  0.20381489012E+04  0.20381489012E+04  0.00000000000E+00 0. -1.
          1   -1    0    0  501    0 -0.00000000000E+00 -0.00000000000E+00 -0.24836569173E+04  0.24836569173E+04  0.00000000000E+00 0. -1.
         25    2    1    2    0    0 -0.82375095862E+02 -0.14584482303E+03  0.44383492833E+02  0.21366122306E+03  0.12499941993E+03 0.  0.
          2    1    1    2  501    0  0.25225538828E+02  0.54554409270E+02 -0.23971220358E+04  0.23978754275E+04  0.00000000000E+00 0. -1.
          1    1    1    2  502    0  0.57149557034E+02  0.91290413760E+02  0.19072305268E+04  0.19102691679E+04  0.00000000000E+00 0. -1.
         22    1    3    3    0    0  0.29363683991E+02 -0.62261970748E+02  0.22450322693E+02  0.72407153845E+02  0.00000000000E+00 0.  1.
         22    1    3    3    0    0 -0.11173877985E+03 -0.83582852283E+02  0.21933170139E+02  0.14125406922E+03  0.00000000000E+00 0.  1.
</event>
<event>
 7    1  0.6607887E-006  0.7755268E+02  0.7818608E-02  0.1374291E+00
          2   -1    0    0  502    0  0.00000000000E+00  0.00000000000E+00  0.88873188832E+02  0.88873188832E+02  0.00000000000E+00 0. -1.
          1   -1    0    0  501    0 -0.00000000000E+00 -0.00000000000E+00 -0.30878857487E+03  0.30878857487E+03  0.00000000000E+00 0. -1.
         25    2    1    2    0    0 -0.13627958323E+02  0.33798632024E+02 -0.13692776124E+03  0.18895097434E+03  0.12500076052E+03 0.  0.
          2    1    1    2  501    0 -0.62904744295E+02 -0.46335100723E+02 -0.10236569372E+03  0.12877376932E+03  0.00000000000E+00 0. -1.
          1    1    1    2  502    0  0.76532702619E+02  0.12536468699E+02  0.19378068925E+02  0.79937020040E+02  0.00000000000E+00 0. -1.
         22    1    3    3    0    0  0.46694007942E+02  0.15514939339E+02 -0.14576364507E+02  0.51317775893E+02  0.00000000000E+00 0.  1.
         22    1    3    3    0    0 -0.60321966265E+02  0.18283692685E+02 -0.12235139673E+03  0.13763319845E+03  0.00000000000E+00 0.  1.
</event>
<event>
 7    1  0.6607887E-006  0.9008875E+02  0.7818608E-02  0.1425988E+00
          2   -1    0    0  502    0  0.00000000000E+00  0.00000000000E+00  0.60685529889E+03  0.60685529889E+03  0.00000000000E+00 0. -1.
          1   -1    0    0  501    0 -0.00000000000E+00 -0.00000000000E+00 -0.18534555767E+03  0.18534555767E+03  0.00000000000E+00 0. -1.
         25    2    1    2    0    0  0.73608091125E+02 -0.45977596247E+01  0.22391646249E+03  0.26684094849E+03  0.12500487648E+03 0.  0.
          2    1    1    2  501    0 -0.84187256407E+02  0.34901672883E+02 -0.15041740826E+03  0.17587216272E+03  0.00000000000E+00 0. -1.
          1    1    1    2  502    0  0.10579165282E+02 -0.30303913258E+02  0.34801068698E+03  0.34948774535E+03  0.00000000000E+00 0. -1.
         22    1    3    3    0    0  0.48577502862E+02  0.27966053268E+02  0.21830607074E+03  0.22538725439E+03  0.00000000000E+00 0. -1.
         22    1    3    3    0    0  0.25030588263E+02 -0.32563812893E+02  0.56103917510E+01  0.41453694100E+02  0.00000000000E+00 0. -1.
</event>
<event>
 7    1  0.6607887E-006  0.6342452E+02  0.7818608E-02  0.1399568E+00
          2   -1    0    0  502    0  0.00000000000E+00  0.00000000000E+00  0.12689127110E+03  0.12689127110E+03  0.00000000000E+00 0. -1.
          1   -1    0    0  501    0 -0.00000000000E+00 -0.00000000000E+00 -0.12613915021E+04  0.12613915021E+04  0.00000000000E+00 0. -1.
         25    2    1    2    0    0  0.89905342908E+02 -0.31235753210E+02 -0.55750770892E+02  0.16672040428E+03  0.12501560617E+03 0.  0.
          2    1    1    2  501    0 -0.60941530777E+02 -0.16673316341E+02 -0.11381704300E+04  0.11399227155E+04  0.00000000000E+00 0. -1.
          1    1    1    2  502    0 -0.28963812131E+02  0.47909069551E+02  0.59420969840E+02  0.81639653448E+02  0.00000000000E+00 0. -1.
         22    1    3    3    0    0  0.51239657714E+02  0.63823339369E+01 -0.89328189163E+02  0.10317830241E+03  0.00000000000E+00 0. -1.
         22    1    3    3    0    0  0.38665685193E+02 -0.37618087147E+02  0.33577418270E+02  0.63542101868E+02  0.00000000000E+00 0. -1.
</event>
<event>
 7    1  0.6607887E-006  0.1266177E+03  0.7818608E-02  0.1347544E+00
          2   -1    0    0  502    0  0.00000000000E+00  0.00000000000E+00  0.23950016432E+03  0.23950016432E+03  0.00000000000E+00 0. -1.
          1   -1    0    0  501    0 -0.00000000000E+00 -0.00000000000E+00 -0.13336536117E+04  0.13336536117E+04  0.00000000000E+00 0. -1.
         25    2    1    2    0    0  0.63499166204E+02 -0.12030108819E+03 -0.15715475754E+03  0.24254274149E+03  0.12499947082E+03 0.  0.
          2    1    1    2  501    0 -0.20675343196E+02  0.12466626365E+03 -0.11278795348E+04  0.11349367348E+04  0.00000000000E+00 0. -1.
          1    1    1    2  502    0 -0.42823823008E+02 -0.43651754546E+01  0.19088084496E+03  0.19567429966E+03  0.00000000000E+00 0. -1.
         22    1    3    3    0    0  0.54124461601E+02 -0.45953470001E+02 -0.15159746782E+03  0.16740063022E+03  0.00000000000E+00 0.  1.
         22    1    3    3    0    0  0.93747046032E+01 -0.74347618192E+02 -0.55572897131E+01  0.75142111270E+02  0.00000000000E+00 0.  1.
</event>
<event>
 7    1  0.6607887E-006  0.2489945E+03  0.7818608E-02  0.1300215E+00
          2   -1    0    0  502    0  0.00000000000E+00  0.00000000000E+00  0.87929295314E+03  0.87929295314E+03  0.00000000000E+00 0. -1.
          1   -1    0    0  501    0 -0.00000000000E+00 -0.00000000000E+00 -0.16874616854E+04  0.16874616854E+04  0.00000000000E+00 0. -1.
         25    2    1    2    0    0  0.13718698916E+03 -0.16918565995E+03 -0.13817702563E+04  0.14044067004E+04  0.12500032568E+03 0.  0.
          2    1    1    2  501    0  0.28575596659E+02 -0.17154171144E+02 -0.27543265142E+03  0.27744184216E+03  0.00000000000E+00 0. -1.
          1    1    1    2  502    0 -0.16576258582E+03  0.18633983109E+03  0.84903417549E+03  0.88490609596E+03  0.00000000000E+00 0. -1.
         22    1    3    3    0    0 -0.23191501554E+01 -0.22291308774E+02 -0.29507744391E+02  0.37053851127E+02  0.00000000000E+00 0.  1.
         22    1    3    3    0    0  0.13950613932E+03 -0.14689435117E+03 -0.13522625119E+04  0.13673528493E+04  0.00000000000E+00 0.  1.
</event>
<event>
 7    1  0.6607887E-006  0.4477781E+02  0.7818608E-02  0.1477998E+00
          2   -1    0    0  502    0  0.00000000000E+00  0.00000000000E+00  0.88338278918E+03  0.88338278918E+03  0.00000000000E+00 0. -1.
          1   -1    0    0  501    0 -0.00000000000E+00 -0.00000000000E+00 -0.10764878624E+03  0.10764878624E+03  0.00000000000E+00 0. -1.
         25    2    1    2    0    0  0.11256923961E+02  0.92842071498E+01  0.67044756187E+02  0.14259379874E+03  0.12500030907E+03 0.  0.
          2    1    1    2  501    0 -0.30191915865E+02  0.32094992523E+02 -0.62189022937E+02  0.76217549833E+02  0.00000000000E+00 0. -1.
          1    1    1    2  502    0  0.18934991904E+02 -0.41379199673E+02  0.77087826969E+03  0.77222022685E+03  0.00000000000E+00 0. -1.
         22    1    3    3    0    0 -0.53098220070E+02  0.26140505037E+02  0.34913092324E+02  0.68714416201E+02  0.00000000000E+00 0. -1.
         22    1    3    3    0    0  0.64355144031E+02 -0.16856297887E+02  0.32131663863E+02  0.73879382539E+02  0.00000000000E+00 0. -1.
</event>
<event>
 7    1  0.6607887E-006  0.5716952E+02  0.7818608E-02  0.1412769E+00
          2   -1    0    0  502    0  0.00000000000E+00  0.00000000000E+00  0.40502157210E+03  0.40502157210E+03  0.00000000000E+00 0. -1.
          1   -1    0    0  501    0 -0.00000000000E+00 -0.00000000000E+00 -0.12414671546E+04  0.12414671546E+04  0.00000000000E+00 0. -1.
         25    2    1    2    0    0 -0.95990047996E+02 -0.10991211447E+02 -0.18435479273E+03  0.24278887943E+03  0.12499941732E+03 0.  0.
          2    1    1    2  501    0  0.50789824631E+02 -0.23582666736E+02 -0.10249723407E+04  0.10265008756E+04  0.00000000000E+00 0. -1.
          1    1    1    2  502    0  0.45200223365E+02  0.34573878183E+02  0.37288155089E+03  0.37719897168E+03  0.00000000000E+00 0. -1.
         22    1    3    3    0    0 -0.10931351002E+03  0.30344263513E+02 -0.11986556248E+03  0.16503930098E+03  0.00000000000E+00 0. -1.
         22    1    3    3    0    0  0.13323462024E+02 -0.41335474959E+02 -0.64489230257E+02  0.77749578452E+02  0.00000000000E+00 0. -1.
</event>
<event>
 7    1  0.6607887E-006  0.7109722E+02  0.7818608E-02  0.1449416E+00
          2   -1    0    0  502    0  0.00000000000E+00  0.00000000000E+00  0.27483079219E+03  0.27483079219E+03  0.00000000000E+00 0. -1.
          1   -1    0    0  501    0 -0.00000000000E+00 -0.00000000000E+00 -0.71717869720E+03  0.71717869720E+03  0.00000000000E+00 0. -1.
         25    2    1    2    0    0 -0.33859946682E+02 -0.24727107413E+02  0.19085422681E+02  0.13321691852E+03  0.12499827275E+03 0.  0.
          2    1    1    2  501    0  0.43042632782E+02  0.57587590925E+02 -0.65667148589E+03  0.66059551864E+03  0.00000000000E+00 0. -1.
          1    1    1    2  502    0 -0.91826860995E+01 -0.32860483512E+02  0.19523815819E+03  0.19819705224E+03  0.00000000000E+00 0. -1.
         22    1    3    3    0    0  0.38445333764E+02 -0.39072526228E+02  0.22893838547E+02  0.59403988397E+02  0.00000000000E+00 0. -1.
         22    1    3    3    0    0 -0.72305280446E+02  0.14345418815E+02 -0.38084158657E+01  0.73812930119E+02  0.00000000000E+00 0. -1.
</event>
<event>
 7    1  0.6607887E-006  0.6325893E+02  0.7818608E-02  0.1432456E+00
          2   -1    0    0  502    0  0.00000000000E+00  0.00000000000E+00  0.24544496537E+03  0.24544496537E+03  0.00000000000E+00 0. -1.
          1   -1    0    0  501    0 -0.00000000000E+00 -0.00000000000E+00 -0.82968248384E+03  0.82968248384E+03  0.00000000000E+00 0. -1.
         25    2    1    2    0    0 -0.68034585667E+02 -0.48113164272E+02 -0.98965022360E+02  0.17989356129E+03  0.12499614522E+03 0.  0.
          2    1    1    2  501    0  0.52739422146E+01  0.43200520321E+02 -0.68471255447E+03  0.68609429503E+03  0.00000000000E+00 0. -1.
          1    1    1    2  502    0  0.62760643452E+02  0.49126439511E+01  0.19944005836E+03  0.20913959289E+03  0.00000000000E+00 0. -1.
         22    1    3    3    0    0  0.20440367913E+02  0.22199212251E+02 -0.46172663369E+02  0.55159119895E+02  0.00000000000E+00 0. -1.
         22    1    3    3    0    0 -0.88474953580E+02 -0.70312376523E+02 -0.52792358991E+02  0.12473444140E+03  0.00000000000E+00 0. -1.
</event>
<event>
 7    1  0.6607887E-006  0.1813961E+03  0.7818608E-02  0.1214256E+00
          2   -1    0    0  502    0  0.00000000000E+00  0.00000000000E+00  0.21479058827E+04  0.21479058827E+04  0.00000000000E+00 0. -1.
          1   -1    0    0  501    0 -0.00000000000E+00 -0.00000000000E+00 -0.19222110813E+04  0.19222110813E+04  0.00000000000E+00 0. -1.
         25    2    1    2    0    0  0.24042208728E+03 -0.12725334582E+03  0.24522343439E+02  0.30037883709E+03  0.12501962396E+03 0.  0.
          2    1    1    2  501    0 -0.17370554076E+03  0.43607773399E+02 -0.17783403394E+04  0.17873358989E+04  0.00000000000E+00 0. -1.
          1    1    1    2  502    0 -0.66716546522E+02  0.83645572416E+02  0.19795127973E+04  0.19824022281E+04  0.00000000000E+00 0. -1.
         22    1    3    3    0    0  0.19277649148E+03 -0.14912173496E+03  0.30855634853E+01  0.24374082179E+03  0.00000000000E+00 0. -1.
         22    1    3    3    0    0  0.47645595795E+02  0.21868389146E+02  0.21436779954E+02  0.56638015302E+02  0.00000000000E+00 0. -1.
</event>
<event>
 7    1  0.6607887E-006  0.1317471E+03  0.7818608E-02  0.1378188E+00
          2   -1    0    0  502    0  0.00000000000E+00  0.00000000000E+00  0.57437912856E+03  0.57437912856E+03  0.00000000000E+00 0. -1.
          1   -1    0    0  501    0 -0.00000000000E+00 -0.00000000000E+00 -0.45542719099E+03  0.45542719099E+03  0.00000000000E+00 0. -1.
         25    2    1    2    0    0 -0.11237861550E+02 -0.13878987334E+03  0.29331521738E+02  0.18940388935E+03  0.12499830662E+03 0.  0.
          2    1    1    2  501    0 -0.28878327287E+02  0.13814019890E+02 -0.36541499300E+03  0.36681453357E+03  0.00000000000E+00 0. -1.
          1    1    1    2  502    0  0.40116188837E+02  0.12497585345E+03  0.45503540882E+03  0.47358789663E+03  0.00000000000E+00 0. -1.
         22    1    3    3    0    0 -0.11557280395E+02 -0.16242793873E+03  0.20307912452E+02  0.16410002229E+03  0.00000000000E+00 0. -1.
         22    1    3    3    0    0  0.31941884534E+00  0.23638065381E+02  0.90236092858E+01  0.25303867054E+02  0.00000000000E+00 0. -1.
</event>
<event>
 7    1  0.6607887E-006  0.7694575E+02  0.7818608E-02  0.1378601E+00
          2   -1    0    0  502    0  0.00000000000E+00  0.00000000000E+00  0.53530597304E+03  0.53530597304E+03  0.00000000000E+00 0. -1.
          1   -1    0    0  501    0 -0.00000000000E+00 -0.00000000000E+00 -0.14184381606E+03  0.14184381606E+03  0.00000000000E+00 0. -1.
         25    2    1    2    0    0  0.27928493006E+02 -0.12368671600E+03  0.12731964705E+03  0.21889622073E+03  0.12500743373E+03 0.  0.
          2    1    1    2  501    0 -0.93875814804E+01  0.72302594630E+02 -0.79761092900E+02  0.10806305482E+03  0.00000000000E+00 0. -1.
          1    1    1    2  502    0 -0.18540911525E+02  0.51384121372E+02  0.34590360283E+03  0.35019051355E+03  0.00000000000E+00 0. -1.
         22    1    3    3    0    0  0.48390408310E+02 -0.14215981864E+03  0.11218860696E+03  0.18744953770E+03  0.00000000000E+00 0. -1.
         22    1    3    3    0    0 -0.20461915305E+02  0.18473102641E+02  0.15131040090E+02  0.31446683026E+02  0.00000000000E+00 0. -1.
</event>
<event>
 7    1  0.9361878E-006  0.5584651E+02  0.7818608E-02  0.1471924E+00
          2   -1    0    0  502    0  0.00000000000E+00  0.00000000000E+00  0.13939128405E+04  0.13939128405E+04  0.00000000000E+00 0. -1.
          1   -1    0    0  501    0 -0.00000000000E+00 -0.00000000000E+00 -0.12037796019E+04  0.12037796019E+04  0.00000000000E+00 0. -1.
         25    2    1    2    0    0  0.25075258978E+02 -0.35109295030E-01 -0.11480168134E+03  0.17156082332E+03  0.12499968086E+03 0.  0.
          2    1    1    2  501    0 -0.49664808972E+02 -0.27465209673E+02 -0.10595896532E+04  0.10611084602E+04  0.00000000000E+00 0. -1.
          1    1    1    2  502    0  0.24589549994E+02  0.27500318968E+02  0.13645245731E+04  0.13650231589E+04  0.00000000000E+00 0. -1.
         22    1    3    3    0    0 -0.50532071191E+02 -0.88880758187E+01 -0.43688239340E+02  0.67388058047E+02  0.00000000000E+00 0. -1.
         22    1    3    3    0    0  0.75607330169E+02  0.88529665237E+01 -0.71113441995E+02  0.10417276527E+03  0.00000000000E+00 0. -1.
</event>
<event>
 7    1  0.6607887E-006  0.1951546E+03  0.7818608E-02  0.1246269E+00
          2   -1    0    0  502    0  0.00000000000E+00  0.00000000000E+00  0.62727874833E+03  0.62727874833E+03  0.00000000000E+00 0. -1.
          1   -1    0    0  501    0 -0.00000000000E+00 -0.00000000000E+00 -0.24071744180E+04  0.24071744180E+04  0.00000000000E+00 0. -1.
         25    2    1    2    0    0 -0.49573279735E+01  0.24393859274E+03 -0.14194680365E+02  0.27451265381E+03  0.12500038408E+03 0.  0.
          2    1    1    2  501    0 -0.39475913946E+02 -0.59574159346E+02 -0.22441447380E+04  0.22452823950E+04  0.00000000000E+00 0. -1.
          1    1    1    2  502    0  0.44433241920E+02 -0.18436443340E+03  0.47844374868E+03  0.51465811753E+03  0.00000000000E+00 0. -1.
         22    1    3    3    0    0 -0.15580372249E+02  0.11720850047E+02 -0.36093591957E+02  0.41022843705E+02  0.00000000000E+00 0. -1.
         22    1    3    3    0    0  0.10623044275E+02  0.23221774270E+03  0.21898911593E+02  0.23348981010E+03  0.00000000000E+00 0. -1.
</event>
<event>
 7    1  0.6607887E-006  0.3027051E+03  0.7818608E-02  0.1275311E+00
          2   -1    0    0  502    0  0.00000000000E+00  0.00000000000E+00  0.14210750243E+03  0.14210750243E+03  0.00000000000E+00 0. -1.
          1   -1    0    0  501    0 -0.00000000000E+00 -0.00000000000E+00 -0.20899832853E+04  0.20899832853E+04  0.00000000000E+00 0. -1.
         25    2    1    2    0    0 -0.30500959661E+03  0.69245641242E+01 -0.13783786680E+04  0.14172620350E+04  0.12500047964E+03 0.  0.
          2    1    1    2  501    0  0.52055729999E+01  0.34252864871E+02 -0.50401767982E+03  0.50520706479E+03  0.00000000000E+00 0. -1.
          1    1    1    2  502    0  0.29980402361E+03 -0.41177428995E+02 -0.65479435102E+02  0.30962168796E+03  0.00000000000E+00 0. -1.
         22    1    3    3    0    0 -0.27013631887E+03  0.20446042954E+01 -0.95650519121E+03  0.99392152205E+03  0.00000000000E+00 0. -1.
         22    1    3    3    0    0 -0.34873277744E+02  0.48799598287E+01 -0.42187347678E+03  0.42334051297E+03  0.00000000000E+00 0. -1.
</event>
<event>
 7    1  0.6607887E-006  0.9151873E+02  0.7818608E-02  0.1430201E+00
          2   -1    0    0  502    0  0.00000000000E+00  0.00000000000E+00  0.16409521420E+03  0.16409521420E+03  0.00000000000E+00 0. -1.
          1   -1    0    0  501    0 -0.00000000000E+00 -0.00000000000E+00 -0.20861090019E+04  0.20861090019E+04  0.00000000000E+00 0. -1.
         25    2    1    2    0    0  0.63248996844E+01  0.62957908896E+02 -0.27690418100E+03  0.31032933177E+03  0.12499866421E+03 0.  0.
          2    1    1    2  501    0 -0.61005583425E+01  0.29985943396E+02 -0.17776940972E+04  0.17779574452E+04  0.00000000000E+00 0. -1.
          1    1    1    2  502    0 -0.22434134193E+00 -0.92943852293E+02  0.13258449046E+03  0.16191743921E+03  0.00000000000E+00 0. -1.
         22    1    3    3    0    0  0.41466944747E+00 -0.32448602125E+02 -0.13765238733E+03  0.14142582320E+03  0.00000000000E+00 0.  1.
         22    1    3    3    0    0  0.59102302370E+01  0.95406511021E+02 -0.13925179367E+03  0.16890350857E+03  0.00000000000E+00 0.  1.
</event>
<event>
 7    1  0.6607887E-006  0.6967125E+02  0.7818608E-02  0.1421139E+00
          2   -1    0    0  502    0  0.00000000000E+00  0.00000000000E+00  0.20948253620E+04  0.20948253620E+04  0.00000000000E+00 0. -1.
          1   -1    0    0  501    0 -0.00000000000E+00 -0.00000000000E+00 -0.15619246837E+02  0.15619246837E+02  0.00000000000E+00 0. -1.
         25    2    1    2    0    0  0.47156433838E+02 -0.31535498749E+02  0.15986689752E+04  0.16045513369E+04  0.12499713464E+03 0.  0.
          2    1    1    2  501    0  0.13210844393E+02 -0.40996634384E+02  0.54166151005E+02  0.69204207640E+02  0.00000000000E+00 0. -1.
          1    1    1    2  502    0 -0.60367278231E+02  0.72532133133E+02  0.42637098894E+03  0.43668906424E+03  0.00000000000E+00 0. -1.
         22    1    3    3    0    0 -0.14793579503E+02  0.50842540230E+01  0.26765937048E+02  0.31001855098E+02  0.00000000000E+00 0.  1.
         22    1    3    3    0    0  0.61950013341E+02 -0.36619752772E+02  0.15719030381E+04  0.15735494818E+04  0.00000000000E+00 0.  1.
</event>
<event>
 7    1  0.6607887E-006  0.1871421E+03  0.7818608E-02  0.1190502E+00
          2   -1    0    0  502    0  0.00000000000E+00  0.00000000000E+00  0.15590672415E+04  0.15590672415E+04  0.00000000000E+00 0. -1.
          1   -1    0    0  501    0 -0.00000000000E+00 -0.00000000000E+00 -0.40053023610E+03  0.40053023610E+03  0.00000000000E+00 0. -1.
         25    2    1    2    0    0 -0.17806879672E+03 -0.20321061973E+03  0.73699078421E+03  0.79484802457E+03  0.12499965524E+03 0.  0.
          2    1    1    2  501    0  0.46065163337E+02  0.17963828070E+03 -0.34225393812E+03  0.38926812009E+03  0.00000000000E+00 0. -1.
          1    1    1    2  502    0  0.13200363338E+03  0.23572339028E+02  0.76380015927E+03  0.77548133291E+03  0.00000000000E+00 0. -1.
         22    1    3    3    0    0 -0.88651595968E+02 -0.78880228984E+02  0.16850151810E+03  0.20609210949E+03  0.00000000000E+00 0. -1.
         22    1    3    3    0    0 -0.89417200748E+02 -0.12433039074E+03  0.56848926612E+03  0.58875591508E+03  0.00000000000E+00 0. -1.
</event>
<event>
 7    1  0.6607887E-006  0.8337081E+02  0.7818608E-02  0.1387205E+00
          2   -1    0    0  502    0  0.00000000000E+00  0.00000000000E+00  0.86317338312E+03  0.86317338312E+03  0.00000000000E+00 0. -1.
          1   -1    0    0  501    0 -0.00000000000E+00 -0.00000000000E+00 -0.39793857107E+03  0.39793857107E+03  0.00000000000E+00 0. -1.
         25    2    1    2    0    0  0.12505788493E+02 -0.98139499539E+02  0.39081775928E+02  0.16413316564E+03  0.12499821894E+03 0.  0.
          2    1    1    2  501    0 -0.48311894045E+02  0.67671044417E+02 -0.32951815274E+03  0.33984646878E+03  0.00000000000E+00 0. -1.
          1    1    1    2  502    0  0.35806105552E+02  0.30468455123E+02  0.75567118887E+03  0.75713231977E+03  0.00000000000E+00 0. -1.
         22    1    3    3    0    0 -0.34842797714E+02  0.74321569158E+01 -0.12085779998E+02  0.37620786636E+02  0.00000000000E+00 0.  1.
         22    1    3    3    0    0  0.47348586207E+02 -0.10557165646E+03  0.51167555926E+02  0.12651237901E+03  0.00000000000E+00 0.  1.
</event>
<event>
 7    1  0.6607887E-006  0.6502169E+02  0.7818608E-02  0.1447637E+00
          2   -1    0    0  502    0  0.00000000000E+00  0.00000000000E+00  0.81839095934E+03  0.81839095934E+03  0.00000000000E+00 0. -1.
          1   -1    0    0  501    0 -0.00000000000E+00 -0.00000000000E+00 -0.42413999226E+03  0.42413999226E+03  0.00000000000E+00 0. -1.
         25    2    1    2    0    0 -0.39097056196E+01  0.46447933054E+02  0.84252703867E+02  0.15778749543E+03  0.12500271726E+03 0.  0.
          2    1    1    2  501    0 -0.37446375483E+02  0.51639003377E+01 -0.38487651593E+03  0.38672836645E+03  0.00000000000E+00 0. -1.
          1    1    1    2  502    0  0.41356081102E+02 -0.51611833392E+02  0.69487477914E+03  0.69801508972E+03  0.00000000000E+00 0. -1.
         22    1    3    3    0    0 -0.81281403409E+01  0.55004624277E+02 -0.15387318703E+02  0.57691809939E+02  0.00000000000E+00 0. -1.
         22    1    3    3    0    0  0.42184347213E+01 -0.85566912227E+01  0.99640022570E+02  0.10009568549E+03  0.00000000000E+00 0. -1.
</event>
<event>
 7    1  0.6607887E-006  0.1624677E+03  0.7818608E-02  0.1258421E+00
          2   -1    0    0  502    0  0.00000000000E+00  0.00000000000E+00  0.88099732293E+03  0.88099732293E+03  0.00000000000E+00 0. -1.
          1   -1    0    0  501    0 -0.00000000000E+00 -0.00000000000E+00 -0.12756616259E+04  0.12756616259E+04  0.00000000000E+00 0. -1.
         25    2    1    2    0    0 -0.38570773191E+02 -0.14045650894E+03 -0.13307927573E+03  0.23356078154E+03  0.12499923839E+03 0.  0.
          2    1    1    2  501    0  0.73470517181E+02 -0.19704114859E+02 -0.10829086136E+04  0.10855769132E+04  0.00000000000E+00 0. -1.
          1    1    1    2  502    0 -0.34899743990E+02  0.16016062380E+03  0.82132358636E+03  0.83752125410E+03  0.00000000000E+00 0. -1.
         22    1    3    3    0    0 -0.38935864531E+02 -0.12785250895E+03 -0.39823947482E+02  0.13945684775E+03  0.00000000000E+00 0.  1.
         22    1    3    3    0    0  0.36509133978E+00 -0.12603999987E+02 -0.93255328251E+02  0.94103933789E+02  0.00000000000E+00 0.  1.
</event>
<event>
 7    1  0.6607887E-006  0.1056112E+03  0.7818608E-02  0.1455323E+00
          2   -1    0    0  502    0  0.00000000000E+00  0.00000000000E+00  0.23085582206E+03  0.23085582206E+03  0.00000000000E+00 0. -1.
          1   -1    0    0  501    0 -0.00000000000E+00 -0.00000000000E+00 -0.90059424014E+03  0.90059424014E+03  0.00000000000E+00 0. -1.
         25    2    1    2    0    0  0.48801997445E+02  0.10671288321E+03  0.89365927019E+02  0.19333922852E+03  0.12499805588E+03 0.  0.
          2    1    1    2  501    0  0.32301089134E+01 -0.21755703458E+02 -0.82069191412E+03  0.82098657854E+03  0.00000000000E+00 0. -1.
          1    1    1    2  502    0 -0.52032106359E+02 -0.84957179752E+02  0.61587569020E+02  0.11712425514E+03  0.00000000000E+00 0. -1.
         22    1    3    3    0    0  0.75318593758E+01 -0.21190170624E+02 -0.11541436351E+02  0.25277598576E+02  0.00000000000E+00 0.  1.
         22    1    3    3    0    0  0.41270138069E+02  0.12790305383E+03  0.10090736337E+03  0.16806162994E+03  0.00000000000E+00 0.  1.
</event>
<event>
 7    1  0.1357738E-005  0.8398074E+02  0.7818608E-02  0.1436131E+00
          2   -1    0    0  502    0  0.00000000000E+00  0.00000000000E+00  0.25225694624E+04  0.25225694624E+04  0.00000000000E+00 0. -1.
          1   -1    0    0  501    0 -0.00000000000E+00 -0.00000000000E+00 -0.19809611279E+04  0.19809611279E+04  0.00000000000E+00 0. -1.
         25    2    1    2    0    0  0.42178499677E+02 -0.53542877410E+02 -0.22801839449E+03  0.26882093443E+03  0.12500576388E+03 0.  0.
          2    1    1    2  501    0  0.30068828034E+02  0.10614971491E+02 -0.17316890034E+04  0.17319825682E+04  0.00000000000E+00 0. -1.
          1    1    1    2  502    0 -0.72247327711E+02  0.42927905919E+02  0.25013157325E+04  0.25027270876E+04  0.00000000000E+00 0. -1.
         22    1    3    3    0    0 -0.24530876580E+02  0.26338899202E+02 -0.81580138099E+02  0.89167373232E+02  0.00000000000E+00 0. -1.
         22    1    3    3    0    0  0.66709376257E+02 -0.79881776611E+02 -0.14643825640E+03  0.17965356120E+03  0.00000000000E+00 0. -1.
</event>
<event>
 7    1  0.6607887E-006  0.8255916E+02  0.7818608E-02  0.1434235E+00
          2   -1    0    0  502    0  0.00000000000E+00  0.00000000000E+00  0.24378762574E+03  0.24378762574E+03  0.00000000000E+00 0. -1.
          1   -1    0    0  501    0 -0.00000000000E+00 -0.00000000000E+00 -0.36974710230E+03  0.36974710230E+03  0.00000000000E+00 0. -1.
         25    2    1    2    0    0 -0.11091893628E+03 -0.24091054459E+02  0.12503566046E+02  0.16930815538E+03  0.12500209193E+03 0.  0.
          2    1    1    2  501    0  0.78486861186E+02  0.18545957910E+02 -0.28389042226E+03  0.29512355343E+03  0.00000000000E+00 0. -1.
          1    1    1    2  502    0  0.32432075089E+02  0.55450965490E+01  0.14542737966E+03  0.14910301924E+03  0.00000000000E+00 0. -1.
         22    1    3    3    0    0 -0.10903975960E+03 -0.32232407748E+02 -0.36638220058E+02  0.11946110853E+03  0.00000000000E+00 0. -1.
         22    1    3    3    0    0 -0.18791766763E+01  0.81413532891E+01  0.49141786104E+02  0.49847046852E+02  0.00000000000E+00 0. -1.
</event>
<event>
 7    1  0.6607887E-006  0.1968982E+03  0.7818608E-02  0.1261187E+00
          2   -1    0    0  502    0  0.00000000000E+00  0.00000000000E+00  0.26064700040E+04  0.26064700040E+04  0.00000000000E+00 0. -1.
          1   -1    0    0  501    0 -0.00000000000E+00 -0.00000000000E+00 -0.14626564367E+03  0.14626564367E+03  0.00000000000E+00 0. -1.
         25    2    1    2    0    0 -0.14137902085E+03 -0.82529086924E+02  0.26271411334E+03  0.33382931849E+03  0.12499692320E+03 0.  0.
          2    1    1    2  501    0  0.19925495350E+03  0.62998916220E+02 -0.11289873575E+02  0.20928177461E+03  0.00000000000E+00 0. -1.
          1    1    1    2  502    0 -0.57875932651E+02  0.19530170704E+02  0.22087801206E+04  0.22096245546E+04  0.00000000000E+00 0. -1.
         22    1    3    3    0    0 -0.10759407016E+03 -0.10042643212E+03  0.13221626436E+03  0.19784613406E+03  0.00000000000E+00 0.  1.
         22    1    3    3    0    0 -0.33784950687E+02  0.17897345192E+02  0.13049784898E+03  0.13598318443E+03  0.00000000000E+00 0.  1.
</event>
<event>
 7    1  0.6607887E-006  0.2026896E+03  0.7818608E-02  0.1152131E+00
          2   -1    0    0  502    0  0.00000000000E+00  0.00000000000E+00  0.59282850386E+03  0.59282850386E+03  0.00000000000E+00 0. -1.
          1   -1    0    0  501    0 -0.00000000000E+00 -0.00000000000E+00 -0.96146801678E+03  0.96146801678E+03  0.00000000000E+00 0. -1.
         25    2    1    2    0    0 -0.73140446837E+02  0.46520016904E+02  0.26611771206E+03  0.30652190517E+03  0.12499361879E+03 0.  0.
          2    1    1    2  501    0  0.17450531795E+03  0.11635449869E+03 -0.89793084181E+03  0.92210100967E+03  0.00000000000E+00 0. -1.
          1    1    1    2  502    0 -0.10136487111E+03 -0.16287451560E+03  0.26317361683E+03  0.32567360581E+03  0.00000000000E+00 0. -1.
         22    1    3    3    0    0 -0.10227130196E+03  0.60589509630E+02  0.22189103953E+03  0.25172632223E+03  0.00000000000E+00 0.  1.
         22    1    3    3    0    0  0.29130855122E+02 -0.14069492726E+02  0.44226672537E+02  0.54795582937E+02  0.00000000000E+00 0.  1.
</event>
<event>
 7    1  0.6607887E-006  0.1731403E+03  0.7818608E-02  0.1238419E+00
          2   -1    0    0  502    0  0.00000000000E+00  0.00000000000E+00  0.33987907185E+03  0.33987907185E+03  0.00000000000E+00 0. -1.
          1   -1    0    0  501    0 -0.00000000000E+00 -0.00000000000E+00 -0.23869948044E+03  0.23869948044E+03  0.00000000000E+00 0. -1.
         25    2    1    2    0    0  0.15155618754E+03  0.11785452999E+03  0.10099339622E+03  0.25037200892E+03  0.12501003379E+03 0.  0.
          2    1    1    2  501    0 -0.73149253879E+02 -0.15603865024E+03 -0.96895175643E+02  0.19770571255E+03  0.00000000000E+00 0. -1.
          1    1    1    2  502    0 -0.78406933661E+02  0.38184120247E+02  0.97081370827E+02  0.13050083083E+03  0.00000000000E+00 0. -1.
         22    1    3    3    0    0  0.62658203272E+01 -0.94710489947E+01  0.49017190708E+02  0.50315467387E+02  0.00000000000E+00 0. -1.
         22    1    3    3    0    0  0.14529036721E+03  0.12732557899E+03  0.51976205512E+02  0.20005654153E+03  0.00000000000E+00 0. -1.
</event>
<event>
 7    1  0.6607887E-006  0.8506069E+02  0.7818608E-02  0.1349529E+00
          2   -1    0    0  502    0  0.00000000000E+00  0.00000000000E+00  0.17389610786E+04  0.17389610786E+04  0.00000000000E+00 0. -1.
          1   -1    0    0  501    0 -0.00000000000E+00 -0.00000000000E+00 -0.40710184780E+03  0.40710184780E+03  0.00000000000E+00 0. -1.
         25    2    1    2    0    0  0.15773751750E+02 -0.10007865287E+03  0.46901977727E+03  0.49585131114E+03  0.12499769309E+03 0.  0.
          2    1    1    2  501    0  0.41669139456E+02  0.74213346113E+02 -0.38828420435E+03  0.39750290725E+03  0.00000000000E+00 0. -1.
          1    1    1    2  502    0 -0.57442891206E+02  0.25865306753E+02  0.12511236579E+04  0.12527087080E+04  0.00000000000E+00 0. -1.
         22    1    3    3    0    0  0.17044890737E+02 -0.12858640539E+03  0.41440385243E+03  0.43422982954E+03  0.00000000000E+00 0.  1.
         22    1    3    3    0    0 -0.12711389875E+01  0.28507752519E+02  0.54615924843E+02  0.61621481599E+02  0.00000000000E+00 0.  1.
</event>
<event>
 7    1  0.6607887E-006  0.6643430E+02  0.7818608E-02  0.1404445E+00
          2   -1    0    0  502    0  0.00000000000E+00  0.00000000000E+00  0.12761183871E+04  0.12761183871E+04  0.00000000000E+00 0. -1.
          1   -1    0    0  501    0 -0.00000000000E+00 -0.00000000000E+00 -0.55620167958E+03  0.55620167958E+03  0.00000000000E+00 0. -1.
         25    2    1    2    0    0 -0.91290367750E+02  0.63727045123E+02  0.53556792753E+02  0.17575101247E+03  0.12500008325E+03 0.  0.
          2    1    1    2  501    0  0.49864950353E+02 -0.12586897957E+02 -0.49283311403E+03  0.49550925476E+03  0.00000000000E+00 0. -1.
          1    1    1    2  502    0  0.41425417397E+02 -0.51140147166E+02  0.11591930288E+04  0.11610597994E+04  0.00000000000E+00 0. -1.
         22    1    3    3    0    0 -0.39296833906E+02  0.17885938016E+00 -0.36675480746E+02  0.53752804891E+02  0.00000000000E+00 0.  1.
         22    1    3    3    0    0 -0.51993533845E+02  0.63548185742E+02  0.90232273499E+02  0.12199820758E+03  0.00000000000E+00 0.  1.
</event>
<event>
 7    1  0.6607887E-006  0.1025285E+03  0.7818608E-02  0.1319593E+00
          2   -1    0    0  502    0  0.00000000000E+00  0.00000000000E+00  0.79346840547E+02  0.79346840547E+02  0.00000000000E+00 0. -1.
          1   -1    0    0  501    0 -0.00000000000E+00 -0.00000000000E+00 -0.55394795995E+03  0.55394795995E+03  0.00000000000E+00 0. -1.
         25    2    1    2    0    0 -0.16863133641E+02 -0.90612398523E+02 -0.11501971242E+03  0.19326082506E+03  0.12500096086E+03 0.  0.
          2    1    1    2  501    0 -0.67052269925E+02  0.10615137646E+02 -0.30395315663E+03  0.31144214467E+03  0.00000000000E+00 0. -1.
          1    1    1    2  502    0  0.83915403566E+02  0.79997260877E+02 -0.55628250349E+02  0.12859183077E+03  0.00000000000E+00 0. -1.
         22    1    3    3    0    0  0.49740417953E+02 -0.67095346451E+02 -0.50542071991E+02  0.97623745752E+02  0.00000000000E+00 0.  1.
         22    1    3    3    0    0 -0.66603551594E+02 -0.23517052072E+02 -0.64477640431E+02  0.95637079308E+02  0.00000000000E+00 0.  1.
</event>
<event>
 7    1  0.6607887E-006  0.4866641E+02  0.7818608E-02  0.1478744E+00
          2   -1    0    0  502    0  0.00000000000E+00  0.00000000000E+00  0.66661280877E+03  0.66661280877E+03  0.00000000000E+00 0. -1.
          1   -1    0    0  501    0 -0.00000000000E+00 -0.00000000000E+00 -0.85597097778E+03  0.85597097778E+03  0.00000000000E+00 0. -1.
         25    2    1    2    0    0 -0.80542217804E+02 -0.31414698483E+02 -0.64342735689E+02  0.16504190603E+03  0.12499964392E+03 0.  0.
          2    1    1    2  501    0  0.47345258960E+02  0.85138895827E+01 -0.73983687736E+03  0.74139912663E+03  0.00000000000E+00 0. -1.
          1    1    1    2  502    0  0.33196958844E+02  0.22900808900E+02  0.61482144404E+03  0.61614275390E+03  0.00000000000E+00 0. -1.
         22    1    3    3    0    0 -0.47036774578E+00  0.11967245887E+01 -0.77567534304E+02  0.77578191353E+02  0.00000000000E+00 0.  1.
         22    1    3    3    0    0 -0.80071850058E+02 -0.32611423071E+02  0.13224798616E+02  0.87463714676E+02  0.00000000000E+00 0.  1.
</event>
<event>
 7    1  0.6607887E-006  0.5937552E+02  0.7818608E-02  0.1510497E+00
          2   -1    0    0  502    0  0.00000000000E+00  0.00000000000E+00  0.14996447557E+04  0.14996447557E+04  0.00000000000E+00 0. -1.
          1   -1    0    0  501    0 -0.00000000000E+00 -0.00000000000E+00 -0.19786206199E+03  0.19786206199E+03  0.00000000000E+00 0. -1.
         25    2    1    2    0    0 -0.56312721476E+02 -0.31525610453E+02  0.62449810769E+02  0.15391684174E+03  0.12500171436E+03 0.  0.
          2    1    1    2  501    0 -0.28457979222E+01  0.26379566463E+02 -0.15033274669E+03  0.15265619810E+03  0.00000000000E+00 0. -1.
          1    1    1    2  502    0  0.59158519398E+02  0.51460439900E+01  0.13896656296E+04  0.13909337778E+04  0.00000000000E+00 0. -1.
         22    1    3    3    0    0  0.29603014423E+02 -0.41742596151E+02  0.38804735300E+02  0.64222973134E+02  0.00000000000E+00 0.  1.
         22    1    3    3    0    0 -0.85915735899E+02  0.10216985698E+02  0.23645075469E+02  0.89693868607E+02  0.00000000000E+00 0.  1.
</event>
<event>
 7    1  0.6607887E-006  0.6549930E+02  0.7818608E-02  0.1385092E+00
          2   -1    0    0  502    0  0.00000000000E+00  0.00000000000E+00  0.15687426782E+03  0.15687426782E+03  0.00000000000E+00 0. -1.
          1   -1    0    0  501    0 -0.00000000000E+00 -0.00000000000E+00 -0.50769899030E+03  0.50769899030E+03  0.00000000000E+00 0. -1.
         25    2    1    2    0    0  0.69759299160E+02 -0.69275622442E+02  0.16916106973E+02  0.15992823901E+03  0.12500166109E+03 0.  0.
          2    1    1    2  501    0 -0.60327789629E+02  0.81343584726E+01 -0.41955528026E+03  0.42394839684E+03  0.00000000000E+00 0. -1.
          1    1    1    2  502    0 -0.94315095305E+01  0.61141263970E+02  0.51814450816E+02  0.80696622266E+02  0.00000000000E+00 0. -1.
         22    1    3    3    0    0 -0.79621101236E+01 -0.60561125781E+02 -0.30701645572E+02  0.68363997793E+02  0.00000000000E+00 0. -1.
         22    1    3    3    0    0  0.77721409283E+02 -0.87144966615E+01  0.47617752544E+02  0.91564241221E+02  0.00000000000E+00 0. -1.
</event>
<event>
 7    1  0.6607887E-006  0.1384931E+03  0.7818608E-02  0.1334587E+00
          2   -1    0    0  502    0  0.00000000000E+00  0.00000000000E+00  0.17060519205E+04  0.17060519205E+04  0.00000000000E+00 0. -1.
          1   -1    0    0  501    0 -0.00000000000E+00 -0.00000000000E+00 -0.84259091117E+03  0.84259091117E+03  0.00000000000E+00 0. -1.
         25    2    1    2    0    0  0.43282019032E+01 -0.11502544804E+03 -0.18826505137E+03  0.25361122696E+03  0.12500135137E+03 0.  0.
          2    1    1    2  501    0 -0.40953550967E+02  0.13944828361E+03 -0.61286309742E+03  0.62986045543E+03  0.00000000000E+00 0. -1.
          1    1    1    2  502    0  0.36625349064E+02 -0.24422835569E+02  0.16645891581E+04  0.16651711493E+04  0.00000000000E+00 0. -1.
         22    1    3    3    0    0 -0.40971199042E+01  0.11787575891E+02 -0.95382861502E+02  0.96195756690E+02  0.00000000000E+00 0. -1.
         22    1    3    3    0    0  0.84253218074E+01 -0.12681302393E+03 -0.92882189868E+02  0.15741547027E+03  0.00000000000E+00 0. -1.
</event>
<event>
 7    1  0.6607887E-006  0.4763683E+02  0.7818608E-02  0.1540284E+00
          2   -1    0    0  502    0  0.00000000000E+00  0.00000000000E+00  0.12975366094E+04  0.12975366094E+04  0.00000000000E+00 0. -1.
          1   -1    0    0  501    0 -0.00000000000E+00 -0.00000000000E+00 -0.18545637547E+02  0.18545637547E+02  0.00000000000E+00 0. -1.
         25    2    1    2    0    0 -0.38915107290E+02 -0.32577613260E+02  0.29050388500E+03  0.32030232779E+03  0.12500155008E+03 0.  0.
          2    1    1    2  501    0 -0.84118868356E+01  0.25800427503E+02  0.57669789801E+02  0.63735598807E+02  0.00000000000E+00 0. -1.
          1    1    1    2  502    0  0.47326994125E+02  0.67771857571E+01  0.93081729703E+03  0.93204432033E+03  0.00000000000E+00 0. -1.
         22    1    3    3    0    0 -0.20394400844E+02 -0.79151666382E+02  0.14558586231E+03  0.16696155600E+03  0.00000000000E+00 0.  1.
         22    1    3    3    0    0 -0.18520706446E+02  0.46574053121E+02  0.14491802270E+03  0.15334077179E+03  0.00000000000E+00 0.  1.
</event>
<event>
 7    1  0.6607887E-006  0.5957880E+03  0.7818608E-02  0.1188450E+00
          2   -1    0    0  502    0  0.00000000000E+00  0.00000000000E+00  0.10290136588E+04  0.10290136588E+04  0.00000000000E+00 0. -1.
          1   -1    0    0  501    0 -0.00000000000E+00 -0.00000000000E+00 -0.12968195521E+04  0.12968195521E+04  0.00000000000E+00 0. -1.
         25    2    1    2    0    0 -0.20522807448E+03 -0.59911345456E+03  0.36034930513E+03  0.73927799951E+03  0.12499937946E+03 0.  0.
          2    1    1    2  501    0  0.18742300829E+03  0.55987874295E+03 -0.10274145844E+04  0.11849777715E+04  0.00000000000E+00 0. -1.
          1    1    1    2  502    0  0.17805066192E+02  0.39234711605E+02  0.39925938588E+03  0.40157743984E+03  0.00000000000E+00 0. -1.
         22    1    3    3    0    0 -0.77097248343E+02 -0.40421305410E+03  0.21261382819E+03  0.46318119429E+03  0.00000000000E+00 0. -1.
         22    1    3    3    0    0 -0.12813082614E+03 -0.19490040046E+03  0.14773547694E+03  0.27609680522E+03  0.00000000000E+00 0. -1.
</event>
<event>
 7    1  0.6607887E-006  0.9347641E+02  0.7818608E-02  0.1295518E+00
          2   -1    0    0  502    0  0.00000000000E+00  0.00000000000E+00  0.11002469382E+03  0.11002469382E+03  0.00000000000E+00 0. -1.
          1   -1    0    0  501    0 -0.00000000000E+00 -0.00000000000E+00 -0.21464871838E+04  0.21464871838E+04  0.00000000000E+00 0. -1.
         25    2    1    2    0    0  0.85758898075E+02 -0.67847439715E+02 -0.60920375906E+03  0.63143652661E+03  0.12500001363E+03 0.  0.
          2    1    1    2  501    0  0.23842197576E+01  0.96623315272E+02 -0.15025373597E+04  0.15056428085E+04  0.00000000000E+00 0. -1.
          1    1    1    2  502    0 -0.88143117832E+02 -0.28775875556E+02  0.75278628835E+02  0.11943254244E+03  0.00000000000E+00 0. -1.
         22    1    3    3    0    0  0.84681067101E+02 -0.92435133296E+02 -0.57929319233E+03  0.59270206653E+03  0.00000000000E+00 0.  1.
         22    1    3    3    0    0  0.10778309735E+01  0.24587693581E+02 -0.29910566732E+02  0.38734460077E+02  0.00000000000E+00 0.  1.
</event>
<event>
 7    1  0.6607887E-006  0.6888628E+02  0.7818608E-02  0.1418064E+00
          2   -1    0    0  502    0  0.00000000000E+00  0.00000000000E+00  0.13059014041E+04  0.13059014041E+04  0.00000000000E+00 0. -1.
          1   -1    0    0  501    0 -0.00000000000E+00 -0.00000000000E+00 -0.84297426501E+03  0.84297426501E+03  0.00000000000E+00 0. -1.
         25    2    1    2    0    0  0.78362674630E+00  0.93221380213E+02  0.84201848054E+03  0.85633523280E+03  0.12499627823E+03 0.  0.
          2    1    1    2  501    0 -0.26889776182E+02 -0.35590505718E+02 -0.83302524307E+03  0.83421867622E+03  0.00000000000E+00 0. -1.
          1    1    1    2  502    0  0.26106149436E+02 -0.57630874495E+02  0.45393390162E+03  0.45832176010E+03  0.00000000000E+00 0. -1.
         22    1    3    3    0    0  0.10592079807E+02  0.57096788734E+02  0.11965043674E+03  0.13299797912E+03  0.00000000000E+00 0.  1.
         22    1    3    3    0    0 -0.98084530604E+01  0.36124591479E+02  0.72236804380E+03  0.72333725368E+03  0.00000000000E+00 0.  1.
</event>
<event>
 7    1  0.6607887E-006  0.1261034E+03  0.7818608E-02  0.1299692E+00
          2   -1    0    0  502    0  0.00000000000E+00  0.00000000000E+00  0.26314572266E+03  0.26314572266E+03  0.00000000000E+00 0. -1.
          1   -1    0    0  501    0 -0.00000000000E+00 -0.00000000000E+00 -0.13837898712E+04  0.13837898712E+04  0.00000000000E+00 0. -1.
         25    2    1    2    0    0  0.12175442091E+03  0.12218652406E+03  0.38698207669E+02  0.21650485267E+03  0.12499245690E+03 0.  0.
          2    1    1    2  501    0 -0.61082688893E+02 -0.25333438956E+02 -0.12697812886E+04  0.12715020247E+04  0.00000000000E+00 0. -1.
          1    1    1    2  502    0 -0.60671732020E+02 -0.96853085099E+02  0.11043893233E+03  0.15892871652E+03  0.00000000000E+00 0. -1.
         22    1    3    3    0    0  0.41876725763E+01  0.42332262179E+02  0.59213878523E+02  0.72909810263E+02  0.00000000000E+00 0. -1.
         22    1    3    3    0    0  0.11756674834E+03  0.79854261876E+02 -0.20515670854E+02  0.14359504241E+03  0.00000000000E+00 0. -1.
</event>
<event>
 7    1  0.6607887E-006  0.4809644E+02  0.7818608E-02  0.1511026E+00
          2   -1    0    0  502    0  0.00000000000E+00  0.00000000000E+00  0.15928614650E+03  0.15928614650E+03  0.00000000000E+00 0. -1.
          1   -1    0    0  501    0 -0.00000000000E+00 -0.00000000000E+00 -0.75758481623E+03  0.75758481623E+03  0.00000000000E+00 0. -1.
         25    2    1    2    0    0  0.32918738251E+01 -0.24744495963E+02 -0.65915380368E+02  0.14350407318E+03  0.12500182054E+03 0.  0.
          2    1    1    2  501    0 -0.26656671565E+02 -0.18831760874E+02 -0.64737407274E+03  0.64819626921E+03  0.00000000000E+00 0. -1.
          1    1    1    2  502    0  0.23364797740E+02  0.43576256837E+02  0.11499078338E+03  0.12517062033E+03  0.00000000000E+00 0. -1.
         22    1    3    3    0    0 -0.58792250538E+02 -0.52663704843E+01 -0.47818982424E+02  0.75966561469E+02  0.00000000000E+00 0.  1.
         22    1    3    3    0    0  0.62084124363E+02 -0.19478125479E+02 -0.18096397944E+02  0.67537511715E+02  0.00000000000E+00 0.  1.
</event>
<event>
 7    1  0.6607887E-006  0.5930810E+02  0.7818608E-02  0.1450886E+00
          2   -1    0    0  502    0  0.00000000000E+00  0.00000000000E+00  0.40132203322E+03  0.40132203322E+03  0.00000000000E+00 0. -1.
          1   -1    0    0  501    0 -0.00000000000E+00 -0.00000000000E+00 -0.25693680064E+04  0.25693680064E+04  0.00000000000E+00 0. -1.
         25    2    1    2    0    0  0.55635204016E+02  0.27174180353E+02  0.55610579098E+02  0.15017466197E+03  0.12500472226E+03 0.  0.
          2    1    1    2  501    0 -0.30074921637E+02  0.27066536073E+02 -0.25189099329E+04  0.25192348736E+04  0.00000000000E+00 0. -1.
          1    1    1    2  502    0 -0.25560282379E+02 -0.54240716426E+02  0.29525338062E+03  0.30128050405E+03  0.00000000000E+00 0. -1.
         22    1    3    3    0    0  0.36202485316E+02  0.17108407320E+02  0.96122711883E+02  0.10412921436E+03  0.00000000000E+00 0.  1.
         22    1    3    3    0    0  0.19432718700E+02  0.10065773033E+02 -0.40512132785E+02  0.46045447610E+02  0.00000000000E+00 0.  1.
</event>
<event>
 7    1  0.1189066E-005  0.6173767E+02  0.7818608E-02  0.1445385E+00
          2   -1    0    0  502    0  0.00000000000E+00  0.00000000000E+00  0.68456397793E+03  0.68456397793E+03  0.00000000000E+00 0. -1.
          1   -1    0    0  501    0 -0.00000000000E+00 -0.00000000000E+00 -0.22898932392E+04  0.22898932392E+04  0.00000000000E+00 0. -1.
         25    2    1    2    0    0  0.40282908943E+02 -0.31077809298E+02 -0.60108155052E+03  0.61604509651E+03  0.12499595026E+03 0.  0.
          2    1    1    2  501    0  0.21421766424E+02  0.34348309323E+02 -0.16796757565E+04  0.16801634877E+04  0.00000000000E+00 0. -1.
          1    1    1    2  502    0 -0.61704675367E+02 -0.32705000244E+01  0.67542804573E+03  0.67824863294E+03  0.00000000000E+00 0. -1.
         22    1    3    3    0    0  0.82274939860E+02 -0.31181876680E+02 -0.47710117220E+03  0.48514637346E+03  0.00000000000E+00 0. -1.
         22    1    3    3    0    0 -0.41992030916E+02  0.10406738221E+00 -0.12398037831E+03  0.13089872306E+03  0.00000000000E+00 0. -1.
</event>
<event>
 7    1  0.6607887E-006  0.1002910E+03  0.7818608E-02  0.1332951E+00
          2   -1    0    0  502    0  0.00000000000E+00  0.00000000000E+00  0.16200968168E+03  0.16200968168E+03  0.00000000000E+00 0. -1.
          1   -1    0    0  501    0 -0.00000000000E+00 -0.00000000000E+00 -0.53201067647E+03  0.53201067647E+03  0.00000000000E+00 0. -1.
         25    2    1    2    0    0  0.68637561567E+02  0.95685285622E+01 -0.25534184916E+03  0.29262169405E+03  0.12500129720E+03 0.  0.
          2    1    1    2  501    0  0.23042500723E+02 -0.57198584589E+02 -0.23490549624E+03  0.24286462708E+03  0.00000000000E+00 0. -1.
          1    1    1    2  502    0 -0.91680062290E+02  0.47630056027E+02  0.12024635061E+03  0.15853403702E+03  0.00000000000E+00 0. -1.
         22    1    3    3    0    0  0.50782497665E+02  0.28934544851E+02 -0.29909289723E+02  0.65655430594E+02  0.00000000000E+00 0.  1.
         22    1    3    3    0    0  0.17855063902E+02 -0.19366016288E+02 -0.22543255944E+03  0.22696626346E+03  0.00000000000E+00 0.  1.
</event>
<event>
 7    1  0.6607887E-006  0.1175613E+03  0.7818608E-02  0.1418067E+00
          2   -1    0    0  502    0  0.00000000000E+00  0.00000000000E+00  0.85551387332E+02  0.85551387332E+02  0.00000000000E+00 0. -1.
          1   -1    0    0  501    0 -0.00000000000E+00 -0.00000000000E+00 -0.93398995384E+03  0.93398995384E+03  0.00000000000E+00 0. -1.
         25    2    1    2    0    0  0.16066595360E+02 -0.10012643907E+03 -0.32175595033E+03  0.35977073313E+03  0.12499859822E+03 0.  0.
          2    1    1    2  501    0 -0.34959326022E+02  0.11818756236E+03 -0.58395305007E+03  0.59681791114E+03  0.00000000000E+00 0. -1.
          1    1    1    2  502    0  0.18892730662E+02 -0.18061123294E+02  0.57270433903E+02  0.62952696892E+02  0.00000000000E+00 0. -1.
         22    1    3    3    0    0 -0.16248686999E+01 -0.12686202236E+03 -0.23144361790E+03  0.26393704019E+03  0.00000000000E+00 0.  1.
         22    1    3    3    0    0  0.17691464060E+02  0.26735583292E+02 -0.90312332433E+02  0.95833692948E+02  0.00000000000E+00 0.  1.
</event>
<event>
 7    1  0.6607887E-006  0.1094735E+03  0.7818608E-02  0.1380898E+00
          2   -1    0    0  502    0  0.00000000000E+00  0.00000000000E+00  0.89405058895E+03  0.89405058895E+03  0.00000000000E+00 0. -1.
          1   -1    0    0  501    0 -0.00000000000E+00 -0.00000000000E+00 -0.67099214006E+03  0.67099214006E+03  0.00000000000E+00 0. -1.
         25    2    1    2    0    0 -0.54792925636E+02  0.61581836581E+02  0.39724122828E+03  0.42452564836E+03  0.12500738129E+03 0.  0.
          2    1    1    2  501    0  0.48172991917E+02 -0.98678713606E+02 -0.65201707912E+03  0.66119921138E+03  0.00000000000E+00 0. -1.
          1    1    1    2  502    0  0.66199337184E+01  0.37096877024E+02  0.47783429973E+03  0.47931786927E+03  0.00000000000E+00 0. -1.
         22    1    3    3    0    0  0.32812341642E+02 -0.70048181306E+01  0.52778246862E+02  0.62540071818E+02  0.00000000000E+00 0. -1.
         22    1    3    3    0    0 -0.87605267278E+02  0.68586654712E+02  0.34446298142E+03  0.36198557654E+03  0.00000000000E+00 0. -1.
</event>
<event>
 7    1  0.6607887E-006  0.1002834E+03  0.7818608E-02  0.1289638E+00
          2   -1    0    0  502    0  0.00000000000E+00  0.00000000000E+00  0.14052761524E+04  0.14052761524E+04  0.00000000000E+00 0. -1.
          1   -1    0    0  501    0 -0.00000000000E+00 -0.00000000000E+00 -0.19899101081E+04  0.19899101081E+04  0.00000000000E+00 0. -1.
         25    2    1    2    0    0  0.17630243628E+03 -0.73166478938E+02  0.36504147809E+03  0.43048554605E+03  0.12500656766E+03 0.  0.
          2    1    1    2  501    0 -0.94574005897E+02  0.32472032549E+02 -0.19538385648E+04  0.19563956177E+04  0.00000000000E+00 0. -1.
          1    1    1    2  502    0 -0.81728430380E+02  0.40694446389E+02  0.10041631311E+04  0.10083050967E+04  0.00000000000E+00 0. -1.
         22    1    3    3    0    0  0.12434701729E+03 -0.10480080580E+03  0.22326807004E+03  0.27621372288E+03  0.00000000000E+00 0.  1.
         22    1    3    3    0    0  0.51955418989E+02  0.31634326859E+02  0.14177340804E+03  0.15427182318E+03  0.00000000000E+00 0.  1.
</event>
<event>
 7    1  0.6607887E-006  0.1463350E+03  0.7818608E-02  0.1252835E+00
          2   -1    0    0  502    0  0.00000000000E+00  0.00000000000E+00  0.59988461066E+03  0.59988461066E+03  0.00000000000E+00 0. -1.
          1   -1    0    0  501    0 -0.00000000000E+00 -0.00000000000E+00 -0.74667616775E+03  0.74667616775E+03  0.00000000000E+00 0. -1.
         25    2    1    2    0    0  0.13324292639E+03 -0.13607409805E+02 -0.61986865202E+02  0.19340840762E+03  0.12500240655E+03 0.  0.
          2    1    1    2  501    0 -0.13105598035E+03 -0.75619342367E+02 -0.60588046643E+03  0.62448786579E+03  0.00000000000E+00 0. -1.
          1    1    1    2  502    0 -0.21869460383E+01  0.89226752172E+02  0.52107577454E+03  0.52866450500E+03  0.00000000000E+00 0. -1.
         22    1    3    3    0    0  0.74665122292E+02  0.82042220469E+01 -0.96278070653E+02  0.12211329426E+03  0.00000000000E+00 0.  1.
         22    1    3    3    0    0  0.58577804100E+02 -0.21811631852E+02  0.34291205451E+02  0.71295113357E+02  0.00000000000E+00 0.  1.
</event>
<event>
 7    1  0.6607887E-006  0.1236037E+03  0.7818608E-02  0.1418263E+00
          2   -1    0    0  502    0  0.00000000000E+00  0.00000000000E+00  0.14714592048E+04  0.14714592048E+04  0.00000000000E+00 0. -1.
          1   -1    0    0  501    0 -0.00000000000E+00 -0.00000000000E+00 -0.79335769724E+02  0.79335769724E+02  0.00000000000E+00 0. -1.
         25    2    1    2    0    0  0.70020233364E+02  0.95928747674E+02  0.93622154348E+03  0.95196580045E+03  0.12499179593E+03 0.  0.
          2    1    1    2  501    0 -0.91575224480E+02 -0.83620265082E+02 -0.17094238104E+02  0.12518220100E+03  0.00000000000E+00 0. -1.
          1    1    1    2  502    0  0.21554991117E+02 -0.12308482593E+02  0.47299612973E+03  0.47364697310E+03  0.00000000000E+00 0. -1.
         22    1    3    3    0    0  0.57582917471E+02  0.11640370076E+03  0.55497919125E+03  0.56997150513E+03  0.00000000000E+00 0. -1.
         22    1    3    3    0    0  0.12437315893E+02 -0.20474953084E+02  0.38124235223E+03  0.38199429533E+03  0.00000000000E+00 0. -1.
</event>
<event>
 7    1  0.8176658E-006  0.1411695E+03  0.7818608E-02  0.1356307E+00
          2   -1    0    0  502    0  0.00000000000E+00  0.00000000000E+00  0.18407612032E+04  0.18407612032E+04  0.00000000000E+00 0. -1.
          1   -1    0    0  501    0 -0.00000000000E+00 -0.00000000000E+00 -0.13728061449E+04  0.13728061449E+04  0.00000000000E+00 0. -1.
         25    2    1    2    0    0 -0.15638927014E+03 -0.43985684290E+02 -0.70707839264E+03  0.73619077091E+03  0.12499861438E+03 0.  0.
          2    1    1    2  501    0  0.12133986160E+03  0.51448710649E+02 -0.64432443840E+03  0.65766580705E+03  0.00000000000E+00 0. -1.
          1    1    1    2  502    0  0.35049408542E+02 -0.74630263582E+01  0.18193578893E+04  0.18197107702E+04  0.00000000000E+00 0. -1.
         22    1    3    3    0    0 -0.38928099926E+02 -0.69391699954E+02 -0.36632637894E+03  0.37486747111E+03  0.00000000000E+00 0. -1.
         22    1    3    3    0    0 -0.11746117022E+03  0.25406015664E+02 -0.34075201369E+03  0.36132329980E+03  0.00000000000E+00 0. -1.
</event>
<event>
 7    1  0.6607887E-006  0.1306244E+03  0.7818608E-02  0.1247816E+00
          2   -1    0    0  502    0  0.00000000000E+00  0.00000000000E+00  0.90162122729E+03  0.90162122729E+03  0.00000000000E+00 0. -1.
          1   -1    0    0  501    0 -0.00000000000E+00 -0.00000000000E+00 -0.20220854750E+04  0.20220854750E+04  0.00000000000E+00 0. -1.
         25    2    1    2    0    0  0.16823649428E+03  0.43549827629E+02 -0.27729121777E+03  0.35030795777E+03  0.12500056131E+03 0.  0.
          2    1    1    2  501    0 -0.11995925568E+03  0.49836167454E+02 -0.17026089764E+04  0.17075570834E+04  0.00000000000E+00 0. -1.
          1    1    1    2  502    0 -0.48277238599E+02 -0.93385995082E+02  0.85943594652E+03  0.86584166105E+03  0.00000000000E+00 0. -1.
         22    1    3    3    0    0  0.12497385398E+03 -0.18863887671E+02 -0.22511781616E+03  0.25817114786E+03  0.00000000000E+00 0.  1.
         22    1    3    3    0    0  0.43262640301E+02  0.62413715299E+02 -0.52173401611E+02  0.92136809902E+02  0.00000000000E+00 0.  1.
</event>
<event>
 7    1  0.6607887E-006  0.4880477E+02  0.7818608E-02  0.1463347E+00
          2   -1    0    0  502    0  0.00000000000E+00  0.00000000000E+00  0.65654175856E+03  0.65654175856E+03  0.00000000000E+00 0. -1.
          1   -1    0    0  501    0 -0.00000000000E+00 -0.00000000000E+00 -0.12430612800E+04  0.12430612800E+04  0.00000000000E+00 0. -1.
         25    2    1    2    0    0 -0.56990330298E+02  0.57864632045E+01 -0.34710219090E+02  0.14182073243E+03  0.12500775949E+03 0.  0.
          2    1    1    2  501    0  0.28952605628E+02  0.34314679456E+02 -0.11533656733E+04  0.11542391983E+04  0.00000000000E+00 0. -1.
          1    1    1    2  502    0  0.28037724670E+02 -0.40101142661E+02  0.60155637091E+03  0.60354310785E+03  0.00000000000E+00 0. -1.
         22    1    3    3    0    0 -0.73428628498E+02  0.44791190320E+02  0.16396985780E+01  0.86027337660E+02  0.00000000000E+00 0. -1.
         22    1    3    3    0    0  0.16438298201E+02 -0.39004727116E+02 -0.36349917668E+02  0.55793394766E+02  0.00000000000E+00 0. -1.
</event>
<event>
 7    1  0.6607887E-006  0.3897475E+02  0.7818608E-02  0.1549569E+00
          2   -1    0    0  502    0  0.00000000000E+00  0.00000000000E+00  0.18206211497E+04  0.18206211497E+04  0.00000000000E+00 0. -1.
          1   -1    0    0  501    0 -0.00000000000E+00 -0.00000000000E+00 -0.53112992779E+03  0.53112992779E+03  0.00000000000E+00 0. -1.
         25    2    1    2    0    0  0.45517749954E+02 -0.16183895734E+02  0.66059133971E+03  0.67404737474E+03  0.12500064503E+03 0.  0.
          2    1    1    2  501    0 -0.25842840948E+02 -0.17544294412E+02 -0.52360584999E+03  0.52453669161E+03  0.00000000000E+00 0. -1.
          1    1    1    2  502    0 -0.19674909006E+02  0.33728190146E+02  0.11525057322E+04  0.11531670111E+04  0.00000000000E+00 0. -1.
         22    1    3    3    0    0  0.80983906297E+02  0.20243369134E+01  0.56024593114E+03  0.56607242857E+03  0.00000000000E+00 0. -1.
         22    1    3    3    0    0 -0.35466156343E+02 -0.18208232647E+02  0.10034540856E+03  0.10797494617E+03  0.00000000000E+00 0. -1.
</event>
<event>
 7    1  0.6607887E-006  0.7802455E+02  0.7818608E-02  0.1491466E+00
          2   -1    0    0  502    0  0.00000000000E+00  0.00000000000E+00  0.14813977227E+04  0.14813977227E+04  0.00000000000E+00 0. -1.
          1   -1    0    0  501    0 -0.00000000000E+00 -0.00000000000E+00 -0.51566300006E+02  0.51566300006E+02  0.00000000000E+00 0. -1.
         25    2    1    2    0    0 -0.52224284101E+02 -0.20956746462E+02  0.10316989904E+04  0.10407664544E+04  0.12500177935E+03 0.  0.
          2    1    1    2  501    0  0.70646061092E+02  0.34740408501E+02 -0.13540823988E+02  0.79881886839E+02  0.00000000000E+00 0. -1.
          1    1    1    2  502    0 -0.18421776991E+02 -0.13783662039E+02  0.41167325630E+03  0.41231568144E+03  0.00000000000E+00 0. -1.
         22    1    3    3    0    0 -0.91060014171E+02 -0.10145459170E+02  0.57068273142E+03  0.57799103493E+03  0.00000000000E+00 0.  1.
         22    1    3    3    0    0  0.38835730070E+02 -0.10811287293E+02  0.46101625896E+03  0.46277541950E+03  0.00000000000E+00 0.  1.
</event>
<event>
 7    1  0.6607887E-006  0.5576862E+02  0.7818608E-02  0.1485324E+00
          2   -1    0    0  502    0  0.00000000000E+00  0.00000000000E+00  0.21488158838E+04  0.21488158838E+04  0.00000000000E+00 0. -1.
          1   -1    0    0  501    0 -0.00000000000E+00 -0.00000000000E+00 -0.24766575044E+02  0.24766575044E+02  0.00000000000E+00 0. -1.
         25    2    1    2    0    0 -0.55311198001E+02  0.58292324676E+02  0.14610023351E+04  0.14685396937E+04  0.12499474045E+03 0.  0.
          2    1    1    2  501    0  0.30007495848E+02 -0.15116235670E+02 -0.59960580184E+01  0.34130676812E+02  0.00000000000E+00 0. -1.
          1    1    1    2  502    0  0.25303702154E+02 -0.43176089006E+02  0.66904303171E+03  0.67091208834E+03  0.00000000000E+00 0. -1.
         22    1    3    3    0    0  0.17809275053E+02  0.37246856028E+02  0.15758794399E+03  0.16290628795E+03  0.00000000000E+00 0.  1.
         22    1    3    3    0    0 -0.73120473054E+02  0.21045468647E+02  0.13034143911E+04  0.13056334058E+04  0.00000000000E+00 0.  1.
</event>
<event>
 7    1  0.6607887E-006  0.1385304E+03  0.7818608E-02  0.1291169E+00
          2   -1    0    0  502    0  0.00000000000E+00  0.00000000000E+00  0.12197187569E+04  0.12197187569E+04  0.00000000000E+00 0. -1.
          1   -1    0    0  501    0 -0.00000000000E+00 -0.00000000000E+00 -0.70209502548E+02  0.70209502548E+02  0.00000000000E+00 0. -1.
         25    2    1    2    0    0  0.84566364059E+02  0.11949882341E+03  0.44523199044E+03  0.48506474738E+03  0.12499938043E+03 0.  0.
          2    1    1    2  501    0 -0.12258136315E+03 -0.66586722027E+02  0.51282681556E+02  0.14862669871E+03  0.00000000000E+00 0. -1.
          1    1    1    2  502    0  0.38014999088E+02 -0.52912101384E+02  0.65299458234E+03  0.65623681335E+03  0.00000000000E+00 0. -1.
         22    1    3    3    0    0 -0.15094314125E+02  0.56534715792E+02  0.25206666026E+03  0.25876942173E+03  0.00000000000E+00 0.  1.
         22    1    3    3    0    0  0.99660678184E+02  0.62964107620E+02  0.19316533018E+03  0.22629532564E+03  0.00000000000E+00 0.  1.
</event>
<event>
 7    1  0.6607887E-006  0.2833284E+03  0.7818608E-02  0.1298728E+00
          2   -1    0    0  502    0  0.00000000000E+00  0.00000000000E+00  0.20386065569E+04  0.20386065569E+04  0.00000000000E+00 0. -1.
          1   -1    0    0  501    0 -0.00000000000E+00 -0.00000000000E+00 -0.44785938175E+03  0.44785938175E+03  0.00000000000E+00 0. -1.
         25    2    1    2    0    0 -0.23330101772E+03 -0.12868895987E+03  0.53196153097E+03  0.60794926790E+03  0.12501611356E+03 0.  0.
          2    1    1    2  501    0 -0.10749633472E+02 -0.27680982254E+02 -0.39500185276E+03  0.39611646656E+03  0.00000000000E+00 0. -1.
          1    1    1    2  502    0  0.24405065119E+03  0.15636994212E+03  0.14537874969E+04  0.14824002042E+04  0.00000000000E+00 0. -1.
         22    1    3    3    0    0 -0.24597843193E+03 -0.13169484968E+03  0.48838569431E+03  0.56246734022E+03  0.00000000000E+00 0. -1.
         22    1    3    3    0    0  0.12677414216E+02  0.30058898163E+01  0.43575836665E+02  0.45481927684E+02  0.00000000000E+00 0. -1.
</event>
<event>
 7    1  0.6607887E-006  0.1148011E+03  0.7818608E-02  0.1264404E+00
          2   -1    0    0  502    0  0.00000000000E+00  0.00000000000E+00  0.10872734715E+04  0.10872734715E+04  0.00000000000E+00 0. -1.
          1   -1    0    0  501    0 -0.00000000000E+00 -0.00000000000E+00 -0.26324764462E+03  0.26324764462E+03  0.00000000000E+00 0. -1.
         25    2    1    2    0    0  0.18268089672E+03  0.67606106252E+02  0.80940565580E+02  0.24519169380E+03  0.12499878370E+03 0.  0.
          2    1    1    2  501    0 -0.10787696763E+03  0.10253096482E+01 -0.16196406218E+03  0.19460433922E+03  0.00000000000E+00 0. -1.
          1    1    1    2  502    0 -0.74803929083E+02 -0.68631415900E+02  0.90504932348E+03  0.91072508309E+03  0.00000000000E+00 0. -1.
         22    1    3    3    0    0  0.19391438499E+03  0.37283577206E+02  0.79360373759E+02  0.21281664117E+03  0.00000000000E+00 0. -1.
         22    1    3    3    0    0 -0.11233488277E+02  0.30322529047E+02  0.15801918210E+01  0.32375052631E+02  0.00000000000E+00 0. -1.
</event>
<event>
 7    1  0.6607887E-006  0.7330554E+02  0.7818608E-02  0.1463723E+00
          2   -1    0    0  502    0  0.00000000000E+00  0.00000000000E+00  0.11494963069E+04  0.11494963069E+04  0.00000000000E+00 0. -1.
          1   -1    0    0  501    0 -0.00000000000E+00 -0.00000000000E+00 -0.46668705761E+02  0.46668705761E+02  0.00000000000E+00 0. -1.
         25    2    1    2    0    0 -0.54605317612E+02 -0.37855440174E+02  0.20412519066E+03  0.24841021370E+03  0.12500306295E+03 0.  0.
          2    1    1    2  501    0 -0.18150892759E+02  0.23647177403E+02 -0.13372624147E+02  0.32672174455E+02  0.00000000000E+00 0. -1.
          1    1    1    2  502    0  0.72756210370E+02  0.14208262771E+02  0.91207503464E+03  0.91508262451E+03  0.00000000000E+00 0. -1.
         22    1    3    3    0    0 -0.91686118191E+01  0.34626401844E+02  0.11462072140E+02  0.37608911777E+02  0.00000000000E+00 0.  1.
         22    1    3    3    0    0 -0.45436705793E+02 -0.72481842018E+02  0.19266311851E+03  0.21080130192E+03  0.00000000000E+00 0.  1.
</event>
<event>
 7    1  0.6607887E-006  0.6466451E+02  0.7818608E-02  0.1434665E+00
          2   -1    0    0  502    0  0.00000000000E+00  0.00000000000E+00  0.35637939060E+03  0.35637939060E+03  0.00000000000E+00 0. -1.
          1   -1    0    0  501    0 -0.00000000000E+00 -0.00000000000E+00 -0.74072756294E+03  0.74072756294E+03  0.00000000000E+00 0. -1.
         25    2    1    2    0    0  0.82523029614E+02 -0.24663021401E+02  0.72751327638E+02  0.16834171332E+03  0.12501144639E+03 0.  0.
          2    1    1    2  501    0 -0.36986060283E+02 -0.19628995989E+02 -0.68800648437E+03  0.68927947066E+03  0.00000000000E+00 0. -1.
          1    1    1    2  502    0 -0.45536969332E+02  0.44292017390E+02  0.23090698439E+03  0.23948576956E+03  0.00000000000E+00 0. -1.
         22    1    3    3    0    0  0.33930346925E+02  0.15172377891E+02  0.94741076150E+02  0.10177102242E+03  0.00000000000E+00 0.  1.
         22    1    3    3    0    0  0.48592682690E+02 -0.39835399292E+02 -0.21989748512E+02  0.66570690904E+02  0.00000000000E+00 0.  1.
</event>
<event>
 7    1  0.6607887E-006  0.2991058E+03  0.7818608E-02  0.1300379E+00
          2   -1    0    0  502    0  0.00000000000E+00  0.00000000000E+00  0.49567303378E+03  0.49567303378E+03  0.00000000000E+00 0. -1.
          1   -1    0    0  501    0 -0.00000000000E+00 -0.00000000000E+00 -0.46762269357E+03  0.46762269357E+03  0.00000000000E+00 0. -1.
         25    2    1    2    0    0  0.15221703005E+03 -0.27236695922E+03 -0.18883298829E+03  0.38553419914E+03  0.12499974611E+03 0.  0.
          2    1    1    2  501    0 -0.13755008600E+03  0.24886469768E+03 -0.67322402812E+02  0.29220877781E+03  0.00000000000E+00 0. -1.
          1    1    1    2  502    0 -0.14666944045E+02  0.23502261539E+02  0.28420573132E+03  0.28555275040E+03  0.00000000000E+00 0. -1.
         22    1    3    3    0    0  0.12146904102E+02 -0.13495204067E+03 -0.10817699116E+03  0.17338356894E+03  0.00000000000E+00 0.  1.
         22    1    3    3    0    0  0.14007012595E+03 -0.13741491855E+03 -0.80655997124E+02  0.21215063020E+03  0.00000000000E+00 0.  1.
</event>
<event>
 7    1  0.6607887E-006  0.1272635E+03  0.7818608E-02  0.1322972E+00
          2   -1    0    0  502    0  0.00000000000E+00  0.00000000000E+00  0.20386474065E+04  0.20386474065E+04  0.00000000000E+00 0. -1.
          1   -1    0    0  501    0 -0.00000000000E+00 -0.00000000000E+00 -0.12506948375E+03  0.12506948375E+03  0.00000000000E+00 0. -1.
         25    2    1    2    0    0 -0.84455410207E+02  0.32848505408E+02  0.68275031572E+03  0.69998902976E+03  0.12499963019E+03 0.  0.
          2    1    1    2  501    0 -0.48138853049E+02  0.22338466956E+02 -0.10635203094E+03  0.11885752296E+03  0.00000000000E+00 0. -1.
          1    1    1    2  502    0  0.13259426326E+03 -0.55186972364E+02  0.13371796380E+04  0.13448703375E+04  0.00000000000E+00 0. -1.
         22    1    3    3    0    0 -0.62370162796E+02 -0.22463282715E+02  0.15096469523E+03  0.16487866898E+03  0.00000000000E+00 0. -1.
         22    1    3    3    0    0 -0.22085247411E+02  0.55311788124E+02  0.53178562049E+03  0.53511036078E+03  0.00000000000E+00 0. -1.
</event>
<event>
 7    1  0.6607887E-006  0.6786453E+02  0.7818608E-02  0.1456113E+00
          2   -1    0    0  502    0  0.00000000000E+00  0.00000000000E+00  0.17746140759E+04  0.17746140759E+04  0.00000000000E+00 0. -1.
          1   -1    0    0  501    0 -0.00000000000E+00 -0.00000000000E+00 -0.42232628199E+03  0.42232628199E+03  0.00000000000E+00 0. -1.
         25    2    1    2    0    0 -0.32877510636E+02 -0.92024728540E+02  0.39580568360E+03  0.42642354091E+03  0.12500166281E+03 0.  0.
          2    1    1    2  501    0  0.64799384524E+00  0.34024253977E+02 -0.40549694162E+03  0.40692239975E+03  0.00000000000E+00 0. -1.
          1    1    1    2  502    0  0.32229516791E+02  0.58000474563E+02  0.13619790520E+04  0.13635944173E+04  0.00000000000E+00 0. -1.
         22    1    3    3    0    0 -0.10803537239E+02 -0.12128721764E+03  0.31387658447E+03  0.33666870342E+03  0.00000000000E+00 0.  1.
         22    1    3    3    0    0 -0.22073973397E+02  0.29262489104E+02  0.81929099123E+02  0.89754837492E+02  0.00000000000E+00 0.  1.
</event>
<event>
 7    1  0.6607887E-006  0.4742135E+02  0.7818608E-02  0.1489960E+00
          2   -1    0    0  502    0  0.00000000000E+00  0.00000000000E+00  0.74347551452E+03  0.74347551452E+03  0.00000000000E+00 0. -1.
          1   -1    0    0  501    0 -0.00000000000E+00 -0.00000000000E+00 -0.85192058396E+03  0.85192058396E+03  0.00000000000E+00 0. -1.
         25    2    1    2    0    0  0.44460168329E+01 -0.36691755702E+02  0.21652190120E+03  0.25272993351E+03  0.12499853437E+03 0.  0.
          2    1    1    2  501    0 -0.38232918428E+02  0.12788976990E+01 -0.83219918580E+03  0.83307795342E+03  0.00000000000E+00 0. -1.
          1    1    1    2  502    0  0.33786901595E+02  0.35412858003E+02  0.50723221517E+03  0.50958821154E+03  0.00000000000E+00 0. -1.
         22    1    3    3    0    0 -0.58309770269E+02 -0.30599386225E+02  0.12932991194E+03  0.14512952101E+03  0.00000000000E+00 0. -1.
         22    1    3    3    0    0  0.62755787101E+02 -0.60923694775E+01  0.87191989251E+02  0.10760041250E+03  0.00000000000E+00 0. -1.
</event>
<event>
 7    1  0.6607887E-006  0.1512869E+03  0.7818608E-02  0.1203729E+00
          2   -1    0    0  502    0  0.00000000000E+00  0.00000000000E+00  0.57902247341E+03  0.57902247341E+03  0.00000000000E+00 0. -1.
          1   -1    0    0  501    0 -0.00000000000E+00 -0.00000000000E+00 -0.29471358313E+03  0.29471358313E+03  0.00000000000E+00 0. -1.
         25    2    1    2    0    0 -0.95094576479E+02  0.15758029515E+03  0.23808961520E+03  0.32586544506E+03  0.12500838181E+03 0.  0.
          2    1    1    2  501    0  0.15149287422E+03 -0.25545004263E+02 -0.20640035829E+03  0.25730088629E+03  0.00000000000E+00 0. -1.
          1    1    1    2  502    0 -0.56398297743E+02 -0.13203529089E+03  0.25261963338E+03  0.29056972519E+03  0.00000000000E+00 0. -1.
         22    1    3    3    0    0  0.18019549597E+02  0.87264112524E+02  0.88777080511E+02  0.12578195231E+03  0.00000000000E+00 0. -1.
         22    1    3    3    0    0 -0.11311412608E+03  0.70316182628E+02  0.14931253469E+03  0.20008349275E+03  0.00000000000E+00 0. -1.
</event>
<event>
 7    1  0.6607887E-006  0.6063260E+02  0.7818608E-02  0.1398846E+00
          2   -1    0    0  502    0  0.00000000000E+00  0.00000000000E+00  0.34011370480E+02  0.34011370480E+02  0.00000000000E+00 0. -1.
          1   -1    0    0  501    0 -0.00000000000E+00 -0.00000000000E+00 -0.58919356255E+03  0.58919356255E+03  0.00000000000E+00 0. -1.
         25    2    1    2    0    0  0.31160489199E+02 -0.19036021799E+02 -0.20663022950E+03  0.24424287425E+03  0.12500073466E+03 0.  0.
          2    1    1    2  501    0  0.42300990948E+01 -0.60484864242E+02 -0.12125673959E+03  0.13557104941E+03  0.00000000000E+00 0. -1.
          1    1    1    2  502    0 -0.35390588294E+02  0.79520886041E+02 -0.22729522298E+03  0.24339100938E+03  0.00000000000E+00 0. -1.
         22    1    3    3    0    0  0.67031267550E+02 -0.43380497656E+02 -0.16869797281E+03  0.18663886101E+03  0.00000000000E+00 0. -1.
         22    1    3    3    0    0 -0.35870778351E+02  0.24344475857E+02 -0.37932256686E+02  0.57604013241E+02  0.00000000000E+00 0. -1.
</event>
<event>
 7    1  0.6607887E-006  0.1599628E+03  0.7818608E-02  0.1287793E+00
          2   -1    0    0  502    0  0.00000000000E+00  0.00000000000E+00  0.14803658509E+04  0.14803658509E+04  0.00000000000E+00 0. -1.
          1   -1    0    0  501    0 -0.00000000000E+00 -0.00000000000E+00 -0.75605184363E+02  0.75605184363E+02  0.00000000000E+00 0. -1.
         25    2    1    2    0    0  0.93411410663E+02 -0.64605820744E+02  0.85165476451E+02  0.18915086142E+03  0.12500114512E+03 0.  0.
          2    1    1    2  501    0  0.20591078372E+02 -0.54475103955E+02  0.27770566557E+02  0.64519251594E+02  0.00000000000E+00 0. -1.
          1    1    1    2  502    0 -0.11400248903E+03  0.11908092470E+03  0.12918246235E+04  0.13023009222E+04  0.00000000000E+00 0. -1.
         22    1    3    3    0    0  0.65983919739E+02  0.87512545071E+01 -0.84500901724E+01  0.67095947295E+02  0.00000000000E+00 0.  1.
         22    1    3    3    0    0  0.27427490925E+02 -0.73357075251E+02  0.93615566623E+02  0.12205491412E+03  0.00000000000E+00 0.  1.
</event>
<event>
 7    1  0.6607887E-006  0.1076643E+03  0.7818608E-02  0.1450489E+00
          2   -1    0    0  502    0  0.00000000000E+00  0.00000000000E+00  0.20077985516E+04  0.20077985516E+04  0.00000000000E+00 0. -1.
          1   -1    0    0  501    0 -0.00000000000E+00 -0.00000000000E+00 -0.10327236032E+04  0.10327236032E+04  0.00000000000E+00 0. -1.
         25    2    1    2    0    0  0.69204901209E+02  0.76256481388E+02 -0.12240104848E+02  0.16241728014E+03  0.12500073367E+03 0.  0.
          2    1    1    2  501    0 -0.14776344600E+02  0.16773469851E+02 -0.94375977171E+03  0.94402446809E+03  0.00000000000E+00 0. -1.
          1    1    1    2  502    0 -0.54428556610E+02 -0.93029951239E+02  0.19310748249E+04  0.19340804065E+04  0.00000000000E+00 0. -1.
         22    1    3    3    0    0  0.66115535771E+00  0.57778586018E+02  0.43362507594E+02  0.72243402422E+02  0.00000000000E+00 0.  1.
         22    1    3    3    0    0  0.68543745852E+02  0.18477895370E+02 -0.55602612442E+02  0.90173877720E+02  0.00000000000E+00 0.  1.
</event>
<event>
 7    1  0.6607887E-006  0.3202740E+03  0.7818608E-02  0.1219191E+00
          2   -1    0    0  502    0  0.00000000000E+00  0.00000000000E+00  0.85022629858E+03  0.85022629858E+03  0.00000000000E+00 0. -1.
          1   -1    0    0  501    0 -0.00000000000E+00 -0.00000000000E+00 -0.27807754321E+03  0.27807754321E+03  0.00000000000E+00 0. -1.
         25    2    1    2    0    0  0.18653602775E+03 -0.20084821733E+03 -0.77061720191E+02  0.31096412956E+03  0.12499794039E+03 0.  0.
          2    1    1    2  501    0  0.24432323085E+02 -0.52075679693E+02 -0.28231147069E+02  0.64076614234E+02  0.00000000000E+00 0. -1.
          1    1    1    2  502    0 -0.21096835084E+03  0.25292389702E+03  0.67744162263E+03  0.75326309800E+03  0.00000000000E+00 0. -1.
         22    1    3    3    0    0  0.66251679326E+02 -0.89324622086E+01 -0.48681494430E+02  0.82698015663E+02  0.00000000000E+00 0. -1.
         22    1    3    3    0    0  0.12028434843E+03 -0.19191575512E+03 -0.28380225761E+02  0.22826611390E+03  0.00000000000E+00 0. -1.
</event>
<event>
 7    1  0.6607887E-006  0.9240581E+02  0.7818608E-02  0.1301345E+00
          2   -1    0    0  502    0  0.00000000000E+00  0.00000000000E+00  0.15436671507E+03  0.15436671507E+03  0.00000000000E+00 0. -1.
          1   -1    0    0  501    0 -0.00000000000E+00 -0.00000000000E+00 -0.16665933254E+04  0.16665933254E+04  0.00000000000E+00 0. -1.
         25    2    1    2    0    0  0.44080316940E+02 -0.13608695141E+02 -0.67822729556E+03  0.69118910397E+03  0.12498736770E+03 0.  0.
          2    1    1    2  501    0 -0.38120194408E+02 -0.80288292044E+02 -0.96466814013E+03  0.96875382820E+03  0.00000000000E+00 0. -1.
          1    1    1    2  502    0 -0.59601225316E+01  0.93896987184E+02  0.13066882533E+03  0.16101710834E+03  0.00000000000E+00 0. -1.
         22    1    3    3    0    0 -0.23113491105E+02 -0.50665216539E+02 -0.24837449228E+03  0.25454093198E+03  0.00000000000E+00 0.  1.
         22    1    3    3    0    0  0.67193808045E+02  0.37056521398E+02 -0.42985280328E+03  0.43664817199E+03  0.00000000000E+00 0.  1.
</event>
<event>
 7    1  0.6607887E-006  0.5924930E+02  0.7818608E-02  0.1539637E+00
          2   -1    0    0  502    0  0.00000000000E+00  0.00000000000E+00  0.31848732122E+04  0.31848732122E+04  0.00000000000E+00 0. -1.
          1   -1    0    0  501    0 -0.00000000000E+00 -0.00000000000E+00 -0.26203207539E+02  0.26203207539E+02  0.00000000000E+00 0. -1.
         25    2    1    2    0    0  0.63881137080E+01 -0.55757818312E+02  0.16841028354E+04  0.16896677557E+04  0.12500008850E+03 0.  0.
          2    1    1    2  501    0 -0.28035865644E+02  0.52374393851E+02  0.14464634253E+02  0.61141741370E+02  0.00000000000E+00 0. -1.
          1    1    1    2  502    0  0.21647751936E+02  0.33834244607E+01  0.14601025350E+04  0.14602669227E+04  0.00000000000E+00 0. -1.
         22    1    3    3    0    0 -0.36248416588E+02  0.22184988662E+01  0.11687783630E+04  0.11693424354E+04  0.00000000000E+00 0.  1.
         22    1    3    3    0    0  0.42636530296E+02 -0.57976317178E+02  0.51532447240E+03  0.52032532028E+03  0.00000000000E+00 0.  1.
</event>
<event>
 7    1  0.6607887E-006  0.2533073E+02  0.7818608E-02  0.1687751E+00
          2   -1    0    0  502    0  0.00000000000E+00  0.00000000000E+00  0.18632152312E+04  0.18632152312E+04  0.00000000000E+00 0. -1.
          1   -1    0    0  501    0 -0.00000000000E+00 -0.00000000000E+00 -0.38309924301E+02  0.38309924301E+02  0.00000000000E+00 0. -1.
         25    2    1    2    0    0 -0.16121188371E+02 -0.53385715023E+01  0.11641311040E+04  0.11709461983E+04  0.12500151555E+03 0.  0.
          2    1    1    2  501    0  0.67534908889E+01  0.24479348033E+02 -0.30097300308E+02  0.39378872573E+02  0.00000000000E+00 0. -1.
          1    1    1    2  502    0  0.93676974820E+01 -0.19140776530E+02  0.69087150316E+03  0.69120008461E+03  0.00000000000E+00 0. -1.
         22    1    3    3    0    0 -0.38853186507E+02  0.18989457564E+01  0.11208577160E+04  0.11215325210E+04  0.00000000000E+00 0.  1.
         22    1    3    3    0    0  0.22731998136E+02 -0.72375172587E+01  0.43273388052E+02  0.49413677346E+02  0.00000000000E+00 0.  1.
</event>
<event>
 7    1  0.6607887E-006  0.2602416E+02  0.7818608E-02  0.1667498E+00
          2   -1    0    0  502    0  0.00000000000E+00  0.00000000000E+00  0.32942396544E+03  0.32942396544E+03  0.00000000000E+00 0. -1.
          1   -1    0    0  501    0 -0.00000000000E+00 -0.00000000000E+00 -0.23803529283E+03  0.23803529283E+03  0.00000000000E+00 0. -1.
         25    2    1    2    0    0 -0.23904485838E+02  0.22413150621E+02 -0.17973987502E+02  0.13046803308E+03  0.12500027866E+03 0.  0.
          2    1    1    2  501    0  0.10257279065E+01 -0.26050276387E+02 -0.16228088407E+03  0.16436165718E+03  0.00000000000E+00 0. -1.
          1    1    1    2  502    0  0.22878757931E+02  0.36371257665E+01  0.27164354419E+03  0.27262956800E+03  0.00000000000E+00 0. -1.
         22    1    3    3    0    0 -0.34629312937E+02  0.65670715826E+02 -0.35856357104E+02  0.82447016783E+02  0.00000000000E+00 0. -1.
         22    1    3    3    0    0  0.10724827099E+02 -0.43257565205E+02  0.17882369602E+02  0.48021016299E+02  0.00000000000E+00 0. -1.
</event>
<event>
 7    1  0.6607887E-006  0.8233288E+02  0.7818608E-02  0.1326532E+00
          2   -1    0    0  502    0  0.00000000000E+00  0.00000000000E+00  0.89363700933E+03  0.89363700933E+03  0.00000000000E+00 0. -1.
          1   -1    0    0  501    0 -0.00000000000E+00 -0.00000000000E+00 -0.10323511757E+03  0.10323511757E+03  0.00000000000E+00 0. -1.
         25    2    1    2    0    0 -0.11558424850E+02  0.11159578854E+02  0.10271388199E+03  0.16258300729E+03  0.12499983728E+03 0.  0.
          2    1    1    2  501    0  0.21997159362E+02 -0.92828027418E+02 -0.38919215271E+02  0.10303214553E+03  0.00000000000E+00 0. -1.
          1    1    1    2  502    0 -0.10438734511E+02  0.81668448564E+02  0.72660722503E+03  0.73125697408E+03  0.00000000000E+00 0. -1.
         22    1    3    3    0    0 -0.15556000283E+02 -0.45287842426E+02  0.30597959961E+01  0.47982706967E+02  0.00000000000E+00 0.  1.
         22    1    3    3    0    0  0.39975754329E+01  0.56447421280E+02  0.99654085998E+02  0.11460030032E+03  0.00000000000E+00 0.  1.
</event>
<event>
 7    1  0.6607887E-006  0.1035654E+03  0.7818608E-02  0.1323578E+00
          2   -1    0    0  502    0  0.00000000000E+00  0.00000000000E+00  0.53090540958E+03  0.53090540958E+03  0.00000000000E+00 0. -1.
          1   -1    0    0  501    0 -0.00000000000E+00 -0.00000000000E+00 -0.21391553418E+03  0.21391553418E+03  0.00000000000E+00 0. -1.
         25    2    1    2    0    0  0.24430330837E+02  0.16257207011E+03  0.20773841823E+02  0.20756582311E+03  0.12500199748E+03 0.  0.
          2    1    1    2  501    0 -0.11939044275E+02 -0.63754266606E+02 -0.10524247604E+03  0.12362494106E+03  0.00000000000E+00 0. -1.
          1    1    1    2  502    0 -0.12491286562E+02 -0.98817803504E+02  0.40145850962E+03  0.41363017960E+03  0.00000000000E+00 0. -1.
         22    1    3    3    0    0  0.36435059058E+02  0.18023133017E+03  0.25664380815E+02  0.18565965190E+03  0.00000000000E+00 0. -1.
         22    1    3    3    0    0 -0.12004728221E+02 -0.17659260056E+02 -0.48905389926E+01  0.21906171209E+02  0.00000000000E+00 0. -1.
</event>
<event>
 7    1  0.6607887E-006  0.1387476E+03  0.7818608E-02  0.1390643E+00
          2   -1    0    0  502    0  0.00000000000E+00  0.00000000000E+00  0.10476107374E+04  0.10476107374E+04  0.00000000000E+00 0. -1.
          1   -1    0    0  501    0 -0.00000000000E+00 -0.00000000000E+00 -0.58285979219E+03  0.58285979219E+03  0.00000000000E+00 0. -1.
         25    2    1    2    0    0 -0.35256641866E+01 -0.12234692796E+03 -0.23612490608E+03  0.29387326314E+03  0.12500128972E+03 0.  0.
          2    1    1    2  501    0 -0.23616097088E+02 -0.14049690376E+02 -0.31250873618E+03  0.31371455821E+03  0.00000000000E+00 0. -1.
          1    1    1    2  502    0  0.27141761275E+02  0.13639661833E+03  0.10133845875E+04  0.10228827082E+04  0.00000000000E+00 0. -1.
         22    1    3    3    0    0 -0.42413870158E+02 -0.10776090587E+02 -0.21231981827E+02  0.48640081850E+02  0.00000000000E+00 0. -1.
         22    1    3    3    0    0  0.38888205971E+02 -0.11157083737E+03 -0.21489292425E+03  0.24523318129E+03  0.00000000000E+00 0. -1.
</event>
<event>
 7    1  0.6607887E-006  0.3963166E+03  0.7818608E-02  0.1165107E+00
          2   -1    0    0  502    0  0.00000000000E+00  0.00000000000E+00  0.15715352552E+04  0.15715352552E+04  0.00000000000E+00 0. -1.
          1   -1    0    0  501    0 -0.00000000000E+00 -0.00000000000E+00 -0.18450633795E+04  0.18450633795E+04  0.00000000000E+00 0. -1.
         25    2    1    2    0    0 -0.28531588765E+03 -0.30887928630E+03 -0.83207743826E+03  0.94063223696E+03  0.12499829080E+03 0.  0.
          2    1    1    2  501    0  0.20240477884E+03  0.32427722152E+03 -0.91935450975E+03  0.99565863904E+03  0.00000000000E+00 0. -1.
          1    1    1    2  502    0  0.82911108806E+02 -0.15397935223E+02  0.14779038237E+04  0.14803077587E+04  0.00000000000E+00 0. -1.
         22    1    3    3    0    0 -0.11540408408E+03 -0.84693710680E+02 -0.40203483611E+03  0.42675887419E+03  0.00000000000E+00 0.  1.
         22    1    3    3    0    0 -0.16991180356E+03 -0.22418557562E+03 -0.43004260215E+03  0.51387336278E+03  0.00000000000E+00 0.  1.
</event>
<event>
 7    1  0.6607887E-006  0.4953766E+02  0.7818608E-02  0.1503496E+00
          2   -1    0    0  502    0  0.00000000000E+00  0.00000000000E+00  0.97078727984E+03  0.97078727984E+03  0.00000000000E+00 0. -1.
          1   -1    0    0  501    0 -0.00000000000E+00 -0.00000000000E+00 -0.25606745997E+03  0.25606745997E+03  0.00000000000E+00 0. -1.
         25    2    1    2    0    0  0.19789504226E+02  0.27545046700E+02  0.87815869577E+01  0.12985391022E+03  0.12503826476E+03 0.  0.
          2    1    1    2  501    0 -0.25081354204E+02  0.21986176043E+02 -0.19341467305E+03  0.19626946277E+03  0.00000000000E+00 0. -1.
          1    1    1    2  502    0  0.52918499777E+01 -0.49531222743E+02  0.89935290596E+03  0.90073136681E+03  0.00000000000E+00 0. -1.
         22    1    3    3    0    0  0.25732253218E+02  0.26614182860E+02 -0.54721024741E+02  0.66067042719E+02  0.00000000000E+00 0. -1.
         22    1    3    3    0    0 -0.59427489917E+01  0.93086384021E+00  0.63502611699E+02  0.63786867501E+02  0.00000000000E+00 0. -1.
</event>
<event>
 7    1  0.6607887E-006  0.6032568E+02  0.7818608E-02  0.1432551E+00
          2   -1    0    0  502    0  0.00000000000E+00  0.00000000000E+00  0.22992109492E+02  0.22992109492E+02  0.00000000000E+00 0. -1.
          1   -1    0    0  501    0 -0.00000000000E+00 -0.00000000000E+00 -0.14395586477E+04  0.14395586477E+04  0.00000000000E+00 0. -1.
         25    2    1    2    0    0 -0.20635873263E+02  0.18704404030E+02 -0.70297904986E+03  0.71454911942E+03  0.12500082206E+03 0.  0.
          2    1    1    2  501    0  0.11042262259E+02  0.44247883393E+02 -0.66831579053E+03  0.66986998934E+03  0.00000000000E+00 0. -1.
          1    1    1    2  502    0  0.95936110038E+01 -0.62952287423E+02 -0.45271697797E+02  0.78131648423E+02  0.00000000000E+00 0. -1.
         22    1    3    3    0    0 -0.46873323268E+01 -0.50605958790E+02 -0.40620118145E+03  0.40936821318E+03  0.00000000000E+00 0.  1.
         22    1    3    3    0    0 -0.15948540936E+02  0.69310362820E+02 -0.29677786841E+03  0.30518090624E+03  0.00000000000E+00 0.  1.
</event>
<event>
 7    1  0.6607887E-006  0.5013662E+02  0.7818608E-02  0.1518508E+00
          2   -1    0    0  502    0  0.00000000000E+00  0.00000000000E+00  0.58051715082E+02  0.58051715082E+02  0.00000000000E+00 0. -1.
          1   -1    0    0  501    0 -0.00000000000E+00 -0.00000000000E+00 -0.26928786582E+04  0.26928786582E+04  0.00000000000E+00 0. -1.
         25    2    1    2    0    0 -0.16509409454E+02 -0.18698684169E+02 -0.84115366195E+02  0.15271403229E+03  0.12499591768E+03 0.  0.
          2    1    1    2  501    0  0.46258288265E+02  0.19844522650E+02 -0.25647903866E+04  0.25652842652E+04  0.00000000000E+00 0. -1.
          1    1    1    2  502    0 -0.29748878811E+02 -0.11458384808E+01  0.14078809625E+02  0.32932075804E+02  0.00000000000E+00 0. -1.
         22    1    3    3    0    0 -0.38339403286E+02 -0.60736791450E+02 -0.23055415603E+02  0.75434871701E+02  0.00000000000E+00 0.  1.
         22    1    3    3    0    0  0.21829993832E+02  0.42038107280E+02 -0.61059950592E+02  0.77279160585E+02  0.00000000000E+00 0.  1.
</event>
<event>
 7    1  0.6607887E-006  0.1199790E+03  0.7818608E-02  0.1278804E+00
          2   -1    0    0  502    0  0.00000000000E+00  0.00000000000E+00  0.13136323943E+04  0.13136323943E+04  0.00000000000E+00 0. -1.
          1   -1    0    0  501    0 -0.00000000000E+00 -0.00000000000E+00 -0.39108423780E+03  0.39108423780E+03  0.00000000000E+00 0. -1.
         25    2    1    2    0    0  0.15234898450E+03 -0.11734395424E+03 -0.17877397024E+03  0.29080007202E+03  0.12499893110E+03 0.  0.
          2    1    1    2  501    0 -0.81824810234E+02  0.21256290007E+02 -0.14180242222E+03  0.16509105482E+03  0.00000000000E+00 0. -1.
          1    1    1    2  502    0 -0.70524174265E+02  0.96087664232E+02  0.12431245490E+04  0.12488255053E+04  0.00000000000E+00 0. -1.
         22    1    3    3    0    0  0.15687284180E+03 -0.54800872874E+02 -0.12122448738E+03  0.20568811464E+03  0.00000000000E+00 0. -1.
         22    1    3    3    0    0 -0.45238573052E+01 -0.62543081365E+02 -0.57549482859E+02  0.85111957379E+02  0.00000000000E+00 0. -1.
</event>
<event>
 7    1  0.6607887E-006  0.1175440E+03  0.7818608E-02  0.1349410E+00
          2   -1    0    0  502    0  0.00000000000E+00  0.00000000000E+00  0.54289239215E+03  0.54289239215E+03  0.00000000000E+00 0. -1.
          1   -1    0    0  501    0 -0.00000000000E+00 -0.00000000000E+00 -0.30534838615E+03  0.30534838615E+03  0.00000000000E+00 0. -1.
         25    2    1    2    0    0 -0.75851963168E+02  0.30108265889E+02  0.10659612776E+03  0.18343658988E+03  0.12500488015E+03 0.  0.
          2    1    1    2  501    0  0.11982795202E+03 -0.17916803820E+02 -0.25175358576E+03  0.27939151363E+03  0.00000000000E+00 0. -1.
          1    1    1    2  502    0 -0.43975988856E+02 -0.12191462070E+02  0.38270146400E+03  0.38541267479E+03  0.00000000000E+00 0. -1.
         22    1    3    3    0    0 -0.71238277644E+02  0.16847283832E+02 -0.26895160151E+01  0.73252690535E+02  0.00000000000E+00 0. -1.
         22    1    3    3    0    0 -0.46136855239E+01  0.13260982058E+02  0.10928564378E+03  0.11018389935E+03  0.00000000000E+00 0. -1.
</event>
<event>
 7    1  0.6607887E-006  0.6350595E+02  0.7818608E-02  0.1390419E+00
          2   -1    0    0  502    0  0.00000000000E+00  0.00000000000E+00  0.45790211801E+02  0.45790211801E+02  0.00000000000E+00 0. -1.
          1   -1    0    0  501    0 -0.00000000000E+00 -0.00000000000E+00 -0.13115999363E+04  0.13115999363E+04  0.00000000000E+00 0. -1.
         25    2    1    2    0    0  0.73868566696E+02 -0.72050788627E+02 -0.41783399458E+03  0.44817249612E+03  0.12500183185E+03 0.  0.
          2    1    1    2  501    0 -0.60094152054E+02  0.13504344308E+02 -0.84682465508E+03  0.84906164139E+03  0.00000000000E+00 0. -1.
          1    1    1    2  502    0 -0.13774414642E+02  0.58546444319E+02 -0.11510748729E+01  0.60156010627E+02  0.00000000000E+00 0. -1.
         22    1    3    3    0    0  0.64697454607E+02 -0.89496179192E+02 -0.19210288848E+03  0.22158259518E+03  0.00000000000E+00 0.  1.
         22    1    3    3    0    0  0.91711120885E+01  0.17445390565E+02 -0.22573110610E+03  0.22658990095E+03  0.00000000000E+00 0.  1.
</event>
<event>
 7    1  0.6607887E-006  0.2278317E+03  0.7818608E-02  0.1234442E+00
          2   -1    0    0  502    0  0.00000000000E+00  0.00000000000E+00  0.28575940613E+04  0.28575940613E+04  0.00000000000E+00 0. -1.
          1   -1    0    0  501    0 -0.00000000000E+00 -0.00000000000E+00 -0.17249551854E+03  0.17249551854E+03  0.00000000000E+00 0. -1.
         25    2    1    2    0    0 -0.23209893271E+03 -0.12696436706E+03  0.80891990861E+03  0.86021264670E+03  0.12499805572E+03 0.  0.
          2    1    1    2  501    0  0.16710389882E+03  0.15020020317E+03 -0.59927693217E+02  0.23254062537E+03  0.00000000000E+00 0. -1.
          1    1    1    2  502    0  0.64995033890E+02 -0.23235836112E+02  0.19361063274E+04  0.19373363078E+04  0.00000000000E+00 0. -1.
         22    1    3    3    0    0 -0.38722265502E+02 -0.69748029419E+02  0.34935860251E+03  0.35835127264E+03  0.00000000000E+00 0.  1.
         22    1    3    3    0    0 -0.19337666721E+03 -0.57216337637E+02  0.45956130610E+03  0.50186137406E+03  0.00000000000E+00 0.  1.
</event>
<event>
 7    1  0.6607887E-006  0.1572531E+03  0.7818608E-02  0.1194898E+00
          2   -1    0    0  502    0  0.00000000000E+00  0.00000000000E+00  0.80601637169E+03  0.80601637169E+03  0.00000000000E+00 0. -1.
          1   -1    0    0  501    0 -0.00000000000E+00 -0.00000000000E+00 -0.59479104313E+03  0.59479104313E+03  0.00000000000E+00 0. -1.
         25    2    1    2    0    0 -0.12694455238E+03 -0.16395605137E+02  0.42630874110E+03  0.46232911371E+03  0.12500132560E+03 0.  0.
          2    1    1    2  501    0 -0.10079605836E+03  0.11383714706E+03 -0.52221613451E+03  0.54390112389E+03  0.00000000000E+00 0. -1.
          1    1    1    2  502    0  0.22774061074E+03 -0.97441541927E+02  0.30713272197E+03  0.39457717721E+03  0.00000000000E+00 0. -1.
         22    1    3    3    0    0 -0.60180071294E+02 -0.62479599973E+02  0.13954435957E+03  0.16431058907E+03  0.00000000000E+00 0.  1.
         22    1    3    3    0    0 -0.66764481085E+02  0.46083994836E+02  0.28676438153E+03  0.29801852464E+03  0.00000000000E+00 0.  1.
</event>
<event>
 7    1  0.6607887E-006  0.5197612E+02  0.7818608E-02  0.1438309E+00
          2   -1    0    0  502    0  0.00000000000E+00  0.00000000000E+00  0.72698879049E+03  0.72698879049E+03  0.00000000000E+00 0. -1.
          1   -1    0    0  501    0 -0.00000000000E+00 -0.00000000000E+00 -0.21619283790E+02  0.21619283790E+02  0.00000000000E+00 0. -1.
         25    2    1    2    0    0 -0.10547201566E+02  0.55194540198E+01  0.28515826754E+03  0.31157801986E+03  0.12499566825E+03 0.  0.
          2    1    1    2  501    0 -0.50686969452E+02 -0.17280130157E+00  0.11475760273E+03  0.12545320289E+03  0.00000000000E+00 0. -1.
          1    1    1    2  502    0  0.61234171018E+02 -0.53466527183E+01  0.30545363643E+03  0.31157685152E+03  0.00000000000E+00 0. -1.
         22    1    3    3    0    0 -0.27265009784E+00  0.39000507192E+02  0.19469589079E+02  0.43591040343E+02  0.00000000000E+00 0. -1.
         22    1    3    3    0    0 -0.10274551468E+02 -0.33481053172E+02  0.26568867846E+03  0.26798697952E+03  0.00000000000E+00 0. -1.
</event>
<event>
 7    1  0.6607887E-006  0.6653036E+02  0.7818608E-02  0.1389793E+00
          2   -1    0    0  502    0  0.00000000000E+00  0.00000000000E+00  0.78913858752E+03  0.78913858752E+03  0.00000000000E+00 0. -1.
          1   -1    0    0  501    0 -0.00000000000E+00 -0.00000000000E+00 -0.11035598067E+04  0.11035598067E+04  0.00000000000E+00 0. -1.
         25    2    1    2    0    0  0.12325749733E+02 -0.12369159730E+02  0.11749343347E+03  0.17243947985E+03  0.12500298830E+03 0.  0.
          2    1    1    2  501    0  0.57493353597E+02  0.48831671051E+01 -0.10733960198E+04  0.10749457411E+04  0.00000000000E+00 0. -1.
          1    1    1    2  502    0 -0.69819103329E+02  0.74859926249E+01  0.64148136710E+03  0.64531317329E+03  0.00000000000E+00 0. -1.
         22    1    3    3    0    0  0.36160306888E+02  0.33869110703E+02  0.10899880869E+03  0.11973063413E+03  0.00000000000E+00 0.  1.
         22    1    3    3    0    0 -0.23834557155E+02 -0.46238270433E+02  0.84946247889E+01  0.52708845725E+02  0.00000000000E+00 0.  1.
</event>
<event>
 7    1  0.6607887E-006  0.8265213E+02  0.7818608E-02  0.1501323E+00
          2   -1    0    0  502    0  0.00000000000E+00  0.00000000000E+00  0.17863190882E+03  0.17863190882E+03  0.00000000000E+00 0. -1.
          1   -1    0    0  501    0 -0.00000000000E+00 -0.00000000000E+00 -0.43414269069E+03  0.43414269069E+03  0.00000000000E+00 0. -1.
         25    2    1    2    0    0 -0.10655707649E+02 -0.80545414206E+02 -0.32379539963E+02  0.15256081089E+03  0.12500103422E+03 0.  0.
          2    1    1    2  501    0  0.20179362723E+02 -0.21190432363E+01 -0.32671617265E+03  0.32734561934E+03  0.00000000000E+00 0. -1.
          1    1    1    2  502    0 -0.95236550744E+01  0.82664457443E+02  0.10358493075E+03  0.13286816929E+03  0.00000000000E+00 0. -1.
         22    1    3    3    0    0  0.12647871447E+02  0.55355683686E+01 -0.58122755959E+02  0.59739986019E+02  0.00000000000E+00 0. -1.
         22    1    3    3    0    0 -0.23303579096E+02 -0.86080982575E+02  0.25743215997E+02  0.92820824870E+02  0.00000000000E+00 0. -1.
</event>
<event>
 7    1  0.6607887E-006  0.1234943E+03  0.7818608E-02  0.1405672E+00
          2   -1    0    0  502    0  0.00000000000E+00  0.00000000000E+00  0.17348991119E+03  0.17348991119E+03  0.00000000000E+00 0. -1.
          1   -1    0    0  501    0 -0.00000000000E+00 -0.00000000000E+00 -0.13602799169E+04  0.13602799169E+04  0.00000000000E+00 0. -1.
         25    2    1    2    0    0 -0.35129152986E+02 -0.92173264706E+02 -0.24680962472E+03  0.29371677716E+03  0.12499834485E+03 0.  0.
          2    1    1    2  501    0 -0.70919806815E+01 -0.26467216191E+02 -0.10633852003E+04  0.10637381698E+04  0.00000000000E+00 0. -1.
          1    1    1    2  502    0  0.42221133668E+02  0.11864048090E+03  0.12340481936E+03  0.17631488104E+03  0.00000000000E+00 0. -1.
         22    1    3    3    0    0  0.39675913425E+01  0.30049590008E+02 -0.57741902729E+02  0.65213855671E+02  0.00000000000E+00 0.  1.
         22    1    3    3    0    0 -0.39096744329E+02 -0.12222285471E+03 -0.18906772199E+03  0.22850292149E+03  0.00000000000E+00 0.  1.
</event>
<event>
 7    1  0.6607887E-006  0.5874515E+02  0.7818608E-02  0.1497843E+00
          2   -1    0    0  502    0  0.00000000000E+00  0.00000000000E+00  0.14465243119E+04  0.14465243119E+04  0.00000000000E+00 0. -1.
          1   -1    0    0  501    0 -0.00000000000E+00 -0.00000000000E+00 -0.27593227559E+02  0.27593227559E+02  0.00000000000E+00 0. -1.
         25    2    1    2    0    0 -0.27978663031E+02  0.40911911499E+02  0.42601411126E+03  0.44673218028E+03  0.12500011129E+03 0.  0.
          2    1    1    2  501    0  0.22330031997E+02  0.18875420921E+02 -0.32418161176E+01  0.29418042349E+02  0.00000000000E+00 0. -1.
          1    1    1    2  502    0  0.56486310346E+01 -0.59787332420E+02  0.99615878916E+03  0.99796731679E+03  0.00000000000E+00 0. -1.
         22    1    3    3    0    0  0.90929908893E+01  0.57958879478E+02  0.84971294142E+02  0.10325713061E+03  0.00000000000E+00 0. -1.
         22    1    3    3    0    0 -0.37071653921E+02 -0.17046967979E+02  0.34104281712E+03  0.34347504967E+03  0.00000000000E+00 0. -1.
</event>
<event>
 7    1  0.6607887E-006  0.2274378E+03  0.7818608E-02  0.1162875E+00
          2   -1    0    0  502    0  0.00000000000E+00  0.00000000000E+00  0.22349955737E+04  0.22349955737E+04  0.00000000000E+00 0. -1.
          1   -1    0    0  501    0 -0.00000000000E+00 -0.00000000000E+00 -0.77833804797E+03  0.77833804797E+03  0.00000000000E+00 0. -1.
         25    2    1    2    0    0 -0.18451279677E+03  0.23688259380E+03 -0.10297871593E+03  0.34115663230E+03  0.12499958565E+03 0.  0.
          2    1    1    2  501    0  0.20158190572E+03 -0.87065570227E+02 -0.53178063578E+03  0.57533148951E+03  0.00000000000E+00 0. -1.
          1    1    1    2  502    0 -0.17069108951E+02 -0.14981702357E+03  0.20914168774E+04  0.20968454999E+04  0.00000000000E+00 0. -1.
         22    1    3    3    0    0 -0.43651139746E+02  0.44870305463E+02 -0.80474638408E+02  0.10195554786E+03  0.00000000000E+00 0. -1.
         22    1    3    3    0    0 -0.14086165702E+03  0.19201228833E+03 -0.22504077521E+02  0.23920108443E+03  0.00000000000E+00 0. -1.
</event>
<event>
 7    1  0.6607887E-006  0.2001148E+03  0.7818608E-02  0.1368757E+00
          2   -1    0    0  502    0  0.00000000000E+00  0.00000000000E+00  0.59141249455E+03  0.59141249455E+03  0.00000000000E+00 0. -1.
          1   -1    0    0  501    0 -0.00000000000E+00 -0.00000000000E+00 -0.92707914854E+03  0.92707914854E+03  0.00000000000E+00 0. -1.
         25    2    1    2    0    0  0.17814535256E+03 -0.98463753467E+01  0.34525709646E+03  0.40824103176E+03  0.12500223842E+03 0.  0.
          2    1    1    2  501    0 -0.20014645671E+03  0.15743256832E+02 -0.88369008556E+03  0.90620892822E+03  0.00000000000E+00 0. -1.
          1    1    1    2  502    0  0.22001104149E+02 -0.58968814857E+01  0.20276633510E+03  0.20404168311E+03  0.00000000000E+00 0. -1.
         22    1    3    3    0    0  0.30428323253E+02 -0.55265429210E+02  0.10853338607E+03  0.12553743033E+03  0.00000000000E+00 0.  1.
         22    1    3    3    0    0  0.14771702931E+03  0.45419053863E+02  0.23672371039E+03  0.28270360143E+03  0.00000000000E+00 0.  1.
</event>
<event>
 7    1  0.6607887E-006  0.9481230E+02  0.7818608E-02  0.1434614E+00
          2   -1    0    0  502    0  0.00000000000E+00  0.00000000000E+00  0.25873764830E+04  0.25873764830E+04  0.00000000000E+00 0. -1.
          1   -1    0    0  501    0 -0.00000000000E+00 -0.00000000000E+00 -0.84426776515E+02  0.84426776515E+02  0.00000000000E+00 0. -1.
         25    2    1    2    0    0 -0.61565012735E+02  0.43529712878E+02  0.72491095899E+03  0.73946340511E+03  0.12500056936E+03 0.  0.
          2    1    1    2  501    0  0.88927488321E+02 -0.35315431805E+02 -0.47328811166E+02  0.10674874364E+03  0.00000000000E+00 0. -1.
          1    1    1    2  502    0 -0.27362475586E+02 -0.82142810722E+01  0.18253675586E+04  0.18255911107E+04  0.00000000000E+00 0. -1.
         22    1    3    3    0    0 -0.99759137338E+02  0.22194990976E+02  0.51475499214E+03  0.52480206272E+03  0.00000000000E+00 0.  1.
         22    1    3    3    0    0  0.38194124604E+02  0.21334721901E+02  0.21015596686E+03  0.21466134239E+03  0.00000000000E+00 0.  1.
</event>
<event>
 7    1  0.6607887E-006  0.4780654E+02  0.7818608E-02  0.1491237E+00
          2   -1    0    0  502    0  0.00000000000E+00  0.00000000000E+00  0.11602482678E+04  0.11602482678E+04  0.00000000000E+00 0. -1.
          1   -1    0    0  501    0 -0.00000000000E+00 -0.00000000000E+00 -0.59154306844E+03  0.59154306844E+03  0.00000000000E+00 0. -1.
         25    2    1    2    0    0 -0.18215768517E+02  0.65839833400E+01 -0.24963096981E+03  0.27984975731E+03  0.12500041008E+03 0.  0.
          2    1    1    2  501    0 -0.24189887962E+02 -0.28799072298E+02 -0.32521814539E+03  0.32738567369E+03  0.00000000000E+00 0. -1.
          1    1    1    2  502    0  0.42405656479E+02  0.22215088958E+02  0.11435543145E+04  0.11445559052E+04  0.00000000000E+00 0. -1.
         22    1    3    3    0    0  0.13706206638E+02  0.75434330614E+01  0.97997396299E+01  0.18460725326E+02  0.00000000000E+00 0.  1.
         22    1    3    3    0    0 -0.31921975155E+02 -0.95944972138E+00 -0.25943070944E+03  0.26138903199E+03  0.00000000000E+00 0.  1.
</event>
<event>
 7    1  0.6607887E-006  0.1021391E+03  0.7818608E-02  0.1276427E+00
          2   -1    0    0  502    0  0.00000000000E+00  0.00000000000E+00  0.58482599367E+03  0.58482599367E+03  0.00000000000E+00 0. -1.
          1   -1    0    0  501    0 -0.00000000000E+00 -0.00000000000E+00 -0.10858508314E+04  0.10858508314E+04  0.00000000000E+00 0. -1.
         25    2    1    2    0    0 -0.63941442138E+01 -0.11860455728E+03  0.99195004662E+02  0.19892450235E+03  0.12499353022E+03 0.  0.
          2    1    1    2  501    0  0.86216742636E+02  0.55768761230E+02 -0.10274714905E+04  0.10325895337E+04  0.00000000000E+00 0. -1.
          1    1    1    2  502    0 -0.79822598423E+02  0.62835796055E+02  0.42725164806E+03  0.43916278902E+03  0.00000000000E+00 0. -1.
         22    1    3    3    0    0  0.29090803962E+02 -0.45965370835E+01 -0.15566865794E+02  0.33312615312E+02  0.00000000000E+00 0.  1.
         22    1    3    3    0    0 -0.35484948175E+02 -0.11400802020E+03  0.11476187046E+03  0.16561188704E+03  0.00000000000E+00 0.  1.
</event>
<event>
 7    1  0.6607887E-006  0.9153829E+02  0.7818608E-02  0.1383935E+00
          2   -1    0    0  502    0  0.00000000000E+00  0.00000000000E+00  0.11603311846E+03  0.11603311846E+03  0.00000000000E+00 0. -1.
          1   -1    0    0  501    0 -0.00000000000E+00 -0.00000000000E+00 -0.36227790771E+03  0.36227790771E+03  0.00000000000E+00 0. -1.
         25    2    1    2    0    0  0.46477516282E+02  0.10043782715E+03 -0.73243488953E+02  0.18231189494E+03  0.12500040687E+03 0.  0.
          2    1    1    2  501    0  0.17904739834E+02 -0.40156695648E+02 -0.19919818948E+03  0.20399279057E+03  0.00000000000E+00 0. -1.
          1    1    1    2  502    0 -0.64382256116E+02 -0.60281131507E+02  0.26196889179E+02  0.92006340656E+02  0.00000000000E+00 0. -1.
         22    1    3    3    0    0  0.54712383627E+02  0.11095471930E+03 -0.95548302644E+02  0.15631338009E+03  0.00000000000E+00 0. -1.
         22    1    3    3    0    0 -0.82348673458E+01 -0.10516892144E+02  0.22304813691E+02  0.25998514849E+02  0.00000000000E+00 0. -1.
</event>
<event>
 7    1  0.6607887E-006  0.4913336E+02  0.7818608E-02  0.1466555E+00
          2   -1    0    0  502    0  0.00000000000E+00  0.00000000000E+00  0.16712780294E+03  0.16712780294E+03  0.00000000000E+00 0. -1.
          1   -1    0    0  501    0 -0.00000000000E+00 -0.00000000000E+00 -0.47800293114E+03  0.47800293114E+03  0.00000000000E+00 0. -1.
         25    2    1    2    0    0 -0.24080946239E+02 -0.29750179094E+02  0.93591355864E+02  0.16077115776E+03  0.12499223235E+03 0.  0.
          2    1    1    2  501    0 -0.38174369231E+02  0.21015678094E+02 -0.41782467615E+03  0.42009094395E+03  0.00000000000E+00 0. -1.
          1    1    1    2  502    0  0.62255315470E+02  0.87345009994E+01  0.13358192079E+02  0.64268632376E+02  0.00000000000E+00 0. -1.
         22    1    3    3    0    0 -0.22943203680E+02  0.20311795708E+02  0.10502806703E+03  0.10940683024E+03  0.00000000000E+00 0.  1.
         22    1    3    3    0    0 -0.11377425591E+01 -0.50061974801E+02 -0.11436711165E+02  0.51364327518E+02  0.00000000000E+00 0.  1.
</event>
<event>
 7    1  0.6607887E-006  0.1267682E+03  0.7818608E-02  0.1233879E+00
          2   -1    0    0  502    0  0.00000000000E+00  0.00000000000E+00  0.98717082008E+02  0.98717082008E+02  0.00000000000E+00 0. -1.
          1   -1    0    0  501    0 -0.00000000000E+00 -0.00000000000E+00 -0.57674524922E+03  0.57674524922E+03  0.00000000000E+00 0. -1.
         25    2    1    2    0    0 -0.65636493913E+02 -0.29457678997E+02 -0.12128466780E+03  0.18843942799E+03  0.12499417263E+03 0.  0.
          2    1    1    2  501    0 -0.11091563980E+03 -0.61383153111E+02 -0.18634941911E+03  0.22538029337E+03  0.00000000000E+00 0. -1.
          1    1    1    2  502    0  0.17655213371E+03  0.90840832108E+02 -0.17039408030E+03  0.26164260987E+03  0.00000000000E+00 0. -1.
         22    1    3    3    0    0  0.17420626106E+02  0.87545609258E+01  0.14812183865E+02  0.24485124908E+02  0.00000000000E+00 0.  1.
         22    1    3    3    0    0 -0.83057120019E+02 -0.38212239923E+02 -0.13609685166E+03  0.16395430308E+03  0.00000000000E+00 0.  1.
</event>
<event>
 7    1  0.6607887E-006  0.1451930E+03  0.7818608E-02  0.1332742E+00
          2   -1    0    0  502    0  0.00000000000E+00  0.00000000000E+00  0.48082369099E+03  0.48082369099E+03  0.00000000000E+00 0. -1.
          1   -1    0    0  501    0 -0.00000000000E+00 -0.00000000000E+00 -0.29271299862E+03  0.29271299862E+03  0.00000000000E+00 0. -1.
         25    2    1    2    0    0  0.10673768680E+03 -0.39758547121E+02  0.26956783683E+01  0.16913136642E+03  0.12499790627E+03 0.  0.
          2    1    1    2  501    0 -0.14897576758E+03  0.45836229209E+02 -0.17908514704E+03  0.23741573058E+03  0.00000000000E+00 0. -1.
          1    1    1    2  502    0  0.42238080785E+02 -0.60776820883E+01  0.36450016104E+03  0.36698959261E+03  0.00000000000E+00 0. -1.
         22    1    3    3    0    0  0.12057448203E+03 -0.12674325764E+01  0.24101295792E+02  0.12296619276E+03  0.00000000000E+00 0. -1.
         22    1    3    3    0    0 -0.13836795240E+02 -0.38491114545E+02 -0.21405617424E+02  0.46165173656E+02  0.00000000000E+00 0. -1.
</event>
<event>
 7    1  0.6607887E-006  0.6670613E+02  0.7818608E-02  0.1511145E+00
          2   -1    0    0  502    0  0.00000000000E+00  0.00000000000E+00  0.17844284701E+04  0.17844284701E+04  0.00000000000E+00 0. -1.
          1   -1    0    0  501    0 -0.00000000000E+00 -0.00000000000E+00 -0.25461984192E+02  0.25461984192E+02  0.00000000000E+00 0. -1.
         25    2    1    2    0    0 -0.12913799593E+02  0.88072958988E+02  0.13368317167E+04  0.13456104691E+04  0.12499953362E+03 0.  0.
          2    1    1    2  501    0  0.12924857638E+02 -0.64559492829E+02  0.31587777518E+02  0.73025801933E+02  0.00000000000E+00 0. -1.
          1    1    1    2  502    0 -0.11058045210E-01 -0.23513466159E+02  0.39054699166E+03  0.39125418325E+03  0.00000000000E+00 0. -1.
         22    1    3    3    0    0 -0.56149915807E+01 -0.32197902180E+02  0.25336771238E+03  0.25546708342E+03  0.00000000000E+00 0. -1.
         22    1    3    3    0    0 -0.72988080126E+01  0.12027086117E+03  0.10834640043E+04  0.10901433857E+04  0.00000000000E+00 0. -1.
</event>
<event>
 7    1  0.6607887E-006  0.2169137E+03  0.7818608E-02  0.1251225E+00
          2   -1    0    0  502    0  0.00000000000E+00  0.00000000000E+00  0.23876966679E+04  0.23876966679E+04  0.00000000000E+00 0. -1.
          1   -1    0    0  501    0 -0.00000000000E+00 -0.00000000000E+00 -0.51110929967E+03  0.51110929967E+03  0.00000000000E+00 0. -1.
         25    2    1    2    0    0 -0.17048783306E+03 -0.38310582070E+02  0.38202623099E+02  0.21823211567E+03  0.12502805276E+03 0.  0.
          2    1    1    2  501    0 -0.49144400429E+02  0.36448999483E+02 -0.41350035438E+03  0.41800268508E+03  0.00000000000E+00 0. -1.
          1    1    1    2  502    0  0.21963223349E+03  0.18615825873E+01  0.22518850996E+04  0.22625711669E+04  0.00000000000E+00 0. -1.
         22    1    3    3    0    0  0.20830960992E+01  0.69218506865E+01  0.39167681341E+02  0.39829117087E+02  0.00000000000E+00 0.  1.
         22    1    3    3    0    0 -0.17257092916E+03 -0.45232432757E+02 -0.96505824193E+00  0.17840299858E+03  0.00000000000E+00 0.  1.
</event>
<event>
 7    1  0.6607887E-006  0.6506026E+02  0.7818608E-02  0.1482865E+00
          2   -1    0    0  502    0  0.00000000000E+00  0.00000000000E+00  0.18068389832E+04  0.18068389832E+04  0.00000000000E+00 0. -1.
          1   -1    0    0  501    0 -0.00000000000E+00 -0.00000000000E+00 -0.80017516025E+03  0.80017516025E+03  0.00000000000E+00 0. -1.
         25    2    1    2    0    0  0.47221976290E+02 -0.81195834098E+02  0.54382873166E+03  0.56586021543E+03  0.12500166203E+03 0.  0.
          2    1    1    2  501    0 -0.35929574490E+02  0.54156237385E+02 -0.78764940618E+03  0.79032614750E+03  0.00000000000E+00 0. -1.
          1    1    1    2  502    0 -0.11292401800E+02  0.27039596714E+02  0.12504844974E+04  0.12508277805E+04  0.00000000000E+00 0. -1.
         22    1    3    3    0    0  0.14769306307E+02  0.14781904750E+02  0.31395336348E+03  0.31464798038E+03  0.00000000000E+00 0.  1.
         22    1    3    3    0    0  0.32452669983E+02 -0.95977738849E+02  0.22987536818E+03  0.25121223505E+03  0.00000000000E+00 0.  1.
</event>
<event>
 7    1  0.6607887E-006  0.1196271E+03  0.7818608E-02  0.1395958E+00
          2   -1    0    0  502    0  0.00000000000E+00  0.00000000000E+00  0.11930670687E+04  0.11930670687E+04  0.00000000000E+00 0. -1.
          1   -1    0    0  501    0 -0.00000000000E+00 -0.00000000000E+00 -0.39598146505E+03  0.39598146505E+03  0.00000000000E+00 0. -1.
         25    2    1    2    0    0  0.97763664035E+01  0.89056413609E+02  0.73034628106E+03  0.74636404486E+03  0.12500790000E+03 0.  0.
          2    1    1    2  501    0 -0.16344004955E+02 -0.11888731152E+03 -0.37815651141E+03  0.39674130925E+03  0.00000000000E+00 0. -1.
          1    1    1    2  502    0  0.65676385513E+01  0.29830897910E+02  0.44489583400E+03  0.44594317963E+03  0.00000000000E+00 0. -1.
         22    1    3    3    0    0 -0.48836110552E+02  0.79892487053E+02  0.48408501266E+03  0.49305788166E+03  0.00000000000E+00 0. -1.
         22    1    3    3    0    0  0.58612476955E+02  0.91639265562E+01  0.24626126840E+03  0.25330616321E+03  0.00000000000E+00 0. -1.
</event>
<event>
 7    1  0.6607887E-006  0.2478960E+03  0.7818608E-02  0.1335972E+00
          2   -1    0    0  502    0  0.00000000000E+00  0.00000000000E+00  0.90409478522E+03  0.90409478522E+03  0.00000000000E+00 0. -1.
          1   -1    0    0  501    0 -0.00000000000E+00 -0.00000000000E+00 -0.26914765334E+03  0.26914765334E+03  0.00000000000E+00 0. -1.
         25    2    1    2    0    0 -0.26418438148E+03  0.15630589775E+02  0.29735172863E+03  0.41723023025E+03  0.12500124705E+03 0.  0.
          2    1    1    2  501    0  0.23966125225E+02 -0.40036225542E+01 -0.18191691646E+03  0.18353247300E+03  0.00000000000E+00 0. -1.
          1    1    1    2  502    0  0.24021825626E+03 -0.11626967221E+02  0.51951231971E+03  0.57247973531E+03  0.00000000000E+00 0. -1.
         22    1    3    3    0    0 -0.20029176142E+03 -0.44196917531E+02  0.21162302998E+03  0.29471081424E+03  0.00000000000E+00 0. -1.
         22    1    3    3    0    0 -0.63892620062E+02  0.59827507307E+02  0.85728698647E+02  0.12251941601E+03  0.00000000000E+00 0. -1.
</event>
<event>
 7    1  0.6607887E-006  0.3725739E+02  0.7818608E-02  0.1607347E+00
          2   -1    0    0  502    0  0.00000000000E+00  0.00000000000E+00  0.77077257156E+02  0.77077257156E+02  0.00000000000E+00 0. -1.
          1   -1    0    0  501    0 -0.00000000000E+00 -0.00000000000E+00 -0.24687240535E+04  0.24687240535E+04  0.00000000000E+00 0. -1.
         25    2    1    2    0    0 -0.43229496608E+02 -0.29753167465E+02 -0.83039449753E+02  0.15897804212E+03  0.12499770922E+03 0.  0.
          2    1    1    2  501    0  0.20418006839E+02  0.31111557463E+02 -0.23442167239E+04  0.23445120756E+04  0.00000000000E+00 0. -1.
          1    1    1    2  502    0  0.22811489769E+02 -0.13583899987E+01  0.35609377351E+02  0.42311192895E+02  0.00000000000E+00 0. -1.
         22    1    3    3    0    0 -0.48759968879E+02 -0.75083812901E+02 -0.60493361040E+02  0.10804887901E+03  0.00000000000E+00 0. -1.
         22    1    3    3    0    0  0.55304722713E+01  0.45330645436E+02 -0.22546088714E+02  0.50929163114E+02  0.00000000000E+00 0. -1.
</event>
<event>
 7    1  0.6607887E-006  0.4352353E+02  0.7818608E-02  0.1563640E+00
          2   -1    0    0  502    0  0.00000000000E+00  0.00000000000E+00  0.25694019574E+03  0.25694019574E+03  0.00000000000E+00 0. -1.
          1   -1    0    0  501    0 -0.00000000000E+00 -0.00000000000E+00 -0.91188032855E+02  0.91188032855E+02  0.00000000000E+00 0. -1.
         25    2    1    2    0    0  0.67528255806E+01  0.37021641717E+02 -0.27163258427E+02  0.13333718016E+03  0.12499903359E+03 0.  0.
          2    1    1    2  501    0 -0.31110401801E+02 -0.44815103680E+02  0.67476501578E+02  0.86771705545E+02  0.00000000000E+00 0. -1.
          1    1    1    2  502    0  0.24357576220E+02  0.77934619622E+01  0.12543891974E+03  0.12801934289E+03  0.00000000000E+00 0. -1.
         22    1    3    3    0    0  0.63220363507E+01  0.63544219008E+02 -0.62365462235E+02  0.89259659381E+02  0.00000000000E+00 0. -1.
         22    1    3    3    0    0  0.43078922982E+00 -0.26522577291E+02  0.35202203808E+02  0.44077520784E+02  0.00000000000E+00 0. -1.
</event>
<event>
 7    1  0.6607887E-006  0.1526219E+03  0.7818608E-02  0.1332729E+00
          2   -1    0    0  502    0  0.00000000000E+00  0.00000000000E+00  0.83469200465E+03  0.83469200465E+03  0.00000000000E+00 0. -1.
          1   -1    0    0  501    0 -0.00000000000E+00 -0.00000000000E+00 -0.29476757027E+03  0.29476757027E+03  0.00000000000E+00 0. -1.
         25    2    1    2    0    0 -0.99826184159E+02 -0.10916941245E+03 -0.78037978428E-02  0.19366911502E+03  0.12499799355E+03 0.  0.
          2    1    1    2  501    0  0.13112553573E+03  0.83308808947E+02 -0.16677298551E+03  0.22791992555E+03  0.00000000000E+00 0. -1.
          1    1    1    2  502    0 -0.31299351575E+02  0.25860603508E+02  0.70670522369E+03  0.70787053436E+03  0.00000000000E+00 0. -1.
         22    1    3    3    0    0 -0.64232325386E+02  0.12074772871E+02  0.13009068128E+02  0.66639534947E+02  0.00000000000E+00 0. -1.
         22    1    3    3    0    0 -0.35593858773E+02 -0.12124418533E+03 -0.13016871926E+02  0.12702958007E+03  0.00000000000E+00 0. -1.
</event>
<event>
 7    1  0.6607887E-006  0.7292001E+02  0.7818608E-02  0.1421797E+00
          2   -1    0    0  502    0  0.00000000000E+00  0.00000000000E+00  0.37759366347E+03  0.37759366347E+03  0.00000000000E+00 0. -1.
          1   -1    0    0  501    0 -0.00000000000E+00 -0.00000000000E+00 -0.10988894023E+03  0.10988894023E+03  0.00000000000E+00 0. -1.
         25    2    1    2    0    0 -0.34370190684E+02 -0.16189753545E+02  0.77112634916E+02  0.15170388563E+03  0.12499716926E+03 0.  0.
          2    1    1    2  501    0 -0.39692506394E+02 -0.10054732422E+02 -0.60289915703E+02  0.72879809573E+02  0.00000000000E+00 0. -1.
          1    1    1    2  502    0  0.74062697079E+02  0.26244485967E+02  0.25088200403E+03  0.26289890850E+03  0.00000000000E+00 0. -1.
         22    1    3    3    0    0 -0.17832029839E+02 -0.45803922724E+02 -0.16728072491E+02  0.51921180980E+02  0.00000000000E+00 0.  1.
         22    1    3    3    0    0 -0.16538160845E+02  0.29614169179E+02  0.93840707407E+02  0.99782704649E+02  0.00000000000E+00 0.  1.
</event>
<event>
 7    1  0.6607887E-006  0.7298508E+02  0.7818608E-02  0.1361389E+00
          2   -1    0    0  502    0  0.00000000000E+00  0.00000000000E+00  0.11235564782E+04  0.11235564782E+04  0.00000000000E+00 0. -1.
          1   -1    0    0  501    0 -0.00000000000E+00 -0.00000000000E+00 -0.77384087184E+03  0.77384087184E+03  0.00000000000E+00 0. -1.
         25    2    1    2    0    0  0.10434297896E+03  0.68510603559E+02 -0.11819305044E+03  0.21254570955E+03  0.12499968567E+03 0.  0.
          2    1    1    2  501    0 -0.66069810954E+02 -0.67181435034E+01 -0.60542662549E+03  0.60905808608E+03  0.00000000000E+00 0. -1.
          1    1    1    2  502    0 -0.38273168011E+02 -0.61792460056E+02  0.10733352823E+04  0.10757935544E+04  0.00000000000E+00 0. -1.
         22    1    3    3    0    0  0.28344717167E+02  0.12980961606E+02  0.25835167667E+02  0.40489310242E+02  0.00000000000E+00 0. -1.
         22    1    3    3    0    0  0.75998261797E+02  0.55529641953E+02 -0.14402821811E+03  0.17205639931E+03  0.00000000000E+00 0. -1.
</event>
<event>
 7    1  0.6607887E-006  0.3851385E+02  0.7818608E-02  0.1524002E+00
          2   -1    0    0  502    0  0.00000000000E+00  0.00000000000E+00  0.74000927740E+02  0.74000927740E+02  0.00000000000E+00 0. -1.
          1   -1    0    0  501    0 -0.00000000000E+00 -0.00000000000E+00 -0.12237079766E+04  0.12237079766E+04  0.00000000000E+00 0. -1.
         25    2    1    2    0    0  0.74202221668E+02 -0.48468995770E+01 -0.27199267564E+03  0.30843556253E+03  0.12499207374E+03 0.  0.
          2    1    1    2  501    0 -0.36959054674E+02  0.77961680760E+01 -0.92681005067E+03  0.92757944241E+03  0.00000000000E+00 0. -1.
          1    1    1    2  502    0 -0.37243166994E+02 -0.29492684990E+01  0.49095677476E+02  0.61693899368E+02  0.00000000000E+00 0. -1.
         22    1    3    3    0    0 -0.16366906741E+02  0.93716812984E+01  0.25116079016E+01  0.19026618745E+02  0.00000000000E+00 0.  1.
         22    1    3    3    0    0  0.90569128409E+02 -0.14218580875E+02 -0.27450428354E+03  0.28940894379E+03  0.00000000000E+00 0.  1.
</event>
<event>
 7    1  0.6607887E-006  0.8511023E+02  0.7818608E-02  0.1330996E+00
          2   -1    0    0  502    0  0.00000000000E+00  0.00000000000E+00  0.24526909314E+03  0.24526909314E+03  0.00000000000E+00 0. -1.
          1   -1    0    0  501    0 -0.00000000000E+00 -0.00000000000E+00 -0.49746195690E+03  0.49746195690E+03  0.00000000000E+00 0. -1.
         25    2    1    2    0    0 -0.12832270900E+03 -0.31971670507E+00 -0.34999731685E+02  0.18252706568E+03  0.12499731446E+03 0.  0.
          2    1    1    2  501    0  0.58883682350E+02 -0.44688100367E+02 -0.37489339073E+03  0.38211172289E+03  0.00000000000E+00 0. -1.
          1    1    1    2  502    0  0.69439026654E+02  0.45007817072E+02  0.15770025865E+03  0.17809226148E+03  0.00000000000E+00 0. -1.
         22    1    3    3    0    0 -0.61631959253E+02 -0.19510511147E+01  0.46482180593E+02  0.77219803900E+02  0.00000000000E+00 0. -1.
         22    1    3    3    0    0 -0.66690749751E+02  0.16313344096E+01 -0.81481912278E+02  0.10530726178E+03  0.00000000000E+00 0. -1.
</event>
<event>
 7    1  0.6607887E-006  0.8974169E+02  0.7818608E-02  0.1470272E+00
          2   -1    0    0  502    0  0.00000000000E+00  0.00000000000E+00  0.90873888418E+03  0.90873888418E+03  0.00000000000E+00 0. -1.
          1   -1    0    0  501    0 -0.00000000000E+00 -0.00000000000E+00 -0.63461618738E+02  0.63461618738E+02  0.00000000000E+00 0. -1.
         25    2    1    2    0    0  0.83126577439E+01 -0.67924868246E+02  0.43853554433E+03  0.46110735764E+03  0.12499473438E+03 0.  0.
          2    1    1    2  501    0 -0.10901515450E+02  0.91010122293E+02 -0.11346274588E+02  0.92360290959E+02  0.00000000000E+00 0. -1.
          1    1    1    2  502    0  0.25888577063E+01 -0.23085254047E+02  0.41808799570E+03  0.41873285432E+03  0.00000000000E+00 0. -1.
         22    1    3    3    0    0 -0.29177213278E+02  0.26649132413E+02  0.96940512447E+02  0.10468499886E+03  0.00000000000E+00 0.  1.
         22    1    3    3    0    0  0.37489871021E+02 -0.94574000659E+02  0.34159503188E+03  0.35642235878E+03  0.00000000000E+00 0.  1.
</event>
<event>
 7    1  0.6607887E-006  0.3230832E+03  0.7818608E-02  0.1108934E+00
          2   -1    0    0  502    0  0.00000000000E+00  0.00000000000E+00  0.48574777614E+03  0.48574777614E+03  0.00000000000E+00 0. -1.
          1   -1    0    0  501    0 -0.00000000000E+00 -0.00000000000E+00 -0.15327119573E+04  0.15327119573E+04  0.00000000000E+00 0. -1.
         25    2    1    2    0    0  0.23859216929E+02  0.50365249571E+03 -0.62062902397E+03  0.80934600454E+03  0.12500188397E+03 0.  0.
          2    1    1    2  501    0  0.34314588606E+02 -0.20159908583E+03 -0.74122271231E+03  0.76891533451E+03  0.00000000000E+00 0. -1.
          1    1    1    2  502    0 -0.58173805535E+02 -0.30205340988E+03  0.31488755511E+03  0.44019839440E+03  0.00000000000E+00 0. -1.
         22    1    3    3    0    0  0.17534055268E+02  0.10874938943E+03 -0.65834010248E+02  0.12832766538E+03  0.00000000000E+00 0. -1.
         22    1    3    3    0    0  0.63251616609E+01  0.39490310628E+03 -0.55479501373E+03  0.68101833916E+03  0.00000000000E+00 0. -1.
</event>
<event>
 7    1  0.6607887E-006  0.1972605E+03  0.7818608E-02  0.1256875E+00
          2   -1    0    0  502    0  0.00000000000E+00  0.00000000000E+00  0.14169383248E+04  0.14169383248E+04  0.00000000000E+00 0. -1.
          1   -1    0    0  501    0 -0.00000000000E+00 -0.00000000000E+00 -0.53573523403E+03  0.53573523403E+03  0.00000000000E+00 0. -1.
         25    2    1    2    0    0  0.12414190271E+03  0.13134080305E+03  0.42369264743E+03  0.47728619341E+03  0.12500012951E+03 0.  0.
          2    1    1    2  501    0 -0.83232239540E+02 -0.18005453521E+03 -0.48850152986E+03  0.52723902172E+03  0.00000000000E+00 0. -1.
          1    1    1    2  502    0 -0.40909663167E+02  0.48713732159E+02  0.94601197319E+03  0.94814834370E+03  0.00000000000E+00 0. -1.
         22    1    3    3    0    0  0.14928061842E+03  0.11655662940E+03  0.34855453800E+03  0.39668679944E+03  0.00000000000E+00 0.  1.
         22    1    3    3    0    0 -0.25138715715E+02  0.14784173648E+02  0.75138109439E+02  0.80599393970E+02  0.00000000000E+00 0.  1.
</event>
<event>
 7    1  0.6607887E-006  0.7038701E+02  0.7818608E-02  0.1513405E+00
          2   -1    0    0  502    0  0.00000000000E+00  0.00000000000E+00  0.55196169058E+03  0.55196169058E+03  0.00000000000E+00 0. -1.
          1   -1    0    0  501    0 -0.00000000000E+00 -0.00000000000E+00 -0.28558606020E+03  0.28558606020E+03  0.00000000000E+00 0. -1.
         25    2    1    2    0    0 -0.44140205781E+02  0.39307471438E+02  0.86223186638E+02  0.16295254837E+03  0.12500264009E+03 0.  0.
          2    1    1    2  501    0  0.60180389908E+01  0.21104758672E+02 -0.24373987670E+03  0.24472587752E+03  0.00000000000E+00 0. -1.
          1    1    1    2  502    0  0.38122166791E+02 -0.60412230110E+02  0.42389232044E+03  0.42986932489E+03  0.00000000000E+00 0. -1.
         22    1    3    3    0    0 -0.30469746138E+02  0.81681427868E+02  0.79381566905E+02  0.11790544624E+03  0.00000000000E+00 0. -1.
         22    1    3    3    0    0 -0.13670459643E+02 -0.42373956430E+02  0.68416197337E+01  0.45047102137E+02  0.00000000000E+00 0. -1.
</event>
<event>
 7    1  0.6607887E-006  0.9041505E+02  0.7818608E-02  0.1311682E+00
          2   -1    0    0  502    0  0.00000000000E+00  0.00000000000E+00  0.17017653154E+04  0.17017653154E+04  0.00000000000E+00 0. -1.
          1   -1    0    0  501    0 -0.00000000000E+00 -0.00000000000E+00 -0.44640183444E+02  0.44640183444E+02  0.00000000000E+00 0. -1.
         25    2    1    2    0    0 -0.47052251925E+02 -0.23976477596E+00  0.87282106191E+03  0.88298057280E+03  0.12499645566E+03 0.  0.
          2    1    1    2  501    0  0.47250203767E+02 -0.82419674655E+02  0.23133204347E+02  0.97778983783E+02  0.00000000000E+00 0. -1.
          1    1    1    2  502    0 -0.19795184191E+00  0.82659439431E+02  0.76117086568E+03  0.76564594224E+03  0.00000000000E+00 0. -1.
         22    1    3    3    0    0  0.26948758569E+02  0.17843396847E+02  0.56317015781E+03  0.56409684367E+03  0.00000000000E+00 0.  1.
         22    1    3    3    0    0 -0.74001010494E+02 -0.18083161623E+02  0.30965090410E+03  0.31888372912E+03  0.00000000000E+00 0.  1.
</event>
<event>
 7    1  0.6607887E-006  0.1092308E+03  0.7818608E-02  0.1320598E+00
          2   -1    0    0  502    0  0.00000000000E+00  0.00000000000E+00  0.10993379678E+04  0.10993379678E+04  0.00000000000E+00 0. -1.
          1   -1    0    0  501    0 -0.00000000000E+00 -0.00000000000E+00 -0.71090064575E+03  0.71090064575E+03  0.00000000000E+00 0. -1.
         25    2    1    2    0    0 -0.58429987733E+02 -0.85525715512E+02  0.31960847801E+03  0.35847278949E+03  0.12499780041E+03 0.  0.
          2    1    1    2  501    0  0.56564041896E+02 -0.28084753480E+02 -0.68576418173E+03  0.68866592566E+03  0.00000000000E+00 0. -1.
          1    1    1    2  502    0  0.18659458364E+01  0.11361046899E+03  0.75459302580E+03  0.76309989844E+03  0.00000000000E+00 0. -1.
         22    1    3    3    0    0 -0.28284028461E+02 -0.38480214244E+02  0.29249202074E+03  0.29636513855E+03  0.00000000000E+00 0. -1.
         22    1    3    3    0    0 -0.30145959272E+02 -0.47045501267E+02  0.27116457274E+02  0.62107650938E+02  0.00000000000E+00 0. -1.
</event>
<event>
 7    1  0.6607887E-006  0.1204858E+03  0.7818608E-02  0.1347933E+00
          2   -1    0    0  502    0  0.00000000000E+00  0.00000000000E+00  0.15229362507E+04  0.15229362507E+04  0.00000000000E+00 0. -1.
          1   -1    0    0  501    0 -0.00000000000E+00 -0.00000000000E+00 -0.24539914981E+03  0.24539914981E+03  0.00000000000E+00 0. -1.
         25    2    1    2    0    0 -0.12653476844E+03 -0.88358013605E+02  0.68303619259E+03  0.71132306464E+03  0.12499550275E+03 0.  0.
          2    1    1    2  501    0  0.11053831109E+03  0.46205058055E+02 -0.21506922058E+03  0.24618772359E+03  0.00000000000E+00 0. -1.
          1    1    1    2  502    0  0.15996457354E+02  0.42152955549E+02  0.80957012890E+03  0.81082461230E+03  0.00000000000E+00 0. -1.
         22    1    3    3    0    0 -0.79300672645E+02 -0.93203850313E+02  0.28097418113E+03  0.30646703714E+03  0.00000000000E+00 0.  1.
         22    1    3    3    0    0 -0.47234095795E+02  0.48458367085E+01  0.40206201146E+03  0.40485602750E+03  0.00000000000E+00 0.  1.
</event>
<event>
 7    1  0.6607887E-006  0.6923686E+02  0.7818608E-02  0.1506951E+00
          2   -1    0    0  502    0  0.00000000000E+00  0.00000000000E+00  0.34175878539E+02  0.34175878539E+02  0.00000000000E+00 0. -1.
          1   -1    0    0  501    0 -0.00000000000E+00 -0.00000000000E+00 -0.78412346476E+03  0.78412346476E+03  0.00000000000E+00 0. -1.
         25    2    1    2    0    0  0.40484934607E+01  0.74283271290E+02 -0.34793887846E+03  0.37713276557E+03  0.12503305574E+03 0.  0.
          2    1    1    2  501    0 -0.21977769373E+02 -0.77614792211E+01 -0.35941002073E+03  0.36016499817E+03  0.00000000000E+00 0. -1.
          1    1    1    2  502    0  0.17929275912E+02 -0.66521792069E+02 -0.42598687034E+02  0.81001579564E+02  0.00000000000E+00 0. -1.
         22    1    3    3    0    0  0.63817161924E+02  0.27995470887E+02 -0.15687338399E+03  0.17165557128E+03  0.00000000000E+00 0. -1.
         22    1    3    3    0    0 -0.59768668464E+02  0.46287800404E+02 -0.19106549446E+03  0.20547719428E+03  0.00000000000E+00 0. -1.
</event>
<event>
 7    1  0.6607887E-006  0.8368420E+02  0.7818608E-02  0.1365136E+00
          2   -1    0    0  502    0  0.00000000000E+00  0.00000000000E+00  0.12111750440E+04  0.12111750440E+04  0.00000000000E+00 0. -1.
          1   -1    0    0  501    0 -0.00000000000E+00 -0.00000000000E+00 -0.14707660061E+03  0.14707660061E+03  0.00000000000E+00 0. -1.
         25    2    1    2    0    0 -0.16212465070E+02 -0.11851223325E+03  0.59247837707E+02  0.18287640975E+03  0.12500192606E+03 0.  0.
          2    1    1    2  501    0 -0.28344451668E+02  0.48451462060E+02 -0.74252454862E+02  0.93082646982E+02  0.00000000000E+00 0. -1.
          1    1    1    2  502    0  0.44556916738E+02  0.70060771191E+02  0.10791030605E+04  0.10822925879E+04  0.00000000000E+00 0. -1.
         22    1    3    3    0    0  0.50817981917E+02 -0.46660268251E+02  0.47836355148E+02  0.83952157764E+02  0.00000000000E+00 0.  1.
         22    1    3    3    0    0 -0.67030446987E+02 -0.71851965000E+02  0.11411482559E+02  0.98924251990E+02  0.00000000000E+00 0.  1.
</event>
<event>
 7    1  0.6607887E-006  0.1206725E+03  0.7818608E-02  0.1339985E+00
          2   -1    0    0  502    0  0.00000000000E+00  0.00000000000E+00  0.13880313814E+04  0.13880313814E+04  0.00000000000E+00 0. -1.
          1   -1    0    0  501    0 -0.00000000000E+00 -0.00000000000E+00 -0.65472052534E+03  0.65472052534E+03  0.00000000000E+00 0. -1.
         25    2    1    2    0    0 -0.90728371835E+02 -0.55173427260E+02 -0.88167248369E+02  0.18620771743E+03  0.12499642321E+03 0.  0.
          2    1    1    2  501    0  0.20589377215E+02 -0.43586760943E+02 -0.51366271918E+03  0.51591968102E+03  0.00000000000E+00 0. -1.
          1    1    1    2  502    0  0.70138994619E+02  0.98760188203E+02  0.13351408236E+04  0.13406245083E+04  0.00000000000E+00 0. -1.
         22    1    3    3    0    0 -0.33415278649E+01 -0.48602476886E+02  0.14877385713E+02  0.50938228999E+02  0.00000000000E+00 0.  1.
         22    1    3    3    0    0 -0.87386843970E+02 -0.65709503738E+01 -0.10304463408E+03  0.13526948843E+03  0.00000000000E+00 0.  1.
</event>
<event>
 7    1  0.6607887E-006  0.9764932E+02  0.7818608E-02  0.1384939E+00
          2   -1    0    0  502    0  0.00000000000E+00  0.00000000000E+00  0.55193143373E+03  0.55193143373E+03  0.00000000000E+00 0. -1.
          1   -1    0    0  501    0 -0.00000000000E+00 -0.00000000000E+00 -0.16295829218E+03  0.16295829218E+03  0.00000000000E+00 0. -1.
         25    2    1    2    0    0  0.89917241199E+02  0.83963965102E+01  0.43531170626E+02  0.16022869489E+03  0.12499064810E+03 0.  0.
          2    1    1    2  501    0 -0.38975388149E+01  0.40695957549E+02 -0.94892985803E+02  0.10332487854E+03  0.00000000000E+00 0. -1.
          1    1    1    2  502    0 -0.86019702384E+02 -0.49092354060E+02  0.44033495673E+03  0.45133615249E+03  0.00000000000E+00 0. -1.
         22    1    3    3    0    0  0.10091153100E+03 -0.36250646664E+02  0.22011047757E+02  0.10946110129E+03  0.00000000000E+00 0.  1.
         22    1    3    3    0    0 -0.10994289797E+02  0.44647043174E+02  0.21520122869E+02  0.50767593607E+02  0.00000000000E+00 0.  1.
</event>
<event>
 7    1  0.6607887E-006  0.2494754E+03  0.7818608E-02  0.1239278E+00
          2   -1    0    0  502    0  0.00000000000E+00  0.00000000000E+00  0.31350128506E+04  0.31350128506E+04  0.00000000000E+00 0. -1.
          1   -1    0    0  501    0 -0.00000000000E+00 -0.00000000000E+00 -0.20595977898E+04  0.20595977898E+04  0.00000000000E+00 0. -1.
         25    2    1    2    0    0  0.20832172019E+03  0.12319905819E+03 -0.94264748186E+03  0.98121639803E+03  0.12500159069E+03 0.  0.
          2    1    1    2  501    0  0.30718923560E+02 -0.51538715456E+02 -0.10918440051E+04  0.10934912999E+04  0.00000000000E+00 0. -1.
          1    1    1    2  502    0 -0.23904064375E+03 -0.71660342736E+02  0.31099065478E+04  0.31199029424E+04  0.00000000000E+00 0. -1.
         22    1    3    3    0    0  0.11692526999E+03  0.93108343259E+02 -0.34664181462E+03  0.37749335092E+03  0.00000000000E+00 0.  1.
         22    1    3    3    0    0  0.91396450195E+02  0.30090714934E+02 -0.59600566724E+03  0.60372304711E+03  0.00000000000E+00 0.  1.
</event>
<event>
 7    1  0.6607887E-006  0.1055285E+03  0.7818608E-02  0.1273698E+00
          2   -1    0    0  502    0  0.00000000000E+00  0.00000000000E+00  0.86269883929E+03  0.86269883929E+03  0.00000000000E+00 0. -1.
          1   -1    0    0  501    0 -0.00000000000E+00 -0.00000000000E+00 -0.23973474802E+04  0.23973474802E+04  0.00000000000E+00 0. -1.
         25    2    1    2    0    0 -0.14073083406E+02 -0.78185964469E+02  0.37752003240E+03  0.40553324763E+03  0.12499897339E+03 0.  0.
          2    1    1    2  501    0 -0.85571273075E+02  0.62119188125E+02 -0.23767466173E+04  0.23790976691E+04  0.00000000000E+00 0. -1.
          1    1    1    2  502    0  0.99644356481E+02  0.16066776344E+02  0.46457794401E+03  0.47541540272E+03  0.00000000000E+00 0. -1.
         22    1    3    3    0    0 -0.30054910414E+02 -0.10539692611E+03  0.23137459585E+03  0.25601955643E+03  0.00000000000E+00 0. -1.
         22    1    3    3    0    0  0.15981827008E+02  0.27210961639E+02  0.14614543656E+03  0.14951369119E+03  0.00000000000E+00 0. -1.
</event>
<event>
 7    1  0.6607887E-006  0.2662766E+03  0.7818608E-02  0.1169242E+00
          2   -1    0    0  502    0  0.00000000000E+00  0.00000000000E+00  0.95165506541E+03  0.95165506541E+03  0.00000000000E+00 0. -1.
          1   -1    0    0  501    0 -0.00000000000E+00 -0.00000000000E+00 -0.41466840583E+03  0.41466840583E+03  0.00000000000E+00 0. -1.
         25    2    1    2    0    0 -0.14291687595E+03  0.13664917552E+03  0.16031162768E+03  0.28358829525E+03  0.12499709049E+03 0.  0.
          2    1    1    2  501    0  0.13051877630E+03 -0.25569179839E+03 -0.28843044070E+03  0.40694663760E+03  0.00000000000E+00 0. -1.
          1    1    1    2  502    0  0.12398099644E+02  0.11904262287E+03  0.66510547260E+03  0.67578853839E+03  0.00000000000E+00 0. -1.
         22    1    3    3    0    0 -0.85411290225E+02  0.20286619989E+02  0.15542672157E+02  0.89152734710E+02  0.00000000000E+00 0. -1.
         22    1    3    3    0    0 -0.57505585723E+02  0.11636255553E+03  0.14476895553E+03  0.19443556054E+03  0.00000000000E+00 0. -1.
</event>
<event>
 7    1  0.6607887E-006  0.5914346E+02  0.7818608E-02  0.1448749E+00
          2   -1    0    0  502    0  0.00000000000E+00  0.00000000000E+00  0.54991592324E+03  0.54991592324E+03  0.00000000000E+00 0. -1.
          1   -1    0    0  501    0 -0.00000000000E+00 -0.00000000000E+00 -0.47285013716E+03  0.47285013716E+03  0.00000000000E+00 0. -1.
         25    2    1    2    0    0 -0.46062392674E+02 -0.72393850801E+02 -0.38164024037E+02  0.15634016601E+03  0.12499256428E+03 0.  0.
          2    1    1    2  501    0  0.49316412411E+02  0.31304589037E+02 -0.37245230734E+03  0.37700504914E+03  0.00000000000E+00 0. -1.
          1    1    1    2  502    0 -0.32540197370E+01  0.41089261765E+02  0.48768211746E+03  0.48942084525E+03  0.00000000000E+00 0. -1.
         22    1    3    3    0    0 -0.30234322577E+02  0.21943261626E+02 -0.47272156633E+02  0.60251786573E+02  0.00000000000E+00 0. -1.
         22    1    3    3    0    0 -0.15828070098E+02 -0.94337112427E+02  0.91081325957E+01  0.96088379440E+02  0.00000000000E+00 0. -1.
</event>
<event>
 7    1  0.6607887E-006  0.1148284E+03  0.7818608E-02  0.1302587E+00
          2   -1    0    0  502    0  0.00000000000E+00  0.00000000000E+00  0.30557380911E+04  0.30557380911E+04  0.00000000000E+00 0. -1.
          1   -1    0    0  501    0 -0.00000000000E+00 -0.00000000000E+00 -0.13813485600E+03  0.13813485600E+03  0.00000000000E+00 0. -1.
         25    2    1    2    0    0 -0.93212374388E+02 -0.41169574148E+02  0.22876736866E+04  0.22933511624E+04  0.12500070875E+03 0.  0.
          2    1    1    2  501    0  0.55463567605E+02  0.10096210727E+03 -0.10877848809E+03  0.15843709764E+03  0.00000000000E+00 0. -1.
          1    1    1    2  502    0  0.37748806783E+02 -0.59792533123E+02  0.73870803664E+03  0.74208468710E+03  0.00000000000E+00 0. -1.
         22    1    3    3    0    0  0.21281220539E+02  0.15647464631E+02  0.71663148181E+03  0.71711813128E+03  0.00000000000E+00 0. -1.
         22    1    3    3    0    0 -0.11449359493E+03 -0.56817038779E+02  0.15710422047E+04  0.15762330311E+04  0.00000000000E+00 0. -1.
</event>
<event>
 7    1  0.6607887E-006  0.1094453E+03  0.7818608E-02  0.1325514E+00
          2   -1    0    0  502    0  0.00000000000E+00  0.00000000000E+00  0.64634383416E+03  0.64634383416E+03  0.00000000000E+00 0. -1.
          1   -1    0    0  501    0 -0.00000000000E+00 -0.00000000000E+00 -0.88718581206E+02  0.88718581206E+02  0.00000000000E+00 0. -1.
         25    2    1    2    0    0 -0.39932406920E+02  0.89250183174E+02  0.17645760010E+03  0.23732563577E+03  0.12500392170E+03 0.  0.
          2    1    1    2  501    0  0.54732609498E+02  0.25384615163E+02 -0.32287398037E+02  0.68428892301E+02  0.00000000000E+00 0. -1.
          1    1    1    2  502    0 -0.14800202578E+02 -0.11463479834E+03  0.41345505090E+03  0.42930788730E+03  0.00000000000E+00 0. -1.
         22    1    3    3    0    0 -0.48769518080E+01  0.11084209994E+03  0.15578475642E+03  0.19125544727E+03  0.00000000000E+00 0.  1.
         22    1    3    3    0    0 -0.35055455112E+02 -0.21591916762E+02  0.20672843677E+02  0.46070188499E+02  0.00000000000E+00 0.  1.
</event>
<event>
 7    1  0.6607887E-006  0.9915180E+02  0.7818608E-02  0.1305426E+00
          2   -1    0    0  502    0  0.00000000000E+00  0.00000000000E+00  0.18208351388E+04  0.18208351388E+04  0.00000000000E+00 0. -1.
          1   -1    0    0  501    0 -0.00000000000E+00 -0.00000000000E+00 -0.28766527375E+04  0.28766527375E+04  0.00000000000E+00 0. -1.
         25    2    1    2    0    0 -0.14006879616E+03 -0.89265068645E+02 -0.11369412090E+03  0.23693610518E+03  0.12499937869E+03 0.  0.
          2    1    1    2  501    0  0.78912248105E+02  0.11801537508E+02 -0.26993634236E+04  0.27005424106E+04  0.00000000000E+00 0. -1.
          1    1    1    2  502    0  0.61156548055E+02  0.77463531137E+02  0.17572399457E+04  0.17600093604E+04  0.00000000000E+00 0. -1.
         22    1    3    3    0    0 -0.57483649989E+02  0.20578585731E+02 -0.41582474143E+01  0.61197542665E+02  0.00000000000E+00 0. -1.
         22    1    3    3    0    0 -0.82585146172E+02 -0.10984365438E+03 -0.10953587349E+03  0.17573856252E+03  0.00000000000E+00 0. -1.
</event>
<event>
 7    1  0.6607887E-006  0.1623062E+03  0.7818608E-02  0.1304552E+00
          2   -1    0    0  502    0  0.00000000000E+00  0.00000000000E+00  0.28628755028E+04  0.28628755028E+04  0.00000000000E+00 0. -1.
          1   -1    0    0  501    0 -0.00000000000E+00 -0.00000000000E+00 -0.20421146155E+04  0.20421146155E+04  0.00000000000E+00 0. -1.
         25    2    1    2    0    0  0.51806031969E+01 -0.16159376232E+03  0.70957138806E+02  0.21633058474E+03  0.12499849470E+03 0.  0.
          2    1    1    2  501    0 -0.48877844216E+02  0.50090430055E+01 -0.19666910375E+04  0.19673046971E+04  0.00000000000E+00 0. -1.
          1    1    1    2  502    0  0.43697241019E+02  0.15658471931E+03  0.27164947861E+04  0.27213548365E+04  0.00000000000E+00 0. -1.
         22    1    3    3    0    0  0.14301459508E+02 -0.18061174966E+03  0.72584344649E+02  0.19517587696E+03  0.00000000000E+00 0.  1.
         22    1    3    3    0    0 -0.91208563107E+01  0.19017987343E+02 -0.16272058437E+01  0.21154707780E+02  0.00000000000E+00 0.  1.
</event>
<event>
 7    1  0.6607887E-006  0.7120979E+02  0.7818608E-02  0.1479232E+00
          2   -1    0    0  502    0  0.00000000000E+00  0.00000000000E+00  0.94628205380E+03  0.94628205380E+03  0.00000000000E+00 0. -1.
          1   -1    0    0  501    0 -0.00000000000E+00 -0.00000000000E+00 -0.75858329121E+02  0.75858329121E+02  0.00000000000E+00 0. -1.
         25    2    1    2    0    0 -0.75168141282E+02 -0.26776122750E+02  0.13647547657E+03  0.20153822393E+03  0.12499955914E+03 0.  0.
          2    1    1    2  501    0  0.54389275334E+02  0.44739640687E+02 -0.14288935840E+02  0.71860993644E+02  0.00000000000E+00 0. -1.
          1    1    1    2  502    0  0.20778865948E+02 -0.17963517937E+02  0.74823718394E+03  0.74874116534E+03  0.00000000000E+00 0. -1.
         22    1    3    3    0    0 -0.57968045154E+02 -0.68367587153E+02  0.46603646208E+02  0.10102633851E+03  0.00000000000E+00 0. -1.
         22    1    3    3    0    0 -0.17200096128E+02  0.41591464403E+02  0.89871830366E+02  0.10051188542E+03  0.00000000000E+00 0. -1.
</event>
<event>
 7    1  0.6607887E-006  0.6219837E+02  0.7818608E-02  0.1392491E+00
          2   -1    0    0  502    0  0.00000000000E+00  0.00000000000E+00  0.12240540680E+03  0.12240540680E+03  0.00000000000E+00 0. -1.
          1   -1    0    0  501    0 -0.00000000000E+00 -0.00000000000E+00 -0.18683932339E+04  0.18683932339E+04  0.00000000000E+00 0. -1.
         25    2    1    2    0    0  0.94181257446E+02 -0.53223775629E+02 -0.25588032668E+03  0.30463486382E+03  0.12499911650E+03 0.  0.
          2    1    1    2  501    0 -0.61299117104E+02  0.25619891579E+01 -0.15781795981E+04  0.15793717072E+04  0.00000000000E+00 0. -1.
          1    1    1    2  502    0 -0.32882140342E+02  0.50661786471E+02  0.88072097688E+02  0.10679206971E+03  0.00000000000E+00 0. -1.
         22    1    3    3    0    0  0.79223619179E+02 -0.20968862222E+02 -0.25629467297E+03  0.26907811953E+03  0.00000000000E+00 0. -1.
         22    1    3    3    0    0  0.14957638267E+02 -0.32254913407E+02  0.41434629074E+00  0.35556744287E+02  0.00000000000E+00 0. -1.
</event>
<event>
 7    1  0.6607887E-006  0.7753486E+02  0.7818608E-02  0.1429054E+00
          2   -1    0    0  502    0  0.00000000000E+00  0.00000000000E+00  0.41262774825E+03  0.41262774825E+03  0.00000000000E+00 0. -1.
          1   -1    0    0  501    0 -0.00000000000E+00 -0.00000000000E+00 -0.53049230236E+03  0.53049230236E+03  0.00000000000E+00 0. -1.
         25    2    1    2    0    0 -0.93314002455E+02 -0.56567992209E+02  0.46662278228E+02  0.17236650762E+03  0.12500161577E+03 0.  0.
          2    1    1    2  501    0  0.57318391202E+02  0.50929070695E+02 -0.46338336503E+03  0.46968426757E+03  0.00000000000E+00 0. -1.
          1    1    1    2  502    0  0.35995611253E+02  0.56389215133E+01  0.29885653270E+03  0.30106927542E+03  0.00000000000E+00 0. -1.
         22    1    3    3    0    0 -0.10540463862E+03 -0.78385195248E+02  0.59625986094E+02  0.14425545014E+03  0.00000000000E+00 0. -1.
         22    1    3    3    0    0  0.12090636165E+02  0.21817203040E+02 -0.12963707866E+02  0.28111057486E+02  0.00000000000E+00 0. -1.
</event>
<event>
 7    1  0.6607887E-006  0.1367680E+03  0.7818608E-02  0.1375310E+00
          2   -1    0    0  502    0  0.00000000000E+00  0.00000000000E+00  0.24252015242E+03  0.24252015242E+03  0.00000000000E+00 0. -1.
          1   -1    0    0  501    0 -0.00000000000E+00 -0.00000000000E+00 -0.97673133038E+03  0.97673133038E+03  0.00000000000E+00 0. -1.
         25    2    1    2    0    0  0.12058686175E+02 -0.15558923828E+03 -0.10636730840E+03  0.22647840082E+03  0.12500015504E+03 0.  0.
          2    1    1    2  501    0 -0.22773541429E+02  0.21868439603E+02 -0.78529138812E+03  0.78592584071E+03  0.00000000000E+00 0. -1.
          1    1    1    2  502    0  0.10714855254E+02  0.13372079867E+03  0.15744751856E+03  0.20684724127E+03  0.00000000000E+00 0. -1.
         22    1    3    3    0    0 -0.46796020533E+02 -0.21509502114E+02 -0.42302940893E+02  0.66648818648E+02  0.00000000000E+00 0. -1.
         22    1    3    3    0    0  0.58854706709E+02 -0.13407973616E+03 -0.64064367510E+02  0.15982958217E+03  0.00000000000E+00 0. -1.
</event>
<event>
 7    1  0.6607887E-006  0.6819054E+02  0.7818608E-02  0.1373058E+00
          2   -1    0    0  502    0  0.00000000000E+00  0.00000000000E+00  0.70485778348E+03  0.70485778348E+03  0.00000000000E+00 0. -1.
          1   -1    0    0  501    0 -0.00000000000E+00 -0.00000000000E+00 -0.10469024597E+04  0.10469024597E+04  0.00000000000E+00 0. -1.
         25    2    1    2    0    0 -0.90472341672E+02  0.47706163976E+02  0.10151091722E+03  0.19076241550E+03  0.12499884065E+03 0.  0.
          2    1    1    2  501    0  0.66960446477E+02  0.12365595641E+02 -0.99925213314E+03  0.10015694858E+04  0.00000000000E+00 0. -1.
          1    1    1    2  502    0  0.23511895195E+02 -0.60071759617E+02  0.55569653966E+03  0.55942834189E+03  0.00000000000E+00 0. -1.
         22    1    3    3    0    0 -0.43828839006E+02 -0.84673408926E+01 -0.20068891281E+02  0.48943062712E+02  0.00000000000E+00 0. -1.
         22    1    3    3    0    0 -0.46643502667E+02  0.56173504868E+02  0.12157980850E+03  0.14181935279E+03  0.00000000000E+00 0. -1.
</event>
<event>
 7    1  0.6607887E-006  0.1591047E+03  0.7818608E-02  0.1339710E+00
          2   -1    0    0  502    0  0.00000000000E+00  0.00000000000E+00  0.19850167987E+04  0.19850167987E+04  0.00000000000E+00 0. -1.
          1   -1    0    0  501    0 -0.00000000000E+00 -0.00000000000E+00 -0.41177988087E+03  0.41177988087E+03  0.00000000000E+00 0. -1.
         25    2    1    2    0    0 -0.61401993388E+01 -0.19291260938E+03  0.21347882363E+03  0.31376830875E+03  0.12499746610E+03 0.  0.
          2    1    1    2  501    0  0.56102202452E+01  0.36216154757E+02 -0.35712944701E+03  0.35900491133E+03  0.00000000000E+00 0. -1.
          1    1    1    2  502    0  0.52997909360E+00  0.15669645462E+03  0.17168875412E+04  0.17240234595E+04  0.00000000000E+00 0. -1.
         22    1    3    3    0    0 -0.32514771108E+02 -0.46089039958E+02  0.13255963905E+03  0.14406063949E+03  0.00000000000E+00 0. -1.
         22    1    3    3    0    0  0.26374571769E+02 -0.14682356942E+03  0.80919184581E+02  0.16970766926E+03  0.00000000000E+00 0. -1.
</event>
<event>
 7    1  0.6607887E-006  0.1494703E+03  0.7818608E-02  0.1288435E+00
          2   -1    0    0  502    0  0.00000000000E+00  0.00000000000E+00  0.25876777275E+03  0.25876777275E+03  0.00000000000E+00 0. -1.
          1   -1    0    0  501    0 -0.00000000000E+00 -0.00000000000E+00 -0.87316966037E+03  0.87316966037E+03  0.00000000000E+00 0. -1.
         25    2    1    2    0    0  0.11254287199E+03  0.32844096881E+01  0.11474307059E+03  0.20362769760E+03  0.12498632564E+03 0.  0.
          2    1    1    2  501    0 -0.14261868012E+03  0.50875324488E+02 -0.81135923528E+03  0.82536791508E+03  0.00000000000E+00 0. -1.
          1    1    1    2  502    0  0.30075808130E+02 -0.54159734176E+02  0.82214277077E+02  0.10294182044E+03  0.00000000000E+00 0. -1.
         22    1    3    3    0    0  0.82077858760E+02 -0.46742693614E+02  0.27193132327E+02  0.98291000354E+02  0.00000000000E+00 0.  1.
         22    1    3    3    0    0  0.30465013234E+02  0.50027103302E+02  0.87549938267E+02  0.10533669725E+03  0.00000000000E+00 0.  1.
</event>
<event>
 7    1  0.6607887E-006  0.8181987E+02  0.7818608E-02  0.1466758E+00
          2   -1    0    0  502    0  0.00000000000E+00  0.00000000000E+00  0.27401820971E+03  0.27401820971E+03  0.00000000000E+00 0. -1.
          1   -1    0    0  501    0 -0.00000000000E+00 -0.00000000000E+00 -0.25925005724E+03  0.25925005724E+03  0.00000000000E+00 0. -1.
         25    2    1    2    0    0 -0.43230067554E+02 -0.74035362890E+02  0.47467128146E+01  0.15164918297E+03  0.12499947885E+03 0.  0.
          2    1    1    2  501    0  0.25477401920E+02 -0.58029994628E+01 -0.17625328836E+03  0.17817966907E+03  0.00000000000E+00 0. -1.
          1    1    1    2  502    0  0.17752665635E+02  0.79838362353E+02  0.18627472801E+03  0.20343941491E+03  0.00000000000E+00 0. -1.
         22    1    3    3    0    0  0.31323197254E+02 -0.69081123868E+02  0.11113828126E+02  0.76660690948E+02  0.00000000000E+00 0. -1.
         22    1    3    3    0    0 -0.74553264808E+02 -0.49542390221E+01 -0.63671153111E+01  0.74988492019E+02  0.00000000000E+00 0. -1.
</event>
<event>
 7    1  0.6607887E-006  0.9856429E+02  0.7818608E-02  0.1468938E+00
          2   -1    0    0  502    0  0.00000000000E+00  0.00000000000E+00  0.39260251294E+04  0.39260251294E+04  0.00000000000E+00 0. -1.
          1   -1    0    0  501    0 -0.00000000000E+00 -0.00000000000E+00 -0.50516581934E+03  0.50516581934E+03  0.00000000000E+00 0. -1.
         25    2    1    2    0    0  0.33360170172E+02 -0.88621647722E+02 -0.38472583415E+03  0.41545295584E+03  0.12498197331E+03 0.  0.
          2    1    1    2  501    0 -0.19384770241E+02 -0.89564020682E+01 -0.10336373224E+03  0.10554642390E+03  0.00000000000E+00 0. -1.
          1    1    1    2  502    0 -0.13975399931E+02  0.97578049790E+02  0.39089488765E+04  0.39101915690E+04  0.00000000000E+00 0. -1.
         22    1    3    3    0    0  0.45694980327E+02  0.13324864192E+02 -0.72108172438E+02  0.86401225484E+02  0.00000000000E+00 0. -1.
         22    1    3    3    0    0 -0.12334810155E+02 -0.10194651191E+03 -0.31261766171E+03  0.32905173035E+03  0.00000000000E+00 0. -1.
</event>
<event>
 7    1  0.6607887E-006  0.1119528E+03  0.7818608E-02  0.1368676E+00
          2   -1    0    0  502    0  0.00000000000E+00  0.00000000000E+00  0.63639294179E+03  0.63639294179E+03  0.00000000000E+00 0. -1.
          1   -1    0    0  501    0 -0.00000000000E+00 -0.00000000000E+00 -0.11115124353E+04  0.11115124353E+04  0.00000000000E+00 0. -1.
         25    2    1    2    0    0 -0.33844335441E+02 -0.12814367685E+03 -0.27430941955E+03  0.32929706091E+03  0.12499862284E+03 0.  0.
          2    1    1    2  501    0  0.37251126822E+02  0.16501118513E+02 -0.80406685542E+03  0.80509840476E+03  0.00000000000E+00 0. -1.
          1    1    1    2  502    0 -0.34067913816E+01  0.11164255834E+03  0.60325678144E+03  0.61350991143E+03  0.00000000000E+00 0. -1.
         22    1    3    3    0    0  0.37145718638E+02 -0.73286979848E+02 -0.18633414372E+03  0.20364478619E+03  0.00000000000E+00 0. -1.
         22    1    3    3    0    0 -0.70990054079E+02 -0.54856697005E+02 -0.87975275833E+02  0.12565227472E+03  0.00000000000E+00 0. -1.
</event>
<event>
 7    1  0.6607887E-006  0.1085108E+03  0.7818608E-02  0.1304721E+00
          2   -1    0    0  502    0  0.00000000000E+00  0.00000000000E+00  0.18889801905E+03  0.18889801905E+03  0.00000000000E+00 0. -1.
          1   -1    0    0  501    0 -0.00000000000E+00 -0.00000000000E+00 -0.86049422368E+03  0.86049422368E+03  0.00000000000E+00 0. -1.
         25    2    1    2    0    0  0.99107225224E+02 -0.10561289476E+03 -0.64140285938E+02  0.20178080384E+03  0.12500076355E+03 0.  0.
          2    1    1    2  501    0 -0.73263537193E+02  0.41199167061E+01 -0.70241638727E+03  0.70623884112E+03  0.00000000000E+00 0. -1.
          1    1    1    2  502    0 -0.25843688031E+02  0.10149297806E+03  0.94960468577E+02  0.14137259776E+03  0.00000000000E+00 0. -1.
         22    1    3    3    0    0  0.36684882299E+02 -0.10975579501E+03 -0.75531722723E+02  0.13819246096E+03  0.00000000000E+00 0. -1.
         22    1    3    3    0    0  0.62422342924E+02  0.41429002514E+01  0.11391436785E+02  0.63588342884E+02  0.00000000000E+00 0. -1.
</event>
<event>
 7    1  0.6607887E-006  0.9974839E+02  0.7818608E-02  0.1316170E+00
          2   -1    0    0  502    0  0.00000000000E+00  0.00000000000E+00  0.97153471783E+03  0.97153471783E+03  0.00000000000E+00 0. -1.
          1   -1    0    0  501    0 -0.00000000000E+00 -0.00000000000E+00 -0.52889892683E+03  0.52889892683E+03  0.00000000000E+00 0. -1.
         25    2    1    2    0    0  0.88527032811E+01  0.74032529695E+02  0.15807275219E+03  0.21487222261E+03  0.12499556495E+03 0.  0.
          2    1    1    2  501    0  0.62925945891E+02 -0.79049223845E+02 -0.49372357268E+03  0.50395577254E+03  0.00000000000E+00 0. -1.
          1    1    1    2  502    0 -0.71778649172E+02  0.50166941500E+01  0.77828661150E+03  0.78160564950E+03  0.00000000000E+00 0. -1.
         22    1    3    3    0    0 -0.51021267570E+02  0.32373836176E+02  0.11566991105E+03  0.13050196679E+03  0.00000000000E+00 0. -1.
         22    1    3    3    0    0  0.59873970851E+02  0.41658693519E+02  0.42402841142E+02  0.84370255825E+02  0.00000000000E+00 0. -1.
</event>
<event>
 7    1  0.6607887E-006  0.1347686E+03  0.7818608E-02  0.1351728E+00
          2   -1    0    0  502    0  0.00000000000E+00  0.00000000000E+00  0.14701894937E+04  0.14701894937E+04  0.00000000000E+00 0. -1.
          1   -1    0    0  501    0 -0.00000000000E+00 -0.00000000000E+00 -0.21825205636E+04  0.21825205636E+04  0.00000000000E+00 0. -1.
         25    2    1    2    0    0 -0.13566354041E+03  0.20871633689E+02 -0.15130504156E+04  0.15243970106E+04  0.12499785786E+03 0.  0.
          2    1    1    2  501    0  0.12198547250E+03 -0.57419156939E+02 -0.65668698257E+03  0.67038437345E+03  0.00000000000E+00 0. -1.
          1    1    1    2  502    0  0.13678067907E+02  0.36547523250E+02  0.14574063282E+04  0.14579286733E+04  0.00000000000E+00 0. -1.
         22    1    3    3    0    0  0.63773650724E+01  0.25139686070E+02 -0.75310706020E+02  0.79651597864E+02  0.00000000000E+00 0. -1.
         22    1    3    3    0    0 -0.14204090548E+03 -0.42680523806E+01 -0.14377397095E+04  0.14447454127E+04  0.00000000000E+00 0. -1.
</event>
<event>
 7    1  0.6607887E-006  0.1751539E+03  0.7818608E-02  0.1263560E+00
          2   -1    0    0  502    0  0.00000000000E+00  0.00000000000E+00  0.13223129199E+04  0.13223129199E+04  0.00000000000E+00 0. -1.
          1   -1    0    0  501    0 -0.00000000000E+00 -0.00000000000E+00 -0.16139386616E+03  0.16139386616E+03  0.00000000000E+00 0. -1.
         25    2    1    2    0    0 -0.66607471938E+02  0.20147414761E+03  0.24558441391E+03  0.34780028792E+03  0.12499979381E+03 0.  0.
          2    1    1    2  501    0  0.93501546440E+02 -0.14001261985E+03 -0.44169059773E+02  0.17406027331E+03  0.00000000000E+00 0. -1.
          1    1    1    2  502    0 -0.26894074502E+02 -0.61461527763E+02  0.95950369961E+03  0.96184622482E+03  0.00000000000E+00 0. -1.
         22    1    3    3    0    0 -0.10341014466E+03  0.13506756661E+03  0.16250065358E+03  0.23525171196E+03  0.00000000000E+00 0. -1.
         22    1    3    3    0    0  0.36802672726E+02  0.66406581003E+02  0.83083760331E+02  0.11254857596E+03  0.00000000000E+00 0. -1.
</event>
<event>
 7    1  0.6607887E-006  0.7654510E+02  0.7818608E-02  0.1390467E+00
          2   -1    0    0  502    0  0.00000000000E+00  0.00000000000E+00  0.14609257766E+04  0.14609257766E+04  0.00000000000E+00 0. -1.
          1   -1    0    0  501    0 -0.00000000000E+00 -0.00000000000E+00 -0.72973803608E+02  0.72973803608E+02  0.00000000000E+00 0. -1.
         25    2    1    2    0    0  0.36865323463E+02  0.22103742965E+02  0.25585329383E+03  0.28798543512E+03  0.12500830112E+03 0.  0.
          2    1    1    2  501    0  0.43020718352E+02 -0.25243681246E+02 -0.44354030793E+02  0.66748076361E+02  0.00000000000E+00 0. -1.
          1    1    1    2  502    0 -0.79886041815E+02  0.31399382814E+01  0.11764527100E+04  0.11791660687E+04  0.00000000000E+00 0. -1.
         22    1    3    3    0    0  0.96488366652E+00 -0.48403894097E+02  0.13610432698E+03  0.14445849157E+03  0.00000000000E+00 0.  1.
         22    1    3    3    0    0  0.35900439797E+02  0.70507637062E+02  0.11974896685E+03  0.14352694355E+03  0.00000000000E+00 0.  1.
</event>
<event>
 7    1  0.6607887E-006  0.6645231E+02  0.7818608E-02  0.1463314E+00
          2   -1    0    0  502    0  0.00000000000E+00  0.00000000000E+00  0.24003123720E+04  0.24003123720E+04  0.00000000000E+00 0. -1.
          1   -1    0    0  501    0 -0.00000000000E+00 -0.00000000000E+00 -0.38795037961E+02  0.38795037961E+02  0.00000000000E+00 0. -1.
         25    2    1    2    0    0 -0.30957656923E+02 -0.25357478722E+02  0.74530215455E+03  0.75676977701E+03  0.12499526219E+03 0.  0.
          2    1    1    2  501    0 -0.32767292124E+02 -0.37569447372E+01 -0.23897270154E+02  0.40729468296E+02  0.00000000000E+00 0. -1.
          1    1    1    2  502    0  0.63724949046E+02  0.29114423459E+02  0.16401124497E+04  0.16416081647E+04  0.00000000000E+00 0. -1.
         22    1    3    3    0    0 -0.28315030341E+01  0.47810569417E+02  0.18909637683E+03  0.19506744395E+03  0.00000000000E+00 0. -1.
         22    1    3    3    0    0 -0.28126153889E+02 -0.73168048139E+02  0.55620577771E+03  0.56170233306E+03  0.00000000000E+00 0. -1.
</event>
<event>
 7    1  0.6607887E-006  0.3908961E+02  0.7818608E-02  0.1521167E+00
          2   -1    0    0  502    0  0.00000000000E+00  0.00000000000E+00  0.19466659327E+02  0.19466659327E+02  0.00000000000E+00 0. -1.
          1   -1    0    0  501    0 -0.00000000000E+00 -0.00000000000E+00 -0.23139711002E+04  0.23139711002E+04  0.00000000000E+00 0. -1.
         25    2    1    2    0    0  0.55548648615E+00  0.46608545482E+01 -0.52690656361E+03  0.54155094293E+03  0.12499945953E+03 0.  0.
          2    1    1    2  501    0  0.28452090235E+02 -0.28444653019E+02 -0.17499829584E+04  0.17504453646E+04  0.00000000000E+00 0. -1.
          1    1    1    2  502    0 -0.29007576721E+02  0.23783798471E+02 -0.17614918842E+02  0.41441451986E+02  0.00000000000E+00 0. -1.
         22    1    3    3    0    0  0.52274213917E+02  0.30625349389E+02 -0.35584666774E+03  0.36096725116E+03  0.00000000000E+00 0.  1.
         22    1    3    3    0    0 -0.51718727431E+02 -0.25964494841E+02 -0.17105989587E+03  0.18058369177E+03  0.00000000000E+00 0.  1.
</event>
<event>
 7    1  0.6607887E-006  0.5927028E+02  0.7818608E-02  0.1513598E+00
          2   -1    0    0  502    0  0.00000000000E+00  0.00000000000E+00  0.17793256498E+02  0.17793256498E+02  0.00000000000E+00 0. -1.
          1   -1    0    0  501    0 -0.00000000000E+00 -0.00000000000E+00 -0.14478098430E+04  0.14478098430E+04  0.00000000000E+00 0. -1.
         25    2    1    2    0    0  0.40405752065E+02 -0.10538460741E+02 -0.77912735544E+03  0.79019501483E+03  0.12500016602E+03 0.  0.
          2    1    1    2  501    0  0.10213446562E+02 -0.23940833607E+02 -0.58451349016E+03  0.58509272615E+03  0.00000000000E+00 0. -1.
          1    1    1    2  502    0 -0.50619198628E+02  0.34479294348E+02 -0.66375740946E+02  0.90315358575E+02  0.00000000000E+00 0. -1.
         22    1    3    3    0    0 -0.12680087561E+02 -0.44817317450E+02 -0.13174499585E+03  0.13973589552E+03  0.00000000000E+00 0.  1.
         22    1    3    3    0    0  0.53085839626E+02  0.34278856709E+02 -0.64738235959E+03  0.65045911931E+03  0.00000000000E+00 0.  1.
</event>
<event>
 7    1  0.6607887E-006  0.1505950E+03  0.7818608E-02  0.1239920E+00
          2   -1    0    0  502    0  0.00000000000E+00  0.00000000000E+00  0.16080070499E+04  0.16080070499E+04  0.00000000000E+00 0. -1.
          1   -1    0    0  501    0 -0.00000000000E+00 -0.00000000000E+00 -0.49201558341E+03  0.49201558341E+03  0.00000000000E+00 0. -1.
         25    2    1    2    0    0  0.17545238684E+03 -0.17210147573E+03  0.29253861831E+03  0.40200043350E+03  0.12499218911E+03 0.  0.
          2    1    1    2  501    0 -0.10815237290E+03  0.99838358887E+02 -0.42289031363E+03  0.44777321384E+03  0.00000000000E+00 0. -1.
          1    1    1    2  502    0 -0.67300013937E+02  0.72263116838E+02  0.12463431618E+04  0.12502489859E+04  0.00000000000E+00 0. -1.
         22    1    3    3    0    0  0.10086201637E+03 -0.78510375364E+02  0.23870505591E+03  0.27077135946E+03  0.00000000000E+00 0.  1.
         22    1    3    3    0    0  0.74590370468E+02 -0.93591100361E+02  0.53833562400E+02  0.13122907404E+03  0.00000000000E+00 0.  1.
</event>
<event>
 7    1  0.6607887E-006  0.1787521E+03  0.7818608E-02  0.1218415E+00
          2   -1    0    0  502    0  0.00000000000E+00  0.00000000000E+00  0.13194349918E+04  0.13194349918E+04  0.00000000000E+00 0. -1.
          1   -1    0    0  501    0 -0.00000000000E+00 -0.00000000000E+00 -0.16099952372E+04  0.16099952372E+04  0.00000000000E+00 0. -1.
         25    2    1    2    0    0  0.61511429473E+02  0.74160959009E+02 -0.49439606948E+01  0.15790119892E+03  0.12499936830E+03 0.  0.
          2    1    1    2  501    0 -0.52753637122E+02 -0.17770065159E+03 -0.15207633796E+04  0.15320188395E+04  0.00000000000E+00 0. -1.
          1    1    1    2  502    0 -0.87577923512E+01  0.10353969258E+03  0.12351470949E+04  0.12395101907E+04  0.00000000000E+00 0. -1.
         22    1    3    3    0    0  0.18899109070E+02 -0.27322156143E+02  0.27527940804E+02  0.43144687562E+02  0.00000000000E+00 0. -1.
         22    1    3    3    0    0  0.42612320403E+02  0.10148311515E+03 -0.32471901499E+02  0.11475651135E+03  0.00000000000E+00 0. -1.
</event>
<event>
 7    1  0.6607887E-006  0.3769754E+02  0.7818608E-02  0.1535948E+00
          2   -1    0    0  502    0  0.00000000000E+00  0.00000000000E+00  0.45202882302E+03  0.45202882302E+03  0.00000000000E+00 0. -1.
          1   -1    0    0  501    0 -0.00000000000E+00 -0.00000000000E+00 -0.18718161608E+04  0.18718161608E+04  0.00000000000E+00 0. -1.
         25    2    1    2    0    0  0.68183986034E+02  0.23711489697E+02  0.59814122769E+02  0.15625848216E+03  0.12501077261E+03 0.  0.
          2    1    1    2  501    0 -0.32745113153E+02 -0.13121113116E+02 -0.18224285380E+04  0.18227699203E+04  0.00000000000E+00 0. -1.
          1    1    1    2  502    0 -0.35438872881E+02 -0.10590376581E+02  0.34282707745E+03  0.34481658142E+03  0.00000000000E+00 0. -1.
         22    1    3    3    0    0  0.81019209720E+02  0.60823545766E+02  0.26388456598E+02  0.10468985961E+03  0.00000000000E+00 0. -1.
         22    1    3    3    0    0 -0.12835223686E+02 -0.37112056069E+02  0.33425666171E+02  0.51568622550E+02  0.00000000000E+00 0. -1.
</event>
<event>
 7    1  0.7450072E-006  0.1136283E+03  0.7818608E-02  0.1294783E+00
          2   -1    0    0  502    0  0.00000000000E+00  0.00000000000E+00  0.23896487965E+04  0.23896487965E+04  0.00000000000E+00 0. -1.
          1   -1    0    0  501    0 -0.00000000000E+00 -0.00000000000E+00 -0.67622193258E+03  0.67622193258E+03  0.00000000000E+00 0. -1.
         25    2    1    2    0    0 -0.12530766470E+03 -0.12425989802E+02  0.23988636965E+02  0.17904094581E+03  0.12499515798E+03 0.  0.
          2    1    1    2  501    0  0.27986195465E+02  0.71519090300E+02 -0.59480908193E+03  0.59974665599E+03  0.00000000000E+00 0. -1.
          1    1    1    2  502    0  0.97321469234E+02 -0.59093100497E+02  0.22842473089E+04  0.22870831273E+04  0.00000000000E+00 0. -1.
         22    1    3    3    0    0 -0.43798891809E+02 -0.16255484997E+02  0.70907817363E+02  0.84914676466E+02  0.00000000000E+00 0.  1.
         22    1    3    3    0    0 -0.81508772889E+02  0.38294951944E+01 -0.46919180399E+02  0.94126269344E+02  0.00000000000E+00 0.  1.
</event>
<event>
 7    1  0.6607887E-006  0.2423686E+03  0.7818608E-02  0.1210795E+00
          2   -1    0    0  502    0  0.00000000000E+00  0.00000000000E+00  0.73658789991E+03  0.73658789991E+03  0.00000000000E+00 0. -1.
          1   -1    0    0  501    0 -0.00000000000E+00 -0.00000000000E+00 -0.20662430990E+03  0.20662430990E+03  0.00000000000E+00 0. -1.
         25    2    1    2    0    0  0.94394605819E+02  0.25905078331E+03  0.35261257062E+03  0.46473494446E+03  0.12500117480E+03 0.  0.
          2    1    1    2  501    0 -0.14557200552E+02 -0.23607336535E+03 -0.45309663906E+02  0.24082257278E+03  0.00000000000E+00 0. -1.
          1    1    1    2  502    0 -0.79837405267E+02 -0.22977417961E+02  0.22266068329E+03  0.23765469256E+03  0.00000000000E+00 0. -1.
         22    1    3    3    0    0 -0.26663897004E+02  0.41021507315E+02  0.90900554380E+02  0.10323099463E+03  0.00000000000E+00 0.  1.
         22    1    3    3    0    0  0.12105850282E+03  0.21802927600E+03  0.26171201625E+03  0.36150394983E+03  0.00000000000E+00 0.  1.
</event>
<event>
 7    1  0.6607887E-006  0.6786633E+02  0.7818608E-02  0.1457444E+00
          2   -1    0    0  502    0  0.00000000000E+00  0.00000000000E+00  0.57953971343E+02  0.57953971343E+02  0.00000000000E+00 0. -1.
          1   -1    0    0  501    0 -0.00000000000E+00 -0.00000000000E+00 -0.33372211237E+03  0.33372211237E+03  0.00000000000E+00 0. -1.
         25    2    1    2    0    0 -0.52590455915E+02  0.63752988946E+02 -0.22569777712E+03  0.27091488480E+03  0.12500075421E+03 0.  0.
          2    1    1    2  501    0  0.53355928994E+02 -0.30060973387E+02 -0.59890822632E+02  0.85658787729E+02  0.00000000000E+00 0. -1.
          1    1    1    2  502    0 -0.76547307921E+00 -0.33692015559E+02  0.98204587275E+01  0.35102411186E+02  0.00000000000E+00 0. -1.
         22    1    3    3    0    0 -0.58781057017E+02 -0.22626794340E+02 -0.10303703266E+03  0.12076346544E+03  0.00000000000E+00 0. -1.
         22    1    3    3    0    0  0.61906011026E+01  0.86379783285E+02 -0.12266074446E+03  0.15015141935E+03  0.00000000000E+00 0. -1.
</event>
<event>
 7    1  0.6607887E-006  0.6165252E+02  0.7818608E-02  0.1544427E+00
          2   -1    0    0  502    0  0.00000000000E+00  0.00000000000E+00  0.45901737680E+03  0.45901737680E+03  0.00000000000E+00 0. -1.
          1   -1    0    0  501    0 -0.00000000000E+00 -0.00000000000E+00 -0.12258519038E+03  0.12258519038E+03  0.00000000000E+00 0. -1.
         25    2    1    2    0    0  0.55917508233E+02  0.49803178655E+02  0.37422645430E+03  0.40159412531E+03  0.12500111221E+03 0.  0.
          2    1    1    2  501    0 -0.35507609853E+02 -0.50085493057E+02 -0.98441942067E+02  0.11601794228E+03  0.00000000000E+00 0. -1.
          1    1    1    2  502    0 -0.20409898380E+02  0.28231440179E+00  0.60647674191E+02  0.63990499592E+02  0.00000000000E+00 0. -1.
         22    1    3    3    0    0  0.90036719009E+01 -0.41770233628E+02  0.10338765195E+03  0.11186967909E+03  0.00000000000E+00 0.  1.
         22    1    3    3    0    0  0.46913836332E+02  0.91573412283E+02  0.27083880235E+03  0.28972444622E+03  0.00000000000E+00 0.  1.
</event>
<event>
 7    1  0.6607887E-006  0.4705359E+02  0.7818608E-02  0.1482499E+00
          2   -1    0    0  502    0  0.00000000000E+00  0.00000000000E+00  0.18587964063E+04  0.18587964063E+04  0.00000000000E+00 0. -1.
          1   -1    0    0  501    0 -0.00000000000E+00 -0.00000000000E+00 -0.16460682993E+03  0.16460682993E+03  0.00000000000E+00 0. -1.
         25    2    1    2    0    0 -0.10262182979E+02  0.62226502727E+02  0.60999770448E+03  0.62585896705E+03  0.12499918848E+03 0.  0.
          2    1    1    2  501    0  0.34229219413E+02 -0.21873640399E+02 -0.15359098928E+03  0.15887192198E+03  0.00000000000E+00 0. -1.
          1    1    1    2  502    0 -0.23967036434E+02 -0.40352862327E+02  0.12377828612E+04  0.12386723472E+04  0.00000000000E+00 0. -1.
         22    1    3    3    0    0  0.12080426405E+02 -0.29508493591E+02  0.30293075292E+03  0.30460421692E+03  0.00000000000E+00 0.  1.
         22    1    3    3    0    0 -0.22342609384E+02  0.91734996318E+02  0.30706695156E+03  0.32125475013E+03  0.00000000000E+00 0.  1.
</event>
<event>
 7    1  0.6607887E-006  0.4316493E+02  0.7818608E-02  0.1501517E+00
          2   -1    0    0  502    0  0.00000000000E+00  0.00000000000E+00  0.62993017423E+03  0.62993017423E+03  0.00000000000E+00 0. -1.
          1   -1    0    0  501    0 -0.00000000000E+00 -0.00000000000E+00 -0.18603136482E+04  0.18603136482E+04  0.00000000000E+00 0. -1.
         25    2    1    2    0    0 -0.25745238280E+02 -0.77617224374E+02  0.14512814935E+03  0.20826798887E+03  0.12500449849E+03 0.  0.
          2    1    1    2  501    0  0.15772265673E+02  0.40120692395E+02 -0.18276586913E+04  0.18281670400E+04  0.00000000000E+00 0. -1.
          1    1    1    2  502    0  0.99729726074E+01  0.37496531980E+02  0.45214706794E+03  0.45380879359E+03  0.00000000000E+00 0. -1.
         22    1    3    3    0    0  0.49170924739E+02 -0.48140253589E+02  0.69745998587E+02  0.97978406673E+02  0.00000000000E+00 0.  1.
         22    1    3    3    0    0 -0.74916163019E+02 -0.29476970786E+02  0.75382150763E+02  0.11028958220E+03  0.00000000000E+00 0.  1.
</event>
<event>
 7    1  0.6607887E-006  0.1693132E+03  0.7818608E-02  0.1183009E+00
          2   -1    0    0  502    0  0.00000000000E+00  0.00000000000E+00  0.21102521227E+04  0.21102521227E+04  0.00000000000E+00 0. -1.
          1   -1    0    0  501    0 -0.00000000000E+00 -0.00000000000E+00 -0.19112895290E+03  0.19112895290E+03  0.00000000000E+00 0. -1.
         25    2    1    2    0    0  0.11959170816E+03  0.27570280558E+02 -0.31826702906E+01  0.17520662232E+03  0.12499973633E+03 0.  0.
          2    1    1    2  501    0 -0.25504087704E+03 -0.11474352963E+03  0.10036633683E+03  0.29712847074E+03  0.00000000000E+00 0. -1.
          1    1    1    2  502    0  0.13544916889E+03  0.87173249076E+02  0.18219395033E+04  0.18290459826E+04  0.00000000000E+00 0. -1.
         22    1    3    3    0    0  0.13120225763E+03  0.55704355861E+02  0.80485793751E+01  0.14276479713E+03  0.00000000000E+00 0.  1.
         22    1    3    3    0    0 -0.11610549476E+02 -0.28134075303E+02 -0.11231249666E+02  0.32441825185E+02  0.00000000000E+00 0.  1.
</event>
<event>
 7    1  0.6607887E-006  0.7002349E+02  0.7818608E-02  0.1383478E+00
          2   -1    0    0  502    0  0.00000000000E+00  0.00000000000E+00  0.91007237607E+03  0.91007237607E+03  0.00000000000E+00 0. -1.
          1   -1    0    0  501    0 -0.00000000000E+00 -0.00000000000E+00 -0.11928232507E+04  0.11928232507E+04  0.00000000000E+00 0. -1.
         25    2    1    2    0    0 -0.87689218435E+02 -0.60174749762E+02  0.64154587705E+03  0.66220241691E+03  0.12498211498E+03 0.  0.
          2    1    1    2  501    0  0.28688538564E+02  0.50051244406E+02 -0.11783099827E+04  0.11797213970E+04  0.00000000000E+00 0. -1.
          1    1    1    2  502    0  0.59000679870E+02  0.10123505356E+02  0.25401323098E+03  0.26097181285E+03  0.00000000000E+00 0. -1.
         22    1    3    3    0    0 -0.11202168515E+03 -0.16158438343E+02  0.47002041382E+03  0.48345541934E+03  0.00000000000E+00 0. -1.
         22    1    3    3    0    0  0.24332466719E+02 -0.44016311418E+02  0.17152546322E+03  0.17874699757E+03  0.00000000000E+00 0. -1.
</event>
<event>
 7    1  0.6607887E-006  0.4017580E+03  0.7818608E-02  0.1243218E+00
          2   -1    0    0  502    0  0.00000000000E+00  0.00000000000E+00  0.10061928541E+04  0.10061928541E+04  0.00000000000E+00 0. -1.
          1   -1    0    0  501    0 -0.00000000000E+00 -0.00000000000E+00 -0.78881483423E+03  0.78881483423E+03  0.00000000000E+00 0. -1.
         25    2    1    2    0    0 -0.41505169991E+03  0.87189528605E+02  0.33790518222E+03  0.55648474563E+03  0.12500172981E+03 0.  0.
          2    1    1    2  501    0  0.39472392864E+03 -0.57722272657E+02 -0.62028175284E+03  0.73748782600E+03  0.00000000000E+00 0. -1.
          1    1    1    2  502    0  0.20327771271E+02 -0.29467255948E+02  0.49975459051E+03  0.50103511673E+03  0.00000000000E+00 0. -1.
         22    1    3    3    0    0 -0.35249202674E+03  0.32752232031E+02  0.30496118423E+03  0.46725224612E+03  0.00000000000E+00 0. -1.
         22    1    3    3    0    0 -0.62559673167E+02  0.54437296574E+02  0.32943997987E+02  0.89232499508E+02  0.00000000000E+00 0. -1.
</event>
<event>
 7    1  0.6607887E-006  0.1112020E+03  0.7818608E-02  0.1369298E+00
          2   -1    0    0  502    0  0.00000000000E+00  0.00000000000E+00  0.34230168572E+03  0.34230168572E+03  0.00000000000E+00 0. -1.
          1   -1    0    0  501    0 -0.00000000000E+00 -0.00000000000E+00 -0.61010102145E+03  0.61010102145E+03  0.00000000000E+00 0. -1.
         25    2    1    2    0    0 -0.10960187905E+03  0.95628786124E+02 -0.43999849132E+03  0.47997980042E+03  0.12499799926E+03 0.  0.
          2    1    1    2  501    0  0.39522861036E+02 -0.10153964347E+02 -0.13758597243E+03  0.14350978833E+03  0.00000000000E+00 0. -1.
          1    1    1    2  502    0  0.70079018019E+02 -0.85474821777E+02  0.30978512802E+03  0.32891311842E+03  0.00000000000E+00 0. -1.
         22    1    3    3    0    0 -0.32885677145E+02  0.93441731516E+02 -0.33871391651E+03  0.35290217085E+03  0.00000000000E+00 0.  1.
         22    1    3    3    0    0 -0.76716201910E+02  0.21870546082E+01 -0.10128457481E+03  0.12707762957E+03  0.00000000000E+00 0.  1.
</event>
<event>
 7    1  0.6607887E-006  0.3955203E+02  0.7818608E-02  0.1606341E+00
          2   -1    0    0  502    0  0.00000000000E+00  0.00000000000E+00  0.97421347183E+03  0.97421347183E+03  0.00000000000E+00 0. -1.
          1   -1    0    0  501    0 -0.00000000000E+00 -0.00000000000E+00 -0.39272205880E+03  0.39272205880E+03  0.00000000000E+00 0. -1.
         25    2    1    2    0    0  0.48175587693E+02  0.17506793192E+02 -0.22822872012E+03  0.26521830840E+03  0.12500010944E+03 0.  0.
          2    1    1    2  501    0 -0.38369128214E+02  0.18013426194E+01 -0.14334695925E+03  0.14840412919E+03  0.00000000000E+00 0. -1.
          1    1    1    2  502    0 -0.98064594793E+01 -0.19308135811E+02  0.95306709241E+03  0.95331309305E+03  0.00000000000E+00 0. -1.
         22    1    3    3    0    0 -0.28745166711E+02 -0.16728153360E+02 -0.13740405715E+03  0.14137181701E+03  0.00000000000E+00 0. -1.
         22    1    3    3    0    0  0.76920754404E+02  0.34234946552E+02 -0.90824662975E+02  0.12384649138E+03  0.00000000000E+00 0. -1.
</event>
<event>
 7    1  0.6607887E-006  0.1430568E+03  0.7818608E-02  0.1258114E+00
          2   -1    0    0  502    0  0.00000000000E+00  0.00000000000E+00  0.73576796773E+03  0.73576796773E+03  0.00000000000E+00 0. -1.
          1   -1    0    0  501    0 -0.00000000000E+00 -0.00000000000E+00 -0.14433150837E+03  0.14433150837E+03  0.00000000000E+00 0. -1.
         25    2    1    2    0    0  0.29964569287E+02  0.62261305589E+02  0.32138756134E+03  0.35169494256E+03  0.12500008979E+03 0.  0.
          2    1    1    2  501    0 -0.90667793240E+02 -0.12409520721E+03 -0.76154576866E+02  0.17152197749E+03  0.00000000000E+00 0. -1.
          1    1    1    2  502    0  0.60703223953E+02  0.61833901622E+02  0.34620347489E+03  0.35688255605E+03  0.00000000000E+00 0. -1.
         22    1    3    3    0    0  0.11105771483E+02 -0.30159255853E+01 -0.88640334211E+01  0.14526013075E+02  0.00000000000E+00 0.  1.
         22    1    3    3    0    0  0.18858797804E+02  0.65277231174E+02  0.33025159476E+03  0.33716892948E+03  0.00000000000E+00 0.  1.
</event>
<event>
 7    1  0.6607887E-006  0.3834392E+02  0.7818608E-02  0.1557005E+00
          2   -1    0    0  502    0  0.00000000000E+00  0.00000000000E+00  0.75306460346E+03  0.75306460346E+03  0.00000000000E+00 0. -1.
          1   -1    0    0  501    0 -0.00000000000E+00 -0.00000000000E+00 -0.15709343234E+04  0.15709343234E+04  0.00000000000E+00 0. -1.
         25    2    1    2    0    0  0.26014243285E+02 -0.22764870759E+02  0.64242006995E+03  0.65538127540E+03  0.12500435859E+03 0.  0.
          2    1    1    2  501    0  0.19616141750E+02  0.23060382537E+02 -0.15593022645E+04  0.15595961421E+04  0.00000000000E+00 0. -1.
          1    1    1    2  502    0 -0.45630385035E+02 -0.29551177728E+00  0.99012474654E+02  0.10902150936E+03  0.00000000000E+00 0. -1.
         22    1    3    3    0    0  0.58913223273E+02 -0.50543211874E+02  0.28517069182E+03  0.29554645593E+03  0.00000000000E+00 0. -1.
         22    1    3    3    0    0 -0.32898979988E+02  0.27778341115E+02  0.35724937814E+03  0.35983481946E+03  0.00000000000E+00 0. -1.
</event>
<event>
 7    1  0.6607887E-006  0.1473091E+03  0.7818608E-02  0.1315049E+00
          2   -1    0    0  502    0  0.00000000000E+00  0.00000000000E+00  0.13811255144E+04  0.13811255144E+04  0.00000000000E+00 0. -1.
          1   -1    0    0  501    0 -0.00000000000E+00 -0.00000000000E+00 -0.79629797736E+03  0.79629797736E+03  0.00000000000E+00 0. -1.
         25    2    1    2    0    0 -0.30086331136E+01 -0.19512128621E+03  0.26308934272E+03  0.35060288254E+03  0.12500004316E+03 0.  0.
          2    1    1    2  501    0  0.67474858798E+01  0.14604758480E+03 -0.74486733209E+03  0.75908021184E+03  0.00000000000E+00 0. -1.
          1    1    1    2  502    0 -0.37388527662E+01  0.49073701411E+02  0.10666055265E+04  0.10677403974E+04  0.00000000000E+00 0. -1.
         22    1    3    3    0    0 -0.49155190453E+02 -0.11332787603E+03  0.87180667785E+02  0.15119493732E+03  0.00000000000E+00 0.  1.
         22    1    3    3    0    0  0.46146557339E+02 -0.81793410181E+02  0.17590867493E+03  0.19940794523E+03  0.00000000000E+00 0.  1.
</event>
<event>
 7    1  0.6607887E-006  0.4919933E+02  0.7818608E-02  0.1463435E+00
          2   -1    0    0  502    0  0.00000000000E+00  0.00000000000E+00  0.24848144741E+04  0.24848144741E+04  0.00000000000E+00 0. -1.
          1   -1    0    0  501    0 -0.00000000000E+00 -0.00000000000E+00 -0.51763739885E+03  0.51763739885E+03  0.00000000000E+00 0. -1.
         25    2    1    2    0    0  0.43736773313E+02 -0.82091343901E+02 -0.60815913828E+02  0.16724953047E+03  0.12498774334E+03 0.  0.
          2    1    1    2  501    0 -0.25438754796E+02  0.36522695286E+02 -0.40212879146E+03  0.40458448121E+03  0.00000000000E+00 0. -1.
          1    1    1    2  502    0 -0.18298018517E+02  0.45568648615E+02  0.24301217806E+04  0.24306178613E+04  0.00000000000E+00 0. -1.
         22    1    3    3    0    0  0.11539233760E+02  0.31997259725E+02  0.11259886031E-02  0.34014387352E+02  0.00000000000E+00 0.  1.
         22    1    3    3    0    0  0.32197539553E+02 -0.11408860363E+03 -0.60817039817E+02  0.13323514312E+03  0.00000000000E+00 0.  1.
</event>
<event>
 7    1  0.6607887E-006  0.2608624E+03  0.7818608E-02  0.1224381E+00
          2   -1    0    0  502    0  0.00000000000E+00  0.00000000000E+00  0.46950481910E+03  0.46950481910E+03  0.00000000000E+00 0. -1.
          1   -1    0    0  501    0 -0.00000000000E+00 -0.00000000000E+00 -0.13353090912E+04  0.13353090912E+04  0.00000000000E+00 0. -1.
         25    2    1    2    0    0 -0.87350671408E+02  0.24609564892E+03  0.20061541884E+03  0.35222835098E+03  0.12500022699E+03 0.  0.
          2    1    1    2  501    0  0.21992011980E+02 -0.26032382122E+03 -0.12396552374E+04  0.12668848598E+04  0.00000000000E+00 0. -1.
          1    1    1    2  502    0  0.65358659428E+02  0.14228172304E+02  0.17323554643E+03  0.18570069950E+03  0.00000000000E+00 0. -1.
         22    1    3    3    0    0 -0.10872795227E+03  0.19454606620E+03  0.11703189693E+03  0.25172684477E+03  0.00000000000E+00 0. -1.
         22    1    3    3    0    0  0.21377280864E+02  0.51549582715E+02  0.83583521910E+02  0.10050150621E+03  0.00000000000E+00 0. -1.
</event>
<event>
 7    1  0.7353124E-006  0.4945766E+02  0.7818608E-02  0.1469922E+00
          2   -1    0    0  502    0  0.00000000000E+00  0.00000000000E+00  0.10583777305E+04  0.10583777305E+04  0.00000000000E+00 0. -1.
          1   -1    0    0  501    0 -0.00000000000E+00 -0.00000000000E+00 -0.72366522553E+03  0.72366522553E+03  0.00000000000E+00 0. -1.
         25    2    1    2    0    0  0.77822517778E+02 -0.44477557333E+02 -0.54862039928E+02  0.16330781758E+03  0.12500000992E+03 0.  0.
          2    1    1    2  501    0 -0.40360981738E+02  0.12515439427E+02 -0.61324904935E+03  0.61470321424E+03  0.00000000000E+00 0. -1.
          1    1    1    2  502    0 -0.37461536041E+02  0.31962117905E+02  0.10028235943E+04  0.10040319242E+04  0.00000000000E+00 0. -1.
         22    1    3    3    0    0 -0.31062265685E+02 -0.17329177063E+02  0.53290749806E+01  0.35966147519E+02  0.00000000000E+00 0. -1.
         22    1    3    3    0    0  0.10888478346E+03 -0.27148380269E+02 -0.60191114909E+02  0.12734167007E+03  0.00000000000E+00 0. -1.
</event>
<event>
 7    1  0.6607887E-006  0.5191533E+02  0.7818608E-02  0.1564574E+00
          2   -1    0    0  502    0  0.00000000000E+00  0.00000000000E+00  0.91636727264E+03  0.91636727264E+03  0.00000000000E+00 0. -1.
          1   -1    0    0  501    0 -0.00000000000E+00 -0.00000000000E+00 -0.94567611929E+02  0.94567611929E+02  0.00000000000E+00 0. -1.
         25    2    1    2    0    0 -0.30244561657E+02 -0.77264525252E+01  0.38315101877E+03  0.40423279522E+03  0.12500007188E+03 0.  0.
          2    1    1    2  501    0  0.51490904925E+02  0.94263769025E+01 -0.75631829402E+02  0.91980125518E+02  0.00000000000E+00 0. -1.
          1    1    1    2  502    0 -0.21246343268E+02 -0.16999243773E+01  0.51428047134E+03  0.51472196383E+03  0.00000000000E+00 0. -1.
         22    1    3    3    0    0 -0.72363520689E+02 -0.25837339552E+02  0.17555060631E+03  0.19163001492E+03  0.00000000000E+00 0. -1.
         22    1    3    3    0    0  0.42118959032E+02  0.18110887027E+02  0.20760041246E+03  0.21260278030E+03  0.00000000000E+00 0. -1.
</event>
<event>
 7    1  0.6607887E-006  0.1322235E+03  0.7818608E-02  0.1303610E+00
          2   -1    0    0  502    0  0.00000000000E+00  0.00000000000E+00  0.14764064262E+03  0.14764064262E+03  0.00000000000E+00 0. -1.
          1   -1    0    0  501    0 -0.00000000000E+00 -0.00000000000E+00 -0.64924913824E+03  0.64924913824E+03  0.00000000000E+00 0. -1.
         25    2    1    2    0    0  0.16412060941E+03 -0.92020330606E+02 -0.38603071325E+03  0.44726992859E+03  0.12500944672E+03 0.  0.
          2    1    1    2  501    0 -0.54066913003E+02  0.27886861026E+02 -0.19177418247E+03  0.20119206038E+03  0.00000000000E+00 0. -1.
          1    1    1    2  502    0 -0.11005369641E+03  0.64133469580E+02  0.76196400103E+02  0.14842779188E+03  0.00000000000E+00 0. -1.
         22    1    3    3    0    0  0.20241749247E+02 -0.32562815728E+02 -0.90303140435E+01  0.39390505867E+02  0.00000000000E+00 0.  1.
         22    1    3    3    0    0  0.14387886016E+03 -0.59457514877E+02 -0.37700039921E+03  0.40787942272E+03  0.00000000000E+00 0.  1.
</event>
<event>
 7    1  0.6607887E-006  0.2283607E+03  0.7818608E-02  0.1253991E+00
          2   -1    0    0  502    0  0.00000000000E+00  0.00000000000E+00  0.35242498194E+03  0.35242498194E+03  0.00000000000E+00 0. -1.
          1   -1    0    0  501    0 -0.00000000000E+00 -0.00000000000E+00 -0.79473221606E+03  0.79473221606E+03  0.00000000000E+00 0. -1.
         25    2    1    2    0    0 -0.18603247201E+02 -0.27506102068E+03 -0.39967793027E+02  0.30533085058E+03  0.12499943173E+03 0.  0.
          2    1    1    2  501    0  0.28902589790E+02  0.21946571200E+03 -0.59826573173E+03  0.63790472972E+03  0.00000000000E+00 0. -1.
          1    1    1    2  502    0 -0.10299342589E+02  0.55595308677E+02  0.19592629064E+03  0.20392161771E+03  0.00000000000E+00 0. -1.
         22    1    3    3    0    0  0.34819751154E+02 -0.32410892109E+02  0.16831664927E+02  0.50459745758E+02  0.00000000000E+00 0.  1.
         22    1    3    3    0    0 -0.53422998356E+02 -0.24265012857E+03 -0.56799457954E+02  0.25487110482E+03  0.00000000000E+00 0.  1.
</event>
<event>
 7    1  0.6607887E-006  0.4382246E+02  0.7818608E-02  0.1543783E+00
          2   -1    0    0  502    0  0.00000000000E+00  0.00000000000E+00  0.20976032486E+04  0.20976032486E+04  0.00000000000E+00 0. -1.
          1   -1    0    0  501    0 -0.00000000000E+00 -0.00000000000E+00 -0.76818365325E+02  0.76818365325E+02  0.00000000000E+00 0. -1.
         25    2    1    2    0    0  0.14231611676E+01  0.20432767610E+02  0.58436934675E+03  0.59793960856E+03  0.12499887475E+03 0.  0.
          2    1    1    2  501    0 -0.20196228074E+02  0.20583314057E+02 -0.66712031598E+02  0.72677751794E+02  0.00000000000E+00 0. -1.
          1    1    1    2  502    0  0.18773066907E+02 -0.41016081667E+02  0.15031275681E+04  0.15038042535E+04  0.00000000000E+00 0. -1.
         22    1    3    3    0    0  0.14777105850E+01  0.73021601477E+02  0.37670417089E+03  0.38371912941E+03  0.00000000000E+00 0. -1.
         22    1    3    3    0    0 -0.54549417449E-01 -0.52588833867E+02  0.20766517585E+03  0.21422047915E+03  0.00000000000E+00 0. -1.
</event>
<event>
 7    1  0.6607887E-006  0.8646493E+02  0.7818608E-02  0.1415427E+00
          2   -1    0    0  502    0  0.00000000000E+00  0.00000000000E+00  0.47582342598E+02  0.47582342598E+02  0.00000000000E+00 0. -1.
          1   -1    0    0  501    0 -0.00000000000E+00 -0.00000000000E+00 -0.23950991350E+04  0.23950991350E+04  0.00000000000E+00 0. -1.
         25    2    1    2    0    0  0.36230188684E+02  0.11256078884E+03 -0.51443751914E+03  0.54245092178E+03  0.12499793473E+03 0.  0.
          2    1    1    2  501    0 -0.18799254873E+02 -0.31016924635E+02 -0.18144197632E+04  0.18147822290E+04  0.00000000000E+00 0. -1.
          1    1    1    2  502    0 -0.17430933811E+02 -0.81543864204E+02 -0.18659510081E+02  0.85448326838E+02  0.00000000000E+00 0. -1.
         22    1    3    3    0    0 -0.22391849488E+00  0.12775326819E+03 -0.44018405438E+03  0.45834806578E+03  0.00000000000E+00 0.  1.
         22    1    3    3    0    0  0.36454107179E+02 -0.15192479347E+02 -0.74253464755E+02  0.84102855998E+02  0.00000000000E+00 0.  1.
</event>
<event>
 7    1  0.6607887E-006  0.7174322E+02  0.7818608E-02  0.1455167E+00
          2   -1    0    0  502    0  0.00000000000E+00  0.00000000000E+00  0.10078022098E+04  0.10078022098E+04  0.00000000000E+00 0. -1.
          1   -1    0    0  501    0 -0.00000000000E+00 -0.00000000000E+00 -0.27450522061E+02  0.27450522061E+02  0.00000000000E+00 0. -1.
         25    2    1    2    0    0 -0.40112052588E+01  0.43720769078E+02  0.26957195548E+03  0.30036850637E+03  0.12499842007E+03 0.  0.
          2    1    1    2  501    0 -0.12353086374E+02  0.29967949366E+02  0.16240335686E+02  0.36255002901E+02  0.00000000000E+00 0. -1.
          1    1    1    2  502    0  0.16364291633E+02 -0.73688718443E+02  0.69453939652E+03  0.69862922254E+03  0.00000000000E+00 0. -1.
         22    1    3    3    0    0  0.54440035626E+01  0.33727113588E+02  0.28063970892E+03  0.28271151654E+03  0.00000000000E+00 0. -1.
         22    1    3    3    0    0 -0.94552088213E+01  0.99936554901E+01 -0.11067753431E+02  0.17656989832E+02  0.00000000000E+00 0. -1.
</event>
<event>
 7    1  0.6607887E-006  0.8987196E+02  0.7818608E-02  0.1362497E+00
          2   -1    0    0  502    0  0.00000000000E+00  0.00000000000E+00  0.33751563403E+04  0.33751563403E+04  0.00000000000E+00 0. -1.
          1   -1    0    0  501    0 -0.00000000000E+00 -0.00000000000E+00 -0.17095239798E+03  0.17095239798E+03  0.00000000000E+00 0. -1.
         25    2    1    2    0    0 -0.63546212732E+02  0.54270276856E+01  0.35209612964E+03  0.37903372746E+03  0.12500923271E+03 0.  0.
          2    1    1    2  501    0 -0.73150219181E+01  0.52930563796E+02 -0.15222980303E+03  0.16133526291E+03  0.00000000000E+00 0. -1.
          1    1    1    2  502    0  0.70861234650E+02 -0.58357591481E+02  0.30043376157E+04  0.30057397479E+04  0.00000000000E+00 0. -1.
         22    1    3    3    0    0  0.12286484160E+01 -0.30733887998E+02  0.15659522185E+02  0.34515244218E+02  0.00000000000E+00 0.  1.
         22    1    3    3    0    0 -0.64774861148E+02  0.36160915683E+02  0.33643660746E+03  0.34451848325E+03  0.00000000000E+00 0.  1.
</event>
<event>
 7    1  0.1082566E-005  0.7589623E+02  0.7818608E-02  0.1366028E+00
          2   -1    0    0  502    0  0.00000000000E+00  0.00000000000E+00  0.10040793984E+04  0.10040793984E+04  0.00000000000E+00 0. -1.
          1   -1    0    0  501    0 -0.00000000000E+00 -0.00000000000E+00 -0.13671551033E+04  0.13671551033E+04  0.00000000000E+00 0. -1.
         25    2    1    2    0    0 -0.95420010195E+02 -0.98095796438E+02 -0.44497616288E+03  0.48203400779E+03  0.12500094203E+03 0.  0.
          2    1    1    2  501    0  0.45907239413E+02  0.40826090189E+02 -0.90114878194E+03  0.90324048374E+03  0.00000000000E+00 0. -1.
          1    1    1    2  502    0  0.49512770782E+02  0.57269706249E+02  0.98304923985E+03  0.98596001019E+03  0.00000000000E+00 0. -1.
         22    1    3    3    0    0 -0.11052160895E+03 -0.33748111738E+02 -0.23456198996E+03  0.26148286412E+03  0.00000000000E+00 0. -1.
         22    1    3    3    0    0  0.15101598755E+02 -0.64347684701E+02 -0.21041417292E+03  0.22055114368E+03  0.00000000000E+00 0. -1.
</event>
<event>
 7    1  0.6607887E-006  0.8776951E+02  0.7818608E-02  0.1474215E+00
          2   -1    0    0  502    0  0.00000000000E+00  0.00000000000E+00  0.14845119096E+03  0.14845119096E+03  0.00000000000E+00 0. -1.
          1   -1    0    0  501    0 -0.00000000000E+00 -0.00000000000E+00 -0.10498899925E+04  0.10498899925E+04  0.00000000000E+00 0. -1.
         25    2    1    2    0    0 -0.68018371669E+02 -0.48221665913E+02 -0.64112665526E+03  0.65849848572E+03  0.12500015863E+03 0.  0.
          2    1    1    2  501    0  0.12127132576E+02 -0.19651966363E+02 -0.38587006298E+03  0.38656043852E+03  0.00000000000E+00 0. -1.
          1    1    1    2  502    0  0.55891239094E+02  0.67873632276E+02  0.12555791667E+03  0.15328225926E+03  0.00000000000E+00 0. -1.
         22    1    3    3    0    0 -0.68998138539E+02 -0.28379405494E+02 -0.15555901779E+03  0.17252461214E+03  0.00000000000E+00 0.  1.
         22    1    3    3    0    0  0.97976686980E+00 -0.19842260419E+02 -0.48556763747E+03  0.48597387358E+03  0.00000000000E+00 0.  1.
</event>
<event>
 7    1  0.6607887E-006  0.6328570E+02  0.7818608E-02  0.1387339E+00
          2   -1    0    0  502    0  0.00000000000E+00  0.00000000000E+00  0.41435329833E+03  0.41435329833E+03  0.00000000000E+00 0. -1.
          1   -1    0    0  501    0 -0.00000000000E+00 -0.00000000000E+00 -0.20390844081E+04  0.20390844081E+04  0.00000000000E+00 0. -1.
         25    2    1    2    0    0  0.90644044228E+02  0.32319737396E+02 -0.26117035990E+02  0.15990174844E+03  0.12500224560E+03 0.  0.
          2    1    1    2  501    0 -0.59547121777E+02  0.21166654680E+02 -0.19428030079E+04  0.19438306033E+04  0.00000000000E+00 0. -1.
          1    1    1    2  502    0 -0.31096922451E+02 -0.53486392076E+02  0.34418893411E+03  0.34970535467E+03  0.00000000000E+00 0. -1.
         22    1    3    3    0    0  0.11202655894E+03  0.11574104886E+02 -0.48515993091E+02  0.12262834663E+03  0.00000000000E+00 0. -1.
         22    1    3    3    0    0 -0.21382514709E+02  0.20745632510E+02  0.22398957101E+02  0.37273401813E+02  0.00000000000E+00 0. -1.
</event>
<event>
 7    1  0.6607887E-006  0.1777126E+03  0.7818608E-02  0.1342503E+00
          2   -1    0    0  502    0  0.00000000000E+00  0.00000000000E+00  0.16668416977E+04  0.16668416977E+04  0.00000000000E+00 0. -1.
          1   -1    0    0  501    0 -0.00000000000E+00 -0.00000000000E+00 -0.11092737152E+04  0.11092737152E+04  0.00000000000E+00 0. -1.
         25    2    1    2    0    0 -0.26037138707E+02 -0.15965590267E+03  0.12617716161E+03  0.24023653170E+03  0.12499990082E+03 0.  0.
          2    1    1    2  501    0 -0.30183457956E+02 -0.10711490277E+02 -0.10465746886E+04  0.10470646379E+04  0.00000000000E+00 0. -1.
          1    1    1    2  502    0  0.56220596662E+02  0.17036739295E+03  0.14779655094E+04  0.14888142433E+04  0.00000000000E+00 0. -1.
         22    1    3    3    0    0  0.38338464651E+02 -0.79534963025E+01  0.30909861850E+02  0.49885023152E+02  0.00000000000E+00 0.  1.
         22    1    3    3    0    0 -0.64375603358E+02 -0.15170240637E+03  0.95267299757E+02  0.19035150855E+03  0.00000000000E+00 0.  1.
</event>
<event>
 7    1  0.6607887E-006  0.7264377E+02  0.7818608E-02  0.1432978E+00
          2   -1    0    0  502    0  0.00000000000E+00  0.00000000000E+00  0.84616073069E+03  0.84616073069E+03  0.00000000000E+00 0. -1.
          1   -1    0    0  501    0 -0.00000000000E+00 -0.00000000000E+00 -0.88543270775E+03  0.88543270775E+03  0.00000000000E+00 0. -1.
         25    2    1    2    0    0  0.92952808838E+02  0.18964496882E+02 -0.28747350243E+01  0.15694958069E+03  0.12500011986E+03 0.  0.
          2    1    1    2  501    0 -0.21647045008E+02 -0.30926432855E+02 -0.80337715471E+03  0.80426357092E+03  0.00000000000E+00 0. -1.
          1    1    1    2  502    0 -0.71305763829E+02  0.11961935973E+02  0.76697991268E+03  0.77038028682E+03  0.00000000000E+00 0. -1.
         22    1    3    3    0    0  0.22612211334E+02 -0.52126900284E+02  0.15717182385E+01  0.56841851948E+02  0.00000000000E+00 0.  1.
         22    1    3    3    0    0  0.70340597504E+02  0.71091397166E+02 -0.44464532629E+01  0.10010772875E+03  0.00000000000E+00 0.  1.
</event>
<event>
 7    1  0.6607887E-006  0.1028613E+03  0.7818608E-02  0.1390278E+00
          2   -1    0    0  502    0  0.00000000000E+00  0.00000000000E+00  0.54326521356E+02  0.54326521356E+02  0.00000000000E+00 0. -1.
          1   -1    0    0  501    0 -0.00000000000E+00 -0.00000000000E+00 -0.17176099161E+04  0.17176099161E+04  0.00000000000E+00 0. -1.
         25    2    1    2    0    0  0.10819197317E+03  0.81097632125E+01 -0.69580561566E+03  0.71521503057E+03  0.12496325000E+03 0.  0.
          2    1    1    2  501    0 -0.98870159124E+02  0.27877689635E+02 -0.10012443014E+04  0.10065001863E+04  0.00000000000E+00 0. -1.
          1    1    1    2  502    0 -0.93218140425E+01 -0.35987452847E+02  0.33766522244E+02  0.50221220654E+02  0.00000000000E+00 0. -1.
         22    1    3    3    0    0  0.42058681671E+02  0.61279173327E+02 -0.42421442400E+03  0.43067615132E+03  0.00000000000E+00 0. -1.
         22    1    3    3    0    0  0.66133291496E+02 -0.53169410114E+02 -0.27159119166E+03  0.28453887925E+03  0.00000000000E+00 0. -1.
</event>
<event>
 7    1  0.6607887E-006  0.7956982E+02  0.7818608E-02  0.1353805E+00
          2   -1    0    0  502    0  0.00000000000E+00  0.00000000000E+00  0.57912849155E+03  0.57912849155E+03  0.00000000000E+00 0. -1.
          1   -1    0    0  501    0 -0.00000000000E+00 -0.00000000000E+00 -0.49139750942E+03  0.49139750942E+03  0.00000000000E+00 0. -1.
         25    2    1    2    0    0 -0.90261157872E+02  0.59684527793E+02 -0.16930366870E+03  0.23664071311E+03  0.12500310151E+03 0.  0.
          2    1    1    2  501    0  0.26725454047E+02 -0.73108682586E+02 -0.28118594425E+03  0.29176131444E+03  0.00000000000E+00 0. -1.
          1    1    1    2  502    0  0.63535703825E+02  0.13424154794E+02  0.53822059508E+03  0.54212397342E+03  0.00000000000E+00 0. -1.
         22    1    3    3    0    0 -0.10526087293E+03  0.59494529634E+02 -0.77493244110E+02  0.14361285914E+03  0.00000000000E+00 0.  1.
         22    1    3    3    0    0  0.14999715059E+02  0.18999815886E+00 -0.91810424588E+02  0.93027853969E+02  0.00000000000E+00 0.  1.
</event>
<event>
 7    1  0.6607887E-006  0.1341073E+03  0.7818608E-02  0.1295907E+00
          2   -1    0    0  502    0  0.00000000000E+00  0.00000000000E+00  0.49533606851E+03  0.49533606851E+03  0.00000000000E+00 0. -1.
          1   -1    0    0  501    0 -0.00000000000E+00 -0.00000000000E+00 -0.21224619315E+03  0.21224619315E+03  0.00000000000E+00 0. -1.
         25    2    1    2    0    0 -0.14433105854E+03  0.75385827662E+02 -0.59606966037E+02  0.21375686605E+03  0.12499811963E+03 0.  0.
          2    1    1    2  501    0  0.11797374649E+03 -0.16630515510E+02 -0.23986172285E+02  0.12153071779E+03  0.00000000000E+00 0. -1.
          1    1    1    2  502    0  0.26357312056E+02 -0.58755312153E+02  0.36668301368E+03  0.37229467782E+03  0.00000000000E+00 0. -1.
         22    1    3    3    0    0 -0.10051480732E+03  0.10940364103E+02  0.19211227538E+02  0.10291739076E+03  0.00000000000E+00 0.  1.
         22    1    3    3    0    0 -0.43816251224E+02  0.64445463559E+02 -0.78818193575E+02  0.11083947529E+03  0.00000000000E+00 0.  1.
</event>
<event>
 7    1  0.6607887E-006  0.3230670E+03  0.7818608E-02  0.1111783E+00
          2   -1    0    0  502    0  0.00000000000E+00  0.00000000000E+00  0.73784347570E+03  0.73784347570E+03  0.00000000000E+00 0. -1.
          1   -1    0    0  501    0 -0.00000000000E+00 -0.00000000000E+00 -0.24006411366E+04  0.24006411366E+04  0.00000000000E+00 0. -1.
         25    2    1    2    0    0 -0.38247554830E+03  0.32955220655E+03 -0.39711508507E+03  0.65438342967E+03  0.12500032140E+03 0.  0.
          2    1    1    2  501    0  0.13502751505E+03 -0.14375490179E+03 -0.18299551977E+04  0.18405526146E+04  0.00000000000E+00 0. -1.
          1    1    1    2  502    0  0.24744803326E+03 -0.18579730476E+03  0.56427262185E+03  0.64354856801E+03  0.00000000000E+00 0. -1.
         22    1    3    3    0    0 -0.34560048228E+03  0.23483183294E+03 -0.30630372880E+03  0.51808074409E+03  0.00000000000E+00 0. -1.
         22    1    3    3    0    0 -0.36875066016E+02  0.94720373610E+02 -0.90811356269E+02  0.13630268559E+03  0.00000000000E+00 0. -1.
</event>
<event>
 7    1  0.6607887E-006  0.6224640E+02  0.7818608E-02  0.1442009E+00
          2   -1    0    0  502    0  0.00000000000E+00  0.00000000000E+00  0.21337881217E+02  0.21337881217E+02  0.00000000000E+00 0. -1.
          1   -1    0    0  501    0 -0.00000000000E+00 -0.00000000000E+00 -0.19493576099E+04  0.19493576099E+04  0.00000000000E+00 0. -1.
         25    2    1    2    0    0  0.52124256307E+02 -0.59797149418E+02 -0.36464294863E+03  0.39354631338E+03  0.12498633369E+03 0.  0.
          2    1    1    2  501    0 -0.41125876168E+02  0.19114688721E+01 -0.14382972588E+04  0.14388863736E+04  0.00000000000E+00 0. -1.
          1    1    1    2  502    0 -0.10998380138E+02  0.57885680545E+02 -0.12507952122E+03  0.13826280413E+03  0.00000000000E+00 0. -1.
         22    1    3    3    0    0  0.49068762323E+02  0.99891521180E+01 -0.48265477474E+02  0.69549140266E+02  0.00000000000E+00 0. -1.
         22    1    3    3    0    0  0.30554939835E+01 -0.69786301536E+02 -0.31637747116E+03  0.32399717311E+03  0.00000000000E+00 0. -1.
</event>
<event>
 7    1  0.6607887E-006  0.4003767E+03  0.7818608E-02  0.1191022E+00
          2   -1    0    0  502    0  0.00000000000E+00  0.00000000000E+00  0.27281425969E+03  0.27281425969E+03  0.00000000000E+00 0. -1.
          1   -1    0    0  501    0 -0.00000000000E+00 -0.00000000000E+00 -0.21715505294E+04  0.21715505294E+04  0.00000000000E+00 0. -1.
         25    2    1    2    0    0  0.27919678290E+03 -0.35037225680E+03 -0.53417698927E+03  0.70829372923E+03  0.12499355621E+03 0.  0.
          2    1    1    2  501    0 -0.23139919572E+03  0.31038614738E+03 -0.15200390508E+04  0.15685674560E+04  0.00000000000E+00 0. -1.
          1    1    1    2  502    0 -0.47797587179E+02  0.39986109419E+02  0.15547977037E+03  0.16750360378E+03  0.00000000000E+00 0. -1.
         22    1    3    3    0    0  0.27904650057E+03 -0.28193016442E+03 -0.45528280563E+03  0.60384931911E+03  0.00000000000E+00 0. -1.
         22    1    3    3    0    0  0.15028233041E+00 -0.68442092382E+02 -0.78894183638E+02  0.10444441012E+03  0.00000000000E+00 0. -1.
</event>
<event>
 7    1  0.6607887E-006  0.3877678E+02  0.7818608E-02  0.1550807E+00
          2   -1    0    0  502    0  0.00000000000E+00  0.00000000000E+00  0.72234933520E+03  0.72234933520E+03  0.00000000000E+00 0. -1.
          1   -1    0    0  501    0 -0.00000000000E+00 -0.00000000000E+00 -0.45776992214E+02  0.45776992214E+02  0.00000000000E+00 0. -1.
         25    2    1    2    0    0  0.84063102939E+01  0.11668779988E+02  0.15002607240E+03  0.19580811431E+03  0.12500467492E+03 0.  0.
          2    1    1    2  501    0 -0.14546256911E+02  0.27540886291E+02 -0.11207893532E+02  0.33101523911E+02  0.00000000000E+00 0. -1.
          1    1    1    2  502    0  0.61399466175E+01 -0.39209666279E+02  0.53775416412E+03  0.53921668920E+03  0.00000000000E+00 0. -1.
         22    1    3    3    0    0 -0.15526596597E+02  0.53047462036E+02  0.13471674829E+03  0.14561493983E+03  0.00000000000E+00 0. -1.
         22    1    3    3    0    0  0.23932906891E+02 -0.41378682047E+02  0.15309324106E+02  0.50193174485E+02  0.00000000000E+00 0. -1.
</event>
<event>
 7    1  0.6607887E-006  0.5668199E+02  0.7818608E-02  0.1500401E+00
          2   -1    0    0  502    0  0.00000000000E+00  0.00000000000E+00  0.55237758897E+02  0.55237758897E+02  0.00000000000E+00 0. -1.
          1   -1    0    0  501    0 -0.00000000000E+00 -0.00000000000E+00 -0.37673613958E+03  0.37673613958E+03  0.00000000000E+00 0. -1.
         25    2    1    2    0    0  0.22487536358E+02  0.27099385479E+02 -0.20397054822E+03  0.24180299037E+03  0.12499854250E+03 0.  0.
          2    1    1    2  501    0 -0.38487292095E+02 -0.52209768525E+02 -0.13904875225E+03  0.15343300520E+03  0.00000000000E+00 0. -1.
          1    1    1    2  502    0  0.15999755736E+02  0.25110383047E+02  0.21520919797E+02  0.36737902897E+02  0.00000000000E+00 0. -1.
         22    1    3    3    0    0  0.63324278558E+02  0.39858686737E+02 -0.17446014854E+03  0.18982892981E+03  0.00000000000E+00 0.  1.
         22    1    3    3    0    0 -0.40836742200E+02 -0.12759301259E+02 -0.29510399679E+02  0.51974060562E+02  0.00000000000E+00 0.  1.
</event>
<event>
 7    1  0.6607887E-006  0.7715783E+02  0.7818608E-02  0.1409164E+00
          2   -1    0    0  502    0  0.00000000000E+00  0.00000000000E+00  0.21677711682E+04  0.21677711682E+04  0.00000000000E+00 0. -1.
          1   -1    0    0  501    0 -0.00000000000E+00 -0.00000000000E+00 -0.16364090435E+02  0.16364090435E+02  0.00000000000E+00 0. -1.
         25    2    1    2    0    0  0.26464132000E+02  0.62802323957E+02  0.16108010686E+04  0.16170804126E+04  0.12499798362E+03 0.  0.
          2    1    1    2  501    0  0.12322467695E+02  0.40855250679E+02  0.28965891572E+03  0.29278538586E+03  0.00000000000E+00 0. -1.
          1    1    1    2  502    0 -0.38786599695E+02 -0.10365757464E+03  0.25094709342E+03  0.27426946019E+03  0.00000000000E+00 0. -1.
         22    1    3    3    0    0 -0.21186650830E+02  0.14123514072E+02  0.65447533210E+02  0.70226258810E+02  0.00000000000E+00 0. -1.
         22    1    3    3    0    0  0.47650782830E+02  0.48678809885E+02  0.15453535354E+04  0.15468541538E+04  0.00000000000E+00 0. -1.
</event>
<event>
 7    1  0.6607887E-006  0.1919003E+03  0.7818608E-02  0.1190105E+00
          2   -1    0    0  502    0  0.00000000000E+00  0.00000000000E+00  0.38187423100E+04  0.38187423100E+04  0.00000000000E+00 0. -1.
          1   -1    0    0  501    0 -0.00000000000E+00 -0.00000000000E+00 -0.26870050688E+03  0.26870050688E+03  0.00000000000E+00 0. -1.
         25    2    1    2    0    0  0.30976541891E+03 -0.25339151747E+02  0.70926127988E+03  0.78439349656E+03  0.12499962781E+03 0.  0.
          2    1    1    2  501    0 -0.18535549193E+03 -0.16761998142E+02 -0.19201646661E+03  0.26740969769E+03  0.00000000000E+00 0. -1.
          1    1    1    2  502    0 -0.12440992698E+03  0.42101149889E+02  0.30327969899E+04  0.30356396226E+04  0.00000000000E+00 0. -1.
         22    1    3    3    0    0  0.10317578245E+03 -0.56881441019E+01  0.39121686189E+03  0.40463345153E+03  0.00000000000E+00 0.  1.
         22    1    3    3    0    0  0.20658963646E+03 -0.19651007645E+02  0.31804441799E+03  0.37976004504E+03  0.00000000000E+00 0.  1.
</event>
<event>
 7    1  0.6607887E-006  0.1039028E+03  0.7818608E-02  0.1377945E+00
          2   -1    0    0  502    0  0.00000000000E+00  0.00000000000E+00  0.28720627776E+03  0.28720627776E+03  0.00000000000E+00 0. -1.
          1   -1    0    0  501    0 -0.00000000000E+00 -0.00000000000E+00 -0.25078444138E+04  0.25078444138E+04  0.00000000000E+00 0. -1.
         25    2    1    2    0    0  0.72019657111E+02 -0.10816699899E+03 -0.14368517410E+03  0.23056087262E+03  0.12500382412E+03 0.  0.
          2    1    1    2  501    0 -0.77872734601E+02  0.67918580272E+02 -0.23178658243E+04  0.23201678982E+04  0.00000000000E+00 0. -1.
          1    1    1    2  502    0  0.58530774899E+01  0.40248418715E+02  0.24091286235E+03  0.24432192077E+03  0.00000000000E+00 0. -1.
         22    1    3    3    0    0  0.82278629956E+02 -0.12960544890E+03 -0.13728425242E+03  0.20594735078E+03  0.00000000000E+00 0.  1.
         22    1    3    3    0    0 -0.10258972844E+02  0.21438449915E+02 -0.64009216827E+01  0.24613521832E+02  0.00000000000E+00 0.  1.
</event>
<event>
 7    1  0.6607887E-006  0.1012136E+03  0.7818608E-02  0.1342728E+00
          2   -1    0    0  502    0  0.00000000000E+00  0.00000000000E+00  0.85157870717E+03  0.85157870717E+03  0.00000000000E+00 0. -1.
          1   -1    0    0  501    0 -0.00000000000E+00 -0.00000000000E+00 -0.23583510481E+04  0.23583510481E+04  0.00000000000E+00 0. -1.
         25    2    1    2    0    0  0.59425299605E+02  0.39801594264E+02  0.32364576339E+03  0.35424153598E+03  0.12499981005E+03 0.  0.
          2    1    1    2  501    0  0.53767228165E+02 -0.16099823592E+02 -0.23361894783E+04  0.23368635813E+04  0.00000000000E+00 0. -1.
          1    1    1    2  502    0 -0.11319252777E+03 -0.23701770672E+02  0.50577137397E+03  0.51882463800E+03  0.00000000000E+00 0. -1.
         22    1    3    3    0    0 -0.13787804558E+02  0.44524249014E+02  0.23304904203E+03  0.23766440267E+03  0.00000000000E+00 0. -1.
         22    1    3    3    0    0  0.73213104162E+02 -0.47226547505E+01  0.90596721354E+02  0.11657713330E+03  0.00000000000E+00 0. -1.
</event>
<event>
 7    1  0.6607887E-006  0.1394790E+03  0.7818608E-02  0.1252439E+00
          2   -1    0    0  502    0  0.00000000000E+00  0.00000000000E+00  0.29810120674E+04  0.29810120674E+04  0.00000000000E+00 0. -1.
          1   -1    0    0  501    0 -0.00000000000E+00 -0.00000000000E+00 -0.79204092092E+03  0.79204092092E+03  0.00000000000E+00 0. -1.
         25    2    1    2    0    0 -0.14462076976E+03  0.17914859506E+03  0.41816287807E+03  0.49345158852E+03  0.12499956583E+03 0.  0.
          2    1    1    2  501    0  0.74684253332E+02 -0.11632357342E+03 -0.74717948777E+03  0.75985926221E+03  0.00000000000E+00 0. -1.
          1    1    1    2  502    0  0.69936516424E+02 -0.62825021641E+02  0.25179877562E+04  0.25197421376E+04  0.00000000000E+00 0. -1.
         22    1    3    3    0    0 -0.20248557886E+02  0.20504551765E+02 -0.46006235274E+00  0.28821040872E+02  0.00000000000E+00 0.  1.
         22    1    3    3    0    0 -0.12437221187E+03  0.15864404330E+03  0.41862294042E+03  0.46463054765E+03  0.00000000000E+00 0.  1.
</event>
<event>
 7    1  0.6607887E-006  0.6337481E+02  0.7818608E-02  0.1485810E+00
          2   -1    0    0  502    0  0.00000000000E+00  0.00000000000E+00  0.92198398706E+02  0.92198398706E+02  0.00000000000E+00 0. -1.
          1   -1    0    0  501    0 -0.00000000000E+00 -0.00000000000E+00 -0.97429018168E+03  0.97429018168E+03  0.00000000000E+00 0. -1.
         25    2    1    2    0    0  0.93533057520E+01 -0.51580288691E+02 -0.42687480817E+02  0.14210885594E+03  0.12499878163E+03 0.  0.
          2    1    1    2  501    0 -0.38803595369E+02  0.50596655928E+02 -0.87548016260E+03  0.87779909758E+03  0.00000000000E+00 0. -1.
          1    1    1    2  502    0  0.29450289617E+02  0.98363276295E+00  0.36075860445E+02  0.46580626861E+02  0.00000000000E+00 0. -1.
         22    1    3    3    0    0  0.39721026423E+02 -0.52262353463E+02 -0.73702196544E+02  0.98697149427E+02  0.00000000000E+00 0.  1.
         22    1    3    3    0    0 -0.30367720671E+02  0.68206477150E+00  0.31014715727E+02  0.43411706517E+02  0.00000000000E+00 0.  1.
</event>
<event>
 7    1  0.6607887E-006  0.1148798E+03  0.7818608E-02  0.1347545E+00
          2   -1    0    0  502    0  0.00000000000E+00  0.00000000000E+00  0.10819621914E+04  0.10819621914E+04  0.00000000000E+00 0. -1.
          1   -1    0    0  501    0 -0.00000000000E+00 -0.00000000000E+00 -0.29800975073E+04  0.29800975073E+04  0.00000000000E+00 0. -1.
         25    2    1    2    0    0  0.30917241649E+02  0.78886269836E+02  0.28641281251E+02  0.15370247160E+03  0.12500082953E+03 0.  0.
          2    1    1    2  501    0  0.46689094687E+02  0.84269188309E+01 -0.29139298438E+04  0.29143160465E+04  0.00000000000E+00 0. -1.
          1    1    1    2  502    0 -0.77606336336E+02 -0.87313188667E+02  0.98715324666E+03  0.99404118061E+03  0.00000000000E+00 0. -1.
         22    1    3    3    0    0 -0.32315369882E+02  0.61478470002E+02  0.49035426266E+02  0.85019753196E+02  0.00000000000E+00 0.  1.
         22    1    3    3    0    0  0.63232611531E+02  0.17407799834E+02 -0.20394145015E+02  0.68682718401E+02  0.00000000000E+00 0.  1.
</event>
<event>
 7    1  0.6607887E-006  0.6243523E+02  0.7818608E-02  0.1474454E+00
          2   -1    0    0  502    0  0.00000000000E+00  0.00000000000E+00  0.33887255299E+04  0.33887255299E+04  0.00000000000E+00 0. -1.
          1   -1    0    0  501    0 -0.00000000000E+00 -0.00000000000E+00 -0.58275294460E+01  0.58275294460E+01  0.00000000000E+00 0. -1.
         25    2    1    2    0    0  0.50037716921E+02 -0.37957745024E+01  0.10402538681E+04  0.10489376142E+04  0.12499530964E+03 0.  0.
          2    1    1    2  501    0 -0.76316167857E+02 -0.15169906848E+02  0.12048344065E+04  0.12073442883E+04  0.00000000000E+00 0. -1.
          1    1    1    2  502    0  0.26278450936E+02  0.18965681350E+02  0.11378097258E+04  0.11382711567E+04  0.00000000000E+00 0. -1.
         22    1    3    3    0    0  0.16535720563E+02 -0.14599577469E+02  0.97100475654E+03  0.97125527795E+03  0.00000000000E+00 0.  1.
         22    1    3    3    0    0  0.33501996358E+02  0.10803802967E+02  0.69249111555E+02  0.77682336278E+02  0.00000000000E+00 0.  1.
</event>
<event>
 7    1  0.6607887E-006  0.7542949E+02  0.7818608E-02  0.1382839E+00
          2   -1    0    0  502    0  0.00000000000E+00  0.00000000000E+00  0.17392849654E+03  0.17392849654E+03  0.00000000000E+00 0. -1.
          1   -1    0    0  501    0 -0.00000000000E+00 -0.00000000000E+00 -0.33661290173E+03  0.33661290173E+03  0.00000000000E+00 0. -1.
         25    2    1    2    0    0 -0.25202525038E+02 -0.24388714158E+02 -0.82116287057E+02  0.15361918546E+03  0.12500317154E+03 0.  0.
          2    1    1    2  501    0  0.37959370481E+02  0.76689416620E+02 -0.20456633562E+03  0.22174211620E+03  0.00000000000E+00 0. -1.
          1    1    1    2  502    0 -0.12756845443E+02 -0.52300702461E+02  0.12399821747E+03  0.13518009661E+03  0.00000000000E+00 0. -1.
         22    1    3    3    0    0  0.19121792073E+02 -0.55126192147E+02 -0.80798199030E+02  0.99663879913E+02  0.00000000000E+00 0. -1.
         22    1    3    3    0    0 -0.44324317110E+02  0.30737477989E+02 -0.13180880270E+01  0.53955305545E+02  0.00000000000E+00 0. -1.
</event>
<event>
 7    1  0.6607887E-006  0.1010697E+03  0.7818608E-02  0.1347421E+00
          2   -1    0    0  502    0  0.00000000000E+00  0.00000000000E+00  0.50915531876E+03  0.50915531876E+03  0.00000000000E+00 0. -1.
          1   -1    0    0  501    0 -0.00000000000E+00 -0.00000000000E+00 -0.39730021165E+04  0.39730021165E+04  0.00000000000E+00 0. -1.
         25    2    1    2    0    0  0.30841816891E+02  0.14558006630E+03  0.56840787508E+02  0.20248896604E+03  0.12500453140E+03 0.  0.
          2    1    1    2  501    0 -0.62977846541E+00 -0.10084277033E+03 -0.38976027225E+04  0.38989071088E+04  0.00000000000E+00 0. -1.
          1    1    1    2  502    0 -0.30212038425E+02 -0.44737295971E+02  0.37691513722E+03  0.38076136041E+03  0.00000000000E+00 0. -1.
         22    1    3    3    0    0  0.69461364708E+02  0.12661901435E+03  0.19904673145E+02  0.14578563713E+03  0.00000000000E+00 0. -1.
         22    1    3    3    0    0 -0.38619547817E+02  0.18961051952E+02  0.36936114363E+02  0.56703328905E+02  0.00000000000E+00 0. -1.
</event>
<event>
 7    1  0.6607887E-006  0.7543488E+02  0.7818608E-02  0.1497554E+00
          2   -1    0    0  502    0  0.00000000000E+00  0.00000000000E+00  0.15010130201E+04  0.15010130201E+04  0.00000000000E+00 0. -1.
          1   -1    0    0  501    0 -0.00000000000E+00 -0.00000000000E+00 -0.22529492176E+03  0.22529492176E+03  0.00000000000E+00 0. -1.
         25    2    1    2    0    0 -0.73192737051E+02 -0.59799785314E+02  0.31149141684E+03  0.34868926681E+03  0.12499644371E+03 0.  0.
          2    1    1    2  501    0  0.50842256961E+02  0.55218124899E+02 -0.19976619356E+03  0.21340222234E+03  0.00000000000E+00 0. -1.
          1    1    1    2  502    0  0.22350480090E+02  0.45816604145E+01  0.11639928751E+04  0.11642164527E+04  0.00000000000E+00 0. -1.
         22    1    3    3    0    0 -0.12288206373E+02 -0.40920212554E+02  0.14789078942E+02  0.45212616240E+02  0.00000000000E+00 0.  1.
         22    1    3    3    0    0 -0.60904530678E+02 -0.18879572760E+02  0.29670233790E+03  0.30347665057E+03  0.00000000000E+00 0.  1.
</event>
<event>
 7    1  0.6607887E-006  0.7714401E+02  0.7818608E-02  0.1483491E+00
          2   -1    0    0  502    0  0.00000000000E+00  0.00000000000E+00  0.12566623596E+04  0.12566623596E+04  0.00000000000E+00 0. -1.
          1   -1    0    0  501    0 -0.00000000000E+00 -0.00000000000E+00 -0.13407039913E+03  0.13407039913E+03  0.00000000000E+00 0. -1.
         25    2    1    2    0    0  0.65641605380E+02 -0.37499632370E+02  0.92654565509E+03  0.93799146992E+03  0.12500441547E+03 0.  0.
          2    1    1    2  501    0 -0.51433212671E+02  0.57586904448E+02 -0.11620733049E+03  0.13951978566E+03  0.00000000000E+00 0. -1.
          1    1    1    2  502    0 -0.14208392709E+02 -0.20087272077E+02  0.31225363590E+03  0.31322150318E+03  0.00000000000E+00 0. -1.
         22    1    3    3    0    0  0.96943303874E+02 -0.49691521044E+02  0.78451675809E+03  0.79204406137E+03  0.00000000000E+00 0.  1.
         22    1    3    3    0    0 -0.31301698495E+02  0.12191888674E+02  0.14202889700E+03  0.14594740855E+03  0.00000000000E+00 0.  1.
</event>
<event>
 7    1  0.6607887E-006  0.1642802E+03  0.7818608E-02  0.1196885E+00
          2   -1    0    0  502    0  0.00000000000E+00  0.00000000000E+00  0.64153969691E+03  0.64153969691E+03  0.00000000000E+00 0. -1.
          1   -1    0    0  501    0 -0.00000000000E+00 -0.00000000000E+00 -0.26691103546E+04  0.26691103546E+04  0.00000000000E+00 0. -1.
         25    2    1    2    0    0 -0.19591559864E+03  0.15404620622E+03 -0.23461724818E+03  0.36439434736E+03  0.12499932722E+03 0.  0.
          2    1    1    2  501    0  0.16144032071E+03 -0.15865858574E+02 -0.23579820264E+04  0.23635553599E+04  0.00000000000E+00 0. -1.
          1    1    1    2  502    0  0.34475277932E+02 -0.13818034765E+03  0.56502861688E+03  0.58270034423E+03  0.00000000000E+00 0. -1.
         22    1    3    3    0    0  0.77859948798E+01  0.45897306685E+02 -0.55095753819E+02  0.72129928367E+02  0.00000000000E+00 0.  1.
         22    1    3    3    0    0 -0.20370159352E+03  0.10814889954E+03 -0.17952149436E+03  0.29226441900E+03  0.00000000000E+00 0.  1.
</event>
<event>
 7    1  0.6607887E-006  0.1177524E+03  0.7818608E-02  0.1328072E+00
          2   -1    0    0  502    0  0.00000000000E+00  0.00000000000E+00  0.76741626394E+03  0.76741626394E+03  0.00000000000E+00 0. -1.
          1   -1    0    0  501    0 -0.00000000000E+00 -0.00000000000E+00 -0.38563916297E+03  0.38563916297E+03  0.00000000000E+00 0. -1.
         25    2    1    2    0    0  0.88424733928E+02  0.30321198040E+00  0.87872081116E+02  0.17653704110E+03  0.12499919492E+03 0.  0.
          2    1    1    2  501    0  0.23950185077E+02 -0.49314691261E+02 -0.33312982514E+03  0.33761076780E+03  0.00000000000E+00 0. -1.
          1    1    1    2  502    0 -0.11237491900E+03  0.49011479281E+02  0.62703484499E+03  0.63890761801E+03  0.00000000000E+00 0. -1.
         22    1    3    3    0    0  0.78718933415E+02 -0.41256058657E+02  0.12265854805E+02  0.89717244987E+02  0.00000000000E+00 0. -1.
         22    1    3    3    0    0  0.97058005126E+01  0.41559270638E+02  0.75606226311E+02  0.86819796110E+02  0.00000000000E+00 0. -1.
</event>
<event>
 7    1  0.6607887E-006  0.1091787E+03  0.7818608E-02  0.1396414E+00
          2   -1    0    0  502    0  0.00000000000E+00  0.00000000000E+00  0.96108163476E+03  0.96108163476E+03  0.00000000000E+00 0. -1.
          1   -1    0    0  501    0 -0.00000000000E+00 -0.00000000000E+00 -0.14257244530E+04  0.14257244530E+04  0.00000000000E+00 0. -1.
         25    2    1    2    0    0  0.22117690555E+01 -0.12433374187E+03  0.14239001642E+03  0.22663689387E+03  0.12500237436E+03 0.  0.
          2    1    1    2  501    0  0.26606221932E+02  0.20103399119E+02 -0.13796337746E+04  0.13800367350E+04  0.00000000000E+00 0. -1.
          1    1    1    2  502    0 -0.28817990987E+02  0.10423034275E+03  0.77260094000E+03  0.78013245891E+03  0.00000000000E+00 0. -1.
         22    1    3    3    0    0  0.51901942859E+02 -0.98945631770E+02  0.12616010865E+03  0.16852424969E+03  0.00000000000E+00 0. -1.
         22    1    3    3    0    0 -0.49690173804E+02 -0.25388110099E+02  0.16229907776E+02  0.58112644179E+02  0.00000000000E+00 0. -1.
</event>
<event>
 7    1  0.6607887E-006  0.1103642E+03  0.7818608E-02  0.1408830E+00
          2   -1    0    0  502    0  0.00000000000E+00  0.00000000000E+00  0.13447164867E+03  0.13447164867E+03  0.00000000000E+00 0. -1.
          1   -1    0    0  501    0 -0.00000000000E+00 -0.00000000000E+00 -0.99543998277E+03  0.99543998277E+03  0.00000000000E+00 0. -1.
         25    2    1    2    0    0 -0.91072172481E+01  0.13300486297E+03  0.52502768789E+02  0.19013554279E+03  0.12498699500E+03 0.  0.
          2    1    1    2  501    0  0.24068290037E+02 -0.10710380705E+03 -0.90051155136E+03  0.90717780076E+03  0.00000000000E+00 0. -1.
          1    1    1    2  502    0 -0.14961072789E+02 -0.25901055929E+02 -0.12959551529E+02  0.32598287885E+02  0.00000000000E+00 0. -1.
         22    1    3    3    0    0  0.23316731048E+02  0.11410927424E+03 -0.10355714652E+02  0.11692663187E+03  0.00000000000E+00 0. -1.
         22    1    3    3    0    0 -0.32423948296E+02  0.18895588731E+02  0.62858483441E+02  0.73208910913E+02  0.00000000000E+00 0. -1.
</event>
<event>
 7    1  0.6607887E-006  0.3724274E+02  0.7818608E-02  0.1547659E+00
          2   -1    0    0  502    0  0.00000000000E+00  0.00000000000E+00  0.93643445886E+03  0.93643445886E+03  0.00000000000E+00 0. -1.
          1   -1    0    0  501    0 -0.00000000000E+00 -0.00000000000E+00 -0.59582887718E+03  0.59582887718E+03  0.00000000000E+00 0. -1.
         25    2    1    2    0    0 -0.29831443426E+02 -0.40099818345E+02  0.15974407667E+03  0.20890593731E+03  0.12500244063E+03 0.  0.
          2    1    1    2  501    0  0.32956399019E+02  0.29975028054E+01 -0.57030718421E+03  0.57126648214E+03  0.00000000000E+00 0. -1.
          1    1    1    2  502    0 -0.31249555926E+01  0.37102315540E+02  0.75116868921E+03  0.75209091659E+03  0.00000000000E+00 0. -1.
         22    1    3    3    0    0 -0.32291616611E+02 -0.82721535692E+02  0.12763060972E+03  0.15548367602E+03  0.00000000000E+00 0. -1.
         22    1    3    3    0    0  0.24601731851E+01  0.42621717347E+02  0.32113466945E+02  0.53422261286E+02  0.00000000000E+00 0. -1.
</event>
<event>
 7    1  0.6607887E-006  0.5385154E+02  0.7818608E-02  0.1457718E+00
          2   -1    0    0  502    0  0.00000000000E+00  0.00000000000E+00  0.30971438241E+04  0.30971438241E+04  0.00000000000E+00 0. -1.
          1   -1    0    0  501    0 -0.00000000000E+00 -0.00000000000E+00 -0.12304455630E+04  0.12304455630E+04  0.00000000000E+00 0. -1.
         25    2    1    2    0    0  0.43081598372E+01  0.69621136077E+02  0.58193174620E+02  0.15452259063E+03  0.12500049045E+03 0.  0.
          2    1    1    2  501    0  0.29990058671E+02 -0.44716341817E+02 -0.11815175665E+04  0.11827437232E+04  0.00000000000E+00 0. -1.
          1    1    1    2  502    0 -0.34298218508E+02 -0.24904794259E+02  0.29900226530E+04  0.29903230732E+04  0.00000000000E+00 0. -1.
         22    1    3    3    0    0 -0.57092401330E+02  0.35108707523E+02  0.68754608279E+01  0.67375333729E+02  0.00000000000E+00 0. -1.
         22    1    3    3    0    0  0.61400561167E+02  0.34512428554E+02  0.51317713792E+02  0.87147256899E+02  0.00000000000E+00 0. -1.
</event>
<event>
 7    1  0.6607887E-006  0.1244932E+03  0.7818608E-02  0.1415471E+00
          2   -1    0    0  502    0  0.00000000000E+00  0.00000000000E+00  0.83339934576E+03  0.83339934576E+03  0.00000000000E+00 0. -1.
          1   -1    0    0  501    0 -0.00000000000E+00 -0.00000000000E+00 -0.37558233834E+03  0.37558233834E+03  0.00000000000E+00 0. -1.
         25    2    1    2    0    0 -0.56987877078E+02  0.85024156704E+02 -0.37258751338E+02  0.16580352578E+03  0.12500347697E+03 0.  0.
          2    1    1    2  501    0 -0.38680852372E+01  0.24882964635E+02 -0.26832757336E+03  0.26950660593E+03  0.00000000000E+00 0. -1.
          1    1    1    2  502    0  0.60855962315E+02 -0.10990712134E+03  0.76340333213E+03  0.77367155239E+03  0.00000000000E+00 0. -1.
         22    1    3    3    0    0 -0.59719372311E+02  0.24433988031E+02  0.33422286211E+02  0.72666859131E+02  0.00000000000E+00 0.  1.
         22    1    3    3    0    0  0.27314952334E+01  0.60590168673E+02 -0.70681037550E+02  0.93136666653E+02  0.00000000000E+00 0.  1.
</event>
<event>
 7    1  0.6607887E-006  0.1325012E+03  0.7818608E-02  0.1357083E+00
          2   -1    0    0  502    0  0.00000000000E+00  0.00000000000E+00  0.10681402877E+04  0.10681402877E+04  0.00000000000E+00 0. -1.
          1   -1    0    0  501    0 -0.00000000000E+00 -0.00000000000E+00 -0.55214165993E+02  0.55214165993E+02  0.00000000000E+00 0. -1.
         25    2    1    2    0    0 -0.10184239523E+03 -0.10947247377E+02  0.24370319584E+03  0.29241728477E+03  0.12499962033E+03 0.  0.
          2    1    1    2  501    0 -0.37927022916E+02 -0.49029602534E+00 -0.99752693030E+01  0.39219962457E+02  0.00000000000E+00 0. -1.
          1    1    1    2  502    0  0.13976941814E+03  0.11437543402E+02  0.77919819515E+03  0.79171720644E+03  0.00000000000E+00 0. -1.
         22    1    3    3    0    0 -0.92372109573E+02  0.28588891947E+01  0.25565556826E+03  0.27184655499E+03  0.00000000000E+00 0. -1.
         22    1    3    3    0    0 -0.94702856549E+01 -0.13806136571E+02 -0.11952372425E+02  0.20570729788E+02  0.00000000000E+00 0. -1.
</event>
<event>
 7    1  0.6607887E-006  0.1100368E+03  0.7818608E-02  0.1303534E+00
          2   -1    0    0  502    0  0.00000000000E+00  0.00000000000E+00  0.51693248903E+03  0.51693248903E+03  0.00000000000E+00 0. -1.
          1   -1    0    0  501    0 -0.00000000000E+00 -0.00000000000E+00 -0.15560013555E+03  0.15560013555E+03  0.00000000000E+00 0. -1.
         25    2    1    2    0    0  0.21979973043E+02 -0.38360523582E+02  0.21815547856E+03  0.25528754269E+03  0.12500107056E+03 0.  0.
          2    1    1    2  501    0 -0.62582044889E+02  0.99210775421E+02 -0.10566440576E+03  0.15787418075E+03  0.00000000000E+00 0. -1.
          1    1    1    2  502    0  0.40602071846E+02 -0.60850251839E+02  0.24884128068E+03  0.25937090114E+03  0.00000000000E+00 0. -1.
         22    1    3    3    0    0  0.71196182524E+02 -0.42920162890E+02  0.13941136091E+03  0.16231624792E+03  0.00000000000E+00 0.  1.
         22    1    3    3    0    0 -0.49216209482E+02  0.45596393080E+01  0.78744117646E+02  0.92971294765E+02  0.00000000000E+00 0.  1.
</event>
<event>
 7    1  0.6607887E-006  0.3621311E+02  0.7818608E-02  0.1593993E+00
          2   -1    0    0  502    0  0.00000000000E+00  0.00000000000E+00  0.12997711945E+04  0.12997711945E+04  0.00000000000E+00 0. -1.
          1   -1    0    0  501    0 -0.00000000000E+00 -0.00000000000E+00 -0.25284344674E+03  0.25284344674E+03  0.00000000000E+00 0. -1.
         25    2    1    2    0    0  0.35441028411E+02 -0.48360602470E+02  0.18277646780E+03  0.22940467645E+03  0.12499781610E+03 0.  0.
          2    1    1    2  501    0 -0.26423964263E+02  0.24533563203E+02 -0.22796379911E+03  0.23079778014E+03  0.00000000000E+00 0. -1.
          1    1    1    2  502    0 -0.90170641474E+01  0.23827039267E+02  0.10921150790E+04  0.10924121846E+04  0.00000000000E+00 0. -1.
         22    1    3    3    0    0  0.45592940291E+00 -0.49558126103E+02  0.18762927232E+03  0.19406431812E+03  0.00000000000E+00 0.  1.
         22    1    3    3    0    0  0.34985099008E+02  0.11975236334E+01 -0.48528045208E+01  0.35340358334E+02  0.00000000000E+00 0.  1.
</event>
<event>
 7    1  0.6607887E-006  0.9832313E+02  0.7818608E-02  0.1365549E+00
          2   -1    0    0  502    0  0.00000000000E+00  0.00000000000E+00  0.14070217777E+04  0.14070217777E+04  0.00000000000E+00 0. -1.
          1   -1    0    0  501    0 -0.00000000000E+00 -0.00000000000E+00 -0.33671472922E+03  0.33671472922E+03  0.00000000000E+00 0. -1.
         25    2    1    2    0    0 -0.48268061638E+02 -0.71215461115E+02  0.29467519171E+03  0.33145204756E+03  0.12500217416E+03 0.  0.
          2    1    1    2  501    0  0.88032475942E+02  0.45030537507E+02 -0.31011317919E+03  0.32549600618E+03  0.00000000000E+00 0. -1.
          1    1    1    2  502    0 -0.39764414304E+02  0.26184923608E+02  0.10857450359E+04  0.10867884532E+04  0.00000000000E+00 0. -1.
         22    1    3    3    0    0 -0.37072024038E+02 -0.33295931467E+02  0.28685185075E+03  0.29114762286E+03  0.00000000000E+00 0. -1.
         22    1    3    3    0    0 -0.11196037600E+02 -0.37919529648E+02  0.78233409632E+01  0.40304424701E+02  0.00000000000E+00 0. -1.
</event>
<event>
 7    1  0.6607887E-006  0.1076525E+03  0.7818608E-02  0.1339513E+00
          2   -1    0    0  502    0  0.00000000000E+00  0.00000000000E+00  0.42633637373E+03  0.42633637373E+03  0.00000000000E+00 0. -1.
          1   -1    0    0  501    0 -0.00000000000E+00 -0.00000000000E+00 -0.57136783307E+03  0.57136783307E+03  0.00000000000E+00 0. -1.
         25    2    1    2    0    0  0.82590586919E+01 -0.66328093851E+02 -0.12635580103E+03  0.18989036190E+03  0.12499973201E+03 0.  0.
          2    1    1    2  501    0  0.45563911872E+02 -0.29456247594E+02 -0.40374623587E+03  0.40737545773E+03  0.00000000000E+00 0. -1.
          1    1    1    2  502    0 -0.53822970564E+02  0.95784341445E+02  0.38507057756E+03  0.40043838718E+03  0.00000000000E+00 0. -1.
         22    1    3    3    0    0 -0.30224952383E+02 -0.87368936699E+02 -0.59534167949E+02  0.10995997454E+03  0.00000000000E+00 0.  1.
         22    1    3    3    0    0  0.38484011075E+02  0.21040842848E+02 -0.66821633081E+02  0.79930387361E+02  0.00000000000E+00 0.  1.
</event>
<event>
 7    1  0.6607887E-006  0.1629609E+03  0.7818608E-02  0.1278017E+00
          2   -1    0    0  502    0  0.00000000000E+00  0.00000000000E+00  0.25470756591E+04  0.25470756591E+04  0.00000000000E+00 0. -1.
          1   -1    0    0  501    0 -0.00000000000E+00 -0.00000000000E+00 -0.20011420400E+03  0.20011420400E+03  0.00000000000E+00 0. -1.
         25    2    1    2    0    0 -0.12544644827E+03  0.17668019121E+03  0.32681624875E+03  0.41156733906E+03  0.12500445107E+03 0.  0.
          2    1    1    2  501    0  0.76453536019E+02 -0.13753395854E+03 -0.11792091160E+03  0.19663690985E+03  0.00000000000E+00 0. -1.
          1    1    1    2  502    0  0.48992912249E+02 -0.39146232664E+02  0.21380661179E+04  0.21389856142E+04  0.00000000000E+00 0. -1.
         22    1    3    3    0    0 -0.39324758516E+02  0.30056084147E+02  0.78626366441E+01  0.50116123968E+02  0.00000000000E+00 0. -1.
         22    1    3    3    0    0 -0.86121689752E+02  0.14662410706E+03  0.31895361211E+03  0.36145121510E+03  0.00000000000E+00 0. -1.
</event>
<event>
 7    1  0.6607887E-006  0.1015473E+03  0.7818608E-02  0.1334542E+00
          2   -1    0    0  502    0  0.00000000000E+00  0.00000000000E+00  0.23481092391E+03  0.23481092391E+03  0.00000000000E+00 0. -1.
          1   -1    0    0  501    0 -0.00000000000E+00 -0.00000000000E+00 -0.15257845999E+04  0.15257845999E+04  0.00000000000E+00 0. -1.
         25    2    1    2    0    0 -0.20957972635E+02 -0.13046765934E+03  0.56560858907E+02  0.19048726480E+03  0.12500088215E+03 0.  0.
          2    1    1    2  501    0  0.57902379979E+02  0.83112823225E+02 -0.14488184636E+04  0.14523551106E+04  0.00000000000E+00 0. -1.
          1    1    1    2  502    0 -0.36944407344E+02  0.47354836116E+02  0.10128392870E+03  0.11775314837E+03  0.00000000000E+00 0. -1.
         22    1    3    3    0    0  0.21334502062E+02 -0.67163302465E+01 -0.27176650104E+02  0.35197164390E+02  0.00000000000E+00 0.  1.
         22    1    3    3    0    0 -0.42292474697E+02 -0.12375132910E+03  0.83737509010E+02  0.15529010041E+03  0.00000000000E+00 0.  1.
</event>
<event>
 7    1  0.6607887E-006  0.1007875E+03  0.7818608E-02  0.1408438E+00
          2   -1    0    0  502    0  0.00000000000E+00  0.00000000000E+00  0.67327200579E+03  0.67327200579E+03  0.00000000000E+00 0. -1.
          1   -1    0    0  501    0 -0.00000000000E+00 -0.00000000000E+00 -0.22313178723E+03  0.22313178723E+03  0.00000000000E+00 0. -1.
         25    2    1    2    0    0  0.14414513270E+02  0.72706567336E+02  0.33043657807E+03  0.36098085548E+03  0.12499929106E+03 0.  0.
          2    1    1    2  501    0 -0.39618058446E+02 -0.93782302132E+02 -0.19448552293E+03  0.21952068098E+03  0.00000000000E+00 0. -1.
          1    1    1    2  502    0  0.25203545176E+02  0.21075734797E+02  0.31418916342E+03  0.31590225656E+03  0.00000000000E+00 0. -1.
         22    1    3    3    0    0 -0.53576200951E+02  0.27365071982E+02  0.17989291151E+03  0.18968583523E+03  0.00000000000E+00 0. -1.
         22    1    3    3    0    0  0.67990714221E+02  0.45341495354E+02  0.15054366656E+03  0.17129502025E+03  0.00000000000E+00 0. -1.
</event>
<event>
 7    1  0.6607887E-006  0.2175674E+03  0.7818608E-02  0.1183872E+00
          2   -1    0    0  502    0  0.00000000000E+00  0.00000000000E+00  0.72226851610E+03  0.72226851610E+03  0.00000000000E+00 0. -1.
          1   -1    0    0  501    0 -0.00000000000E+00 -0.00000000000E+00 -0.13140632333E+04  0.13140632333E+04  0.00000000000E+00 0. -1.
         25    2    1    2    0    0  0.26181404595E+03 -0.18323321595E+03  0.94951953655E+02  0.35603498262E+03  0.12499611699E+03 0.  0.
          2    1    1    2  501    0 -0.80375779628E+02  0.94619164571E+02 -0.11595518544E+04  0.11661790409E+04  0.00000000000E+00 0. -1.
          1    1    1    2  502    0 -0.18143826632E+03  0.88614051377E+02  0.47280518353E+03  0.51411772597E+03  0.00000000000E+00 0. -1.
         22    1    3    3    0    0  0.50401224251E+01  0.96969651205E+01  0.25062292774E+02  0.27341406067E+02  0.00000000000E+00 0.  1.
         22    1    3    3    0    0  0.25677392352E+03 -0.19293018107E+03  0.69889660881E+02  0.32869357655E+03  0.00000000000E+00 0.  1.
</event>
<event>
 7    1  0.6607887E-006  0.1552434E+03  0.7818608E-02  0.1281947E+00
          2   -1    0    0  502    0  0.00000000000E+00  0.00000000000E+00  0.11555720069E+04  0.11555720069E+04  0.00000000000E+00 0. -1.
          1   -1    0    0  501    0 -0.00000000000E+00 -0.00000000000E+00 -0.13808457856E+04  0.13808457856E+04  0.00000000000E+00 0. -1.
         25    2    1    2    0    0 -0.20338121460E+03 -0.12555324207E+02  0.20169319280E+03  0.31277353317E+03  0.12500233764E+03 0.  0.
          2    1    1    2  501    0  0.54556072041E+02  0.32323335167E+02 -0.13182655380E+04  0.13197898286E+04  0.00000000000E+00 0. -1.
          1    1    1    2  502    0  0.14882514255E+03 -0.19768010960E+02  0.89129856651E+03  0.90385443075E+03  0.00000000000E+00 0. -1.
         22    1    3    3    0    0 -0.97922283848E+02  0.49293601762E+02  0.13363430995E+03  0.17284895616E+03  0.00000000000E+00 0.  1.
         22    1    3    3    0    0 -0.10545893075E+03 -0.61848925969E+02  0.68058882849E+02  0.13992457701E+03  0.00000000000E+00 0.  1.
</event>
<event>
 7    1  0.6607887E-006  0.8093616E+02  0.7818608E-02  0.1427109E+00
          2   -1    0    0  502    0  0.00000000000E+00  0.00000000000E+00  0.40716319665E+03  0.40716319665E+03  0.00000000000E+00 0. -1.
          1   -1    0    0  501    0 -0.00000000000E+00 -0.00000000000E+00 -0.13370295959E+04  0.13370295959E+04  0.00000000000E+00 0. -1.
         25    2    1    2    0    0  0.80281599206E+02 -0.79451693653E+02  0.66751326610E+02  0.18121377048E+03  0.12499993684E+03 0.  0.
          2    1    1    2  501    0 -0.21786562274E+02  0.27931414198E+02 -0.12741834797E+04  0.12746757855E+04  0.00000000000E+00 0. -1.
          1    1    1    2  502    0 -0.58495036932E+02  0.51520279455E+02  0.27756575382E+03  0.28830323660E+03  0.00000000000E+00 0. -1.
         22    1    3    3    0    0  0.56219523691E+02 -0.15290804317E+02 -0.27709558570E+02  0.64515604134E+02  0.00000000000E+00 0.  1.
         22    1    3    3    0    0  0.24062075515E+02 -0.64160889337E+02  0.94460885180E+02  0.11669816634E+03  0.00000000000E+00 0.  1.
</event>
<event>
 7    1  0.6607887E-006  0.5810049E+02  0.7818608E-02  0.1429745E+00
          2   -1    0    0  502    0  0.00000000000E+00  0.00000000000E+00  0.86035079587E+03  0.86035079587E+03  0.00000000000E+00 0. -1.
          1   -1    0    0  501    0 -0.00000000000E+00 -0.00000000000E+00 -0.49829147184E+03  0.49829147184E+03  0.00000000000E+00 0. -1.
         25    2    1    2    0    0  0.10570049189E+01  0.10304778009E+03 -0.52439737703E+02  0.17027931946E+03  0.12500063322E+03 0.  0.
          2    1    1    2  501    0  0.93012549337E+01 -0.55802283925E+02 -0.38412855696E+03  0.38827201355E+03  0.00000000000E+00 0. -1.
          1    1    1    2  502    0 -0.10358259853E+02 -0.47245496161E+02  0.79862761869E+03  0.80009093470E+03  0.00000000000E+00 0. -1.
         22    1    3    3    0    0  0.10732167962E+02  0.32677405533E+02 -0.85330535335E+02  0.92001589780E+02  0.00000000000E+00 0. -1.
         22    1    3    3    0    0 -0.96751630431E+01  0.70370374553E+02  0.32890797632E+02  0.78277729677E+02  0.00000000000E+00 0. -1.
</event>
<event>
 7    1  0.6607887E-006  0.5240826E+02  0.7818608E-02  0.1524635E+00
          2   -1    0    0  502    0  0.00000000000E+00  0.00000000000E+00  0.88712355983E+02  0.88712355983E+02  0.00000000000E+00 0. -1.
          1   -1    0    0  501    0 -0.00000000000E+00 -0.00000000000E+00 -0.18079013612E+04  0.18079013612E+04  0.00000000000E+00 0. -1.
         25    2    1    2    0    0 -0.21204109581E+02 -0.53300060467E+02 -0.32737465743E+03  0.35509116744E+03  0.12500024061E+03 0.  0.
          2    1    1    2  501    0 -0.61097786790E+01  0.52109209162E+02 -0.14636862483E+04  0.14646262774E+04  0.00000000000E+00 0. -1.
          1    1    1    2  502    0  0.27313888260E+02  0.11908513055E+01  0.71871900495E+02  0.76896272338E+02  0.00000000000E+00 0. -1.
         22    1    3    3    0    0  0.76761750459E+01 -0.17112436321E+02 -0.30144036001E+03  0.30202326033E+03  0.00000000000E+00 0.  1.
         22    1    3    3    0    0 -0.28880284627E+02 -0.36187624146E+02 -0.25934297425E+02  0.53067907104E+02  0.00000000000E+00 0.  1.
</event>
<event>
 7    1  0.6607887E-006  0.1838352E+03  0.7818608E-02  0.1322543E+00
          2   -1    0    0  502    0  0.00000000000E+00  0.00000000000E+00  0.38486383580E+04  0.38486383580E+04  0.00000000000E+00 0. -1.
          1   -1    0    0  501    0 -0.00000000000E+00 -0.00000000000E+00 -0.16859020102E+03  0.16859020102E+03  0.00000000000E+00 0. -1.
         25    2    1    2    0    0  0.19194228662E+03 -0.26207470123E+02  0.27408936360E+03  0.35815767075E+03  0.12499305979E+03 0.  0.
          2    1    1    2  501    0 -0.18022406717E+02 -0.32175135845E+02 -0.12143405605E+03  0.12691050579E+03  0.00000000000E+00 0. -1.
          1    1    1    2  502    0 -0.17391987990E+03  0.58382605968E+02  0.35273928494E+04  0.35321603824E+04  0.00000000000E+00 0. -1.
         22    1    3    3    0    0  0.33153343779E+01 -0.14813652934E+02 -0.91066713368E+01  0.17702181169E+02  0.00000000000E+00 0.  1.
         22    1    3    3    0    0  0.18862695224E+03 -0.11393817189E+02  0.28319603494E+03  0.34045548958E+03  0.00000000000E+00 0.  1.
</event>
<event>
 7    1  0.6607887E-006  0.8065572E+02  0.7818608E-02  0.1373927E+00
          2   -1    0    0  502    0  0.00000000000E+00  0.00000000000E+00  0.62604552867E+02  0.62604552867E+02  0.00000000000E+00 0. -1.
          1   -1    0    0  501    0 -0.00000000000E+00 -0.00000000000E+00 -0.10782454809E+04  0.10782454809E+04  0.00000000000E+00 0. -1.
         25    2    1    2    0    0  0.42695454906E+02 -0.19002555074E+02 -0.51975978546E+03  0.53661710313E+03  0.12499472717E+03 0.  0.
          2    1    1    2  501    0 -0.26366357851E+01 -0.54086237789E+02 -0.51572204587E+03  0.51855713432E+03  0.00000000000E+00 0. -1.
          1    1    1    2  502    0 -0.40058819121E+02  0.73088792864E+02  0.19840903287E+02  0.85675796319E+02  0.00000000000E+00 0. -1.
         22    1    3    3    0    0  0.18833115607E+02 -0.46670888157E+01 -0.36327754123E+01  0.19739934616E+02  0.00000000000E+00 0. -1.
         22    1    3    3    0    0  0.23862339299E+02 -0.14335466259E+02 -0.51612701004E+03  0.51687716851E+03  0.00000000000E+00 0. -1.
</event>
<event>
 7    1  0.6607887E-006  0.1113202E+03  0.7818608E-02  0.1425991E+00
          2   -1    0    0  502    0  0.00000000000E+00  0.00000000000E+00  0.84959105122E+03  0.84959105122E+03  0.00000000000E+00 0. -1.
          1   -1    0    0  501    0 -0.00000000000E+00 -0.00000000000E+00 -0.90276512637E+03  0.90276512637E+03  0.00000000000E+00 0. -1.
         25    2    1    2    0    0 -0.68102100119E+02  0.10245106432E+03 -0.27091391786E+03  0.32272427382E+03  0.12498995721E+03 0.  0.
          2    1    1    2  501    0 -0.10478357809E+02 -0.23767827716E+02 -0.60191141649E+03  0.60247162498E+03  0.00000000000E+00 0. -1.
          1    1    1    2  502    0  0.78580457928E+02 -0.78683236604E+02  0.81965125919E+03  0.82716027878E+03  0.00000000000E+00 0. -1.
         22    1    3    3    0    0  0.15219767116E+02  0.64636878889E+02 -0.18748880905E+03  0.19890103303E+03  0.00000000000E+00 0.  1.
         22    1    3    3    0    0 -0.83321867236E+02  0.37814185431E+02 -0.83425108808E+02  0.12382324079E+03  0.00000000000E+00 0.  1.
</event>
<event>
 7    1  0.6607887E-006  0.1298948E+03  0.7818608E-02  0.1251046E+00
          2   -1    0    0  502    0  0.00000000000E+00  0.00000000000E+00  0.11835508585E+03  0.11835508585E+03  0.00000000000E+00 0. -1.
          1   -1    0    0  501    0 -0.00000000000E+00 -0.00000000000E+00 -0.10022287917E+04  0.10022287917E+04  0.00000000000E+00 0. -1.
         25    2    1    2    0    0 -0.11849664609E+03  0.48646820331E+02 -0.19988806722E+03  0.26830489736E+03  0.12499724103E+03 0.  0.
          2    1    1    2  501    0  0.65198536940E+02  0.78906626130E+02 -0.70505093781E+03  0.71244222908E+03  0.00000000000E+00 0. -1.
          1    1    1    2  502    0  0.53298109154E+02 -0.12755344646E+03  0.21065299143E+02  0.13983675115E+03  0.00000000000E+00 0. -1.
         22    1    3    3    0    0 -0.14511231174E+03  0.36070294459E+02 -0.16594421288E+03  0.22337441875E+03  0.00000000000E+00 0. -1.
         22    1    3    3    0    0  0.26615665649E+02  0.12576525873E+02 -0.33943854336E+02  0.44930478610E+02  0.00000000000E+00 0. -1.
</event>
<event>
 7    1  0.6607887E-006  0.5506001E+02  0.7818608E-02  0.1439962E+00
          2   -1    0    0  502    0  0.00000000000E+00  0.00000000000E+00  0.16025182936E+04  0.16025182936E+04  0.00000000000E+00 0. -1.
          1   -1    0    0  501    0 -0.00000000000E+00 -0.00000000000E+00 -0.68097824886E+03  0.68097824886E+03  0.00000000000E+00 0. -1.
         25    2    1    2    0    0 -0.44070469811E+01 -0.69850006569E+02 -0.15394899406E+02  0.14408822542E+03  0.12500387313E+03 0.  0.
          2    1    1    2  501    0  0.38869444633E+02  0.26883371430E+02 -0.59981381065E+03  0.60167279882E+03  0.00000000000E+00 0. -1.
          1    1    1    2  502    0 -0.34462397652E+02  0.42966635139E+02  0.15367487548E+04  0.15377355182E+04  0.00000000000E+00 0. -1.
         22    1    3    3    0    0  0.11967164497E+02 -0.92321758674E+02  0.23747684413E+02  0.96075348897E+02  0.00000000000E+00 0.  1.
         22    1    3    3    0    0 -0.16374211478E+02  0.22471752105E+02 -0.39142583818E+02  0.48012876525E+02  0.00000000000E+00 0.  1.
</event>
<event>
 7    1  0.6607887E-006  0.7018848E+02  0.7818608E-02  0.1499204E+00
          2   -1    0    0  502    0  0.00000000000E+00  0.00000000000E+00  0.93908680062E+03  0.93908680062E+03  0.00000000000E+00 0. -1.
          1   -1    0    0  501    0 -0.00000000000E+00 -0.00000000000E+00 -0.50861807833E+03  0.50861807833E+03  0.00000000000E+00 0. -1.
         25    2    1    2    0    0 -0.56386884883E+02  0.63300403139E+02  0.84363465047E+02  0.17300194440E+03  0.12500422675E+03 0.  0.
          2    1    1    2  501    0 -0.14095870133E+01 -0.24202581948E+02 -0.46247869897E+03  0.46311369977E+03  0.00000000000E+00 0. -1.
          1    1    1    2  502    0  0.57796471896E+02 -0.39097821191E+02  0.80858395621E+03  0.81158923479E+03  0.00000000000E+00 0. -1.
         22    1    3    3    0    0 -0.75060268151E+02  0.73526085413E+02  0.10118261416E+03  0.14586997806E+03  0.00000000000E+00 0.  1.
         22    1    3    3    0    0  0.18673383268E+02 -0.10225682274E+02 -0.16819149110E+02  0.27131966339E+02  0.00000000000E+00 0.  1.
</event>
<event>
 7    1  0.6607887E-006  0.7398604E+02  0.7818608E-02  0.1454796E+00
          2   -1    0    0  502    0  0.00000000000E+00  0.00000000000E+00  0.60265320826E+02  0.60265320826E+02  0.00000000000E+00 0. -1.
          1   -1    0    0  501    0 -0.00000000000E+00 -0.00000000000E+00 -0.56286816080E+03  0.56286816080E+03  0.00000000000E+00 0. -1.
         25    2    1    2    0    0 -0.73412290108E+02 -0.17365723723E+01 -0.20474713736E+03  0.25087548828E+03  0.12499896135E+03 0.  0.
          2    1    1    2  501    0  0.69109880597E+02 -0.29485148206E+02 -0.32319752386E+03  0.33181649897E+03  0.00000000000E+00 0. -1.
          1    1    1    2  502    0  0.43024095112E+01  0.31221720579E+02  0.25341821245E+02  0.40441494378E+02  0.00000000000E+00 0. -1.
         22    1    3    3    0    0 -0.74138152411E+02 -0.55279469055E+01 -0.36924912727E+02  0.83008873139E+02  0.00000000000E+00 0. -1.
         22    1    3    3    0    0  0.72586230206E+00  0.37913745332E+01 -0.16782222463E+03  0.16786661514E+03  0.00000000000E+00 0. -1.
</event>
<event>
 7    1  0.6607887E-006  0.3784432E+02  0.7818608E-02  0.1575312E+00
          2   -1    0    0  502    0  0.00000000000E+00  0.00000000000E+00  0.19741065439E+04  0.19741065439E+04  0.00000000000E+00 0. -1.
          1   -1    0    0  501    0 -0.00000000000E+00 -0.00000000000E+00 -0.60812631802E+02  0.60812631802E+02  0.00000000000E+00 0. -1.
         25    2    1    2    0    0 -0.27659697184E+02 -0.51437880077E+01  0.19501410832E+04  0.19543456702E+04  0.12500094595E+03 0.  0.
          2    1    1    2  501    0  0.20904909801E+02  0.31635554008E+02 -0.37356984455E+02  0.53229388675E+02  0.00000000000E+00 0. -1.
          1    1    1    2  502    0  0.67547873830E+01 -0.26491766001E+02  0.50981331714E+00  0.27344116882E+02  0.00000000000E+00 0. -1.
         22    1    3    3    0    0  0.49868961796E+02  0.14642725103E+01  0.84116544607E+03  0.84264367624E+03  0.00000000000E+00 0.  1.
         22    1    3    3    0    0 -0.77528658979E+02 -0.66080605180E+01  0.11089756372E+04  0.11117019939E+04  0.00000000000E+00 0.  1.
</event>
<event>
 7    1  0.6607887E-006  0.9573840E+02  0.7818608E-02  0.1306963E+00
          2   -1    0    0  502    0  0.00000000000E+00  0.00000000000E+00  0.77781588045E+03  0.77781588045E+03  0.00000000000E+00 0. -1.
          1   -1    0    0  501    0 -0.00000000000E+00 -0.00000000000E+00 -0.92811842826E+02  0.92811842826E+02  0.00000000000E+00 0. -1.
         25    2    1    2    0    0  0.25472281370E+02 -0.12419507753E+01  0.86454663623E+02  0.15411187060E+03  0.12500272092E+03 0.  0.
          2    1    1    2  501    0 -0.78644335150E+02 -0.78373208057E+02  0.68085573024E+00  0.11103042266E+03  0.00000000000E+00 0. -1.
          1    1    1    2  502    0  0.53172053780E+02  0.79615158833E+02  0.59786851827E+03  0.60548543002E+03  0.00000000000E+00 0. -1.
         22    1    3    3    0    0  0.17048686743E+02 -0.18163693753E+02 -0.28362417837E+02  0.37749228283E+02  0.00000000000E+00 0.  1.
         22    1    3    3    0    0  0.84235946272E+01  0.16921742977E+02  0.11481708146E+03  0.11636264232E+03  0.00000000000E+00 0.  1.
</event>
<event>
 7    1  0.6607887E-006  0.2778297E+03  0.7818608E-02  0.1221191E+00
          2   -1    0    0  502    0  0.00000000000E+00  0.00000000000E+00  0.15944490055E+04  0.15944490055E+04  0.00000000000E+00 0. -1.
          1   -1    0    0  501    0 -0.00000000000E+00 -0.00000000000E+00 -0.14467511765E+04  0.14467511765E+04  0.00000000000E+00 0. -1.
         25    2    1    2    0    0 -0.20621103495E+03  0.13953620832E+03  0.17283417599E+03  0.32785792921E+03  0.12500329991E+03 0.  0.
          2    1    1    2  501    0  0.19253811164E+03 -0.20301333573E+03 -0.13541447830E+04  0.13827485066E+04  0.00000000000E+00 0. -1.
          1    1    1    2  502    0  0.13672923312E+02  0.63477127418E+02  0.13290084360E+04  0.13305937462E+04  0.00000000000E+00 0. -1.
         22    1    3    3    0    0 -0.10917091949E+03  0.12110714151E+02  0.31553373057E+02  0.11428287016E+03  0.00000000000E+00 0.  1.
         22    1    3    3    0    0 -0.97040115462E+02  0.12742549417E+03  0.14128080294E+03  0.21357505906E+03  0.00000000000E+00 0.  1.
</event>
<event>
 7    1  0.6607887E-006  0.4261280E+02  0.7818608E-02  0.1502231E+00
          2   -1    0    0  502    0  0.00000000000E+00  0.00000000000E+00  0.10068065122E+03  0.10068065122E+03  0.00000000000E+00 0. -1.
          1   -1    0    0  501    0 -0.00000000000E+00 -0.00000000000E+00 -0.29983299985E+03  0.29983299985E+03  0.00000000000E+00 0. -1.
         25    2    1    2    0    0 -0.56074055400E+02 -0.46702179531E+02 -0.30623449901E+02  0.14795186944E+03  0.12500626674E+03 0.  0.
          2    1    1    2  501    0  0.18197363703E+02  0.34619745182E+02 -0.19878825893E+03  0.20259921691E+03  0.00000000000E+00 0. -1.
          1    1    1    2  502    0  0.37876691697E+02  0.12082434349E+02  0.30259360206E+02  0.49962564724E+02  0.00000000000E+00 0. -1.
         22    1    3    3    0    0  0.12181869276E+02 -0.22787702360E+02  0.39508680071E+02  0.47208189108E+02  0.00000000000E+00 0. -1.
         22    1    3    3    0    0 -0.68255924677E+02 -0.23914477171E+02 -0.70132129972E+02  0.10074368033E+03  0.00000000000E+00 0. -1.
</event>
<event>
 7    1  0.6607887E-006  0.6839502E+02  0.7818608E-02  0.1407667E+00
          2   -1    0    0  502    0  0.00000000000E+00  0.00000000000E+00  0.17304543687E+03  0.17304543687E+03  0.00000000000E+00 0. -1.
          1   -1    0    0  501    0 -0.00000000000E+00 -0.00000000000E+00 -0.79391768953E+03  0.79391768953E+03  0.00000000000E+00 0. -1.
         25    2    1    2    0    0 -0.93918111784E+02 -0.29265484025E+02 -0.32041130001E+02  0.16226171727E+03  0.12500060242E+03 0.  0.
          2    1    1    2  501    0  0.28544673102E+02  0.39466307848E+02 -0.68568081387E+03  0.68740858761E+03  0.00000000000E+00 0. -1.
          1    1    1    2  502    0  0.65373438682E+02 -0.10200823823E+02  0.96849691213E+02  0.11729282152E+03  0.00000000000E+00 0. -1.
         22    1    3    3    0    0  0.98418271956E-01  0.41422665339E+02 -0.72820685614E+01  0.42058000576E+02  0.00000000000E+00 0. -1.
         22    1    3    3    0    0 -0.94016530055E+02 -0.70688149364E+02 -0.24759061440E+02  0.12020371670E+03  0.00000000000E+00 0. -1.
</event>
<event>
 7    1  0.6607887E-006  0.1131678E+03  0.7818608E-02  0.1291579E+00
          2   -1    0    0  502    0  0.00000000000E+00  0.00000000000E+00  0.10076561317E+03  0.10076561317E+03  0.00000000000E+00 0. -1.
          1   -1    0    0  501    0 -0.00000000000E+00 -0.00000000000E+00 -0.10278533467E+04  0.10278533467E+04  0.00000000000E+00 0. -1.
         25    2    1    2    0    0  0.62089925729E+02 -0.10300787997E+03 -0.33104857268E+03  0.37374285298E+03  0.12499912189E+03 0.  0.
          2    1    1    2  501    0  0.46544432091E+02  0.64387975751E+02 -0.62975945182E+03  0.63475126053E+03  0.00000000000E+00 0. -1.
          1    1    1    2  502    0 -0.10863435782E+03  0.38619904220E+02  0.33720290940E+02  0.12012484640E+03  0.00000000000E+00 0. -1.
         22    1    3    3    0    0  0.84830406504E+01  0.21242161410E+02 -0.12605051659E+03  0.12810903221E+03  0.00000000000E+00 0. -1.
         22    1    3    3    0    0  0.53606885079E+02 -0.12425004138E+03 -0.20499805608E+03  0.24563382078E+03  0.00000000000E+00 0. -1.
</event>
<event>
 7    1  0.6607887E-006  0.1128841E+03  0.7818608E-02  0.1259780E+00
          2   -1    0    0  502    0  0.00000000000E+00  0.00000000000E+00  0.12703163557E+04  0.12703163557E+04  0.00000000000E+00 0. -1.
          1   -1    0    0  501    0 -0.00000000000E+00 -0.00000000000E+00 -0.21957933237E+03  0.21957933237E+03  0.00000000000E+00 0. -1.
         25    2    1    2    0    0  0.18250203439E+01 -0.32917625775E+02  0.20348505779E+03  0.24107599957E+03  0.12499827214E+03 0.  0.
          2    1    1    2  501    0 -0.76199043209E+02 -0.76570887768E+02 -0.18170158356E+03  0.21138793841E+03  0.00000000000E+00 0. -1.
          1    1    1    2  502    0  0.74374022865E+02  0.10948851354E+03  0.10289535491E+04  0.10374317501E+04  0.00000000000E+00 0. -1.
         22    1    3    3    0    0 -0.41623437036E+02 -0.21300571354E+02  0.17814170651E+02  0.50035682534E+02  0.00000000000E+00 0. -1.
         22    1    3    3    0    0  0.43448457379E+02 -0.11617054421E+02  0.18567088714E+03  0.19104031703E+03  0.00000000000E+00 0. -1.
</event>
<event>
 7    1  0.6607887E-006  0.6564540E+02  0.7818608E-02  0.1415157E+00
          2   -1    0    0  502    0  0.00000000000E+00  0.00000000000E+00  0.26593261709E+02  0.26593261709E+02  0.00000000000E+00 0. -1.
          1   -1    0    0  501    0 -0.00000000000E+00 -0.00000000000E+00 -0.13122268592E+04  0.13122268592E+04  0.00000000000E+00 0. -1.
         25    2    1    2    0    0  0.60409337335E+02 -0.15386184185E+02 -0.54926909102E+03  0.56675615959E+03  0.12501994796E+03 0.  0.
          2    1    1    2  501    0 -0.60815828231E+02 -0.32484142126E+02 -0.71718693206E+03  0.72049349752E+03  0.00000000000E+00 0. -1.
          1    1    1    2  502    0  0.40649089601E+00  0.47870326311E+02 -0.19177574419E+02  0.51570463801E+02  0.00000000000E+00 0. -1.
         22    1    3    3    0    0 -0.35224782928E+02  0.12095836934E+01 -0.77975040281E+02  0.85570762132E+02  0.00000000000E+00 0. -1.
         22    1    3    3    0    0  0.95634120264E+02 -0.16595767879E+02 -0.47129405073E+03  0.48118539746E+03  0.00000000000E+00 0. -1.
</event>
<event>
 7    1  0.6607887E-006  0.3677810E+02  0.7818608E-02  0.1606574E+00
          2   -1    0    0  502    0  0.00000000000E+00  0.00000000000E+00  0.11321974703E+03  0.11321974703E+03  0.00000000000E+00 0. -1.
          1   -1    0    0  501    0 -0.00000000000E+00 -0.00000000000E+00 -0.10349084402E+03  0.10349084402E+03  0.00000000000E+00 0. -1.
         25    2    1    2    0    0 -0.19114594214E+02 -0.35831224718E+02 -0.31547379304E+02  0.13516895288E+03  0.12500465714E+03 0.  0.
          2    1    1    2  501    0 -0.41109105529E+01  0.37035789641E+02  0.38280113024E+01  0.37459350908E+02  0.00000000000E+00 0. -1.
          1    1    1    2  502    0  0.23225504767E+02 -0.12045649231E+01  0.37448271014E+02  0.44082287262E+02  0.00000000000E+00 0. -1.
         22    1    3    3    0    0 -0.34459877373E+01  0.52511204347E+01  0.45783362166E+02  0.46212177491E+02  0.00000000000E+00 0.  1.
         22    1    3    3    0    0 -0.15668606477E+02 -0.41082345152E+02 -0.77330741469E+02  0.88956775393E+02  0.00000000000E+00 0.  1.
</event>
<event>
 7    1  0.6607887E-006  0.1418735E+03  0.7818608E-02  0.1328515E+00
          2   -1    0    0  502    0  0.00000000000E+00  0.00000000000E+00  0.91930529590E+03  0.91930529590E+03  0.00000000000E+00 0. -1.
          1   -1    0    0  501    0 -0.00000000000E+00 -0.00000000000E+00 -0.11657187559E+03  0.11657187559E+03  0.00000000000E+00 0. -1.
         25    2    1    2    0    0  0.11054945498E+03 -0.14558131025E+03  0.47577600582E+03  0.52478908152E+03  0.12500268992E+03 0.  0.
          2    1    1    2  501    0 -0.85593580470E+02  0.10774619115E+03 -0.38452541234E+02  0.14287792220E+03  0.00000000000E+00 0. -1.
          1    1    1    2  502    0 -0.24955874505E+02  0.37835119099E+02  0.36540995572E+03  0.36821016777E+03  0.00000000000E+00 0. -1.
         22    1    3    3    0    0  0.24672941619E+02  0.17539332694E+02  0.12395050815E+03  0.12759353710E+03  0.00000000000E+00 0. -1.
         22    1    3    3    0    0  0.85876513356E+02 -0.16312064294E+03  0.35182549767E+03  0.39719554442E+03  0.00000000000E+00 0. -1.
</event>
<event>
 7    1  0.6607887E-006  0.3061312E+03  0.7818608E-02  0.1315658E+00
          2   -1    0    0  502    0  0.00000000000E+00  0.00000000000E+00  0.66233214360E+03  0.66233214360E+03  0.00000000000E+00 0. -1.
          1   -1    0    0  501    0 -0.00000000000E+00 -0.00000000000E+00 -0.11984285240E+04  0.11984285240E+04  0.00000000000E+00 0. -1.
         25    2    1    2    0    0 -0.19328040333E+03 -0.23781684754E+03  0.26614015967E+03  0.42469965056E+03  0.12500016524E+03 0.  0.
          2    1    1    2  501    0 -0.17569377761E+02  0.15686601618E+02 -0.10449902456E+04  0.10452556462E+04  0.00000000000E+00 0. -1.
          1    1    1    2  502    0  0.21084978109E+03  0.22213024592E+03  0.24275370552E+03  0.39080537085E+03  0.00000000000E+00 0. -1.
         22    1    3    3    0    0 -0.36425032673E+02 -0.27821226711E+02 -0.67402800461E+01  0.46327476038E+02  0.00000000000E+00 0.  1.
         22    1    3    3    0    0 -0.15685537066E+03 -0.20999562083E+03  0.27288043972E+03  0.37837217452E+03  0.00000000000E+00 0.  1.
</event>
<event>
 7    1  0.6607887E-006  0.1000769E+03  0.7818608E-02  0.1340690E+00
          2   -1    0    0  502    0  0.00000000000E+00  0.00000000000E+00  0.43225615964E+03  0.43225615964E+03  0.00000000000E+00 0. -1.
          1   -1    0    0  501    0 -0.00000000000E+00 -0.00000000000E+00 -0.36934373074E+03  0.36934373074E+03  0.00000000000E+00 0. -1.
         25    2    1    2    0    0 -0.11367161794E+01  0.14608583124E+03  0.18725522749E+03  0.26838518584E+03  0.12499490208E+03 0.  0.
          2    1    1    2  501    0 -0.65546566843E+01 -0.57398341281E+02 -0.31634636654E+03  0.32157822801E+03  0.00000000000E+00 0. -1.
          1    1    1    2  502    0  0.76913728637E+01 -0.88687489956E+02  0.19200356795E+03  0.21163647653E+03  0.00000000000E+00 0. -1.
         22    1    3    3    0    0  0.57422421860E+02  0.74398738831E+02  0.61809979287E+02  0.11248546756E+03  0.00000000000E+00 0.  1.
         22    1    3    3    0    0 -0.58559138039E+02  0.71687092406E+02  0.12544524820E+03  0.15589971828E+03  0.00000000000E+00 0.  1.
</event>
<event>
 7    1  0.6607887E-006  0.5276165E+02  0.7818608E-02  0.1508012E+00
          2   -1    0    0  502    0  0.00000000000E+00  0.00000000000E+00  0.35501728291E+03  0.35501728291E+03  0.00000000000E+00 0. -1.
          1   -1    0    0  501    0 -0.00000000000E+00 -0.00000000000E+00 -0.16199585434E+03  0.16199585434E+03  0.00000000000E+00 0. -1.
         25    2    1    2    0    0  0.28648798783E+02 -0.51470493525E+02  0.50547558698E+02  0.14713278181E+03  0.12499213742E+03 0.  0.
          2    1    1    2  501    0 -0.45799656819E+02  0.26411433207E+02 -0.10658505029E+03  0.11897707895E+03  0.00000000000E+00 0. -1.
          1    1    1    2  502    0  0.17150858036E+02  0.25059060317E+02  0.24905892017E+03  0.25090327648E+03  0.00000000000E+00 0. -1.
         22    1    3    3    0    0  0.23904959192E+02  0.33243902365E+02  0.46826796788E+02  0.62204123785E+02  0.00000000000E+00 0.  1.
         22    1    3    3    0    0  0.47438395901E+01 -0.84714395890E+02  0.37207619101E+01  0.84928658027E+02  0.00000000000E+00 0.  1.
</event>
<event>
 7    1  0.6607887E-006  0.9449137E+02  0.7818608E-02  0.1329224E+00
          2   -1    0    0  502    0  0.00000000000E+00  0.00000000000E+00  0.79376814103E+02  0.79376814103E+02  0.00000000000E+00 0. -1.
          1   -1    0    0  501    0 -0.00000000000E+00 -0.00000000000E+00 -0.68715295797E+03  0.68715295797E+03  0.00000000000E+00 0. -1.
         25    2    1    2    0    0  0.44909063683E+01  0.42012430485E+02 -0.16974023277E+03  0.21499383299E+03  0.12500155618E+03 0.  0.
          2    1    1    2  501    0  0.40723523674E+01 -0.10909631539E+03 -0.46580571858E+03  0.47842821567E+03  0.00000000000E+00 0. -1.
          1    1    1    2  502    0 -0.85632587358E+01  0.67083884906E+02  0.27769807489E+02  0.73107723410E+02  0.00000000000E+00 0. -1.
         22    1    3    3    0    0 -0.22181611796E+02  0.35598179755E+02 -0.18066177723E+03  0.18546679502E+03  0.00000000000E+00 0.  1.
         22    1    3    3    0    0  0.26672518164E+02  0.64142507301E+01  0.10921544460E+02  0.29527037966E+02  0.00000000000E+00 0.  1.
</event>
<event>
 7    1  0.6607887E-006  0.3186776E+02  0.7818608E-02  0.1607248E+00
          2   -1    0    0  502    0  0.00000000000E+00  0.00000000000E+00  0.62085670324E+02  0.62085670324E+02  0.00000000000E+00 0. -1.
          1   -1    0    0  501    0 -0.00000000000E+00 -0.00000000000E+00 -0.22107478361E+04  0.22107478361E+04  0.00000000000E+00 0. -1.
         25    2    1    2    0    0 -0.25173794100E+02 -0.52559847793E+02 -0.20000933401E+03  0.24295042054E+03  0.12499966256E+03 0.  0.
          2    1    1    2  501    0  0.11676291006E+02  0.29484978305E+02 -0.19847287195E+04  0.19849820629E+04  0.00000000000E+00 0. -1.
          1    1    1    2  502    0  0.13497503095E+02  0.23074869488E+02  0.36075887762E+02  0.44901023033E+02  0.00000000000E+00 0. -1.
         22    1    3    3    0    0 -0.64428179296E+02 -0.64286317695E+02 -0.10188658105E+03  0.13661843334E+03  0.00000000000E+00 0.  1.
         22    1    3    3    0    0  0.39254385196E+02  0.11726469902E+02 -0.98122752968E+02  0.10633198721E+03  0.00000000000E+00 0.  1.
</event>
<event>
 7    1  0.6607887E-006  0.8225399E+02  0.7818608E-02  0.1370094E+00
          2   -1    0    0  502    0  0.00000000000E+00  0.00000000000E+00  0.18224662936E+04  0.18224662936E+04  0.00000000000E+00 0. -1.
          1   -1    0    0  501    0 -0.00000000000E+00 -0.00000000000E+00 -0.25688190645E+03  0.25688190645E+03  0.00000000000E+00 0. -1.
         25    2    1    2    0    0  0.62563989166E+02 -0.34089759913E+02  0.12403830982E+03  0.18996799223E+03  0.12500388512E+03 0.  0.
          2    1    1    2  501    0 -0.29896027155E+02  0.78093997607E+02 -0.21564129256E+03  0.23128686075E+03  0.00000000000E+00 0. -1.
          1    1    1    2  502    0 -0.32667962010E+02 -0.44004237694E+02  0.16571873698E+04  0.16580933470E+04  0.00000000000E+00 0. -1.
         22    1    3    3    0    0 -0.33537571974E+01  0.14018940500E+02 -0.19860346526E+02  0.24540002938E+02  0.00000000000E+00 0. -1.
         22    1    3    3    0    0  0.65917746363E+02 -0.48108700413E+02  0.14389865635E+03  0.16542798929E+03  0.00000000000E+00 0. -1.
</event>
<event>
 7    1  0.6607887E-006  0.1469684E+03  0.7818608E-02  0.1297122E+00
          2   -1    0    0  502    0  0.00000000000E+00  0.00000000000E+00  0.23642700049E+04  0.23642700049E+04  0.00000000000E+00 0. -1.
          1   -1    0    0  501    0 -0.00000000000E+00 -0.00000000000E+00 -0.35156190870E+03  0.35156190870E+03  0.00000000000E+00 0. -1.
         25    2    1    2    0    0  0.64732642966E+02 -0.70094501624E+02  0.11896901637E+03  0.19718495451E+03  0.12499890082E+03 0.  0.
          2    1    1    2  501    0 -0.97340523317E+02  0.11818469650E+03 -0.29328790691E+03  0.33084829802E+03  0.00000000000E+00 0. -1.
          1    1    1    2  502    0  0.32607880351E+02 -0.48090194873E+02  0.21870269868E+04  0.21877986611E+04  0.00000000000E+00 0. -1.
         22    1    3    3    0    0  0.88323216741E+02 -0.40203748667E+02  0.12540352249E+03  0.15856662787E+03  0.00000000000E+00 0. -1.
         22    1    3    3    0    0 -0.23590573775E+02 -0.29890752956E+02 -0.64345061161E+01  0.38618326638E+02  0.00000000000E+00 0. -1.
</event>
<event>
 7    1  0.6607887E-006  0.7899088E+02  0.7818608E-02  0.1369261E+00
          2   -1    0    0  502    0  0.00000000000E+00  0.00000000000E+00  0.25749332776E+04  0.25749332776E+04  0.00000000000E+00 0. -1.
          1   -1    0    0  501    0 -0.00000000000E+00 -0.00000000000E+00 -0.52228175427E+02  0.52228175427E+02  0.00000000000E+00 0. -1.
         25    2    1    2    0    0 -0.26768467036E+01 -0.12759667319E+03  0.10359882069E+04  0.10512775359E+04  0.12499926428E+03 0.  0.
          2    1    1    2  501    0  0.23321908007E+02  0.73969219353E+02 -0.98788677908E+01  0.78185349226E+02  0.00000000000E+00 0. -1.
          1    1    1    2  502    0 -0.20645061303E+02  0.53627453840E+02  0.14965957631E+04  0.14976985679E+04  0.00000000000E+00 0. -1.
         22    1    3    3    0    0  0.57302329152E+02 -0.72265901827E+02  0.66893241969E+03  0.67526031988E+03  0.00000000000E+00 0.  1.
         22    1    3    3    0    0 -0.59979175855E+02 -0.55330771365E+02  0.36705578725E+03  0.37601721603E+03  0.00000000000E+00 0.  1.
</event>
<event>
 7    1  0.6607887E-006  0.3119160E+03  0.7818608E-02  0.1133229E+00
          2   -1    0    0  502    0  0.00000000000E+00  0.00000000000E+00  0.49578910748E+03  0.49578910748E+03  0.00000000000E+00 0. -1.
          1   -1    0    0  501    0 -0.00000000000E+00 -0.00000000000E+00 -0.13426458880E+04  0.13426458880E+04  0.00000000000E+00 0. -1.
         25    2    1    2    0    0 -0.37683302279E+03  0.23395042379E+03 -0.22592462467E+03  0.51322842277E+03  0.12500220018E+03 0.  0.
          2    1    1    2  501    0  0.23034741285E+03 -0.17911467378E+03 -0.93222661116E+03  0.97682570171E+03  0.00000000000E+00 0. -1.
          1    1    1    2  502    0  0.14648560994E+03 -0.54835750004E+02  0.31129445529E+03  0.34838087102E+03  0.00000000000E+00 0. -1.
         22    1    3    3    0    0 -0.16710854355E+03  0.14481279548E+03 -0.53604256045E+02  0.22752895931E+03  0.00000000000E+00 0.  1.
         22    1    3    3    0    0 -0.20972447925E+03  0.89137628310E+02 -0.17232036863E+03  0.28569946346E+03  0.00000000000E+00 0.  1.
</event>
<event>
 7    1  0.6607887E-006  0.5230838E+02  0.7818608E-02  0.1556499E+00
          2   -1    0    0  502    0  0.00000000000E+00  0.00000000000E+00  0.82712976413E+02  0.82712976413E+02  0.00000000000E+00 0. -1.
          1   -1    0    0  501    0 -0.00000000000E+00 -0.00000000000E+00 -0.42606395233E+03  0.42606395233E+03  0.00000000000E+00 0. -1.
         25    2    1    2    0    0  0.61288823208E+02  0.32646139774E+01 -0.30431980202E+02  0.14254349400E+03  0.12500225881E+03 0.  0.
          2    1    1    2  501    0 -0.12966564977E+02 -0.18098770269E+02 -0.31486199475E+03  0.31564817919E+03  0.00000000000E+00 0. -1.
          1    1    1    2  502    0 -0.48322258231E+02  0.14834156292E+02  0.19429990356E+01  0.50585255546E+02  0.00000000000E+00 0. -1.
         22    1    3    3    0    0 -0.26944993983E+02  0.21318787136E+02 -0.39116637540E+02  0.52063756281E+02  0.00000000000E+00 0.  1.
         22    1    3    3    0    0  0.88233817191E+02 -0.18054173158E+02  0.86846573375E+01  0.90479737719E+02  0.00000000000E+00 0.  1.
</event>
<event>
 7    1  0.6607887E-006  0.1222291E+03  0.7818608E-02  0.1302112E+00
          2   -1    0    0  502    0  0.00000000000E+00  0.00000000000E+00  0.91405351663E+03  0.91405351663E+03  0.00000000000E+00 0. -1.
          1   -1    0    0  501    0 -0.00000000000E+00 -0.00000000000E+00 -0.40174661078E+03  0.40174661078E+03  0.00000000000E+00 0. -1.
         25    2    1    2    0    0 -0.14566423804E+03 -0.58785182454E+02  0.66555147035E+02  0.21149499554E+03  0.12500711028E+03 0.  0.
          2    1    1    2  501    0  0.84595171789E+02  0.85659687199E+02 -0.31676667413E+03  0.33887320776E+03  0.00000000000E+00 0. -1.
          1    1    1    2  502    0  0.61069066251E+02 -0.26874504745E+02  0.76251843294E+03  0.76543192410E+03  0.00000000000E+00 0. -1.
         22    1    3    3    0    0 -0.89001097616E+02  0.17526354260E+02 -0.74757406876E+01  0.91017883788E+02  0.00000000000E+00 0.  1.
         22    1    3    3    0    0 -0.56663140425E+02 -0.76311536713E+02  0.74030887723E+02  0.12047711175E+03  0.00000000000E+00 0.  1.
</event>
<event>
 7    1  0.6607887E-006  0.9699160E+02  0.7818608E-02  0.1343665E+00
          2   -1    0    0  502    0  0.00000000000E+00  0.00000000000E+00  0.10590009258E+04  0.10590009258E+04  0.00000000000E+00 0. -1.
          1   -1    0    0  501    0 -0.00000000000E+00 -0.00000000000E+00 -0.39929376518E+03  0.39929376518E+03  0.00000000000E+00 0. -1.
         25    2    1    2    0    0  0.12747997784E+03 -0.68453996688E+02 -0.95524103328E+02  0.21374337464E+03  0.12499712587E+03 0.  0.
          2    1    1    2  501    0 -0.70602572780E+02  0.56608938938E+02 -0.23541170452E+03  0.25220619714E+03  0.00000000000E+00 0. -1.
          1    1    1    2  502    0 -0.56877405061E+02  0.11845057749E+02  0.99064296848E+03  0.99234511920E+03  0.00000000000E+00 0. -1.
         22    1    3    3    0    0  0.11259074795E+03 -0.82552176536E+02 -0.26976293818E+02  0.14219444013E+03  0.00000000000E+00 0.  1.
         22    1    3    3    0    0  0.14889229887E+02  0.14098179849E+02 -0.68547809510E+02  0.71548934515E+02  0.00000000000E+00 0.  1.
</event>
<event>
 7    1  0.6607887E-006  0.8783606E+02  0.7818608E-02  0.1357558E+00
          2   -1    0    0  502    0  0.00000000000E+00  0.00000000000E+00  0.56097505487E+03  0.56097505487E+03  0.00000000000E+00 0. -1.
          1   -1    0    0  501    0 -0.00000000000E+00 -0.00000000000E+00 -0.33391958862E+03  0.33391958862E+03  0.00000000000E+00 0. -1.
         25    2    1    2    0    0  0.59925723911E+01  0.13856961559E+03 -0.18204008298E+02  0.18759068515E+03  0.12498571899E+03 0.  0.
          2    1    1    2  501    0  0.69868648579E+01 -0.83078570919E+02 -0.22171126500E+03  0.23686863502E+03  0.00000000000E+00 0. -1.
          1    1    1    2  502    0 -0.12979437249E+02 -0.55491044669E+02  0.46697073955E+03  0.47043532332E+03  0.00000000000E+00 0. -1.
         22    1    3    3    0    0 -0.98510142396E+01  0.14179010321E+03 -0.51017191375E+02  0.15101069388E+03  0.00000000000E+00 0. -1.
         22    1    3    3    0    0  0.15843586631E+02 -0.32204876258E+01  0.32813183077E+02  0.36579991273E+02  0.00000000000E+00 0. -1.
</event>
<event>
 7    1  0.6607887E-006  0.4163924E+02  0.7818608E-02  0.1584731E+00
          2   -1    0    0  502    0  0.00000000000E+00  0.00000000000E+00  0.38179121127E+03  0.38179121127E+03  0.00000000000E+00 0. -1.
          1   -1    0    0  501    0 -0.00000000000E+00 -0.00000000000E+00 -0.41491422702E+03  0.41491422702E+03  0.00000000000E+00 0. -1.
         25    2    1    2    0    0  0.20431170691E+02 -0.43528126430E+02  0.15925457665E+03  0.20811897571E+03  0.12505741617E+03 0.  0.
          2    1    1    2  501    0 -0.33821570203E+02  0.24284445625E+02 -0.38867259357E+03  0.39089642861E+03  0.00000000000E+00 0. -1.
          1    1    1    2  502    0  0.13390399511E+02  0.19243680805E+02  0.19629500117E+03  0.19769003397E+03  0.00000000000E+00 0. -1.
         22    1    3    3    0    0  0.30942337855E+02 -0.77276600211E+02  0.15004978082E+03  0.17159265117E+03  0.00000000000E+00 0.  1.
         22    1    3    3    0    0 -0.10511167164E+02  0.33748473781E+02  0.92047958245E+01  0.36526324532E+02  0.00000000000E+00 0.  1.
</event>
<event>
 7    1  0.6607887E-006  0.1571399E+03  0.7818608E-02  0.1369906E+00
          2   -1    0    0  502    0  0.00000000000E+00  0.00000000000E+00  0.63614641733E+03  0.63614641733E+03  0.00000000000E+00 0. -1.
          1   -1    0    0  501    0 -0.00000000000E+00 -0.00000000000E+00 -0.28711906783E+03  0.28711906783E+03  0.00000000000E+00 0. -1.
         25    2    1    2    0    0  0.48710431993E+01  0.18265026795E+03  0.22307293571E+01  0.22139365645E+03  0.12500131006E+03 0.  0.
          2    1    1    2  501    0  0.41652729040E+01 -0.28428419117E+02 -0.16488909503E+03  0.16737364838E+03  0.00000000000E+00 0. -1.
          1    1    1    2  502    0 -0.90363161033E+01 -0.15422184883E+03  0.51168571518E+03  0.53449818034E+03  0.00000000000E+00 0. -1.
         22    1    3    3    0    0 -0.31456569213E+02  0.10117241321E+03  0.53299314245E+02  0.11860096897E+03  0.00000000000E+00 0. -1.
         22    1    3    3    0    0  0.36327612412E+02  0.81477854743E+02 -0.51068584888E+02  0.10279268748E+03  0.00000000000E+00 0. -1.
</event>
<event>
 7    1  0.6607887E-006  0.6583890E+02  0.7818608E-02  0.1408445E+00
          2   -1    0    0  502    0  0.00000000000E+00  0.00000000000E+00  0.15210254321E+04  0.15210254321E+04  0.00000000000E+00 0. -1.
          1   -1    0    0  501    0 -0.00000000000E+00 -0.00000000000E+00 -0.86733782774E+02  0.86733782774E+02  0.00000000000E+00 0. -1.
         25    2    1    2    0    0  0.36662365360E+02  0.85701002451E+01  0.17404467873E+03  0.21756741022E+03  0.12500580844E+03 0.  0.
          2    1    1    2  501    0 -0.37019845337E+02 -0.58859964292E+02 -0.45744913504E+02  0.83231973764E+02  0.00000000000E+00 0. -1.
          1    1    1    2  502    0  0.35747997672E+00  0.50289864047E+02  0.13059918841E+04  0.13069598308E+04  0.00000000000E+00 0. -1.
         22    1    3    3    0    0  0.22709595039E+02  0.37290027424E+02  0.32147164161E+01  0.43779061819E+02  0.00000000000E+00 0. -1.
         22    1    3    3    0    0  0.13952770321E+02 -0.28719927179E+02  0.17082996231E+03  0.17378834840E+03  0.00000000000E+00 0. -1.
</event>
<event>
 7    1  0.6607887E-006  0.5763311E+02  0.7818608E-02  0.1544823E+00
          2   -1    0    0  502    0  0.00000000000E+00  0.00000000000E+00  0.34991540917E+02  0.34991540917E+02  0.00000000000E+00 0. -1.
          1   -1    0    0  501    0 -0.00000000000E+00 -0.00000000000E+00 -0.12996846188E+04  0.12996846188E+04  0.00000000000E+00 0. -1.
         25    2    1    2    0    0 -0.50457113603E+01 -0.39927525462E+02 -0.38833294773E+03  0.40993614436E+03  0.12500199064E+03 0.  0.
          2    1    1    2  501    0 -0.53808143159E+01  0.59049074189E+02 -0.89445886019E+03  0.89642199822E+03  0.00000000000E+00 0. -1.
          1    1    1    2  502    0  0.10426525676E+02 -0.19121548726E+02  0.18098730063E+02  0.28318017114E+02  0.00000000000E+00 0. -1.
         22    1    3    3    0    0  0.71160445082E+01 -0.46733891132E+02 -0.39254154114E+03  0.39537773861E+03  0.00000000000E+00 0.  1.
         22    1    3    3    0    0 -0.12161755869E+02  0.68063656695E+01  0.42085934056E+01  0.14558405747E+02  0.00000000000E+00 0.  1.
</event>
<event>
 7    1  0.6607887E-006  0.3564728E+02  0.7818608E-02  0.1595544E+00
          2   -1    0    0  502    0  0.00000000000E+00  0.00000000000E+00  0.12290468023E+04  0.12290468023E+04  0.00000000000E+00 0. -1.
          1   -1    0    0  501    0 -0.00000000000E+00 -0.00000000000E+00 -0.36211391234E+03  0.36211391234E+03  0.00000000000E+00 0. -1.
         25    2    1    2    0    0 -0.16985761080E+02 -0.86358019404E+01  0.12898338347E+03  0.18064833586E+03  0.12503605433E+03 0.  0.
          2    1    1    2  501    0  0.34265845061E+02 -0.10304467157E+02 -0.33517605941E+03  0.33708058529E+03  0.00000000000E+00 0. -1.
          1    1    1    2  502    0 -0.17280083981E+02  0.18940269097E+02  0.10731255658E+04  0.10734317934E+04  0.00000000000E+00 0. -1.
         22    1    3    3    0    0 -0.51309335319E+02 -0.49030554971E+02  0.91166138562E+02  0.11553314690E+03  0.00000000000E+00 0. -1.
         22    1    3    3    0    0  0.34323574239E+02  0.40394753031E+02  0.37817244904E+02  0.65115188959E+02  0.00000000000E+00 0. -1.
</event>
<event>
 7    1  0.6607887E-006  0.6859826E+02  0.7818608E-02  0.1442724E+00
          2   -1    0    0  502    0  0.00000000000E+00  0.00000000000E+00  0.63089848642E+03  0.63089848642E+03  0.00000000000E+00 0. -1.
          1   -1    0    0  501    0 -0.00000000000E+00 -0.00000000000E+00 -0.16176030095E+03  0.16176030095E+03  0.00000000000E+00 0. -1.
         25    2    1    2    0    0  0.40265849856E+02 -0.87963400272E+02  0.53145296138E+02  0.16675978557E+03  0.12500202050E+03 0.  0.
          2    1    1    2  501    0 -0.30656563614E+02  0.21000428198E+02 -0.99382656308E+02  0.10610256949E+03  0.00000000000E+00 0. -1.
          1    1    1    2  502    0 -0.96092862425E+01  0.66962972074E+02  0.51537554564E+03  0.51979643232E+03  0.00000000000E+00 0. -1.
         22    1    3    3    0    0  0.41140560691E+02 -0.11875719011E+03  0.32966518597E+02  0.12993308772E+03  0.00000000000E+00 0. -1.
         22    1    3    3    0    0 -0.87471083466E+00  0.30793789834E+02  0.20178777541E+02  0.36826697848E+02  0.00000000000E+00 0. -1.
</event>
<event>
 7    1  0.6607887E-006  0.8416587E+02  0.7818608E-02  0.1437479E+00
          2   -1    0    0  502    0  0.00000000000E+00  0.00000000000E+00  0.15987950137E+03  0.15987950137E+03  0.00000000000E+00 0. -1.
          1   -1    0    0  501    0 -0.00000000000E+00 -0.00000000000E+00 -0.80337131912E+03  0.80337131912E+03  0.00000000000E+00 0. -1.
         25    2    1    2    0    0 -0.67334648874E+02 -0.54358795067E+02 -0.17397743844E+03  0.23104836282E+03  0.12500545323E+03 0.  0.
          2    1    1    2  501    0  0.25279782473E+02 -0.18788357366E+02 -0.58684186503E+03  0.58768651875E+03  0.00000000000E+00 0. -1.
          1    1    1    2  502    0  0.42054866401E+02  0.73147152434E+02  0.11732748572E+03  0.14451593892E+03  0.00000000000E+00 0. -1.
         22    1    3    3    0    0  0.50466257145E+00 -0.50119409041E+02 -0.15131193135E+03  0.15939733503E+03  0.00000000000E+00 0. -1.
         22    1    3    3    0    0 -0.67839311445E+02 -0.42393860259E+01 -0.22665507087E+02  0.71651027786E+02  0.00000000000E+00 0. -1.
</event>
<event>
 7    1  0.6607887E-006  0.7779815E+02  0.7818608E-02  0.1412091E+00
          2   -1    0    0  502    0  0.00000000000E+00  0.00000000000E+00  0.31480867790E+02  0.31480867790E+02  0.00000000000E+00 0. -1.
          1   -1    0    0  501    0 -0.00000000000E+00 -0.00000000000E+00 -0.16356097857E+04  0.16356097857E+04  0.00000000000E+00 0. -1.
         25    2    1    2    0    0  0.68203706917E+02 -0.52199633815E+02 -0.10187674724E+04  0.10299951780E+04  0.12500542556E+03 0.  0.
          2    1    1    2  501    0 -0.31250006309E+02  0.70791135436E+02 -0.59037604494E+03  0.59542574868E+03  0.00000000000E+00 0. -1.
          1    1    1    2  502    0 -0.36953700608E+02 -0.18591501620E+02  0.50145994976E+01  0.41669726772E+02  0.00000000000E+00 0. -1.
         22    1    3    3    0    0  0.35450077174E+01 -0.80783302168E+02 -0.52383797135E+03  0.53004219569E+03  0.00000000000E+00 0. -1.
         22    1    3    3    0    0  0.64658699200E+02  0.28583668352E+02 -0.49492950109E+03  0.49995298232E+03  0.00000000000E+00 0. -1.
</event>
<event>
 7    1  0.6607887E-006  0.7352176E+02  0.7818608E-02  0.1473031E+00
          2   -1    0    0  502    0  0.00000000000E+00  0.00000000000E+00  0.87001967696E+02  0.87001967696E+02  0.00000000000E+00 0. -1.
          1   -1    0    0  501    0 -0.00000000000E+00 -0.00000000000E+00 -0.87947774286E+03  0.87947774286E+03  0.00000000000E+00 0. -1.
         25    2    1    2    0    0  0.31255661138E+02  0.52101553308E+02 -0.10516886589E+03  0.17429007066E+03  0.12500020067E+03 0.  0.
          2    1    1    2  501    0 -0.58406550953E+02 -0.46123101410E+02 -0.73404497432E+03  0.73780803059E+03  0.00000000000E+00 0. -1.
          1    1    1    2  502    0  0.27150889815E+02 -0.59784518985E+01  0.46738065053E+02  0.54381609297E+02  0.00000000000E+00 0. -1.
         22    1    3    3    0    0 -0.34282880619E+02  0.25439950579E+02 -0.93225053867E+02  0.10253495822E+03  0.00000000000E+00 0. -1.
         22    1    3    3    0    0  0.65538541757E+02  0.26661602729E+02 -0.11943812023E+02  0.71755112441E+02  0.00000000000E+00 0. -1.
</event>
<event>
 7    1  0.6607887E-006  0.8968100E+02  0.7818608E-02  0.1319960E+00
          2   -1    0    0  502    0  0.00000000000E+00  0.00000000000E+00  0.54435915792E+03  0.54435915792E+03  0.00000000000E+00 0. -1.
          1   -1    0    0  501    0 -0.00000000000E+00 -0.00000000000E+00 -0.24174053938E+03  0.24174053938E+03  0.00000000000E+00 0. -1.
         25    2    1    2    0    0 -0.80204321061E+02  0.10541556168E+03  0.23380373689E+03  0.29636824994E+03  0.12499911370E+03 0.  0.
          2    1    1    2  501    0  0.79055932301E+00 -0.77354250476E+02 -0.19660058372E+03  0.21127255991E+03  0.00000000000E+00 0. -1.
          1    1    1    2  502    0  0.79413761738E+02 -0.28061311206E+02  0.26541546538E+03  0.27845888745E+03  0.00000000000E+00 0. -1.
         22    1    3    3    0    0 -0.27409263111E+02  0.11009134418E+03  0.20909303507E+03  0.23788919496E+03  0.00000000000E+00 0. -1.
         22    1    3    3    0    0 -0.52795057950E+02 -0.46757824990E+01  0.24710701822E+02  0.58479054972E+02  0.00000000000E+00 0. -1.
</event>
<event>
 7    1  0.6607887E-006  0.2460367E+03  0.7818608E-02  0.1250634E+00
          2   -1    0    0  502    0  0.00000000000E+00  0.00000000000E+00  0.19123064944E+04  0.19123064944E+04  0.00000000000E+00 0. -1.
          1   -1    0    0  501    0 -0.00000000000E+00 -0.00000000000E+00 -0.11683500830E+03  0.11683500830E+03  0.00000000000E+00 0. -1.
         25    2    1    2    0    0  0.18783852274E+03 -0.14689881808E+03  0.14765619920E+04  0.15009077721E+04  0.12500500292E+03 0.  0.
          2    1    1    2  501    0  0.34254612983E+01 -0.54154193124E+02 -0.45069541299E+02  0.70538457390E+02  0.00000000000E+00 0. -1.
          1    1    1    2  502    0 -0.19126398404E+03  0.20105301120E+03  0.36397903542E+03  0.45769527322E+03  0.00000000000E+00 0. -1.
         22    1    3    3    0    0  0.20627538630E+03 -0.13357824529E+03  0.13168831047E+04  0.13396170326E+04  0.00000000000E+00 0. -1.
         22    1    3    3    0    0 -0.18436863554E+02 -0.13320572786E+02  0.15967888730E+03  0.16129073949E+03  0.00000000000E+00 0. -1.
</event>
<event>
 7    1  0.6607887E-006  0.1230781E+03  0.7818608E-02  0.1254051E+00
          2   -1    0    0  502    0  0.00000000000E+00  0.00000000000E+00  0.43146228550E+03  0.43146228550E+03  0.00000000000E+00 0. -1.
          1   -1    0    0  501    0 -0.00000000000E+00 -0.00000000000E+00 -0.29534319569E+03  0.29534319569E+03  0.00000000000E+00 0. -1.
         25    2    1    2    0    0  0.50591083520E+02 -0.20743811358E+03 -0.77314065220E+01  0.24753826320E+03  0.12500155360E+03 0.  0.
          2    1    1    2  501    0 -0.31250292245E+02  0.10439230341E+03 -0.13957278555E+03  0.17707313812E+03  0.00000000000E+00 0. -1.
          1    1    1    2  502    0 -0.19340791275E+02  0.10304581017E+03  0.28342328188E+03  0.30219407987E+03  0.00000000000E+00 0. -1.
         22    1    3    3    0    0  0.61300188167E+02 -0.21364664530E+03  0.13807752983E+02  0.22269543363E+03  0.00000000000E+00 0. -1.
         22    1    3    3    0    0 -0.10709104647E+02  0.62085317223E+01 -0.21539159505E+02  0.24842829562E+02  0.00000000000E+00 0. -1.
</event>
<event>
 7    1  0.6607887E-006  0.2840310E+02  0.7818608E-02  0.1629519E+00
          2   -1    0    0  502    0  0.00000000000E+00  0.00000000000E+00  0.12724433368E+04  0.12724433368E+04  0.00000000000E+00 0. -1.
          1   -1    0    0  501    0 -0.00000000000E+00 -0.00000000000E+00 -0.89212540835E+03  0.89212540835E+03  0.00000000000E+00 0. -1.
         25    2    1    2    0    0  0.42067144844E+01 -0.37956904932E+02  0.13253241028E+03  0.18614064260E+03  0.12500030390E+03 0.  0.
          2    1    1    2  501    0  0.17176907363E+02  0.22621848706E+02 -0.86493261087E+03  0.86539887655E+03  0.00000000000E+00 0. -1.
          1    1    1    2  502    0 -0.21383621847E+02  0.15335056226E+02  0.11127181291E+04  0.11130292260E+04  0.00000000000E+00 0. -1.
         22    1    3    3    0    0 -0.31267947059E+01 -0.83980492207E+02  0.82512768966E+02  0.11777460235E+03  0.00000000000E+00 0. -1.
         22    1    3    3    0    0  0.73335091904E+01  0.46023587275E+02  0.50019641310E+02  0.68366040250E+02  0.00000000000E+00 0. -1.
</event>
<event>
 7    1  0.6607887E-006  0.1190499E+03  0.7818608E-02  0.1406366E+00
          2   -1    0    0  502    0  0.00000000000E+00  0.00000000000E+00  0.48202303563E+03  0.48202303563E+03  0.00000000000E+00 0. -1.
          1   -1    0    0  501    0 -0.00000000000E+00 -0.00000000000E+00 -0.45580966804E+03  0.45580966804E+03  0.00000000000E+00 0. -1.
         25    2    1    2    0    0 -0.44623832869E+02 -0.13256505981E+03 -0.14528700367E+02  0.18815135236E+03  0.12500026687E+03 0.  0.
          2    1    1    2  501    0  0.22792943873E+02  0.11460492287E+03 -0.34430763388E+03  0.36359531541E+03  0.00000000000E+00 0. -1.
          1    1    1    2  502    0  0.21830888996E+02  0.17960136948E+02  0.38504970184E+03  0.38608603590E+03  0.00000000000E+00 0. -1.
         22    1    3    3    0    0 -0.85389918768E+01 -0.17069331554E+02  0.48211009410E+02  0.51851498438E+02  0.00000000000E+00 0. -1.
         22    1    3    3    0    0 -0.36084840992E+02 -0.11549572826E+03 -0.62739709777E+02  0.13629985392E+03  0.00000000000E+00 0. -1.
</event>
<event>
 7    1  0.6607887E-006  0.1523168E+03  0.7818608E-02  0.1269954E+00
          2   -1    0    0  502    0  0.00000000000E+00  0.00000000000E+00  0.72862393149E+03  0.72862393149E+03  0.00000000000E+00 0. -1.
          1   -1    0    0  501    0 -0.00000000000E+00 -0.00000000000E+00 -0.72160947452E+03  0.72160947452E+03  0.00000000000E+00 0. -1.
         25    2    1    2    0    0 -0.17892229615E+02 -0.10104194948E+03  0.91102981827E+02  0.18561870121E+03  0.12499976602E+03 0.  0.
          2    1    1    2  501    0 -0.54715943322E+02 -0.47561524022E+02 -0.66074396444E+03  0.66470934969E+03  0.00000000000E+00 0. -1.
          1    1    1    2  502    0  0.72608172937E+02  0.14860347350E+03  0.57665543958E+03  0.59990535512E+03  0.00000000000E+00 0. -1.
         22    1    3    3    0    0 -0.14047804382E+02 -0.12934636448E+03  0.87580492085E+02  0.15683802283E+03  0.00000000000E+00 0. -1.
         22    1    3    3    0    0 -0.38444252325E+01  0.28304415001E+02  0.35224897421E+01  0.28780678378E+02  0.00000000000E+00 0. -1.
</event>
<event>
 7    1  0.1308759E-005  0.7745095E+02  0.7818608E-02  0.1413654E+00
          2   -1    0    0  502    0  0.00000000000E+00  0.00000000000E+00  0.97012017137E+03  0.97012017137E+03  0.00000000000E+00 0. -1.
          1   -1    0    0  501    0 -0.00000000000E+00 -0.00000000000E+00 -0.22244208986E+04  0.22244208986E+04  0.00000000000E+00 0. -1.
         25    2    1    2    0    0 -0.10079509603E+03 -0.58952626316E+02 -0.66999311735E+03  0.69148479658E+03  0.12500153230E+03 0.  0.
          2    1    1    2  501    0  0.39222760298E+02  0.12114078677E+02 -0.15418486955E+04  0.15423950777E+04  0.00000000000E+00 0. -1.
          1    1    1    2  502    0  0.61572335733E+02  0.46838547639E+02  0.95754108568E+03  0.96066119566E+03  0.00000000000E+00 0. -1.
         22    1    3    3    0    0 -0.10843875961E+03 -0.87001423098E+02 -0.49755336312E+03  0.51661161559E+03  0.00000000000E+00 0.  1.
         22    1    3    3    0    0  0.76436635767E+01  0.28048796782E+02 -0.17243975422E+03  0.17487318099E+03  0.00000000000E+00 0.  1.
</event>
<event>
 7    1  0.6607887E-006  0.5182783E+02  0.7818608E-02  0.1454595E+00
          2   -1    0    0  502    0  0.00000000000E+00  0.00000000000E+00  0.24248738816E+04  0.24248738816E+04  0.00000000000E+00 0. -1.
          1   -1    0    0  501    0 -0.00000000000E+00 -0.00000000000E+00 -0.36250767480E+02  0.36250767480E+02  0.00000000000E+00 0. -1.
         25    2    1    2    0    0 -0.96297025607E+01  0.12062301385E+02  0.46768340532E+03  0.48434602986E+03  0.12500031495E+03 0.  0.
          2    1    1    2  501    0 -0.44009295602E+02 -0.96633343927E+01 -0.91206525349E+01  0.45971561140E+02  0.00000000000E+00 0. -1.
          1    1    1    2  502    0  0.53638998163E+02 -0.23989669920E+01  0.19300603613E+04  0.19308070581E+04  0.00000000000E+00 0. -1.
         22    1    3    3    0    0  0.62542853659E+00 -0.31868767865E+02  0.40942196282E+03  0.41066087368E+03  0.00000000000E+00 0.  1.
         22    1    3    3    0    0 -0.10255131097E+02  0.43931069249E+02  0.58261442501E+02  0.73685156182E+02  0.00000000000E+00 0.  1.
</event>
<event>
 7    1  0.6607887E-006  0.6908968E+02  0.7818608E-02  0.1447535E+00
          2   -1    0    0  502    0  0.00000000000E+00  0.00000000000E+00  0.17602136128E+03  0.17602136128E+03  0.00000000000E+00 0. -1.
          1   -1    0    0  501    0 -0.00000000000E+00 -0.00000000000E+00 -0.13784779409E+04  0.13784779409E+04  0.00000000000E+00 0. -1.
         25    2    1    2    0    0  0.57014081348E+02  0.27842351277E+02  0.81394377042E+02  0.16210155136E+03  0.12500426529E+03 0.  0.
          2    1    1    2  501    0  0.18931527853E+02 -0.30151062728E+02 -0.13111712865E+04  0.13116545398E+04  0.00000000000E+00 0. -1.
          1    1    1    2  502    0 -0.75945609201E+02  0.23087114512E+01  0.27320329807E+02  0.80743211022E+02  0.00000000000E+00 0. -1.
         22    1    3    3    0    0  0.84837878672E+01  0.70675179547E+02  0.22674525704E+02  0.74706691645E+02  0.00000000000E+00 0. -1.
         22    1    3    3    0    0  0.48530293480E+02 -0.42832828271E+02  0.58719851338E+02  0.87394859712E+02  0.00000000000E+00 0. -1.
</event>
<event>
 7    1  0.6607887E-006  0.2399387E+02  0.7818608E-02  0.1686712E+00
          2   -1    0    0  502    0  0.00000000000E+00  0.00000000000E+00  0.15995272731E+02  0.15995272731E+02  0.00000000000E+00 0. -1.
          1   -1    0    0  501    0 -0.00000000000E+00 -0.00000000000E+00 -0.14128434925E+04  0.14128434925E+04  0.00000000000E+00 0. -1.
         25    2    1    2    0    0 -0.22319744655E+02 -0.29937739083E+02 -0.11942456271E+04  0.12013503323E+04  0.12500225589E+03 0.  0.
          2    1    1    2  501    0 -0.46154834767E+00  0.22619125862E+02 -0.20229734898E+03  0.20355848124E+03  0.00000000000E+00 0. -1.
          1    1    1    2  502    0  0.22781293003E+02  0.73186132215E+01 -0.30524366478E+00  0.23929951610E+02  0.00000000000E+00 0. -1.
         22    1    3    3    0    0  0.22601176917E+02 -0.48051091904E+02 -0.99066830986E+03  0.99209042974E+03  0.00000000000E+00 0. -1.
         22    1    3    3    0    0 -0.44920921572E+02  0.18113352821E+02 -0.20357731723E+03  0.20925990260E+03  0.00000000000E+00 0. -1.
</event>
<event>
 7    1  0.6607887E-006  0.1205550E+03  0.7818608E-02  0.1265164E+00
          2   -1    0    0  502    0  0.00000000000E+00  0.00000000000E+00  0.86401063637E+03  0.86401063637E+03  0.00000000000E+00 0. -1.
          1   -1    0    0  501    0 -0.00000000000E+00 -0.00000000000E+00 -0.57767496182E+03  0.57767496182E+03  0.00000000000E+00 0. -1.
         25    2    1    2    0    0 -0.12658711165E+02 -0.39073013483E+02  0.59096337443E+02  0.14425239903E+03  0.12501773545E+03 0.  0.
          2    1    1    2  501    0  0.28151056505E+02 -0.91736586927E+02 -0.52502558814E+03  0.53372272910E+03  0.00000000000E+00 0. -1.
          1    1    1    2  502    0 -0.15492345340E+02  0.13080960041E+03  0.75226492524E+03  0.76371047006E+03  0.00000000000E+00 0. -1.
         22    1    3    3    0    0 -0.40247772803E+01 -0.40462678543E+02  0.97092220586E+02  0.10526312975E+03  0.00000000000E+00 0.  1.
         22    1    3    3    0    0 -0.86339338846E+01  0.13896650599E+01 -0.37995883143E+02  0.38989269281E+02  0.00000000000E+00 0.  1.
</event>
<event>
 7    1  0.6607887E-006  0.9530714E+02  0.7818608E-02  0.1368444E+00
          2   -1    0    0  502    0  0.00000000000E+00  0.00000000000E+00  0.16322131564E+04  0.16322131564E+04  0.00000000000E+00 0. -1.
          1   -1    0    0  501    0 -0.00000000000E+00 -0.00000000000E+00 -0.22449853066E+03  0.22449853066E+03  0.00000000000E+00 0. -1.
         25    2    1    2    0    0 -0.12719573443E+02 -0.12079168136E+03  0.11458495509E+04  0.11590291951E+04  0.12500025622E+03 0.  0.
          2    1    1    2  501    0  0.27188285087E+02  0.39496682905E+02 -0.21165414591E+03  0.21701766815E+03  0.00000000000E+00 0. -1.
          1    1    1    2  502    0 -0.14468711643E+02  0.81294998453E+02  0.47351922081E+03  0.48066482382E+03  0.00000000000E+00 0. -1.
         22    1    3    3    0    0  0.43421640975E+02 -0.51648524268E+02  0.76201931627E+03  0.76500094597E+03  0.00000000000E+00 0. -1.
         22    1    3    3    0    0 -0.56141214419E+02 -0.69143157090E+02  0.38383023458E+03  0.39402824912E+03  0.00000000000E+00 0. -1.
</event>
<event>
 7    1  0.6607887E-006  0.7643705E+02  0.7818608E-02  0.1470132E+00
          2   -1    0    0  502    0  0.00000000000E+00  0.00000000000E+00  0.32650935098E+04  0.32650935098E+04  0.00000000000E+00 0. -1.
          1   -1    0    0  501    0 -0.00000000000E+00 -0.00000000000E+00 -0.27038825721E+02  0.27038825721E+02  0.00000000000E+00 0. -1.
         25    2    1    2    0    0  0.41111362791E+02 -0.64354818829E+02  0.69437277310E+03  0.70965415947E+03  0.12499516458E+03 0.  0.
          2    1    1    2  501    0  0.20296722010E+02  0.18258674074E+02 -0.89204182158E+01  0.28721245872E+02  0.00000000000E+00 0. -1.
          1    1    1    2  502    0 -0.61408084802E+02  0.46096144755E+02  0.25526023292E+04  0.25537569301E+04  0.00000000000E+00 0. -1.
         22    1    3    3    0    0  0.82039188036E+02 -0.64299486186E+02  0.53866239499E+03  0.54865474397E+03  0.00000000000E+00 0.  1.
         22    1    3    3    0    0 -0.40927825245E+02 -0.55332642853E-01  0.15571037811E+03  0.16099941550E+03  0.00000000000E+00 0.  1.
</event>
<event>
 7    1  0.6607887E-006  0.7942933E+02  0.7818608E-02  0.1452037E+00
          2   -1    0    0  502    0  0.00000000000E+00  0.00000000000E+00  0.81970028375E+03  0.81970028375E+03  0.00000000000E+00 0. -1.
          1   -1    0    0  501    0 -0.00000000000E+00 -0.00000000000E+00 -0.13479166287E+04  0.13479166287E+04  0.00000000000E+00 0. -1.
         25    2    1    2    0    0  0.20818632585E+02  0.75540315727E+02 -0.48052668463E+03  0.50266371358E+03  0.12500063818E+03 0.  0.
          2    1    1    2  501    0 -0.48522736351E+02 -0.64142728535E+02 -0.85415418816E+03  0.85793246979E+03  0.00000000000E+00 0. -1.
          1    1    1    2  502    0  0.27704103766E+02 -0.11397587192E+02  0.80646452788E+03  0.80702072904E+03  0.00000000000E+00 0. -1.
         22    1    3    3    0    0  0.91509264833E+01  0.89658819506E+02 -0.17736457513E+03  0.19894882729E+03  0.00000000000E+00 0.  1.
         22    1    3    3    0    0  0.11667706101E+02 -0.14118503779E+02 -0.30316210951E+03  0.30371488629E+03  0.00000000000E+00 0.  1.
</event>
<event>
 7    1  0.6607887E-006  0.7666865E+02  0.7818608E-02  0.1423784E+00
          2   -1    0    0  502    0  0.00000000000E+00  0.00000000000E+00  0.81881865256E+03  0.81881865256E+03  0.00000000000E+00 0. -1.
          1   -1    0    0  501    0 -0.00000000000E+00 -0.00000000000E+00 -0.76259271997E+03  0.76259271997E+03  0.00000000000E+00 0. -1.
         25    2    1    2    0    0 -0.68503331568E+02  0.73176655495E+01  0.13593120302E+03  0.19709955677E+03  0.12499875463E+03 0.  0.
          2    1    1    2  501    0  0.70347827825E+02  0.30993939203E+02 -0.72942316203E+03  0.73346273965E+03  0.00000000000E+00 0. -1.
          1    1    1    2  502    0 -0.18444962570E+01 -0.38311604752E+02  0.64971789160E+03  0.65084907612E+03  0.00000000000E+00 0. -1.
         22    1    3    3    0    0 -0.29543580743E+02 -0.20367946102E+02 -0.14916622452E+02  0.38861060419E+02  0.00000000000E+00 0. -1.
         22    1    3    3    0    0 -0.38959750825E+02  0.27685611652E+02  0.15084782547E+03  0.15823849635E+03  0.00000000000E+00 0. -1.
</event>
<event>
 7    1  0.6607887E-006  0.1761944E+03  0.7818608E-02  0.1328043E+00
          2   -1    0    0  502    0  0.00000000000E+00  0.00000000000E+00  0.10435367838E+04  0.10435367838E+04  0.00000000000E+00 0. -1.
          1   -1    0    0  501    0 -0.00000000000E+00 -0.00000000000E+00 -0.63632576605E+03  0.63632576605E+03  0.00000000000E+00 0. -1.
         25    2    1    2    0    0  0.15140838321E+03 -0.12398137820E+03  0.12631151852E+03  0.26433944943E+03  0.12499945667E+03 0.  0.
          2    1    1    2  501    0 -0.15166606648E+03  0.87334279172E+02 -0.55340214972E+03  0.58041692890E+03  0.00000000000E+00 0. -1.
          1    1    1    2  502    0  0.25768326758E+00  0.36647099028E+02  0.83430164893E+03  0.83510617150E+03  0.00000000000E+00 0. -1.
         22    1    3    3    0    0  0.16957280712E+03 -0.12080310948E+03  0.13010765867E+03  0.24551238465E+03  0.00000000000E+00 0. -1.
         22    1    3    3    0    0 -0.18164423911E+02 -0.31782687233E+01 -0.37961401456E+01  0.18827064776E+02  0.00000000000E+00 0. -1.
</event>
<event>
 7    1  0.6607887E-006  0.1223782E+03  0.7818608E-02  0.1313347E+00
          2   -1    0    0  502    0  0.00000000000E+00  0.00000000000E+00  0.28494453145E+03  0.28494453145E+03  0.00000000000E+00 0. -1.
          1   -1    0    0  501    0 -0.00000000000E+00 -0.00000000000E+00 -0.35780845876E+03  0.35780845876E+03  0.00000000000E+00 0. -1.
         25    2    1    2    0    0 -0.10294155558E+03 -0.32119692686E+02  0.16102474319E+02  0.16587157354E+03  0.12500180281E+03 0.  0.
          2    1    1    2  501    0 -0.24591480015E+02  0.54902409146E+02 -0.25742896238E+03  0.26436468389E+03  0.00000000000E+00 0. -1.
          1    1    1    2  502    0  0.12753303560E+03 -0.22782716460E+02  0.16846256075E+03  0.21251673278E+03  0.00000000000E+00 0. -1.
         22    1    3    3    0    0 -0.62864988430E+02 -0.38521210311E+02 -0.49447590244E+02  0.88774740749E+02  0.00000000000E+00 0.  1.
         22    1    3    3    0    0 -0.40076567154E+02  0.64015176249E+01  0.65550064563E+02  0.77096832794E+02  0.00000000000E+00 0.  1.
</event>
<event>
 7    1  0.6607887E-006  0.9516488E+02  0.7818608E-02  0.1331227E+00
          2   -1    0    0  502    0  0.00000000000E+00  0.00000000000E+00  0.31130042987E+04  0.31130042987E+04  0.00000000000E+00 0. -1.
          1   -1    0    0  501    0 -0.00000000000E+00 -0.00000000000E+00 -0.14378938262E+04  0.14378938262E+04  0.00000000000E+00 0. -1.
         25    2    1    2    0    0  0.30808499177E+02  0.58804390953E+02 -0.13841604977E+03  0.19797863721E+03  0.12501767051E+03 0.  0.
          2    1    1    2  501    0 -0.91951549154E+02 -0.34014362952E+02 -0.12674501883E+04  0.12712364233E+04  0.00000000000E+00 0. -1.
          1    1    1    2  502    0  0.61143049977E+02 -0.24790028002E+02  0.30809767106E+04  0.30816830644E+04  0.00000000000E+00 0. -1.
         22    1    3    3    0    0  0.68866567322E+02  0.55638633301E+02 -0.13246615224E+03  0.15932841272E+03  0.00000000000E+00 0. -1.
         22    1    3    3    0    0 -0.38058068145E+02  0.31657576523E+01 -0.59498975302E+01  0.38650224489E+02  0.00000000000E+00 0. -1.
</event>
<event>
 7    1  0.6607887E-006  0.1928405E+03  0.7818608E-02  0.1157523E+00
          2   -1    0    0  502    0  0.00000000000E+00  0.00000000000E+00  0.96111386395E+03  0.96111386395E+03  0.00000000000E+00 0. -1.
          1   -1    0    0  501    0 -0.00000000000E+00 -0.00000000000E+00 -0.72773269565E+03  0.72773269565E+03  0.00000000000E+00 0. -1.
         25    2    1    2    0    0  0.11612128155E+03 -0.58917721349E+02 -0.43009469460E+01  0.18055430759E+03  0.12500363965E+03 0.  0.
          2    1    1    2  501    0 -0.17522690638E+03 -0.12464153813E+03 -0.60591181635E+03  0.64293787486E+03  0.00000000000E+00 0. -1.
          1    1    1    2  502    0  0.59105624831E+02  0.18355925947E+03  0.84359393160E+03  0.86535437715E+03  0.00000000000E+00 0. -1.
         22    1    3    3    0    0  0.48496512079E+02 -0.83663628110E+02 -0.34215307771E+02  0.10257778336E+03  0.00000000000E+00 0.  1.
         22    1    3    3    0    0  0.67624769470E+02  0.24745906761E+02  0.29914360825E+02  0.77976524229E+02  0.00000000000E+00 0.  1.
</event>
<event>
 7    1  0.6607887E-006  0.3441025E+03  0.7818608E-02  0.1236883E+00
          2   -1    0    0  502    0  0.00000000000E+00  0.00000000000E+00  0.16460197817E+04  0.16460197817E+04  0.00000000000E+00 0. -1.
          1   -1    0    0  501    0 -0.00000000000E+00 -0.00000000000E+00 -0.80882047361E+03  0.80882047361E+03  0.00000000000E+00 0. -1.
         25    2    1    2    0    0 -0.10866760764E+03  0.33522311945E+03 -0.52033222850E+03  0.64074526543E+03  0.12500271354E+03 0.  0.
          2    1    1    2  501    0  0.44494631577E+02  0.26592271762E+01 -0.20723709142E+03  0.21197654538E+03  0.00000000000E+00 0. -1.
          1    1    1    2  502    0  0.64172976060E+02 -0.33788234663E+03  0.15647686280E+04  0.16021184445E+04  0.00000000000E+00 0. -1.
         22    1    3    3    0    0 -0.12616741253E+03  0.33294225644E+03 -0.50012244264E+03  0.61391466812E+03  0.00000000000E+00 0. -1.
         22    1    3    3    0    0  0.17499804889E+02  0.22808630095E+01 -0.20209785864E+02  0.26830597307E+02  0.00000000000E+00 0. -1.
</event>
<event>
 7    1  0.6607887E-006  0.1630284E+03  0.7818608E-02  0.1339122E+00
          2   -1    0    0  502    0  0.00000000000E+00  0.00000000000E+00  0.63528992914E+03  0.63528992914E+03  0.00000000000E+00 0. -1.
          1   -1    0    0  501    0 -0.00000000000E+00 -0.00000000000E+00 -0.10477911379E+04  0.10477911379E+04  0.00000000000E+00 0. -1.
         25    2    1    2    0    0  0.22014766365E+02  0.18913133403E+03  0.30896300163E+03  0.38384709091E+03  0.12500056548E+03 0.  0.
          2    1    1    2  501    0 -0.39433469957E+02 -0.15768446113E+03 -0.10026601977E+04  0.10157494080E+04  0.00000000000E+00 0. -1.
          1    1    1    2  502    0  0.17418703592E+02 -0.31446872906E+02  0.28119598734E+03  0.28348456809E+03  0.00000000000E+00 0. -1.
         22    1    3    3    0    0 -0.43701586702E+01  0.45378331601E+02  0.19001389852E+03  0.19540617415E+03  0.00000000000E+00 0. -1.
         22    1    3    3    0    0  0.26384925035E+02  0.14375300243E+03  0.11894910311E+03  0.18844091676E+03  0.00000000000E+00 0. -1.
</event>
<event>
 7    1  0.6607887E-006  0.8411505E+02  0.7818608E-02  0.1367888E+00
          2   -1    0    0  502    0  0.00000000000E+00  0.00000000000E+00  0.97568703261E+03  0.97568703261E+03  0.00000000000E+00 0. -1.
          1   -1    0    0  501    0 -0.00000000000E+00 -0.00000000000E+00 -0.32597782515E+04  0.32597782515E+04  0.00000000000E+00 0. -1.
         25    2    1    2    0    0  0.74900786983E+02 -0.91345823299E+02 -0.20483673364E+03  0.26746359122E+03  0.12499799141E+03 0.  0.
          2    1    1    2  501    0 -0.21325119751E+02  0.80916369380E+02 -0.30222598444E+04  0.30234180635E+04  0.00000000000E+00 0. -1.
          1    1    1    2  502    0 -0.53575667231E+02  0.10429453919E+02  0.94300535913E+03  0.94458362942E+03  0.00000000000E+00 0. -1.
         22    1    3    3    0    0  0.42772174321E+02  0.25590446963E+02 -0.72332288366E+02  0.87842414653E+02  0.00000000000E+00 0.  1.
         22    1    3    3    0    0  0.32128612661E+02 -0.11693627026E+03 -0.13250444528E+03  0.17962117657E+03  0.00000000000E+00 0.  1.
</event>
<event>
 7    1  0.6607887E-006  0.5169156E+02  0.7818608E-02  0.1476044E+00
          2   -1    0    0  502    0  0.00000000000E+00  0.00000000000E+00  0.98381057819E+03  0.98381057819E+03  0.00000000000E+00 0. -1.
          1   -1    0    0  501    0 -0.00000000000E+00 -0.00000000000E+00 -0.14101250458E+03  0.14101250458E+03  0.00000000000E+00 0. -1.
         25    2    1    2    0    0  0.35855305001E+02  0.38984076363E+02  0.14992243886E+03  0.20225022644E+03  0.12499222102E+03 0.  0.
          2    1    1    2  501    0  0.55196369829E+00 -0.52115983642E+02 -0.10844444554E+03  0.12031865268E+03  0.00000000000E+00 0. -1.
          1    1    1    2  502    0 -0.36407268699E+02  0.13131907279E+02  0.80132008029E+03  0.80225420365E+03  0.00000000000E+00 0. -1.
         22    1    3    3    0    0  0.46532581882E+02  0.28988585807E+02  0.33242166594E+01  0.54924217793E+02  0.00000000000E+00 0.  1.
         22    1    3    3    0    0 -0.10677276882E+02  0.99954905558E+01  0.14659822220E+03  0.14732600865E+03  0.00000000000E+00 0.  1.
</event>
<event>
 7    1  0.6607887E-006  0.3972561E+02  0.7818608E-02  0.1569083E+00
          2   -1    0    0  502    0  0.00000000000E+00  0.00000000000E+00  0.30676333427E+03  0.30676333427E+03  0.00000000000E+00 0. -1.
          1   -1    0    0  501    0 -0.00000000000E+00 -0.00000000000E+00 -0.11554524954E+03  0.11554524954E+03  0.00000000000E+00 0. -1.
         25    2    1    2    0    0  0.14624955706E+02  0.16116424902E+02 -0.28054763003E+02  0.12992880155E+03  0.12498317993E+03 0.  0.
          2    1    1    2  501    0 -0.13612419282E+02 -0.43174045677E+02 -0.21481664917E+02  0.50107465576E+02  0.00000000000E+00 0. -1.
          1    1    1    2  502    0 -0.10125364240E+01  0.27057620775E+02  0.24075451265E+03  0.24227231669E+03  0.00000000000E+00 0. -1.
         22    1    3    3    0    0  0.99075372399E+01  0.25877589865E+02 -0.75936973288E+02  0.80834601895E+02  0.00000000000E+00 0.  1.
         22    1    3    3    0    0  0.47174184662E+01 -0.97611649626E+01  0.47882210285E+02  0.49094199660E+02  0.00000000000E+00 0.  1.
</event>
<event>
 7    1  0.6607887E-006  0.7550096E+02  0.7818608E-02  0.1396533E+00
          2   -1    0    0  502    0  0.00000000000E+00  0.00000000000E+00  0.79370906807E+03  0.79370906807E+03  0.00000000000E+00 0. -1.
          1   -1    0    0  501    0 -0.00000000000E+00 -0.00000000000E+00 -0.47824812427E+03  0.47824812427E+03  0.00000000000E+00 0. -1.
         25    2    1    2    0    0 -0.26356535620E+01  0.35591549165E+02 -0.11050302192E+03  0.17061464445E+03  0.12499893603E+03 0.  0.
          2    1    1    2  501    0 -0.12414000730E+02 -0.81357090951E+02 -0.33189876091E+03  0.34195010039E+03  0.00000000000E+00 0. -1.
          1    1    1    2  502    0  0.15049654292E+02  0.45765541786E+02  0.75786272663E+03  0.75939244750E+03  0.00000000000E+00 0. -1.
         22    1    3    3    0    0  0.14965610095E+02  0.20113099418E+02  0.23628763133E+02  0.34450322218E+02  0.00000000000E+00 0.  1.
         22    1    3    3    0    0 -0.17601263657E+02  0.15478449747E+02 -0.13413178505E+03  0.13616432224E+03  0.00000000000E+00 0.  1.
</event>
<event>
 7    1  0.6607887E-006  0.1416847E+03  0.7818608E-02  0.1348002E+00
          2   -1    0    0  502    0  0.00000000000E+00  0.00000000000E+00  0.70851234694E+03  0.70851234694E+03  0.00000000000E+00 0. -1.
          1   -1    0    0  501    0 -0.00000000000E+00 -0.00000000000E+00 -0.50605537013E+03  0.50605537013E+03  0.00000000000E+00 0. -1.
         25    2    1    2    0    0 -0.33142201566E+02  0.10536725815E+03 -0.50208120898E+02  0.17417874256E+03  0.12496685297E+03 0.  0.
          2    1    1    2  501    0  0.44962715785E+02 -0.14181601667E+03 -0.37921185991E+03  0.40735127727E+03  0.00000000000E+00 0. -1.
          1    1    1    2  502    0 -0.11820514219E+02  0.36448758528E+02  0.63187695762E+03  0.63303769724E+03  0.00000000000E+00 0. -1.
         22    1    3    3    0    0  0.46694502419E+02  0.30549258576E+02 -0.28400592365E+02  0.62611719370E+02  0.00000000000E+00 0.  1.
         22    1    3    3    0    0 -0.79836703985E+02  0.74817999570E+02 -0.21807528533E+02  0.11156702319E+03  0.00000000000E+00 0.  1.
</event>
<event>
 7    1  0.6607887E-006  0.4707995E+02  0.7818608E-02  0.1574594E+00
          2   -1    0    0  502    0  0.00000000000E+00  0.00000000000E+00  0.11587557558E+04  0.11587557558E+04  0.00000000000E+00 0. -1.
          1   -1    0    0  501    0 -0.00000000000E+00 -0.00000000000E+00 -0.27976190155E+03  0.27976190155E+03  0.00000000000E+00 0. -1.
         25    2    1    2    0    0  0.60326454422E+01  0.67452714531E+02 -0.12381708684E+02  0.14270534227E+03  0.12500098598E+03 0.  0.
          2    1    1    2  501    0 -0.80682211094E+01 -0.20547301748E+02 -0.20111026112E+03  0.20231812803E+03  0.00000000000E+00 0. -1.
          1    1    1    2  502    0  0.20355756672E+01 -0.46905412783E+02  0.10924858241E+04  0.10934941871E+04  0.00000000000E+00 0. -1.
         22    1    3    3    0    0  0.56331660832E+02 -0.18001815607E+01 -0.10812351373E+01  0.56370787959E+02  0.00000000000E+00 0.  1.
         22    1    3    3    0    0 -0.50299015390E+02  0.69252896092E+02 -0.11300473547E+02  0.86334554314E+02  0.00000000000E+00 0.  1.
</event>
<event>
 7    1  0.6607887E-006  0.6431459E+02  0.7818608E-02  0.1514429E+00
          2   -1    0    0  502    0  0.00000000000E+00  0.00000000000E+00  0.17813902454E+04  0.17813902454E+04  0.00000000000E+00 0. -1.
          1   -1    0    0  501    0 -0.00000000000E+00 -0.00000000000E+00 -0.53406398434E+03  0.53406398434E+03  0.00000000000E+00 0. -1.
         25    2    1    2    0    0  0.77303955262E+02  0.34625187820E+02 -0.34458614165E+03  0.37621727964E+03  0.12500010939E+03 0.  0.
          2    1    1    2  501    0 -0.15080941727E+02 -0.18480522118E+02 -0.17225503465E+03  0.17389871036E+03  0.00000000000E+00 0. -1.
          1    1    1    2  502    0 -0.62223013535E+02 -0.16144665702E+02  0.17641674374E+04  0.17653382398E+04  0.00000000000E+00 0. -1.
         22    1    3    3    0    0  0.81257854273E+02  0.25029061847E+02 -0.99367827303E+02  0.13077942469E+03  0.00000000000E+00 0. -1.
         22    1    3    3    0    0 -0.39538990117E+01  0.95961259727E+01 -0.24521831435E+03  0.24543785495E+03  0.00000000000E+00 0. -1.
</event>
<event>
 7    1  0.6607887E-006  0.2108054E+03  0.7818608E-02  0.1323635E+00
          2   -1    0    0  502    0  0.00000000000E+00  0.00000000000E+00  0.74141024387E+03  0.74141024387E+03  0.00000000000E+00 0. -1.
          1   -1    0    0  501    0 -0.00000000000E+00 -0.00000000000E+00 -0.35162070274E+03  0.35162070274E+03  0.00000000000E+00 0. -1.
         25    2    1    2    0    0 -0.16665571199E+03 -0.86755044063E+02  0.10264955684E+03  0.24791590734E+03  0.12499920633E+03 0.  0.
          2    1    1    2  501    0 -0.31768571270E+02 -0.22732601457E+01 -0.25708175747E+03  0.25904717689E+03  0.00000000000E+00 0. -1.
          1    1    1    2  502    0  0.19842428326E+03  0.89028304209E+02  0.54422174175E+03  0.58606786239E+03  0.00000000000E+00 0. -1.
         22    1    3    3    0    0 -0.52184403410E+02  0.28800168612E+02  0.91503180062E+01  0.60302487436E+02  0.00000000000E+00 0. -1.
         22    1    3    3    0    0 -0.11447130858E+03 -0.11555521267E+03  0.93499238838E+02  0.18761341990E+03  0.00000000000E+00 0. -1.
</event>
<event>
 7    1  0.6607887E-006  0.9361304E+02  0.7818608E-02  0.1422601E+00
          2   -1    0    0  502    0  0.00000000000E+00  0.00000000000E+00  0.39291217225E+03  0.39291217225E+03  0.00000000000E+00 0. -1.
          1   -1    0    0  501    0 -0.00000000000E+00 -0.00000000000E+00 -0.12274914593E+03  0.12274914593E+03  0.00000000000E+00 0. -1.
         25    2    1    2    0    0  0.21060713174E+02  0.92758752888E+02  0.27088852668E+02  0.15939330413E+03  0.12499871834E+03 0.  0.
          2    1    1    2  501    0 -0.31692949285E+02  0.62444152665E+00 -0.43983320614E+02  0.54215915134E+02  0.00000000000E+00 0. -1.
          1    1    1    2  502    0  0.10632236111E+02 -0.93383194415E+02  0.28705749426E+03  0.30205209891E+03  0.00000000000E+00 0. -1.
         22    1    3    3    0    0  0.11641861387E+02 -0.29382372958E+02 -0.67170717942E+01  0.32310614830E+02  0.00000000000E+00 0.  1.
         22    1    3    3    0    0  0.94188517871E+01  0.12214112585E+03  0.33805924462E+02  0.12708268930E+03  0.00000000000E+00 0.  1.
</event>
<event>
 7    1  0.6607887E-006  0.8742449E+02  0.7818608E-02  0.1441339E+00
          2   -1    0    0  502    0  0.00000000000E+00  0.00000000000E+00  0.24395903741E+04  0.24395903741E+04  0.00000000000E+00 0. -1.
          1   -1    0    0  501    0 -0.00000000000E+00 -0.00000000000E+00 -0.49597829518E+02  0.49597829518E+02  0.00000000000E+00 0. -1.
         25    2    1    2    0    0 -0.12970261071E+01  0.62599967839E+02  0.61742097949E+03  0.63305159400E+03  0.12500086601E+03 0.  0.
          2    1    1    2  501    0 -0.12801958623E+02 -0.88467291367E+02  0.62904538198E+01  0.89609829794E+02  0.00000000000E+00 0. -1.
          1    1    1    2  502    0  0.14098984730E+02  0.25867323528E+02  0.17662811113E+04  0.17665267798E+04  0.00000000000E+00 0. -1.
         22    1    3    3    0    0 -0.61093401720E+02  0.14635453112E+02  0.25668995068E+03  0.26426564477E+03  0.00000000000E+00 0. -1.
         22    1    3    3    0    0  0.59796375613E+02  0.47964514727E+02  0.36073102880E+03  0.36878594923E+03  0.00000000000E+00 0. -1.
</event>
<event>
 7    1  0.6607887E-006  0.3685913E+03  0.7818608E-02  0.1284367E+00
          2   -1    0    0  502    0  0.00000000000E+00  0.00000000000E+00  0.91402066484E+03  0.91402066484E+03  0.00000000000E+00 0. -1.
          1   -1    0    0  501    0 -0.00000000000E+00 -0.00000000000E+00 -0.40927269779E+03  0.40927269779E+03  0.00000000000E+00 0. -1.
         25    2    1    2    0    0 -0.73675987735E+02  0.38016048292E+03  0.16492662943E+03  0.43906325989E+03  0.12500243653E+03 0.  0.
          2    1    1    2  501    0  0.18590891783E+01 -0.26036963102E+02 -0.21802637649E+03  0.21958342493E+03  0.00000000000E+00 0. -1.
          1    1    1    2  502    0  0.71816898557E+02 -0.35412351982E+03  0.55784771410E+03  0.66464667782E+03  0.00000000000E+00 0. -1.
         22    1    3    3    0    0  0.25542718746E+02  0.54717939259E+02 -0.12922206572E+01  0.60399943641E+02  0.00000000000E+00 0.  1.
         22    1    3    3    0    0 -0.99218706482E+02  0.32544254367E+03  0.16621885009E+03  0.37866331624E+03  0.00000000000E+00 0.  1.
</event>
<event>
 7    1  0.6607887E-006  0.3205558E+03  0.7818608E-02  0.1202710E+00
          2   -1    0    0  502    0  0.00000000000E+00  0.00000000000E+00  0.19828991163E+03  0.19828991163E+03  0.00000000000E+00 0. -1.
          1   -1    0    0  501    0 -0.00000000000E+00 -0.00000000000E+00 -0.23952729115E+04  0.23952729115E+04  0.00000000000E+00 0. -1.
         25    2    1    2    0    0 -0.36893367808E+03  0.10455239182E+01 -0.45783615436E+03  0.60112595533E+03  0.12500127194E+03 0.  0.
          2    1    1    2  501    0  0.65536328394E+02 -0.19965924547E+02 -0.16816689276E+04  0.16830638819E+04  0.00000000000E+00 0. -1.
          1    1    1    2  502    0  0.30339734968E+03  0.18920400628E+02 -0.57477917886E+02  0.30937298589E+03  0.00000000000E+00 0. -1.
         22    1    3    3    0    0 -0.25107981052E+03  0.47794317440E+02 -0.24908000167E+03  0.35688403615E+03  0.00000000000E+00 0. -1.
         22    1    3    3    0    0 -0.11785386756E+03 -0.46748793522E+02 -0.20875615270E+03  0.24424191918E+03  0.00000000000E+00 0. -1.
</event>
<event>
 7    1  0.6607887E-006  0.7142167E+02  0.7818608E-02  0.1428138E+00
          2   -1    0    0  502    0  0.00000000000E+00  0.00000000000E+00  0.12698660220E+04  0.12698660220E+04  0.00000000000E+00 0. -1.
          1   -1    0    0  501    0 -0.00000000000E+00 -0.00000000000E+00 -0.33533010886E+03  0.33533010886E+03  0.00000000000E+00 0. -1.
         25    2    1    2    0    0 -0.53245334887E+02 -0.81567221329E+01  0.49708196442E+03  0.51538200489E+03  0.12500613508E+03 0.  0.
          2    1    1    2  501    0 -0.18088644452E+02  0.35485144343E+02 -0.32304356275E+03  0.32548968948E+03  0.00000000000E+00 0. -1.
          1    1    1    2  502    0  0.71333979339E+02 -0.27328422210E+02  0.76049751150E+03  0.76432443652E+03  0.00000000000E+00 0. -1.
         22    1    3    3    0    0 -0.74437343042E+02 -0.22450400986E+02  0.47582845256E+03  0.48213862613E+03  0.00000000000E+00 0. -1.
         22    1    3    3    0    0  0.21192008155E+02  0.14293678853E+02  0.21253511862E+02  0.33243378758E+02  0.00000000000E+00 0. -1.
</event>
<event>
 7    1  0.6607887E-006  0.6291259E+02  0.7818608E-02  0.1449473E+00
          2   -1    0    0  502    0  0.00000000000E+00  0.00000000000E+00  0.61879067952E+03  0.61879067952E+03  0.00000000000E+00 0. -1.
          1   -1    0    0  501    0 -0.00000000000E+00 -0.00000000000E+00 -0.61015277710E+03  0.61015277710E+03  0.00000000000E+00 0. -1.
         25    2    1    2    0    0  0.80089957349E+02 -0.62888808294E+01 -0.13645579489E+02  0.14921457185E+03  0.12499934129E+03 0.  0.
          2    1    1    2  501    0 -0.27147232042E+02 -0.27358968801E+02 -0.52623021838E+03  0.52763977117E+03  0.00000000000E+00 0. -1.
          1    1    1    2  502    0 -0.52942725307E+02  0.33647849631E+02  0.54851370030E+03  0.55208911360E+03  0.00000000000E+00 0. -1.
         22    1    3    3    0    0  0.35995305218E+02  0.45092954923E+02 -0.46361527832E+02  0.74016402536E+02  0.00000000000E+00 0.  1.
         22    1    3    3    0    0  0.44094652132E+02 -0.51381835752E+02  0.32715948343E+02  0.75198169312E+02  0.00000000000E+00 0.  1.
</event>
<event>
 7    1  0.6607887E-006  0.6609526E+02  0.7818608E-02  0.1432789E+00
          2   -1    0    0  502    0  0.00000000000E+00  0.00000000000E+00  0.27563485482E+04  0.27563485482E+04  0.00000000000E+00 0. -1.
          1   -1    0    0  501    0 -0.00000000000E+00 -0.00000000000E+00 -0.15421340630E+03  0.15421340630E+03  0.00000000000E+00 0. -1.
         25    2    1    2    0    0  0.77927826755E+02  0.67011556936E+02  0.82086791794E+02  0.18146941282E+03  0.12501844446E+03 0.  0.
          2    1    1    2  501    0 -0.39187163307E+02 -0.13809419350E+02 -0.99963368900E+02  0.10825437152E+03  0.00000000000E+00 0. -1.
          1    1    1    2  502    0 -0.38740663448E+02 -0.53202137587E+02  0.26200117190E+04  0.26208381702E+04  0.00000000000E+00 0. -1.
         22    1    3    3    0    0  0.46680123005E+02  0.61795937192E+02 -0.15402377943E+02  0.78962047741E+02  0.00000000000E+00 0. -1.
         22    1    3    3    0    0  0.31247703750E+02  0.52156197442E+01  0.97489169737E+02  0.10250736508E+03  0.00000000000E+00 0. -1.
</event>
<event>
 7    1  0.6607887E-006  0.4467487E+02  0.7818608E-02  0.1479670E+00
          2   -1    0    0  502    0  0.00000000000E+00  0.00000000000E+00  0.71735191001E+03  0.71735191001E+03  0.00000000000E+00 0. -1.
          1   -1    0    0  501    0 -0.00000000000E+00 -0.00000000000E+00 -0.20513265792E+03  0.20513265792E+03  0.00000000000E+00 0. -1.
         25    2    1    2    0    0  0.13816265496E+02  0.23488616917E+01  0.34270297654E+03  0.36505778322E+03  0.12500179444E+03 0.  0.
          2    1    1    2  501    0  0.22175399333E+02 -0.37593454865E+02 -0.18971995984E+03  0.19467583144E+03  0.00000000000E+00 0. -1.
          1    1    1    2  502    0 -0.35991664829E+02  0.35244593173E+02  0.35923623539E+03  0.36275095328E+03  0.00000000000E+00 0. -1.
         22    1    3    3    0    0  0.18536666018E+01 -0.15626376132E+01  0.35033191264E+03  0.35034030160E+03  0.00000000000E+00 0.  1.
         22    1    3    3    0    0  0.11962598894E+02  0.39114993049E+01 -0.76289360937E+01  0.14717481613E+02  0.00000000000E+00 0.  1.
</event>
<event>
 7    1  0.6607887E-006  0.4031932E+02  0.7818608E-02  0.1526660E+00
          2   -1    0    0  502    0  0.00000000000E+00  0.00000000000E+00  0.70485520004E+03  0.70485520004E+03  0.00000000000E+00 0. -1.
          1   -1    0    0  501    0 -0.00000000000E+00 -0.00000000000E+00 -0.14992942522E+03  0.14992942522E+03  0.00000000000E+00 0. -1.
         25    2    1    2    0    0  0.13876336433E+02 -0.73694517178E+02  0.65373115281E+03  0.66978725790E+03  0.12500846415E+03 0.  0.
          2    1    1    2  501    0 -0.10330430351E+02  0.38811560852E+02 -0.13123110388E+03  0.13723941734E+03  0.00000000000E+00 0. -1.
          1    1    1    2  502    0 -0.35459060813E+01  0.34882956327E+02  0.32425725880E+02  0.47757950028E+02  0.00000000000E+00 0. -1.
         22    1    3    3    0    0 -0.36107941952E+02 -0.86450005348E+02  0.44752379856E+03  0.45722525868E+03  0.00000000000E+00 0. -1.
         22    1    3    3    0    0  0.49984278384E+02  0.12755488169E+02  0.20620735425E+03  0.21256199922E+03  0.00000000000E+00 0. -1.
</event>
<event>
 7    1  0.6607887E-006  0.6931913E+02  0.7818608E-02  0.1523516E+00
          2   -1    0    0  502    0  0.00000000000E+00  0.00000000000E+00  0.22987120136E+04  0.22987120136E+04  0.00000000000E+00 0. -1.
          1   -1    0    0  501    0 -0.00000000000E+00 -0.00000000000E+00 -0.20924075438E+03  0.20924075438E+03  0.00000000000E+00 0. -1.
         25    2    1    2    0    0  0.27228867481E+02 -0.85090625738E+02  0.13752889013E+03  0.20620565671E+03  0.12499900570E+03 0.  0.
          2    1    1    2  501    0 -0.99476778738E+01  0.18294836375E+02 -0.17372080962E+03  0.17496450219E+03  0.00000000000E+00 0. -1.
          1    1    1    2  502    0 -0.17281189607E+02  0.66795789363E+02  0.21256631787E+04  0.21267826091E+04  0.00000000000E+00 0. -1.
         22    1    3    3    0    0 -0.36486715231E+02 -0.15248279322E+02  0.27769454178E+00  0.39545764943E+02  0.00000000000E+00 0.  1.
         22    1    3    3    0    0  0.63715582712E+02 -0.69842346416E+02  0.13725119559E+03  0.16665989177E+03  0.00000000000E+00 0.  1.
</event>
<event>
 7    1  0.6607887E-006  0.1082280E+03  0.7818608E-02  0.1285929E+00
          2   -1    0    0  502    0  0.00000000000E+00  0.00000000000E+00  0.14912141277E+04  0.14912141277E+04  0.00000000000E+00 0. -1.
          1   -1    0    0  501    0 -0.00000000000E+00 -0.00000000000E+00 -0.92695560986E+03  0.92695560986E+03  0.00000000000E+00 0. -1.
         25    2    1    2    0    0  0.11653422975E+03  0.14012647435E+03 -0.31961491127E+03  0.38857978133E+03  0.12499959774E+03 0.  0.
          2    1    1    2  501    0 -0.78136000410E+02 -0.61391766772E+02 -0.56721829798E+03  0.57585656300E+03  0.00000000000E+00 0. -1.
          1    1    1    2  502    0 -0.38398229337E+02 -0.78734707582E+02  0.14510917270E+04  0.14537333932E+04  0.00000000000E+00 0. -1.
         22    1    3    3    0    0  0.65053104121E+02  0.34120223533E+02 -0.36728230415E+02  0.82128307660E+02  0.00000000000E+00 0. -1.
         22    1    3    3    0    0  0.51481125626E+02  0.10600625082E+03 -0.28288668085E+03  0.30645147367E+03  0.00000000000E+00 0. -1.
</event>
<event>
 7    1  0.6607887E-006  0.1030687E+03  0.7818608E-02  0.1316534E+00
          2   -1    0    0  502    0  0.00000000000E+00  0.00000000000E+00  0.19275606338E+04  0.19275606338E+04  0.00000000000E+00 0. -1.
          1   -1    0    0  501    0 -0.00000000000E+00 -0.00000000000E+00 -0.74889355766E+03  0.74889355766E+03  0.00000000000E+00 0. -1.
         25    2    1    2    0    0  0.16046289268E+03  0.42264464095E+02 -0.40067310130E+01  0.20778257098E+03  0.12499167195E+03 0.  0.
          2    1    1    2  501    0 -0.10046440834E+03 -0.73692935966E+01 -0.63838838612E+03  0.64628719264E+03  0.00000000000E+00 0. -1.
          1    1    1    2  502    0 -0.59998484338E+02 -0.34895170498E+02  0.18210621933E+04  0.18223844279E+04  0.00000000000E+00 0. -1.
         22    1    3    3    0    0  0.59181319456E+02  0.23781768265E+02  0.59161185020E+02  0.86994522169E+02  0.00000000000E+00 0. -1.
         22    1    3    3    0    0  0.10128157322E+03  0.18482695830E+02 -0.63167916034E+02  0.12078804881E+03  0.00000000000E+00 0. -1.
</event>
<event>
 7    1  0.6607887E-006  0.1185871E+03  0.7818608E-02  0.1435586E+00
          2   -1    0    0  502    0  0.00000000000E+00  0.00000000000E+00  0.11442203470E+04  0.11442203470E+04  0.00000000000E+00 0. -1.
          1   -1    0    0  501    0 -0.00000000000E+00 -0.00000000000E+00 -0.12196890338E+03  0.12196890338E+03  0.00000000000E+00 0. -1.
         25    2    1    2    0    0  0.79083295785E+02  0.10513223460E+03  0.36048503201E+03  0.40358476221E+03  0.12499699019E+03 0.  0.
          2    1    1    2  501    0  0.25316025838E+01 -0.22533049692E+02 -0.94649487125E+02  0.97327656671E+02  0.00000000000E+00 0. -1.
          1    1    1    2  502    0 -0.81614898368E+02 -0.82599184905E+02  0.75641589878E+03  0.76527683155E+03  0.00000000000E+00 0. -1.
         22    1    3    3    0    0  0.88604447940E+02  0.80403273935E+02  0.35741410850E+03  0.37690884788E+03  0.00000000000E+00 0. -1.
         22    1    3    3    0    0 -0.95211521551E+01  0.24728960662E+02  0.30709235083E+01  0.26675914323E+02  0.00000000000E+00 0. -1.
</event>
<event>
 7    1  0.6607887E-006  0.4799810E+02  0.7818608E-02  0.1560209E+00
          2   -1    0    0  502    0  0.00000000000E+00  0.00000000000E+00  0.13594565809E+04  0.13594565809E+04  0.00000000000E+00 0. -1.
          1   -1    0    0  501    0 -0.00000000000E+00 -0.00000000000E+00 -0.46907358687E+03  0.46907358687E+03  0.00000000000E+00 0. -1.
         25    2    1    2    0    0 -0.22681603003E+02  0.31146724128E+02  0.29692538900E+03  0.32446104543E+03  0.12500283928E+03 0.  0.
          2    1    1    2  501    0  0.57356163392E+01 -0.47713194514E+02 -0.45390327338E+03  0.45644016893E+03  0.00000000000E+00 0. -1.
          1    1    1    2  502    0  0.16945986664E+02  0.16566470385E+02  0.10473608784E+04  0.10476289535E+04  0.00000000000E+00 0. -1.
         22    1    3    3    0    0 -0.57189343855E+02  0.38313701289E+02  0.83832575582E+02  0.10847332154E+03  0.00000000000E+00 0.  1.
         22    1    3    3    0    0  0.34507740852E+02 -0.71669771604E+01  0.21309281342E+03  0.21598772389E+03  0.00000000000E+00 0.  1.
</event>
<event>
 7    1  0.6607887E-006  0.7357934E+02  0.7818608E-02  0.1374434E+00
          2   -1    0    0  502    0  0.00000000000E+00  0.00000000000E+00  0.20886285606E+04  0.20886285606E+04  0.00000000000E+00 0. -1.
          1   -1    0    0  501    0 -0.00000000000E+00 -0.00000000000E+00 -0.26105681897E+02  0.26105681897E+02  0.00000000000E+00 0. -1.
         25    2    1    2    0    0  0.28783802459E+02  0.28836832657E+02  0.33025194535E+03  0.35545948380E+03  0.12500010803E+03 0.  0.
          2    1    1    2  501    0  0.47828739984E+02 -0.34735933982E+02  0.56589255642E+02  0.81832251174E+02  0.00000000000E+00 0. -1.
          1    1    1    2  502    0 -0.76612542442E+02  0.58991013256E+01  0.16756816777E+04  0.16774425075E+04  0.00000000000E+00 0. -1.
         22    1    3    3    0    0  0.37316440951E+02 -0.40743265978E+02  0.94082532571E+02  0.10910569840E+03  0.00000000000E+00 0. -1.
         22    1    3    3    0    0 -0.85326384925E+01  0.69580098635E+02  0.23616941278E+03  0.24635378540E+03  0.00000000000E+00 0. -1.
</event>
<event>
 7    1  0.6607887E-006  0.3944713E+02  0.7818608E-02  0.1549110E+00
          2   -1    0    0  502    0  0.00000000000E+00  0.00000000000E+00  0.23758388016E+04  0.23758388016E+04  0.00000000000E+00 0. -1.
          1   -1    0    0  501    0 -0.00000000000E+00 -0.00000000000E+00 -0.78172483622E+02  0.78172483622E+02  0.00000000000E+00 0. -1.
         25    2    1    2    0    0  0.19046095131E+02  0.34353754137E+02  0.55636742182E+03  0.57158789872E+03  0.12500033491E+03 0.  0.
          2    1    1    2  501    0 -0.38259860808E+02 -0.10086456492E+02 -0.64872490091E+02  0.75986798355E+02  0.00000000000E+00 0. -1.
          1    1    1    2  502    0  0.19213765677E+02 -0.24267297646E+02  0.18061713862E+04  0.18064365881E+04  0.00000000000E+00 0. -1.
         22    1    3    3    0    0  0.67824661371E+02  0.16798230628E+01  0.22307782867E+03  0.23316673034E+03  0.00000000000E+00 0. -1.
         22    1    3    3    0    0 -0.48778566240E+02  0.32673931074E+02  0.33328959316E+03  0.33842116837E+03  0.00000000000E+00 0. -1.
</event>
<event>
 7    1  0.1042725E-005  0.8646711E+02  0.7818608E-02  0.1321505E+00
          2   -1    0    0  502    0  0.00000000000E+00  0.00000000000E+00  0.11758123979E+04  0.11758123979E+04  0.00000000000E+00 0. -1.
          1   -1    0    0  501    0 -0.00000000000E+00 -0.00000000000E+00 -0.76835649849E+03  0.76835649849E+03  0.00000000000E+00 0. -1.
         25    2    1    2    0    0  0.74441791183E+02 -0.77585054114E+02 -0.18262754124E+03  0.24603934516E+03  0.12498607783E+03 0.  0.
          2    1    1    2  501    0  0.12117400753E+02  0.78202100626E+02 -0.54954744085E+03  0.55521598472E+03  0.00000000000E+00 0. -1.
          1    1    1    2  502    0 -0.86559191936E+02 -0.61704651179E+00  0.11396308815E+04  0.11429135665E+04  0.00000000000E+00 0. -1.
         22    1    3    3    0    0  0.96831553759E+02 -0.19170714047E+02 -0.13585135051E+03  0.16792693505E+03  0.00000000000E+00 0. -1.
         22    1    3    3    0    0 -0.22389762576E+02 -0.58414340068E+02 -0.46776190726E+02  0.78112410106E+02  0.00000000000E+00 0. -1.
</event>
<event>
 7    1  0.6607887E-006  0.1080998E+03  0.7818608E-02  0.1365986E+00
          2   -1    0    0  502    0  0.00000000000E+00  0.00000000000E+00  0.13510918994E+04  0.13510918994E+04  0.00000000000E+00 0. -1.
          1   -1    0    0  501    0 -0.00000000000E+00 -0.00000000000E+00 -0.63798061447E+03  0.63798061447E+03  0.00000000000E+00 0. -1.
         25    2    1    2    0    0 -0.10798052069E+03 -0.82071783560E+02  0.15490318681E+02  0.18508019813E+03  0.12497663487E+03 0.  0.
          2    1    1    2  501    0  0.99222915299E+02  0.39821520646E+02 -0.54764256262E+03  0.55798146638E+03  0.00000000000E+00 0. -1.
          1    1    1    2  502    0  0.87576053872E+01  0.42250262914E+02  0.12452635289E+04  0.12460108494E+04  0.00000000000E+00 0. -1.
         22    1    3    3    0    0 -0.22810870979E+02  0.12002538094E+02  0.47643570916E+02  0.54169240397E+02  0.00000000000E+00 0. -1.
         22    1    3    3    0    0 -0.85169649707E+02 -0.94074321654E+02 -0.32153252235E+02  0.13091095774E+03  0.00000000000E+00 0. -1.
</event>
<event>
 7    1  0.8087860E-006  0.1012721E+03  0.7818608E-02  0.1419930E+00
          2   -1    0    0  502    0  0.00000000000E+00  0.00000000000E+00  0.11007687008E+04  0.11007687008E+04  0.00000000000E+00 0. -1.
          1   -1    0    0  501    0 -0.00000000000E+00 -0.00000000000E+00 -0.94940612354E+03  0.94940612354E+03  0.00000000000E+00 0. -1.
         25    2    1    2    0    0 -0.18721358790E+01  0.12537429859E+03 -0.70250422197E+02  0.19047908110E+03  0.12499975552E+03 0.  0.
          2    1    1    2  501    0  0.15668771801E+02 -0.25475892724E+02 -0.81632368584E+03  0.81687140456E+03  0.00000000000E+00 0. -1.
          1    1    1    2  502    0 -0.13796635922E+02 -0.99898405868E+02  0.10379366853E+04  0.10428243387E+04  0.00000000000E+00 0. -1.
         22    1    3    3    0    0  0.61045283653E+02  0.67629571363E+02 -0.28783887368E+02  0.95544742142E+02  0.00000000000E+00 0. -1.
         22    1    3    3    0    0 -0.62917419532E+02  0.57744727229E+02 -0.41466534828E+02  0.94934338961E+02  0.00000000000E+00 0. -1.
</event>
<event>
 7    1  0.6607887E-006  0.1073363E+03  0.7818608E-02  0.1267504E+00
          2   -1    0    0  502    0  0.00000000000E+00  0.00000000000E+00  0.79644544637E+03  0.79644544637E+03  0.00000000000E+00 0. -1.
          1   -1    0    0  501    0 -0.00000000000E+00 -0.00000000000E+00 -0.15449426307E+04  0.15449426307E+04  0.00000000000E+00 0. -1.
         25    2    1    2    0    0  0.39038724361E+02 -0.71513330430E+02  0.56678052250E+02  0.15961080128E+03  0.12500011139E+03 0.  0.
          2    1    1    2  501    0  0.72129584377E+02  0.79488352015E+02 -0.14870172812E+04  0.14908861357E+04  0.00000000000E+00 0. -1.
          1    1    1    2  502    0 -0.11116830874E+03 -0.79750215854E+01  0.68184204455E+03  0.69089114016E+03  0.00000000000E+00 0. -1.
         22    1    3    3    0    0  0.38144989042E+02  0.98181597238E+00 -0.28594906505E+02  0.47683045516E+02  0.00000000000E+00 0.  1.
         22    1    3    3    0    0  0.89373531883E+00 -0.72495146402E+02  0.85272958756E+02  0.11192775576E+03  0.00000000000E+00 0.  1.
</event>
<event>
 7    1  0.6607887E-006  0.9035797E+02  0.7818608E-02  0.1380469E+00
          2   -1    0    0  502    0  0.00000000000E+00  0.00000000000E+00  0.70613629370E+03  0.70613629370E+03  0.00000000000E+00 0. -1.
          1   -1    0    0  501    0 -0.00000000000E+00 -0.00000000000E+00 -0.61565208205E+03  0.61565208205E+03  0.00000000000E+00 0. -1.
         25    2    1    2    0    0 -0.34970455321E+02 -0.33938672103E+02 -0.49515838286E+02  0.14300788133E+03  0.12499867868E+03 0.  0.
          2    1    1    2  501    0  0.61755545576E+02  0.71107994770E+02 -0.51431314742E+03  0.52286528661E+03  0.00000000000E+00 0. -1.
          1    1    1    2  502    0 -0.26785090255E+02 -0.37169322667E+02  0.65431319736E+03  0.65591520782E+03  0.00000000000E+00 0. -1.
         22    1    3    3    0    0 -0.78646018137E+02 -0.21579761290E+01 -0.18876362807E+02  0.80908405636E+02  0.00000000000E+00 0. -1.
         22    1    3    3    0    0  0.43675562816E+02 -0.31780695974E+02 -0.30639475479E+02  0.62099475694E+02  0.00000000000E+00 0. -1.
</event>
<event>
 7    1  0.6607887E-006  0.9837297E+02  0.7818608E-02  0.1361503E+00
          2   -1    0    0  502    0  0.00000000000E+00  0.00000000000E+00  0.60460742185E+02  0.60460742185E+02  0.00000000000E+00 0. -1.
          1   -1    0    0  501    0 -0.00000000000E+00 -0.00000000000E+00 -0.57493255476E+03  0.57493255476E+03  0.00000000000E+00 0. -1.
         25    2    1    2    0    0  0.46356043428E+02 -0.33718119895E+02 -0.96062489850E+02  0.16776187318E+03  0.12502099729E+03 0.  0.
          2    1    1    2  501    0 -0.81916894265E+02  0.67754207057E+02 -0.40188546825E+03  0.41570775760E+03  0.00000000000E+00 0. -1.
          1    1    1    2  502    0  0.35560850837E+02 -0.34036087162E+02 -0.16523854473E+02  0.51923666167E+02  0.00000000000E+00 0. -1.
         22    1    3    3    0    0  0.82088894920E+02 -0.91967453807E+01 -0.28279931960E+02  0.87309342836E+02  0.00000000000E+00 0. -1.
         22    1    3    3    0    0 -0.35732851492E+02 -0.24521374514E+02 -0.67782557890E+02  0.80452530339E+02  0.00000000000E+00 0. -1.
</event>
<event>
 7    1  0.6607887E-006  0.3318192E+02  0.7818608E-02  0.1581766E+00
          2   -1    0    0  502    0  0.00000000000E+00  0.00000000000E+00  0.21144560231E+03  0.21144560231E+03  0.00000000000E+00 0. -1.
          1   -1    0    0  501    0 -0.00000000000E+00 -0.00000000000E+00 -0.25253986424E+03  0.25253986424E+03  0.00000000000E+00 0. -1.
         25    2    1    2    0    0 -0.49269313542E+01  0.93028822332E+01  0.99191292849E+02  0.15992017497E+03  0.12499892606E+03 0.  0.
          2    1    1    2  501    0 -0.29875915807E+02  0.22508363430E+01 -0.21698855960E+03  0.21904719037E+03  0.00000000000E+00 0. -1.
          1    1    1    2  502    0  0.34802847162E+02 -0.11553718576E+02  0.76703004828E+02  0.85018101209E+02  0.00000000000E+00 0. -1.
         22    1    3    3    0    0  0.21351775258E+01  0.12668263988E+02  0.12872676234E+03  0.12936623686E+03  0.00000000000E+00 0.  1.
         22    1    3    3    0    0 -0.70621088801E+01 -0.33653817551E+01 -0.29535469492E+02  0.30553938114E+02  0.00000000000E+00 0.  1.
</event>
<event>
 7    1  0.6607887E-006  0.5824316E+02  0.7818608E-02  0.1410903E+00
          2   -1    0    0  502    0  0.00000000000E+00  0.00000000000E+00  0.15347196385E+04  0.15347196385E+04  0.00000000000E+00 0. -1.
          1   -1    0    0  501    0 -0.00000000000E+00 -0.00000000000E+00 -0.16176231304E+04  0.16176231304E+04  0.00000000000E+00 0. -1.
         25    2    1    2    0    0  0.23668529982E+02 -0.54123382734E+02  0.45754354114E+03  0.47797771559E+03  0.12500825850E+03 0.  0.
          2    1    1    2  501    0  0.31846170688E+02  0.48800479987E+02 -0.16061485573E+04  0.16072052929E+04  0.00000000000E+00 0. -1.
          1    1    1    2  502    0 -0.55514700670E+02  0.53229027477E+01  0.10657015243E+04  0.10671597604E+04  0.00000000000E+00 0. -1.
         22    1    3    3    0    0  0.13594235335E+02  0.21577241616E+02  0.31701508035E+03  0.31803921419E+03  0.00000000000E+00 0. -1.
         22    1    3    3    0    0  0.10074294647E+02 -0.75700624351E+02  0.14052846079E+03  0.15993850140E+03  0.00000000000E+00 0. -1.
</event>
<event>
 7    1  0.6607887E-006  0.7899197E+02  0.7818608E-02  0.1410397E+00
          2   -1    0    0  502    0  0.00000000000E+00  0.00000000000E+00  0.29854628481E+03  0.29854628481E+03  0.00000000000E+00 0. -1.
          1   -1    0    0  501    0 -0.00000000000E+00 -0.00000000000E+00 -0.34753765614E+03  0.34753765614E+03  0.00000000000E+00 0. -1.
         25    2    1    2    0    0 -0.80934479997E+02  0.15381996526E+02  0.14319691120E+02  0.15039033122E+03  0.12500080920E+03 0.  0.
          2    1    1    2  501    0  0.75242559036E+02  0.25506511389E+02 -0.27179135290E+03  0.28316525974E+03  0.00000000000E+00 0. -1.
          1    1    1    2  502    0  0.56919209606E+01 -0.40888507915E+02  0.20848029044E+03  0.21252834999E+03  0.00000000000E+00 0. -1.
         22    1    3    3    0    0 -0.42738466675E+02 -0.10508543423E+02  0.67123396575E+02  0.80265536729E+02  0.00000000000E+00 0.  1.
         22    1    3    3    0    0 -0.38196013322E+02  0.25890539948E+02 -0.52803705455E+02  0.70124794490E+02  0.00000000000E+00 0.  1.
</event>
<event>
 7    1  0.7339785E-006  0.9922479E+02  0.7818608E-02  0.1326798E+00
          2   -1    0    0  502    0  0.00000000000E+00  0.00000000000E+00  0.24146532027E+04  0.24146532027E+04  0.00000000000E+00 0. -1.
          1   -1    0    0  501    0 -0.00000000000E+00 -0.00000000000E+00 -0.80558155229E+03  0.80558155229E+03  0.00000000000E+00 0. -1.
         25    2    1    2    0    0 -0.98978748404E+02  0.57330786185E+02  0.21924269370E+01  0.16945060937E+03  0.12500036240E+03 0.  0.
          2    1    1    2  501    0  0.99049537516E+02  0.84646886237E+01 -0.71806271552E+03  0.72491139131E+03  0.00000000000E+00 0. -1.
          1    1    1    2  502    0 -0.70789111562E-01 -0.65795474809E+02  0.23249419390E+04  0.23258727543E+04  0.00000000000E+00 0. -1.
         22    1    3    3    0    0 -0.38177575857E+02  0.87871301036E+02 -0.20020548469E+02  0.97876019561E+02  0.00000000000E+00 0. -1.
         22    1    3    3    0    0 -0.60801172547E+02 -0.30540514851E+02  0.22212975405E+02  0.71574589812E+02  0.00000000000E+00 0. -1.
</event>
<event>
 7    1  0.6607887E-006  0.4687530E+02  0.7818608E-02  0.1510843E+00
          2   -1    0    0  502    0  0.00000000000E+00  0.00000000000E+00  0.53498214675E+03  0.53498214675E+03  0.00000000000E+00 0. -1.
          1   -1    0    0  501    0 -0.00000000000E+00 -0.00000000000E+00 -0.11496624071E+04  0.11496624071E+04  0.00000000000E+00 0. -1.
         25    2    1    2    0    0  0.96084986736E+01  0.25611411508E+02 -0.34154948864E+02  0.13244469002E+03  0.12500707075E+03 0.  0.
          2    1    1    2  501    0 -0.42677936041E+02 -0.20076948656E+02 -0.10652616737E+04  0.10663052675E+04  0.00000000000E+00 0. -1.
          1    1    1    2  502    0  0.33069437368E+02 -0.55344628521E+01  0.48473636217E+03  0.48589459636E+03  0.00000000000E+00 0. -1.
         22    1    3    3    0    0  0.33164132188E+02  0.13355118862E+02 -0.75368123550E+02  0.83418061061E+02  0.00000000000E+00 0. -1.
         22    1    3    3    0    0 -0.23555633515E+02  0.12256292647E+02  0.41213174687E+02  0.49026628963E+02  0.00000000000E+00 0. -1.
</event>
<event>
 7    1  0.6607887E-006  0.7626443E+02  0.7818608E-02  0.1358735E+00
          2   -1    0    0  502    0  0.00000000000E+00  0.00000000000E+00  0.29381678991E+03  0.29381678991E+03  0.00000000000E+00 0. -1.
          1   -1    0    0  501    0 -0.00000000000E+00 -0.00000000000E+00 -0.89876433203E+03  0.89876433203E+03  0.00000000000E+00 0. -1.
         25    2    1    2    0    0 -0.29131509141E+02  0.16888285544E+02 -0.40854572385E+02  0.13574782335E+03  0.12499806577E+03 0.  0.
          2    1    1    2  501    0  0.71584321725E+02  0.32317673344E+02 -0.80423086105E+03  0.80805694415E+03  0.00000000000E+00 0. -1.
          1    1    1    2  502    0 -0.42452812584E+02 -0.49205958888E+02  0.24013789131E+03  0.24877635444E+03  0.00000000000E+00 0. -1.
         22    1    3    3    0    0  0.41172138028E+02 -0.13648265253E+02  0.90167005270E+01  0.44302606951E+02  0.00000000000E+00 0. -1.
         22    1    3    3    0    0 -0.70303647169E+02  0.30536550798E+02 -0.49871272912E+02  0.91445216397E+02  0.00000000000E+00 0. -1.
</event>
<event>
 7    1  0.6607887E-006  0.5713539E+02  0.7818608E-02  0.1515015E+00
          2   -1    0    0  502    0  0.00000000000E+00  0.00000000000E+00  0.43598812408E+03  0.43598812408E+03  0.00000000000E+00 0. -1.
          1   -1    0    0  501    0 -0.00000000000E+00 -0.00000000000E+00 -0.67997633747E+02  0.67997633747E+02  0.00000000000E+00 0. -1.
         25    2    1    2    0    0  0.52617301412E+02  0.54433621349E+02  0.28657049022E+03  0.32168158195E+03  0.12499917905E+03 0.  0.
          2    1    1    2  501    0 -0.10062077652E+02 -0.24779324020E+02 -0.41226108252E+02  0.49141146783E+02  0.00000000000E+00 0. -1.
          1    1    1    2  502    0 -0.42555223761E+02 -0.29654297329E+02  0.12264610837E+03  0.13316302909E+03  0.00000000000E+00 0. -1.
         22    1    3    3    0    0  0.54228556549E+02  0.76357556481E+02  0.11318620308E+03  0.14690925548E+03  0.00000000000E+00 0. -1.
         22    1    3    3    0    0 -0.16112551364E+01 -0.21923935132E+02  0.17338428714E+03  0.17477232648E+03  0.00000000000E+00 0. -1.
</event>
<event>
 7    1  0.6607887E-006  0.1003869E+03  0.7818608E-02  0.1322754E+00
          2   -1    0    0  502    0  0.00000000000E+00  0.00000000000E+00  0.20209279759E+03  0.20209279759E+03  0.00000000000E+00 0. -1.
          1   -1    0    0  501    0 -0.00000000000E+00 -0.00000000000E+00 -0.35302565397E+03  0.35302565397E+03  0.00000000000E+00 0. -1.
         25    2    1    2    0    0  0.11137472372E+03  0.11326199266E+03 -0.44387491659E+02  0.20694547665E+03  0.12499429118E+03 0.  0.
          2    1    1    2  501    0 -0.51389143308E+02 -0.43623622243E+02 -0.20362111229E+03  0.21448874525E+03  0.00000000000E+00 0. -1.
          1    1    1    2  502    0 -0.59985580407E+02 -0.69638370420E+02  0.97075747577E+02  0.13368422966E+03  0.00000000000E+00 0. -1.
         22    1    3    3    0    0  0.12128779930E+03  0.13258931797E+03 -0.44890769150E+02  0.18521835399E+03  0.00000000000E+00 0. -1.
         22    1    3    3    0    0 -0.99130755822E+01 -0.19327325309E+02  0.50327749082E+00  0.21727122666E+02  0.00000000000E+00 0. -1.
</event>
<event>
 7    1  0.6607887E-006  0.4070183E+02  0.7818608E-02  0.1511535E+00
          2   -1    0    0  502    0  0.00000000000E+00  0.00000000000E+00  0.25896189264E+04  0.25896189264E+04  0.00000000000E+00 0. -1.
          1   -1    0    0  501    0 -0.00000000000E+00 -0.00000000000E+00 -0.81976010328E+01  0.81976010328E+01  0.00000000000E+00 0. -1.
         25    2    1    2    0    0 -0.17325179512E+02 -0.67960906118E+01  0.15973671607E+04  0.16023591433E+04  0.12500651699E+03 0.  0.
          2    1    1    2  501    0  0.14089771595E+02 -0.38185305736E+02  0.75395928578E+02  0.85680717107E+02  0.00000000000E+00 0. -1.
          1    1    1    2  502    0  0.32354079168E+01  0.44981396348E+02  0.90865823609E+03  0.90977666705E+03  0.00000000000E+00 0. -1.
         22    1    3    3    0    0 -0.52827858926E+02 -0.78282875099E+01  0.31462082736E+03  0.31912118352E+03  0.00000000000E+00 0.  1.
         22    1    3    3    0    0  0.35502679414E+02  0.10321968981E+01  0.12827463334E+04  0.12832379598E+04  0.00000000000E+00 0.  1.
</event>
<event>
 7    1  0.6607887E-006  0.1330254E+03  0.7818608E-02  0.1413108E+00
          2   -1    0    0  502    0  0.00000000000E+00  0.00000000000E+00  0.43557852829E+04  0.43557852829E+04  0.00000000000E+00 0. -1.
          1   -1    0    0  501    0 -0.00000000000E+00 -0.00000000000E+00 -0.10922505156E+03  0.10922505156E+03  0.00000000000E+00 0. -1.
         25    2    1    2    0    0 -0.10211625140E+03  0.92620999990E+02  0.59449900958E+03  0.62294349326E+03  0.12499257965E+03 0.  0.
          2    1    1    2  501    0 -0.10167289140E+02 -0.21742584445E+02 -0.92290924564E+02  0.95361042904E+02  0.00000000000E+00 0. -1.
          1    1    1    2  502    0  0.11228354054E+03 -0.70878415544E+02  0.37443521464E+04  0.37467057983E+04  0.00000000000E+00 0. -1.
         22    1    3    3    0    0 -0.12266899304E+02  0.94212838140E+02  0.34098617510E+03  0.35397472692E+03  0.00000000000E+00 0. -1.
         22    1    3    3    0    0 -0.89849352101E+02 -0.15918381501E+01  0.25351283447E+03  0.26896876634E+03  0.00000000000E+00 0. -1.
</event>
<event>
 7    1  0.6607887E-006  0.4042593E+02  0.7818608E-02  0.1571158E+00
          2   -1    0    0  502    0  0.00000000000E+00  0.00000000000E+00  0.46741819349E+03  0.46741819349E+03  0.00000000000E+00 0. -1.
          1   -1    0    0  501    0 -0.00000000000E+00 -0.00000000000E+00 -0.53920165790E+03  0.53920165790E+03  0.00000000000E+00 0. -1.
         25    2    1    2    0    0  0.15947921552E+02  0.89686554237E+01 -0.52367907466E+02  0.13675696062E+03  0.12500118225E+03 0.  0.
          2    1    1    2  501    0  0.24729501907E+02 -0.88473533766E+01 -0.44327680471E+03  0.44405421912E+03  0.00000000000E+00 0. -1.
          1    1    1    2  502    0 -0.40677423460E+02 -0.12130204705E+00  0.42386124777E+03  0.42580867165E+03  0.00000000000E+00 0. -1.
         22    1    3    3    0    0  0.64294188344E+02 -0.21512020478E+02 -0.18312281006E+02  0.70227126636E+02  0.00000000000E+00 0.  1.
         22    1    3    3    0    0 -0.48346266792E+02  0.30480675901E+02 -0.34055626459E+02  0.66529833982E+02  0.00000000000E+00 0.  1.
</event>
<event>
 7    1  0.6607887E-006  0.1089134E+03  0.7818608E-02  0.1403992E+00
          2   -1    0    0  502    0  0.00000000000E+00  0.00000000000E+00  0.42890393465E+03  0.42890393465E+03  0.00000000000E+00 0. -1.
          1   -1    0    0  501    0 -0.00000000000E+00 -0.00000000000E+00 -0.12487674807E+04  0.12487674807E+04  0.00000000000E+00 0. -1.
         25    2    1    2    0    0 -0.19297536089E+01 -0.89105378607E+02 -0.37188401116E+03  0.40232665026E+03  0.12500209321E+03 0.  0.
          2    1    1    2  501    0 -0.26899251746E+02 -0.16357289728E+02 -0.85414325929E+03  0.85472325232E+03  0.00000000000E+00 0. -1.
          1    1    1    2  502    0  0.28829005355E+02  0.10546266833E+03  0.40616372442E+03  0.42062151276E+03  0.00000000000E+00 0. -1.
         22    1    3    3    0    0 -0.33268414962E+02 -0.67599209044E+02 -0.87728838382E+02  0.11564077819E+03  0.00000000000E+00 0.  1.
         22    1    3    3    0    0  0.31338661353E+02 -0.21506169563E+02 -0.28415517278E+03  0.28668587207E+03  0.00000000000E+00 0.  1.
</event>
<event>
 7    1  0.6607887E-006  0.1095683E+03  0.7818608E-02  0.1286411E+00
          2   -1    0    0  502    0  0.00000000000E+00  0.00000000000E+00  0.14113404007E+04  0.14113404007E+04  0.00000000000E+00 0. -1.
          1   -1    0    0  501    0 -0.00000000000E+00 -0.00000000000E+00 -0.42136395375E+02  0.42136395375E+02  0.00000000000E+00 0. -1.
         25    2    1    2    0    0 -0.17255771362E+03  0.19703417652E+02  0.69185313274E+03  0.72418957437E+03  0.12500157256E+03 0.  0.
          2    1    1    2  501    0  0.98024804394E+02  0.23471363563E+02  0.88392015868E+02  0.13406310325E+03  0.00000000000E+00 0. -1.
          1    1    1    2  502    0  0.74532909221E+02 -0.43174781216E+02  0.58895885668E+03  0.59522411842E+03  0.00000000000E+00 0. -1.
         22    1    3    3    0    0 -0.87305633230E+02  0.48951977425E+02  0.52590409640E+03  0.53534445762E+03  0.00000000000E+00 0. -1.
         22    1    3    3    0    0 -0.85252080385E+02 -0.29248559773E+02  0.16594903634E+03  0.18884511675E+03  0.00000000000E+00 0. -1.
</event>
<event>
 7    1  0.6607887E-006  0.4238428E+02  0.7818608E-02  0.1500644E+00
          2   -1    0    0  502    0  0.00000000000E+00  0.00000000000E+00  0.77398257105E+03  0.77398257105E+03  0.00000000000E+00 0. -1.
          1   -1    0    0  501    0 -0.00000000000E+00 -0.00000000000E+00 -0.48446184931E+02  0.48446184931E+02  0.00000000000E+00 0. -1.
         25    2    1    2    0    0 -0.48167514633E+01 -0.43963907929E+01  0.29566207438E+03  0.32106317179E+03  0.12499187457E+03 0.  0.
          2    1    1    2  501    0 -0.14196330947E+02 -0.37130724270E+02 -0.23178810420E+02  0.46016124887E+02  0.00000000000E+00 0. -1.
          1    1    1    2  502    0  0.19013082410E+02  0.41527115062E+02  0.45305312216E+03  0.45534945931E+03  0.00000000000E+00 0. -1.
         22    1    3    3    0    0 -0.59101154623E+02 -0.74118304306E+01  0.87015334434E+02  0.10544927755E+03  0.00000000000E+00 0.  1.
         22    1    3    3    0    0  0.54284403160E+02  0.30154396377E+01  0.20864673994E+03  0.21561389425E+03  0.00000000000E+00 0.  1.
</event>
<event>
 7    1  0.6607887E-006  0.1219797E+03  0.7818608E-02  0.1251061E+00
          2   -1    0    0  502    0  0.00000000000E+00  0.00000000000E+00  0.14068648174E+04  0.14068648174E+04  0.00000000000E+00 0. -1.
          1   -1    0    0  501    0 -0.00000000000E+00 -0.00000000000E+00 -0.70885194417E+03  0.70885194417E+03  0.00000000000E+00 0. -1.
         25    2    1    2    0    0  0.96947053459E+02  0.42088506910E+02  0.69632160484E+03  0.71530330498E+03  0.12499946865E+03 0.  0.
          2    1    1    2  501    0 -0.79197801557E+02  0.92772656954E+02 -0.68734216625E+03  0.69808187997E+03  0.00000000000E+00 0. -1.
          1    1    1    2  502    0 -0.17749251902E+02 -0.13486116386E+03  0.68903343468E+03  0.70233157666E+03  0.00000000000E+00 0. -1.
         22    1    3    3    0    0 -0.15854292101E+02  0.13722019035E+01  0.31868214030E+03  0.31907921910E+03  0.00000000000E+00 0. -1.
         22    1    3    3    0    0  0.11280134556E+03  0.40716305007E+02  0.37763946454E+03  0.39622408588E+03  0.00000000000E+00 0. -1.
</event>
<event>
 7    1  0.6607887E-006  0.1382042E+03  0.7818608E-02  0.1404135E+00
          2   -1    0    0  502    0  0.00000000000E+00  0.00000000000E+00  0.47266381297E+03  0.47266381297E+03  0.00000000000E+00 0. -1.
          1   -1    0    0  501    0 -0.00000000000E+00 -0.00000000000E+00 -0.10811775056E+03  0.10811775056E+03  0.00000000000E+00 0. -1.
         25    2    1    2    0    0 -0.14170722394E+03 -0.58812139511E+02  0.17856630346E+03  0.26655314931E+03  0.12499940641E+03 0.  0.
          2    1    1    2  501    0  0.24635128754E+02 -0.26948053761E+01 -0.43099859519E+02  0.49716691717E+02  0.00000000000E+00 0. -1.
          1    1    1    2  502    0  0.11707209519E+03  0.61506944887E+02  0.22907961847E+03  0.26451172250E+03  0.00000000000E+00 0. -1.
         22    1    3    3    0    0 -0.14872488936E+03 -0.60400657079E+02  0.10317740169E+03  0.19082166625E+03  0.00000000000E+00 0.  1.
         22    1    3    3    0    0  0.70176654163E+01  0.15885175674E+01  0.75388901774E+02  0.75731483061E+02  0.00000000000E+00 0.  1.
</event>
<event>
 7    1  0.6607887E-006  0.8586519E+02  0.7818608E-02  0.1381726E+00
          2   -1    0    0  502    0  0.00000000000E+00  0.00000000000E+00  0.93034959437E+03  0.93034959437E+03  0.00000000000E+00 0. -1.
          1   -1    0    0  501    0 -0.00000000000E+00 -0.00000000000E+00 -0.16912121588E+03  0.16912121588E+03  0.00000000000E+00 0. -1.
         25    2    1    2    0    0  0.10419276278E+03 -0.81534336703E+02 -0.60990160797E+02  0.19195889991E+03  0.12499775863E+03 0.  0.
          2    1    1    2  501    0 -0.33898601555E+02  0.33588319387E+02 -0.26468628964E+02  0.54569943245E+02  0.00000000000E+00 0. -1.
          1    1    1    2  502    0 -0.70294161229E+02  0.47946017317E+02  0.84868716825E+03  0.85294196709E+03  0.00000000000E+00 0. -1.
         22    1    3    3    0    0  0.10087221838E+03 -0.86547333328E+02 -0.22698783358E+01  0.13293155267E+03  0.00000000000E+00 0.  1.
         22    1    3    3    0    0  0.33205444038E+01  0.50129966244E+01 -0.58720282461E+02  0.59027347243E+02  0.00000000000E+00 0.  1.
</event>
<event>
 7    1  0.6607887E-006  0.4209490E+02  0.7818608E-02  0.1571159E+00
          2   -1    0    0  502    0  0.00000000000E+00  0.00000000000E+00  0.28741375370E+04  0.28741375370E+04  0.00000000000E+00 0. -1.
          1   -1    0    0  501    0 -0.00000000000E+00 -0.00000000000E+00 -0.38463311396E+02  0.38463311396E+02  0.00000000000E+00 0. -1.
         25    2    1    2    0    0 -0.21233409865E+02  0.31430614018E+01  0.13852313127E+04  0.13910250853E+04  0.12499704694E+03 0.  0.
          2    1    1    2  501    0 -0.22668713526E+02 -0.11060176057E+02 -0.30716075307E+02  0.39745129885E+02  0.00000000000E+00 0. -1.
          1    1    1    2  502    0  0.43902123391E+02  0.79171146554E+01  0.14811589882E+04  0.14818306332E+04  0.00000000000E+00 0. -1.
         22    1    3    3    0    0 -0.67504110899E+02 -0.24714101434E+02  0.70622777703E+03  0.70987693641E+03  0.00000000000E+00 0.  1.
         22    1    3    3    0    0  0.46270701034E+02  0.27857162836E+02  0.67900353569E+03  0.68114814892E+03  0.00000000000E+00 0.  1.
</event>
<event>
 7    1  0.6607887E-006  0.2261311E+03  0.7818608E-02  0.1364411E+00
          2   -1    0    0  502    0  0.00000000000E+00  0.00000000000E+00  0.70619085960E+03  0.70619085960E+03  0.00000000000E+00 0. -1.
          1   -1    0    0  501    0 -0.00000000000E+00 -0.00000000000E+00 -0.11565823078E+03  0.11565823078E+03  0.00000000000E+00 0. -1.
         25    2    1    2    0    0 -0.72606986425E+02 -0.21281914566E+03  0.34941542669E+03  0.43391181657E+03  0.12499824363E+03 0.  0.
          2    1    1    2  501    0  0.53238927973E+02  0.22067159137E+03  0.10479903863E+03  0.25002634498E+03  0.00000000000E+00 0. -1.
          1    1    1    2  502    0  0.19368058452E+02 -0.78524457020E+01  0.13631816350E+03  0.13791092883E+03  0.00000000000E+00 0. -1.
         22    1    3    3    0    0 -0.19558843339E+02 -0.45881543542E+02  0.84535115249E+01  0.50587807302E+02  0.00000000000E+00 0.  1.
         22    1    3    3    0    0 -0.53048143086E+02 -0.16693760212E+03  0.34096191516E+03  0.38332400926E+03  0.00000000000E+00 0.  1.
</event>
<event>
 7    1  0.6607887E-006  0.5779591E+02  0.7818608E-02  0.1525053E+00
          2   -1    0    0  502    0  0.00000000000E+00  0.00000000000E+00  0.80522356874E+03  0.80522356874E+03  0.00000000000E+00 0. -1.
          1   -1    0    0  501    0 -0.00000000000E+00 -0.00000000000E+00 -0.63654730013E+03  0.63654730013E+03  0.00000000000E+00 0. -1.
         25    2    1    2    0    0 -0.59778472115E+01  0.33015494017E+02  0.11788618009E+02  0.12995877812E+03  0.12499821996E+03 0.  0.
          2    1    1    2  501    0 -0.50066997527E+01  0.24210204790E+02 -0.57604073081E+03  0.57657100570E+03  0.00000000000E+00 0. -1.
          1    1    1    2  502    0  0.10984546964E+02 -0.57225698807E+02  0.73292838141E+03  0.73524108505E+03  0.00000000000E+00 0. -1.
         22    1    3    3    0    0  0.40704178547E+02 -0.25430867363E+02  0.24816670184E+02  0.54031715548E+02  0.00000000000E+00 0.  1.
         22    1    3    3    0    0 -0.46682025758E+02  0.58446361381E+02 -0.13028052175E+02  0.75927062573E+02  0.00000000000E+00 0.  1.
</event>
<event>
 7    1  0.6607887E-006  0.1231540E+03  0.7818608E-02  0.1275786E+00
          2   -1    0    0  502    0  0.00000000000E+00  0.00000000000E+00  0.24663268073E+04  0.24663268073E+04  0.00000000000E+00 0. -1.
          1   -1    0    0  501    0 -0.00000000000E+00 -0.00000000000E+00 -0.32596377695E+02  0.32596377695E+02  0.00000000000E+00 0. -1.
         25    2    1    2    0    0  0.12132072552E+03 -0.85394402326E+02  0.12125602093E+04  0.12279820290E+04  0.12500671992E+03 0.  0.
          2    1    1    2  501    0 -0.42060152787E+02  0.11545968480E+03  0.13929589701E+03  0.18575075286E+03  0.00000000000E+00 0. -1.
          1    1    1    2  502    0 -0.79260572731E+02 -0.30065282471E+02  0.10818743233E+04  0.10851904032E+04  0.00000000000E+00 0. -1.
         22    1    3    3    0    0 -0.69890873581E+01 -0.20871217629E+02  0.32729159548E+02  0.39441766595E+02  0.00000000000E+00 0.  1.
         22    1    3    3    0    0  0.12830981288E+03 -0.64523184697E+02  0.11798310497E+04  0.11885402624E+04  0.00000000000E+00 0.  1.
</event>
<event>
 7    1  0.6607887E-006  0.5082253E+02  0.7818608E-02  0.1526699E+00
          2   -1    0    0  502    0  0.00000000000E+00  0.00000000000E+00  0.13036921898E+04  0.13036921898E+04  0.00000000000E+00 0. -1.
          1   -1    0    0  501    0 -0.00000000000E+00 -0.00000000000E+00 -0.10822134733E+03  0.10822134733E+03  0.00000000000E+00 0. -1.
         25    2    1    2    0    0 -0.60810123701E+02  0.38301114912E+02  0.37889483820E+02  0.14908502780E+03  0.12500354388E+03 0.  0.
          2    1    1    2  501    0  0.11899898210E+02 -0.25134643103E+02 -0.48380456020E+02  0.55803462132E+02  0.00000000000E+00 0. -1.
          1    1    1    2  502    0  0.48910225491E+02 -0.13166471810E+02  0.12059618147E+04  0.12070250472E+04  0.00000000000E+00 0. -1.
         22    1    3    3    0    0  0.35622690612E+02 -0.69078510486E+01  0.18857422754E+02  0.40893726725E+02  0.00000000000E+00 0. -1.
         22    1    3    3    0    0 -0.96432814312E+02  0.45208965961E+02  0.19032061066E+02  0.10819130107E+03  0.00000000000E+00 0. -1.
</event>
<event>
 7    1  0.6607887E-006  0.3987411E+02  0.7818608E-02  0.1549545E+00
          2   -1    0    0  502    0  0.00000000000E+00  0.00000000000E+00  0.71745836899E+03  0.71745836899E+03  0.00000000000E+00 0. -1.
          1   -1    0    0  501    0 -0.00000000000E+00 -0.00000000000E+00 -0.21090383132E+04  0.21090383132E+04  0.00000000000E+00 0. -1.
         25    2    1    2    0    0 -0.33535865924E+02 -0.66270525923E+01  0.21419739491E+03  0.25034616161E+03  0.12499641801E+03 0.  0.
          2    1    1    2  501    0  0.31958976536E+02 -0.23867901316E+02 -0.20902930194E+04  0.20906735661E+04  0.00000000000E+00 0. -1.
          1    1    1    2  502    0  0.15768893880E+01  0.30494953908E+02  0.48451568035E+03  0.48547695445E+03  0.00000000000E+00 0. -1.
         22    1    3    3    0    0  0.21020737614E+01 -0.32934388755E+02  0.20161456653E+03  0.20429764099E+03  0.00000000000E+00 0. -1.
         22    1    3    3    0    0 -0.35637939686E+02  0.26307336163E+02  0.12582828379E+02  0.46048520617E+02  0.00000000000E+00 0. -1.
</event>
<event>
 7    1  0.6607887E-006  0.5838096E+02  0.7818608E-02  0.1422311E+00
          2   -1    0    0  502    0  0.00000000000E+00  0.00000000000E+00  0.38867382820E+04  0.38867382820E+04  0.00000000000E+00 0. -1.
          1   -1    0    0  501    0 -0.00000000000E+00 -0.00000000000E+00 -0.72763229390E+03  0.72763229390E+03  0.00000000000E+00 0. -1.
         25    2    1    2    0    0 -0.12920989403E+01  0.20900023476E+02  0.21578495907E+03  0.25025631996E+03  0.12500638632E+03 0.  0.
          2    1    1    2  501    0  0.49029972287E+02  0.13826748549E+02 -0.70924453790E+03  0.71107167831E+03  0.00000000000E+00 0. -1.
          1    1    1    2  502    0 -0.47737873347E+02 -0.34726772025E+02  0.36525655670E+04  0.36530425777E+04  0.00000000000E+00 0. -1.
         22    1    3    3    0    0  0.54625826921E+02 -0.17755069376E+02  0.11703912085E+03  0.13037399766E+03  0.00000000000E+00 0.  1.
         22    1    3    3    0    0 -0.55917925862E+02  0.38655092852E+02  0.98745838212E+02  0.11988232230E+03  0.00000000000E+00 0.  1.
</event>
<event>
 7    1  0.6607887E-006  0.7652104E+02  0.7818608E-02  0.1358447E+00
          2   -1    0    0  502    0  0.00000000000E+00  0.00000000000E+00  0.28077376063E+03  0.28077376063E+03  0.00000000000E+00 0. -1.
          1   -1    0    0  501    0 -0.00000000000E+00 -0.00000000000E+00 -0.98340616186E+03  0.98340616186E+03  0.00000000000E+00 0. -1.
         25    2    1    2    0    0 -0.68144743333E+01 -0.23003234564E+02  0.53058969299E+02  0.13790259778E+03  0.12500514545E+03 0.  0.
          2    1    1    2  501    0 -0.43201762994E+02  0.64403268703E+02 -0.93363919284E+03  0.93685447949E+03  0.00000000000E+00 0. -1.
          1    1    1    2  502    0  0.50016237327E+02 -0.41400034139E+02  0.17794782231E+03  0.18942284521E+03  0.00000000000E+00 0. -1.
         22    1    3    3    0    0 -0.58906416905E+02  0.16629018073E+02  0.32461649184E+02  0.69283828289E+02  0.00000000000E+00 0.  1.
         22    1    3    3    0    0  0.52091942572E+02 -0.39632252637E+02  0.20597320115E+02  0.68618769487E+02  0.00000000000E+00 0.  1.
</event>
<event>
 7    1  0.6607887E-006  0.2206581E+03  0.7818608E-02  0.1220252E+00
          2   -1    0    0  502    0  0.00000000000E+00  0.00000000000E+00  0.27310179859E+04  0.27310179859E+04  0.00000000000E+00 0. -1.
          1   -1    0    0  501    0 -0.00000000000E+00 -0.00000000000E+00 -0.52895319538E+03  0.52895319538E+03  0.00000000000E+00 0. -1.
         25    2    1    2    0    0 -0.16256972060E+03  0.18739233305E+03  0.13207914454E+04  0.13496893461E+04  0.12500595305E+03 0.  0.
          2    1    1    2  501    0  0.81829383520E+02 -0.20465782800E+03 -0.48959936873E+03  0.53692496350E+03  0.00000000000E+00 0. -1.
          1    1    1    2  502    0  0.80740337078E+02  0.17265494954E+02  0.13708727138E+04  0.13733568716E+04  0.00000000000E+00 0. -1.
         22    1    3    3    0    0 -0.16837640035E+02  0.89253902972E+02  0.28563334417E+03  0.29972683000E+03  0.00000000000E+00 0.  1.
         22    1    3    3    0    0 -0.14573208056E+03  0.98138430079E+02  0.10351581012E+04  0.10499625161E+04  0.00000000000E+00 0.  1.
</event>
<event>
 7    1  0.6607887E-006  0.9454816E+02  0.7818608E-02  0.1294878E+00
          2   -1    0    0  502    0  0.00000000000E+00  0.00000000000E+00  0.79496767706E+03  0.79496767706E+03  0.00000000000E+00 0. -1.
          1   -1    0    0  501    0 -0.00000000000E+00 -0.00000000000E+00 -0.19574001231E+04  0.19574001231E+04  0.00000000000E+00 0. -1.
         25    2    1    2    0    0 -0.35890680851E+02 -0.17031931083E+01  0.41093879167E+02  0.13639799535E+03  0.12499865756E+03 0.  0.
          2    1    1    2  501    0  0.12988109874E+02 -0.93651821883E+02 -0.19051656623E+04  0.19075103028E+04  0.00000000000E+00 0. -1.
          1    1    1    2  502    0  0.22902570977E+02  0.95355014991E+02  0.70163933706E+03  0.70845950198E+03  0.00000000000E+00 0. -1.
         22    1    3    3    0    0 -0.28810869289E+01  0.53221539024E+02  0.48280349655E+02  0.71915401972E+02  0.00000000000E+00 0. -1.
         22    1    3    3    0    0 -0.33009593922E+02 -0.54924732132E+02 -0.71864704887E+01  0.64482593378E+02  0.00000000000E+00 0. -1.
</event>
<event>
 7    1  0.6607887E-006  0.8929605E+02  0.7818608E-02  0.1308883E+00
          2   -1    0    0  502    0  0.00000000000E+00  0.00000000000E+00  0.27705535348E+04  0.27705535348E+04  0.00000000000E+00 0. -1.
          1   -1    0    0  501    0 -0.00000000000E+00 -0.00000000000E+00 -0.14251512585E+02  0.14251512585E+02  0.00000000000E+00 0. -1.
         25    2    1    2    0    0  0.54188521121E+02 -0.29880154262E+00  0.78573950234E+03  0.79746489349E+03  0.12500882250E+03 0.  0.
          2    1    1    2  501    0 -0.77296989750E+01 -0.88960874072E+02  0.28240779818E+03  0.29618904408E+03  0.00000000000E+00 0. -1.
          1    1    1    2  502    0 -0.46458822146E+02  0.89259675615E+02  0.16881547217E+04  0.16911511098E+04  0.00000000000E+00 0. -1.
         22    1    3    3    0    0  0.19408727811E+02  0.58757270687E+02  0.25922275691E+03  0.26650619744E+03  0.00000000000E+00 0. -1.
         22    1    3    3    0    0  0.34779793310E+02 -0.59056072229E+02  0.52651674543E+03  0.53095869605E+03  0.00000000000E+00 0. -1.
</event>
<event>
 7    1  0.6607887E-006  0.6411944E+02  0.7818608E-02  0.1448183E+00
          2   -1    0    0  502    0  0.00000000000E+00  0.00000000000E+00  0.49516707558E+02  0.49516707558E+02  0.00000000000E+00 0. -1.
          1   -1    0    0  501    0 -0.00000000000E+00 -0.00000000000E+00 -0.85617443504E+03  0.85617443504E+03  0.00000000000E+00 0. -1.
         25    2    1    2    0    0  0.71744209992E+02  0.28706807239E+02 -0.31005343177E+03  0.34311757291E+03  0.12500090335E+03 0.  0.
          2    1    1    2  501    0 -0.63038844593E+02  0.84659424922E+01 -0.51589300179E+03  0.51979915103E+03  0.00000000000E+00 0. -1.
          1    1    1    2  502    0 -0.87053653990E+01 -0.37172749732E+02  0.19288706082E+02  0.42774418660E+02  0.00000000000E+00 0. -1.
         22    1    3    3    0    0 -0.98905385200E+00 -0.25311123466E+02 -0.62459973051E+01  0.26089148720E+02  0.00000000000E+00 0.  1.
         22    1    3    3    0    0  0.72733263844E+02  0.54017930705E+02 -0.30380743447E+03  0.31702842419E+03  0.00000000000E+00 0.  1.
</event>
<event>
 7    1  0.6607887E-006  0.1282747E+03  0.7818608E-02  0.1336542E+00
          2   -1    0    0  502    0  0.00000000000E+00  0.00000000000E+00  0.23625171279E+04  0.23625171279E+04  0.00000000000E+00 0. -1.
          1   -1    0    0  501    0 -0.00000000000E+00 -0.00000000000E+00 -0.33235722653E+03  0.33235722653E+03  0.00000000000E+00 0. -1.
         25    2    1    2    0    0  0.81268204011E+02  0.16149042727E+02  0.94468632632E+03  0.95651581527E+03  0.12499974864E+03 0.  0.
          2    1    1    2  501    0 -0.12408274726E+03 -0.34860126098E+02 -0.31331536810E+03  0.33878942789E+03  0.00000000000E+00 0. -1.
          1    1    1    2  502    0  0.42814543249E+02  0.18711083371E+02  0.13987889432E+04  0.13995691113E+04  0.00000000000E+00 0. -1.
         22    1    3    3    0    0  0.99525131885E+01  0.13172267973E+02  0.10411185199E+02  0.19518041387E+02  0.00000000000E+00 0. -1.
         22    1    3    3    0    0  0.71315690822E+02  0.29767747540E+01  0.93427514112E+03  0.93699777388E+03  0.00000000000E+00 0. -1.
</event>
<event>
 7    1  0.6607887E-006  0.1002791E+03  0.7818608E-02  0.1399130E+00
          2   -1    0    0  502    0  0.00000000000E+00  0.00000000000E+00  0.11686773900E+04  0.11686773900E+04  0.00000000000E+00 0. -1.
          1   -1    0    0  501    0 -0.00000000000E+00 -0.00000000000E+00 -0.23021923683E+03  0.23021923683E+03  0.00000000000E+00 0. -1.
         25    2    1    2    0    0  0.39963968746E+01 -0.10756835589E+03  0.46211894037E+03  0.49067924728E+03  0.12500114510E+03 0.  0.
          2    1    1    2  501    0 -0.33313632418E+02  0.12357853091E+02 -0.21086097872E+03  0.21383373678E+03  0.00000000000E+00 0. -1.
          1    1    1    2  502    0  0.29317235543E+02  0.95210502801E+02  0.68720019154E+03  0.69438364280E+03  0.00000000000E+00 0. -1.
         22    1    3    3    0    0 -0.50732349168E+02 -0.80548190505E+02  0.19931346648E+03  0.22087924340E+03  0.00000000000E+00 0. -1.
         22    1    3    3    0    0  0.54728746042E+02 -0.27020165387E+02  0.26280547390E+03  0.26980000388E+03  0.00000000000E+00 0. -1.
</event>
<event>
 7    1  0.6607887E-006  0.3572832E+02  0.7818608E-02  0.1549490E+00
          2   -1    0    0  502    0  0.00000000000E+00  0.00000000000E+00  0.96995485214E+02  0.96995485214E+02  0.00000000000E+00 0. -1.
          1   -1    0    0  501    0 -0.00000000000E+00 -0.00000000000E+00 -0.58509937556E+03  0.58509937556E+03  0.00000000000E+00 0. -1.
         25    2    1    2    0    0  0.14835155166E+02 -0.59644701884E+02 -0.60723356857E+02  0.15195414406E+03  0.12500065414E+03 0.  0.
          2    1    1    2  501    0  0.75627172382E+01  0.33241569205E+02 -0.47224261965E+03  0.47347152863E+03  0.00000000000E+00 0. -1.
          1    1    1    2  502    0 -0.22397872405E+02  0.26403132679E+02  0.44862086159E+02  0.56669188084E+02  0.00000000000E+00 0. -1.
         22    1    3    3    0    0  0.14975120216E+02 -0.13534695859E+02 -0.93324851650E+02  0.95482826482E+02  0.00000000000E+00 0.  1.
         22    1    3    3    0    0 -0.13996504994E+00 -0.46110006025E+02  0.32601494793E+02  0.56471317575E+02  0.00000000000E+00 0.  1.
</event>
<event>
 7    1  0.6607887E-006  0.1308139E+03  0.7818608E-02  0.1342620E+00
          2   -1    0    0  502    0  0.00000000000E+00  0.00000000000E+00  0.91964261032E+03  0.91964261032E+03  0.00000000000E+00 0. -1.
          1   -1    0    0  501    0 -0.00000000000E+00 -0.00000000000E+00 -0.25591899808E+04  0.25591899808E+04  0.00000000000E+00 0. -1.
         25    2    1    2    0    0  0.14013632106E+03 -0.21525611868E+02  0.22567450290E+03  0.29437335087E+03  0.12500059198E+03 0.  0.
          2    1    1    2  501    0 -0.11912185907E+02  0.41802246552E+02 -0.25182639518E+04  0.25186390490E+04  0.00000000000E+00 0. -1.
          1    1    1    2  502    0 -0.12822413515E+03 -0.20276634684E+02  0.65304207850E+03  0.66582019122E+03  0.00000000000E+00 0. -1.
         22    1    3    3    0    0  0.32347542637E+02 -0.58466712900E+02  0.12759330118E+03  0.14403045004E+03  0.00000000000E+00 0.  1.
         22    1    3    3    0    0  0.10778877842E+03  0.36941101032E+02  0.98081201720E+02  0.15034290083E+03  0.00000000000E+00 0.  1.
</event>
<event>
 7    1  0.6607887E-006  0.6234828E+02  0.7818608E-02  0.1476644E+00
          2   -1    0    0  502    0  0.00000000000E+00  0.00000000000E+00  0.67857815815E+02  0.67857815815E+02  0.00000000000E+00 0. -1.
          1   -1    0    0  501    0 -0.00000000000E+00 -0.00000000000E+00 -0.21822983220E+04  0.21822983220E+04  0.00000000000E+00 0. -1.
         25    2    1    2    0    0 -0.39262885546E+02 -0.53449737387E+02 -0.10860359504E+03  0.17837767603E+03  0.12500162336E+03 0.  0.
          2    1    1    2  501    0  0.56480681624E+02  0.26534021054E+02 -0.20304731274E+04  0.20314318208E+04  0.00000000000E+00 0. -1.
          1    1    1    2  502    0 -0.17217796078E+02  0.26915716333E+02  0.24636216224E+02  0.40346640967E+02  0.00000000000E+00 0. -1.
         22    1    3    3    0    0 -0.75399323974E+02 -0.53319526036E+02 -0.39590550177E+02  0.10047607464E+03  0.00000000000E+00 0. -1.
         22    1    3    3    0    0  0.36136438428E+02 -0.13021135118E+00 -0.69013044865E+02  0.77901601388E+02  0.00000000000E+00 0. -1.
</event>
<event>
 7    1  0.6607887E-006  0.6902944E+02  0.7818608E-02  0.1423868E+00
          2   -1    0    0  502    0  0.00000000000E+00  0.00000000000E+00  0.19063958903E+04  0.19063958903E+04  0.00000000000E+00 0. -1.
          1   -1    0    0  501    0 -0.00000000000E+00 -0.00000000000E+00 -0.22115335749E+03  0.22115335749E+03  0.00000000000E+00 0. -1.
         25    2    1    2    0    0 -0.35570006773E+02  0.17932968110E+02  0.82666459786E+02  0.15506275290E+03  0.12499558807E+03 0.  0.
          2    1    1    2  501    0  0.37273216020E+02 -0.60472225692E+02 -0.17787053380E+03  0.19153096227E+03  0.00000000000E+00 0. -1.
          1    1    1    2  502    0 -0.17032092465E+01  0.42539257582E+02  0.17804466069E+04  0.17809555326E+04  0.00000000000E+00 0. -1.
         22    1    3    3    0    0  0.34272506364E+02  0.32025716186E+02  0.13209105298E+01  0.46925430145E+02  0.00000000000E+00 0.  1.
         22    1    3    3    0    0 -0.69842513137E+02 -0.14092748077E+02  0.81345549256E+02  0.10813732276E+03  0.00000000000E+00 0.  1.
</event>
<event>
 7    1  0.6607887E-006  0.8833651E+02  0.7818608E-02  0.1423418E+00
          2   -1    0    0  502    0  0.00000000000E+00  0.00000000000E+00  0.61084877703E+03  0.61084877703E+03  0.00000000000E+00 0. -1.
          1   -1    0    0  501    0 -0.00000000000E+00 -0.00000000000E+00 -0.11140349536E+04  0.11140349536E+04  0.00000000000E+00 0. -1.
         25    2    1    2    0    0  0.40081919758E+01 -0.11573250159E+03 -0.24916973612E+03  0.30186134304E+03  0.12499854198E+03 0.  0.
          2    1    1    2  501    0  0.10203605136E+02  0.85525471558E+02 -0.83582782730E+03  0.84025405487E+03  0.00000000000E+00 0. -1.
          1    1    1    2  502    0 -0.14211797112E+02  0.30207030033E+02  0.58181138681E+03  0.58276833275E+03  0.00000000000E+00 0. -1.
         22    1    3    3    0    0  0.73950080174E+01  0.14241847354E+01  0.12809414960E+02  0.14859191006E+02  0.00000000000E+00 0.  1.
         22    1    3    3    0    0 -0.33868160416E+01 -0.11715668633E+03 -0.26197915108E+03  0.28700215203E+03  0.00000000000E+00 0.  1.
</event>
<event>
 7    1  0.6607887E-006  0.3765768E+02  0.7818608E-02  0.1547674E+00
          2   -1    0    0  502    0  0.00000000000E+00  0.00000000000E+00  0.23570747998E+04  0.23570747998E+04  0.00000000000E+00 0. -1.
          1   -1    0    0  501    0 -0.00000000000E+00 -0.00000000000E+00 -0.81368538493E+03  0.81368538493E+03  0.00000000000E+00 0. -1.
         25    2    1    2    0    0 -0.82952591762E+01 -0.62195189125E+02  0.29757465244E+03  0.32880287374E+03  0.12499441240E+03 0.  0.
          2    1    1    2  501    0  0.19321773339E+02  0.26411372923E+02 -0.79756421656E+03  0.79823528554E+03  0.00000000000E+00 0. -1.
          1    1    1    2  502    0 -0.11026514162E+02  0.35783816203E+02  0.20433789790E+04  0.20437220254E+04  0.00000000000E+00 0. -1.
         22    1    3    3    0    0 -0.10256889882E+02 -0.93373910684E+02  0.14293305418E+03  0.17103727361E+03  0.00000000000E+00 0. -1.
         22    1    3    3    0    0  0.19616307057E+01  0.31178721559E+02  0.15464159826E+03  0.15776560013E+03  0.00000000000E+00 0. -1.
</event>
<event>
 7    1  0.6607887E-006  0.3627964E+02  0.7818608E-02  0.1631162E+00
          2   -1    0    0  502    0  0.00000000000E+00  0.00000000000E+00  0.74263556769E+03  0.74263556769E+03  0.00000000000E+00 0. -1.
          1   -1    0    0  501    0 -0.00000000000E+00 -0.00000000000E+00 -0.10366210070E+04  0.10366210070E+04  0.00000000000E+00 0. -1.
         25    2    1    2    0    0 -0.32539586345E+02  0.40126116993E+02  0.69250162546E+01  0.13543031245E+03  0.12499793492E+03 0.  0.
          2    1    1    2  501    0  0.22888320966E+01 -0.20277266036E+02 -0.97177376365E+03  0.97198799066E+03  0.00000000000E+00 0. -1.
          1    1    1    2  502    0  0.30250754248E+02 -0.19848850957E+02  0.67086330809E+03  0.67183827158E+03  0.00000000000E+00 0. -1.
         22    1    3    3    0    0  0.16786302275E+02  0.14098375865E+02  0.56629337955E+02  0.60724180220E+02  0.00000000000E+00 0. -1.
         22    1    3    3    0    0 -0.49325888621E+02  0.26027741128E+02 -0.49704321700E+02  0.74706132226E+02  0.00000000000E+00 0. -1.
</event>
<event>
 7    1  0.6607887E-006  0.8282386E+02  0.7818608E-02  0.1361509E+00
          2   -1    0    0  502    0  0.00000000000E+00  0.00000000000E+00  0.29501524400E+04  0.29501524400E+04  0.00000000000E+00 0. -1.
          1   -1    0    0  501    0 -0.00000000000E+00 -0.00000000000E+00 -0.41161285408E+03  0.41161285408E+03  0.00000000000E+00 0. -1.
         25    2    1    2    0    0 -0.63529461710E+02 -0.89074106825E+01  0.15279726354E+04  0.15344183830E+04  0.12499626050E+03 0.  0.
          2    1    1    2  501    0 -0.22595367012E+02  0.53919744522E+02 -0.40462281905E+03  0.40882455303E+03  0.00000000000E+00 0. -1.
          1    1    1    2  502    0  0.86124828722E+02 -0.45012333839E+02  0.14151897696E+04  0.14185223581E+04  0.00000000000E+00 0. -1.
         22    1    3    3    0    0  0.55463803923E+01 -0.10423077726E+02  0.11869818187E+02  0.16742027014E+02  0.00000000000E+00 0.  1.
         22    1    3    3    0    0 -0.69075842102E+02  0.15156670437E+01  0.15161028172E+04  0.15176763560E+04  0.00000000000E+00 0.  1.
</event>
<event>
 7    1  0.6607887E-006  0.4791743E+02  0.7818608E-02  0.1498000E+00
          2   -1    0    0  502    0  0.00000000000E+00  0.00000000000E+00  0.53332477141E+02  0.53332477141E+02  0.00000000000E+00 0. -1.
          1   -1    0    0  501    0 -0.00000000000E+00 -0.00000000000E+00 -0.10046966588E+04  0.10046966588E+04  0.00000000000E+00 0. -1.
         25    2    1    2    0    0 -0.32438823076E+02 -0.54720336207E+00 -0.31520948740E+03  0.34063727929E+03  0.12499663365E+03 0.  0.
          2    1    1    2  501    0 -0.17494235872E+01  0.35764478265E+02 -0.66128242809E+03  0.66225116692E+03  0.00000000000E+00 0. -1.
          1    1    1    2  502    0  0.34188246663E+02 -0.35217274903E+02  0.25127733796E+02  0.55140689760E+02  0.00000000000E+00 0. -1.
         22    1    3    3    0    0 -0.75341973584E+02 -0.63401480619E+01 -0.25826393902E+03  0.26910383249E+03  0.00000000000E+00 0. -1.
         22    1    3    3    0    0  0.42903150508E+02  0.57929446998E+01 -0.56945548380E+02  0.71533446808E+02  0.00000000000E+00 0. -1.
</event>
<event>
 7    1  0.6607887E-006  0.8079004E+02  0.7818608E-02  0.1436822E+00
          2   -1    0    0  502    0  0.00000000000E+00  0.00000000000E+00  0.45280429345E+03  0.45280429345E+03  0.00000000000E+00 0. -1.
          1   -1    0    0  501    0 -0.00000000000E+00 -0.00000000000E+00 -0.52191784009E+03  0.52191784009E+03  0.00000000000E+00 0. -1.
         25    2    1    2    0    0  0.10173483196E+03  0.42966589975E+02 -0.38218484771E+03  0.41699601972E+03  0.12499727499E+03 0.  0.
          2    1    1    2  501    0 -0.23760949129E+02 -0.22864484659E+02 -0.11629227813E+03  0.12087705041E+03  0.00000000000E+00 0. -1.
          1    1    1    2  502    0 -0.77973882833E+02 -0.20102105315E+02  0.42936357921E+03  0.43684906340E+03  0.00000000000E+00 0. -1.
         22    1    3    3    0    0  0.20693264209E+02 -0.12765344156E+02 -0.25529719208E+03  0.25645237663E+03  0.00000000000E+00 0.  1.
         22    1    3    3    0    0  0.81041567753E+02  0.55731934131E+02 -0.12688765563E+03  0.16054364309E+03  0.00000000000E+00 0.  1.
</event>
<event>
 7    1  0.6607887E-006  0.5799914E+02  0.7818608E-02  0.1461545E+00
          2   -1    0    0  502    0  0.00000000000E+00  0.00000000000E+00  0.16119097422E+03  0.16119097422E+03  0.00000000000E+00 0. -1.
          1   -1    0    0  501    0 -0.00000000000E+00 -0.00000000000E+00 -0.93305724157E+03  0.93305724157E+03  0.00000000000E+00 0. -1.
         25    2    1    2    0    0  0.73184850562E+02  0.75461646933E+01 -0.33037094760E+03  0.36080936139E+03  0.12500186116E+03 0.  0.
          2    1    1    2  501    0 -0.45954546664E+02 -0.34445346395E+02 -0.58352378635E+03  0.58634316870E+03  0.00000000000E+00 0. -1.
          1    1    1    2  502    0 -0.27230303898E+02  0.26899181702E+02  0.14202846660E+03  0.14709568570E+03  0.00000000000E+00 0. -1.
         22    1    3    3    0    0 -0.75931143442E+01 -0.34229633111E+02 -0.27441139059E+02  0.44523468881E+02  0.00000000000E+00 0.  1.
         22    1    3    3    0    0  0.80777964906E+02  0.41775797804E+02 -0.30292980854E+03  0.31628589251E+03  0.00000000000E+00 0.  1.
</event>
<event>
 7    1  0.6607887E-006  0.1137123E+03  0.7818608E-02  0.1272754E+00
          2   -1    0    0  502    0  0.00000000000E+00  0.00000000000E+00  0.36503740723E+03  0.36503740723E+03  0.00000000000E+00 0. -1.
          1   -1    0    0  501    0 -0.00000000000E+00 -0.00000000000E+00 -0.18452974590E+04  0.18452974590E+04  0.00000000000E+00 0. -1.
         25    2    1    2    0    0  0.18246691352E+03  0.10869072748E+02 -0.20454415988E+03  0.30145383219E+03  0.12499515322E+03 0.  0.
          2    1    1    2  501    0 -0.84413375568E+02  0.42530797385E+02 -0.15809986163E+04  0.15838216791E+04  0.00000000000E+00 0. -1.
          1    1    1    2  502    0 -0.98053537951E+02 -0.53399870133E+02  0.30528272435E+03  0.32505935492E+03  0.00000000000E+00 0. -1.
         22    1    3    3    0    0  0.82316399266E+02 -0.47850015895E+02 -0.48198038136E+02  0.10671768593E+03  0.00000000000E+00 0.  1.
         22    1    3    3    0    0  0.10015051425E+03  0.58719088643E+02 -0.15634612174E+03  0.19473614626E+03  0.00000000000E+00 0.  1.
</event>
<event>
 7    1  0.6607887E-006  0.1220076E+03  0.7818608E-02  0.1416230E+00
          2   -1    0    0  502    0  0.00000000000E+00  0.00000000000E+00  0.15055052556E+04  0.15055052556E+04  0.00000000000E+00 0. -1.
          1   -1    0    0  501    0 -0.00000000000E+00 -0.00000000000E+00 -0.48062610818E+03  0.48062610818E+03  0.00000000000E+00 0. -1.
         25    2    1    2    0    0 -0.10710521636E+03 -0.50683127455E+02  0.25774895612E+03  0.30999799253E+03  0.12499569678E+03 0.  0.
          2    1    1    2  501    0  0.11892267350E+03  0.28036746241E+02 -0.44615316760E+03  0.46258113923E+03  0.00000000000E+00 0. -1.
          1    1    1    2  502    0 -0.11817457145E+02  0.22646381214E+02  0.12132833589E+04  0.12135522321E+04  0.00000000000E+00 0. -1.
         22    1    3    3    0    0 -0.17280940057E+02 -0.61427467333E+02  0.17908892230E+03  0.19011787586E+03  0.00000000000E+00 0. -1.
         22    1    3    3    0    0 -0.89824276302E+02  0.10744339878E+02  0.78660033825E+02  0.11988011667E+03  0.00000000000E+00 0. -1.
</event>
<event>
 7    1  0.6607887E-006  0.1627651E+03  0.7818608E-02  0.1318740E+00
          2   -1    0    0  502    0  0.00000000000E+00  0.00000000000E+00  0.72659139725E+03  0.72659139725E+03  0.00000000000E+00 0. -1.
          1   -1    0    0  501    0 -0.00000000000E+00 -0.00000000000E+00 -0.45704070206E+04  0.45704070206E+04  0.00000000000E+00 0. -1.
         25    2    1    2    0    0  0.52707745042E+02  0.11779738645E+03  0.25453520307E+03  0.31155652651E+03  0.12499987588E+03 0.  0.
          2    1    1    2  501    0 -0.38261705145E+02 -0.15839463987E+03 -0.45393844300E+04  0.45423082043E+04  0.00000000000E+00 0. -1.
          1    1    1    2  502    0 -0.14446039897E+02  0.40597253424E+02  0.44103360358E+03  0.44313368698E+03  0.00000000000E+00 0. -1.
         22    1    3    3    0    0  0.55400385121E+02  0.65703446365E+01  0.14527624819E+03  0.15561992285E+03  0.00000000000E+00 0.  1.
         22    1    3    3    0    0 -0.26926400788E+01  0.11122704181E+03  0.10925895488E+03  0.15593660367E+03  0.00000000000E+00 0.  1.
</event>
<event>
 7    1  0.6607887E-006  0.1886694E+03  0.7818608E-02  0.1344084E+00
          2   -1    0    0  502    0  0.00000000000E+00  0.00000000000E+00  0.81404365321E+03  0.81404365321E+03  0.00000000000E+00 0. -1.
          1   -1    0    0  501    0 -0.00000000000E+00 -0.00000000000E+00 -0.13372500931E+04  0.13372500931E+04  0.00000000000E+00 0. -1.
         25    2    1    2    0    0 -0.41879320139E+02  0.16139035351E+03  0.17187809113E+03  0.27012588501E+03  0.12500076751E+03 0.  0.
          2    1    1    2  501    0  0.67166523185E+02 -0.17708040102E+03 -0.12807849483E+04  0.12947118962E+04  0.00000000000E+00 0. -1.
          1    1    1    2  502    0 -0.25287203046E+02  0.15690047502E+02  0.58570041729E+03  0.58645596514E+03  0.00000000000E+00 0. -1.
         22    1    3    3    0    0  0.50573329877E+01  0.10225439178E+03  0.25628591039E+02  0.10553843818E+03  0.00000000000E+00 0.  1.
         22    1    3    3    0    0 -0.46936653127E+02  0.59135961736E+02  0.14624950009E+03  0.16458744683E+03  0.00000000000E+00 0.  1.
</event>
<event>
 7    1  0.6607887E-006  0.1324028E+03  0.7818608E-02  0.1295972E+00
          2   -1    0    0  502    0  0.00000000000E+00  0.00000000000E+00  0.29248910442E+03  0.29248910442E+03  0.00000000000E+00 0. -1.
          1   -1    0    0  501    0 -0.00000000000E+00 -0.00000000000E+00 -0.35814158306E+03  0.35814158306E+03  0.00000000000E+00 0. -1.
         25    2    1    2    0    0 -0.11856220321E+03 -0.12822424189E+03  0.15960381865E+03  0.26757622310E+03  0.12500081600E+03 0.  0.
          2    1    1    2  501    0  0.11364120912E+03  0.63224097301E+02 -0.27290800906E+03  0.30230843901E+03  0.00000000000E+00 0. -1.
          1    1    1    2  502    0  0.49209940914E+01  0.65000144584E+02  0.47651711768E+02  0.80746025371E+02  0.00000000000E+00 0. -1.
         22    1    3    3    0    0 -0.13456008643E+02 -0.96440550809E+02  0.11052323997E+03  0.14729979831E+03  0.00000000000E+00 0.  1.
         22    1    3    3    0    0 -0.10510619457E+03 -0.31783691076E+02  0.49080578679E+02  0.12027642478E+03  0.00000000000E+00 0.  1.
</event>
<event>
 7    1  0.6607887E-006  0.8117755E+02  0.7818608E-02  0.1413322E+00
          2   -1    0    0  502    0  0.00000000000E+00  0.00000000000E+00  0.82025445037E+03  0.82025445037E+03  0.00000000000E+00 0. -1.
          1   -1    0    0  501    0 -0.00000000000E+00 -0.00000000000E+00 -0.27910181682E+03  0.27910181682E+03  0.00000000000E+00 0. -1.
         25    2    1    2    0    0  0.97552436326E+02 -0.13328208455E+01 -0.53547120550E+02  0.16736460864E+03  0.12500145544E+03 0.  0.
          2    1    1    2  501    0 -0.73706421937E+02 -0.29864765942E+02 -0.15873068430E+03  0.17753864654E+03  0.00000000000E+00 0. -1.
          1    1    1    2  502    0 -0.23846014389E+02  0.31197586787E+02  0.75343043840E+03  0.75445301201E+03  0.00000000000E+00 0. -1.
         22    1    3    3    0    0  0.92936561264E+02 -0.13671717136E+02 -0.89086271407E+02  0.12946228803E+03  0.00000000000E+00 0. -1.
         22    1    3    3    0    0  0.46158750625E+01  0.12338896291E+02  0.35539150857E+02  0.37902320613E+02  0.00000000000E+00 0. -1.
</event>
<event>
 7    1  0.6607887E-006  0.3973120E+02  0.7818608E-02  0.1595145E+00
          2   -1    0    0  502    0  0.00000000000E+00  0.00000000000E+00  0.10178225776E+04  0.10178225776E+04  0.00000000000E+00 0. -1.
          1   -1    0    0  501    0 -0.00000000000E+00 -0.00000000000E+00 -0.76742404886E+03  0.76742404886E+03  0.00000000000E+00 0. -1.
         25    2    1    2    0    0 -0.81958194458E+01  0.18226145063E+02 -0.14431992545E+03  0.19197056212E+03  0.12500036808E+03 0.  0.
          2    1    1    2  501    0  0.15459229191E+01 -0.40305164935E+02 -0.59846614410E+03  0.59982382566E+03  0.00000000000E+00 0. -1.
          1    1    1    2  502    0  0.66498965267E+01  0.22079019872E+02  0.99318459828E+03  0.99345223866E+03  0.00000000000E+00 0. -1.
         22    1    3    3    0    0  0.48296842930E+02  0.41685861764E+02 -0.88937204462E+02  0.10945374569E+03  0.00000000000E+00 0.  1.
         22    1    3    3    0    0 -0.56492662375E+02 -0.23459716701E+02 -0.55382720988E+02  0.82516816431E+02  0.00000000000E+00 0.  1.
</event>
<event>
 7    1  0.6607887E-006  0.1334328E+03  0.7818608E-02  0.1232449E+00
          2   -1    0    0  502    0  0.00000000000E+00  0.00000000000E+00  0.46377391348E+03  0.46377391348E+03  0.00000000000E+00 0. -1.
          1   -1    0    0  501    0 -0.00000000000E+00 -0.00000000000E+00 -0.23676682345E+04  0.23676682345E+04  0.00000000000E+00 0. -1.
         25    2    1    2    0    0 -0.21828110566E+03  0.11161452196E+03  0.19101552622E+03  0.33498479920E+03  0.12499376720E+03 0.  0.
          2    1    1    2  501    0  0.10066115609E+03 -0.86408605350E+02 -0.22755591618E+04  0.22794228686E+04  0.00000000000E+00 0. -1.
          1    1    1    2  502    0  0.11761994957E+03 -0.25205916606E+02  0.18064931447E+03  0.21703448018E+03  0.00000000000E+00 0. -1.
         22    1    3    3    0    0 -0.61511267937E+02 -0.39203384728E+01 -0.79592385068E+00  0.61641208876E+02  0.00000000000E+00 0.  1.
         22    1    3    3    0    0 -0.15676983773E+03  0.11553486043E+03  0.19181145007E+03  0.27334359033E+03  0.00000000000E+00 0.  1.
</event>
<event>
 7    1  0.6607887E-006  0.1188672E+03  0.7818608E-02  0.1319938E+00
          2   -1    0    0  502    0  0.00000000000E+00  0.00000000000E+00  0.16910683954E+04  0.16910683954E+04  0.00000000000E+00 0. -1.
          1   -1    0    0  501    0 -0.00000000000E+00 -0.00000000000E+00 -0.87805112785E+02  0.87805112785E+02  0.00000000000E+00 0. -1.
         25    2    1    2    0    0 -0.95581982248E+01 -0.88646399604E+02  0.36074233204E+03  0.39206010210E+03  0.12500620072E+03 0.  0.
          2    1    1    2  501    0 -0.41363990515E+02  0.11718826984E+03 -0.17447861596E+02  0.12549302041E+03  0.00000000000E+00 0. -1.
          1    1    1    2  502    0  0.50922188740E+02 -0.28541870231E+02  0.12599688122E+04  0.12613203857E+04  0.00000000000E+00 0. -1.
         22    1    3    3    0    0  0.20557460734E+02 -0.82317930334E+02  0.34893003050E+03  0.35909750352E+03  0.00000000000E+00 0. -1.
         22    1    3    3    0    0 -0.30115658959E+02 -0.63284692702E+01  0.11812301539E+02  0.32962598585E+02  0.00000000000E+00 0. -1.
</event>
<event>
 7    1  0.6607887E-006  0.9204318E+02  0.7818608E-02  0.1319297E+00
          2   -1    0    0  502    0  0.00000000000E+00  0.00000000000E+00  0.97019257451E+03  0.97019257451E+03  0.00000000000E+00 0. -1.
          1   -1    0    0  501    0 -0.00000000000E+00 -0.00000000000E+00 -0.33411945016E+03  0.33411945016E+03  0.00000000000E+00 0. -1.
         25    2    1    2    0    0  0.29549438837E+02  0.63054440652E+02 -0.92109717909E+01  0.14335580615E+03  0.12496804926E+03 0.  0.
          2    1    1    2  501    0  0.41610492542E+02 -0.89229006138E+02 -0.24677018962E+03  0.26568548156E+03  0.00000000000E+00 0. -1.
          1    1    1    2  502    0 -0.71159931380E+02  0.26174565485E+02  0.89205428576E+03  0.89527073696E+03  0.00000000000E+00 0. -1.
         22    1    3    3    0    0 -0.46405535757E+02  0.41626345266E+02 -0.15337525848E+02  0.64198645377E+02  0.00000000000E+00 0. -1.
         22    1    3    3    0    0  0.75954974594E+02  0.21428095386E+02  0.61265540571E+01  0.79157160776E+02  0.00000000000E+00 0. -1.
</event>
<event>
 7    1  0.6607887E-006  0.9191648E+02  0.7818608E-02  0.1374706E+00
          2   -1    0    0  502    0  0.00000000000E+00  0.00000000000E+00  0.46342221476E+03  0.46342221476E+03  0.00000000000E+00 0. -1.
          1   -1    0    0  501    0 -0.00000000000E+00 -0.00000000000E+00 -0.45303737053E+03  0.45303737053E+03  0.00000000000E+00 0. -1.
         25    2    1    2    0    0 -0.30950247575E+02  0.96236100660E+02 -0.72708734319E+02  0.17643979930E+03  0.12500055134E+03 0.  0.
          2    1    1    2  501    0 -0.15933725018E+02 -0.90670276683E+02 -0.32060978039E+03  0.33356500708E+03  0.00000000000E+00 0. -1.
          1    1    1    2  502    0  0.46883972592E+02 -0.55658239775E+01  0.40370335893E+03  0.40645477891E+03  0.00000000000E+00 0. -1.
         22    1    3    3    0    0 -0.60582805087E+02  0.42025037865E+02  0.86989892810E+01  0.74243198303E+02  0.00000000000E+00 0. -1.
         22    1    3    3    0    0  0.29632557512E+02  0.54211062795E+02 -0.81407723600E+02  0.10219660100E+03  0.00000000000E+00 0. -1.
</event>
<event>
 7    1  0.6607887E-006  0.9524969E+02  0.7818608E-02  0.1331864E+00
          2   -1    0    0  502    0  0.00000000000E+00  0.00000000000E+00  0.10622786590E+04  0.10622786590E+04  0.00000000000E+00 0. -1.
          1   -1    0    0  501    0 -0.00000000000E+00 -0.00000000000E+00 -0.18257162135E+03  0.18257162135E+03  0.00000000000E+00 0. -1.
         25    2    1    2    0    0  0.22051805414E+02  0.14612151913E+03  0.12423959342E+03  0.22999508250E+03  0.12499792369E+03 0.  0.
          2    1    1    2  501    0  0.19221466205E+02 -0.62669607867E+02 -0.11877846527E+03  0.13566601758E+03  0.00000000000E+00 0. -1.
          1    1    1    2  502    0 -0.41273271619E+02 -0.83451911261E+02  0.87424590947E+03  0.87918918025E+03  0.00000000000E+00 0. -1.
         22    1    3    3    0    0  0.31030235322E+02  0.16380900562E+03  0.12750803991E+03  0.20989179609E+03  0.00000000000E+00 0.  1.
         22    1    3    3    0    0 -0.89784299080E+01 -0.17687486488E+02 -0.32684464908E+01  0.20103286406E+02  0.00000000000E+00 0.  1.
</event>
<event>
 7    1  0.6607887E-006  0.8548741E+02  0.7818608E-02  0.1375801E+00
          2   -1    0    0  502    0  0.00000000000E+00  0.00000000000E+00  0.14632496713E+04  0.14632496713E+04  0.00000000000E+00 0. -1.
          1   -1    0    0  501    0 -0.00000000000E+00 -0.00000000000E+00 -0.93121063851E+03  0.93121063851E+03  0.00000000000E+00 0. -1.
         25    2    1    2    0    0 -0.67136125665E+02 -0.11554369951E+03 -0.18519221620E+02  0.18391392714E+03  0.12499506054E+03 0.  0.
          2    1    1    2  501    0  0.35542981171E+02  0.76391734137E+02 -0.82739556939E+03  0.83167447285E+03  0.00000000000E+00 0. -1.
          1    1    1    2  502    0  0.31593144494E+02  0.39151965376E+02  0.13779538238E+04  0.13788719098E+04  0.00000000000E+00 0. -1.
         22    1    3    3    0    0 -0.52188056890E+02  0.66620728470E+01 -0.29484253786E+02  0.60310013413E+02  0.00000000000E+00 0. -1.
         22    1    3    3    0    0 -0.14948068775E+02 -0.12220577236E+03  0.10965032165E+02  0.12360391373E+03  0.00000000000E+00 0. -1.
</event>
<event>
 7    1  0.6607887E-006  0.1018914E+03  0.7818608E-02  0.1403178E+00
          2   -1    0    0  502    0  0.00000000000E+00  0.00000000000E+00  0.27995699183E+04  0.27995699183E+04  0.00000000000E+00 0. -1.
          1   -1    0    0  501    0 -0.00000000000E+00 -0.00000000000E+00 -0.46586016635E+03  0.46586016635E+03  0.00000000000E+00 0. -1.
         25    2    1    2    0    0 -0.75638197302E+02 -0.10550674454E+03  0.16715110959E+04  0.16811983625E+04  0.12500312125E+03 0.  0.
          2    1    1    2  501    0  0.72153635986E+02  0.71818061967E+02 -0.45513663050E+03  0.46638324759E+03  0.00000000000E+00 0. -1.
          1    1    1    2  502    0  0.34845613156E+01  0.33688682569E+02  0.11173352866E+04  0.11178484746E+04  0.00000000000E+00 0. -1.
         22    1    3    3    0    0  0.50394734618E+01 -0.97747084162E+02  0.81322244642E+03  0.81909134785E+03  0.00000000000E+00 0. -1.
         22    1    3    3    0    0 -0.80677670764E+02 -0.77596603742E+01  0.85828864947E+03  0.86210701465E+03  0.00000000000E+00 0. -1.
</event>
<event>
 7    1  0.6607887E-006  0.1605233E+03  0.7818608E-02  0.1343346E+00
          2   -1    0    0  502    0  0.00000000000E+00  0.00000000000E+00  0.40531763781E+03  0.40531763781E+03  0.00000000000E+00 0. -1.
          1   -1    0    0  501    0 -0.00000000000E+00 -0.00000000000E+00 -0.47121773546E+03  0.47121773546E+03  0.00000000000E+00 0. -1.
         25    2    1    2    0    0 -0.12624090812E+03  0.62541017133E+02  0.74347641859E+02  0.20248575316E+03  0.12499905070E+03 0.  0.
          2    1    1    2  501    0  0.13078023636E+03 -0.97447537215E+02 -0.38952963128E+03  0.42229471507E+03  0.00000000000E+00 0. -1.
          1    1    1    2  502    0 -0.45393282405E+01  0.34906520083E+02  0.24928189177E+03  0.25175490504E+03  0.00000000000E+00 0. -1.
         22    1    3    3    0    0 -0.14487655510E+03  0.32034856939E+02  0.75984059898E+02  0.16670040683E+03  0.00000000000E+00 0.  1.
         22    1    3    3    0    0  0.18635646980E+02  0.30506160194E+02 -0.16364180390E+01  0.35785346333E+02  0.00000000000E+00 0.  1.
</event>
<event>
 7    1  0.6607887E-006  0.1556513E+03  0.7818608E-02  0.1413626E+00
          2   -1    0    0  502    0  0.00000000000E+00  0.00000000000E+00  0.64230436685E+03  0.64230436685E+03  0.00000000000E+00 0. -1.
          1   -1    0    0  501    0 -0.00000000000E+00 -0.00000000000E+00 -0.43088420176E+03  0.43088420176E+03  0.00000000000E+00 0. -1.
         25    2    1    2    0    0 -0.48459535567E+02 -0.13703337126E+03  0.29342360360E+03  0.35049802439E+03  0.12499993010E+03 0.  0.
          2    1    1    2  501    0 -0.15622045278E+02 -0.13167270319E+02 -0.38124467501E+03  0.38179173319E+03  0.00000000000E+00 0. -1.
          1    1    1    2  502    0  0.64081580845E+02  0.15020064158E+03  0.29924123650E+03  0.34089881103E+03  0.00000000000E+00 0. -1.
         22    1    3    3    0    0 -0.48583519036E+01  0.17262797679E+02  0.88516237508E+02  0.90314628215E+02  0.00000000000E+00 0. -1.
         22    1    3    3    0    0 -0.43601183664E+02 -0.15429616894E+03  0.20490736609E+03  0.26018339617E+03  0.00000000000E+00 0. -1.
</event>
<event>
 7    1  0.6607887E-006  0.7380834E+02  0.7818608E-02  0.1434142E+00
          2   -1    0    0  502    0  0.00000000000E+00  0.00000000000E+00  0.29903598375E+03  0.29903598375E+03  0.00000000000E+00 0. -1.
          1   -1    0    0  501    0 -0.00000000000E+00 -0.00000000000E+00 -0.14897907446E+04  0.14897907446E+04  0.00000000000E+00 0. -1.
         25    2    1    2    0    0  0.10241623600E+03 -0.40661517499E+02  0.10327284669E+02  0.16695753688E+03  0.12500288760E+03 0.  0.
          2    1    1    2  501    0 -0.67623594624E+02  0.28583291043E+02 -0.14089007454E+04  0.14108122715E+04  0.00000000000E+00 0. -1.
          1    1    1    2  502    0 -0.34792641380E+02  0.12078226455E+02  0.20781869987E+03  0.21105691996E+03  0.00000000000E+00 0. -1.
         22    1    3    3    0    0  0.10747522333E+03 -0.52491028849E+02 -0.31093884330E+02  0.12358422789E+03  0.00000000000E+00 0. -1.
         22    1    3    3    0    0 -0.50589873259E+01  0.11829511350E+02  0.41421168999E+02  0.43373308991E+02  0.00000000000E+00 0. -1.
</event>
<event>
 7    1  0.6607887E-006  0.1371987E+03  0.7818608E-02  0.1334836E+00
          2   -1    0    0  502    0  0.00000000000E+00  0.00000000000E+00  0.12334798338E+04  0.12334798338E+04  0.00000000000E+00 0. -1.
          1   -1    0    0  501    0 -0.00000000000E+00 -0.00000000000E+00 -0.43843878196E+03  0.43843878196E+03  0.00000000000E+00 0. -1.
         25    2    1    2    0    0  0.17723460354E+03  0.25066922143E+02  0.47548241256E+02  0.22344233224E+03  0.12500074126E+03 0.  0.
          2    1    1    2  501    0 -0.42619640743E+02 -0.12231138579E+02 -0.34490360158E+03  0.34774204363E+03  0.00000000000E+00 0. -1.
          1    1    1    2  502    0 -0.13461496279E+03 -0.12835783564E+02  0.10923964122E+04  0.11007342399E+04  0.00000000000E+00 0. -1.
         22    1    3    3    0    0  0.11055211369E+03  0.70708970563E+02  0.55004806797E+02  0.14229215414E+03  0.00000000000E+00 0.  1.
         22    1    3    3    0    0  0.66682489844E+02 -0.45642048420E+02 -0.74565655409E+01  0.81150178098E+02  0.00000000000E+00 0.  1.
</event>
<event>
 7    1  0.6607887E-006  0.1311720E+03  0.7818608E-02  0.1381229E+00
          2   -1    0    0  502    0  0.00000000000E+00  0.00000000000E+00  0.35035907352E+03  0.35035907352E+03  0.00000000000E+00 0. -1.
          1   -1    0    0  501    0 -0.00000000000E+00 -0.00000000000E+00 -0.14418472652E+04  0.14418472652E+04  0.00000000000E+00 0. -1.
         25    2    1    2    0    0  0.40395232571E+02 -0.14813949530E+03 -0.10010361354E+03  0.22186240345E+03  0.12500043095E+03 0.  0.
          2    1    1    2  501    0 -0.24275819401E+02  0.19860225503E+02 -0.12662246339E+04  0.12666130299E+04  0.00000000000E+00 0. -1.
          1    1    1    2  502    0 -0.16119413170E+02  0.12827926980E+03  0.27484005584E+03  0.30373090530E+03  0.00000000000E+00 0. -1.
         22    1    3    3    0    0 -0.20795452866E+02 -0.11981570452E+03 -0.94862827758E+02  0.15423102800E+03  0.00000000000E+00 0. -1.
         22    1    3    3    0    0  0.61190685437E+02 -0.28323790786E+02 -0.52407857806E+01  0.67631375443E+02  0.00000000000E+00 0. -1.
</event>
<event>
 7    1  0.6607887E-006  0.1564055E+03  0.7818608E-02  0.1285139E+00
          2   -1    0    0  502    0  0.00000000000E+00  0.00000000000E+00  0.75839312366E+03  0.75839312366E+03  0.00000000000E+00 0. -1.
          1   -1    0    0  501    0 -0.00000000000E+00 -0.00000000000E+00 -0.23482917681E+03  0.23482917681E+03  0.00000000000E+00 0. -1.
         25    2    1    2    0    0  0.18600838839E+03 -0.72848201113E+02  0.25913811349E+03  0.35026221694E+03  0.12500031119E+03 0.  0.
          2    1    1    2  501    0 -0.43439308122E+02  0.42923990733E+02 -0.17218178241E+03  0.18269101966E+03  0.00000000000E+00 0. -1.
          1    1    1    2  502    0 -0.14256908026E+03  0.29924210380E+02  0.43660761577E+03  0.46026906387E+03  0.00000000000E+00 0. -1.
         22    1    3    3    0    0  0.35542002811E+02 -0.14413285499E+02  0.15142928009E+03  0.15621076669E+03  0.00000000000E+00 0.  1.
         22    1    3    3    0    0  0.15046638557E+03 -0.58434915613E+02  0.10770883340E+03  0.19405145025E+03  0.00000000000E+00 0.  1.
</event>
<event>
 7    1  0.6607887E-006  0.6434570E+02  0.7818608E-02  0.1426928E+00
          2   -1    0    0  502    0  0.00000000000E+00  0.00000000000E+00  0.86644378097E+02  0.86644378097E+02  0.00000000000E+00 0. -1.
          1   -1    0    0  501    0 -0.00000000000E+00 -0.00000000000E+00 -0.22636619330E+04  0.22636619330E+04  0.00000000000E+00 0. -1.
         25    2    1    2    0    0 -0.82388966019E+02  0.60966244806E+02 -0.12511815113E+04  0.12615797876E+04  0.12499424557E+03 0.  0.
          2    1    1    2  501    0  0.48968767136E+02 -0.31404623760E+02 -0.10002612454E+04  0.10019514707E+04  0.00000000000E+00 0. -1.
          1    1    1    2  502    0  0.33420198883E+02 -0.29561621045E+02  0.74425201810E+02  0.86775052847E+02  0.00000000000E+00 0. -1.
         22    1    3    3    0    0 -0.28749556605E+01  0.12433541219E+02 -0.83510623037E+03  0.83520373222E+03  0.00000000000E+00 0.  1.
         22    1    3    3    0    0 -0.79514010359E+02  0.48532703586E+02 -0.41607528093E+03  0.42637605534E+03  0.00000000000E+00 0.  1.
</event>
<event>
 7    1  0.6607887E-006  0.1378965E+03  0.7818608E-02  0.1230416E+00
          2   -1    0    0  502    0  0.00000000000E+00  0.00000000000E+00  0.38002127863E+03  0.38002127863E+03  0.00000000000E+00 0. -1.
          1   -1    0    0  501    0 -0.00000000000E+00 -0.00000000000E+00 -0.59222716613E+03  0.59222716613E+03  0.00000000000E+00 0. -1.
         25    2    1    2    0    0  0.69860394601E+02 -0.68857299169E+02 -0.11777548062E+03  0.19778405299E+03  0.12500266156E+03 0.  0.
          2    1    1    2  501    0 -0.12915984263E+03 -0.55637770018E+02 -0.40819116350E+03  0.43173817570E+03  0.00000000000E+00 0. -1.
          1    1    1    2  502    0  0.59299448024E+02  0.12449506919E+03  0.31376075662E+03  0.34272621607E+03  0.00000000000E+00 0. -1.
         22    1    3    3    0    0  0.45625106762E+02 -0.17860139582E+02  0.16837785234E+02  0.51808744094E+02  0.00000000000E+00 0. -1.
         22    1    3    3    0    0  0.24235287839E+02 -0.50997159586E+02 -0.13461326586E+03  0.14597530889E+03  0.00000000000E+00 0. -1.
</event>
<event>
 7    1  0.6607887E-006  0.1423016E+03  0.7818608E-02  0.1218666E+00
          2   -1    0    0  502    0  0.00000000000E+00  0.00000000000E+00  0.25409928139E+04  0.25409928139E+04  0.00000000000E+00 0. -1.
          1   -1    0    0  501    0 -0.00000000000E+00 -0.00000000000E+00 -0.26170177359E+03  0.26170177359E+03  0.00000000000E+00 0. -1.
         25    2    1    2    0    0 -0.33715402669E+02 -0.54611829402E+00  0.40211879475E+03  0.42244651187E+03  0.12499801467E+03 0.  0.
          2    1    1    2  501    0  0.95771019081E+02 -0.11389267623E+03 -0.22734101124E+03  0.27171228383E+03  0.00000000000E+00 0. -1.
          1    1    1    2  502    0 -0.62055616412E+02  0.11443879452E+03  0.21045132568E+04  0.21085357918E+04  0.00000000000E+00 0. -1.
         22    1    3    3    0    0  0.21755434056E+02  0.40215994589E+02  0.72480711075E+02  0.85697599790E+02  0.00000000000E+00 0.  1.
         22    1    3    3    0    0 -0.55470836725E+02 -0.40762112883E+02  0.32963808368E+03  0.33674891208E+03  0.00000000000E+00 0.  1.
</event>
<event>
 7    1  0.7524789E-006  0.7290944E+02  0.7818608E-02  0.1373614E+00
          2   -1    0    0  502    0  0.00000000000E+00  0.00000000000E+00  0.24210089097E+04  0.24210089097E+04  0.00000000000E+00 0. -1.
          1   -1    0    0  501    0 -0.00000000000E+00 -0.00000000000E+00 -0.85942144965E+03  0.85942144965E+03  0.00000000000E+00 0. -1.
         25    2    1    2    0    0 -0.12207377919E+02  0.98474520010E+02 -0.46563246979E+02  0.16625483451E+03  0.12500513134E+03 0.  0.
          2    1    1    2  501    0  0.48573617498E+02 -0.35321526960E+02 -0.75125139435E+03  0.75364823632E+03  0.00000000000E+00 0. -1.
          1    1    1    2  502    0 -0.36366239579E+02 -0.63152993050E+02  0.23594021014E+04  0.23605272886E+04  0.00000000000E+00 0. -1.
         22    1    3    3    0    0  0.39547302521E+02  0.99905552397E+02 -0.26021190536E+02  0.11055410844E+03  0.00000000000E+00 0. -1.
         22    1    3    3    0    0 -0.51754680440E+02 -0.14310323870E+01 -0.20542056442E+02  0.55700726064E+02  0.00000000000E+00 0. -1.
</event>
<event>
 7    1  0.6607887E-006  0.4100163E+02  0.7818608E-02  0.1606193E+00
          2   -1    0    0  502    0  0.00000000000E+00  0.00000000000E+00  0.15814300607E+03  0.15814300607E+03  0.00000000000E+00 0. -1.
          1   -1    0    0  501    0 -0.00000000000E+00 -0.00000000000E+00 -0.64174862401E+03  0.64174862401E+03  0.00000000000E+00 0. -1.
         25    2    1    2    0    0 -0.55836120162E+02  0.24571585080E+02 -0.16480118326E+03  0.21565345560E+03  0.12500219119E+03 0.  0.
          2    1    1    2  501    0  0.37767849682E+02 -0.14049957107E+02 -0.44979144964E+03  0.45159291395E+03  0.00000000000E+00 0. -1.
          1    1    1    2  502    0  0.18068270479E+02 -0.10521627973E+02  0.13098701496E+03  0.13264526053E+03  0.00000000000E+00 0. -1.
         22    1    3    3    0    0  0.40084580698E+01  0.64904167455E+02 -0.60497918743E+02  0.88817885932E+02  0.00000000000E+00 0.  1.
         22    1    3    3    0    0 -0.59844578231E+02 -0.40332582375E+02 -0.10430326452E+03  0.12683556967E+03  0.00000000000E+00 0.  1.
</event>
<event>
 7    1  0.6607887E-006  0.5723542E+02  0.7818608E-02  0.1489218E+00
          2   -1    0    0  502    0  0.00000000000E+00  0.00000000000E+00  0.94084400773E+03  0.94084400773E+03  0.00000000000E+00 0. -1.
          1   -1    0    0  501    0 -0.00000000000E+00 -0.00000000000E+00 -0.42914140512E+02  0.42914140512E+02  0.00000000000E+00 0. -1.
         25    2    1    2    0    0 -0.86769554365E+01 -0.43026775687E+02  0.29512491912E+03  0.32349725318E+03  0.12500064780E+03 0.  0.
          2    1    1    2  501    0  0.40536095762E+02  0.43127609101E+02  0.26352483373E+01  0.59246183508E+02  0.00000000000E+00 0. -1.
          1    1    1    2  502    0 -0.31859140326E+02 -0.10083341444E+00  0.60016969976E+03  0.60101471155E+03  0.00000000000E+00 0. -1.
         22    1    3    3    0    0  0.18388602731E+02 -0.40382576965E+02  0.29286691502E+03  0.29620925567E+03  0.00000000000E+00 0.  1.
         22    1    3    3    0    0 -0.27065558167E+02 -0.26441987221E+01  0.22580041029E+01  0.27287997514E+02  0.00000000000E+00 0.  1.
</event>
<event>
 7    1  0.6607887E-006  0.5566299E+02  0.7818608E-02  0.1466154E+00
          2   -1    0    0  502    0  0.00000000000E+00  0.00000000000E+00  0.55348847734E+03  0.55348847734E+03  0.00000000000E+00 0. -1.
          1   -1    0    0  501    0 -0.00000000000E+00 -0.00000000000E+00 -0.41229250667E+03  0.41229250667E+03  0.00000000000E+00 0. -1.
         25    2    1    2    0    0  0.64473622358E+02  0.22074978562E+02  0.57159691566E+00  0.14237228360E+03  0.12500155101E+03 0.  0.
          2    1    1    2  501    0 -0.31276017312E+02  0.22581812647E+02 -0.33868768081E+03  0.34087750388E+03  0.00000000000E+00 0. -1.
          1    1    1    2  502    0 -0.33197605046E+02 -0.44656791209E+02  0.47931205456E+03  0.48253119653E+03  0.00000000000E+00 0. -1.
         22    1    3    3    0    0  0.58069627202E+02 -0.44552233821E+02  0.12879076804E+02  0.74315905170E+02  0.00000000000E+00 0.  1.
         22    1    3    3    0    0  0.64039951556E+01  0.66627212383E+02 -0.12307479888E+02  0.68056378430E+02  0.00000000000E+00 0.  1.
</event>
<event>
 7    1  0.6607887E-006  0.5803761E+02  0.7818608E-02  0.1471442E+00
          2   -1    0    0  502    0  0.00000000000E+00  0.00000000000E+00  0.11379489752E+04  0.11379489752E+04  0.00000000000E+00 0. -1.
          1   -1    0    0  501    0 -0.00000000000E+00 -0.00000000000E+00 -0.12330496232E+04  0.12330496232E+04  0.00000000000E+00 0. -1.
         25    2    1    2    0    0 -0.47833307278E+02 -0.52943203860E+02  0.50268043721E+02  0.15246239206E+03  0.12500758638E+03 0.  0.
          2    1    1    2  501    0 -0.72517565823E+01  0.34874341583E+02 -0.11808731249E+04  0.11814102356E+04  0.00000000000E+00 0. -1.
          1    1    1    2  502    0  0.55085063860E+02  0.18068862277E+02  0.10355044332E+04  0.10371259708E+04  0.00000000000E+00 0. -1.
         22    1    3    3    0    0  0.17100901123E+02  0.16465860716E+02  0.52254154957E+02  0.57393920398E+02  0.00000000000E+00 0.  1.
         22    1    3    3    0    0 -0.64934208401E+02 -0.69409064576E+02 -0.19861112363E+01  0.95068471660E+02  0.00000000000E+00 0.  1.
</event>
<event>
 7    1  0.6607887E-006  0.1064887E+03  0.7818608E-02  0.1275977E+00
          2   -1    0    0  502    0  0.00000000000E+00  0.00000000000E+00  0.61510226893E+03  0.61510226893E+03  0.00000000000E+00 0. -1.
          1   -1    0    0  501    0 -0.00000000000E+00 -0.00000000000E+00 -0.17066935049E+03  0.17066935049E+03  0.00000000000E+00 0. -1.
         25    2    1    2    0    0 -0.20774951611E+01 -0.16692477019E+03  0.52393725042E+02  0.21503199823E+03  0.12500185179E+03 0.  0.
          2    1    1    2  501    0  0.57553003482E+02  0.79144621957E+02 -0.54687873097E+02  0.11210255509E+03  0.00000000000E+00 0. -1.
          1    1    1    2  502    0 -0.55475508321E+02  0.87780148236E+02  0.44672706650E+03  0.45863706609E+03  0.00000000000E+00 0. -1.
         22    1    3    3    0    0 -0.44220701834E+02 -0.74017600820E+02  0.70554950452E+02  0.11140950020E+03  0.00000000000E+00 0.  1.
         22    1    3    3    0    0  0.42143206673E+02 -0.92907169373E+02 -0.18161225411E+02  0.10362249803E+03  0.00000000000E+00 0.  1.
</event>
<event>
 7    1  0.6607887E-006  0.8083107E+02  0.7818608E-02  0.1379071E+00
          2   -1    0    0  502    0  0.00000000000E+00  0.00000000000E+00  0.11683305816E+04  0.11683305816E+04  0.00000000000E+00 0. -1.
          1   -1    0    0  501    0 -0.00000000000E+00 -0.00000000000E+00 -0.17565966116E+03  0.17565966116E+03  0.00000000000E+00 0. -1.
         25    2    1    2    0    0 -0.15795022418E+02  0.31647075969E+02  0.44587156657E+03  0.46441084997E+03  0.12499985417E+03 0.  0.
          2    1    1    2  501    0  0.63580486143E+02 -0.51646386021E+02 -0.15529618783E+03  0.17557543497E+03  0.00000000000E+00 0. -1.
          1    1    1    2  502    0 -0.47785463725E+02  0.19999310052E+02  0.70209554171E+03  0.70400395783E+03  0.00000000000E+00 0. -1.
         22    1    3    3    0    0  0.54476942765E+02  0.18369714009E+02  0.22618514492E+03  0.23337716998E+03  0.00000000000E+00 0. -1.
         22    1    3    3    0    0 -0.70271965182E+02  0.13277361960E+02  0.21968642166E+03  0.23103368000E+03  0.00000000000E+00 0. -1.
</event>
<event>
 7    1  0.6607887E-006  0.6771645E+02  0.7818608E-02  0.1525361E+00
          2   -1    0    0  502    0  0.00000000000E+00  0.00000000000E+00  0.33475875455E+03  0.33475875455E+03  0.00000000000E+00 0. -1.
          1   -1    0    0  501    0 -0.00000000000E+00 -0.00000000000E+00 -0.31121598305E+04  0.31121598305E+04  0.00000000000E+00 0. -1.
         25    2    1    2    0    0  0.30017290654E+02 -0.74693088512E+02 -0.36727086197E+03  0.39622235190E+03  0.12499668347E+03 0.  0.
          2    1    1    2  501    0 -0.10590470257E+02  0.66567974314E+02 -0.27296506015E+04  0.27304827155E+04  0.00000000000E+00 0. -1.
          1    1    1    2  502    0 -0.19426820397E+02  0.81251141979E+01  0.31952038755E+03  0.32021351765E+03  0.00000000000E+00 0. -1.
         22    1    3    3    0    0  0.28880705752E+02  0.22294949585E+02 -0.36838239143E+02  0.51848006759E+02  0.00000000000E+00 0. -1.
         22    1    3    3    0    0  0.11365849021E+01 -0.96988038098E+02 -0.33043262283E+03  0.34437434514E+03  0.00000000000E+00 0. -1.
</event>
<event>
 7    1  0.6607887E-006  0.7140933E+02  0.7818608E-02  0.1363197E+00
          2   -1    0    0  502    0  0.00000000000E+00  0.00000000000E+00  0.36951806242E+03  0.36951806242E+03  0.00000000000E+00 0. -1.
          1   -1    0    0  501    0 -0.00000000000E+00 -0.00000000000E+00 -0.13841726673E+03  0.13841726673E+03  0.00000000000E+00 0. -1.
         25    2    1    2    0    0  0.13477355220E+02  0.10946486086E+03  0.18037412339E+03  0.24561202306E+03  0.12500498636E+03 0.  0.
          2    1    1    2  501    0  0.33383675414E+02 -0.61780961260E+02 -0.85460271496E+02  0.11061109783E+03  0.00000000000E+00 0. -1.
          1    1    1    2  502    0 -0.46861030634E+02 -0.47683899601E+02  0.13618694381E+03  0.15171220827E+03  0.00000000000E+00 0. -1.
         22    1    3    3    0    0  0.15490549760E+02  0.33865351934E+02  0.16407648531E+03  0.16824955341E+03  0.00000000000E+00 0.  1.
         22    1    3    3    0    0 -0.20131945400E+01  0.75599508927E+02  0.16297638080E+02  0.77362469643E+02  0.00000000000E+00 0.  1.
</event>
<event>
 7    1  0.6607887E-006  0.6526012E+02  0.7818608E-02  0.1504207E+00
          2   -1    0    0  502    0  0.00000000000E+00  0.00000000000E+00  0.97958833379E+03  0.97958833379E+03  0.00000000000E+00 0. -1.
          1   -1    0    0  501    0 -0.00000000000E+00 -0.00000000000E+00 -0.31462877233E+03  0.31462877233E+03  0.00000000000E+00 0. -1.
         25    2    1    2    0    0  0.54942844936E+02  0.11023015696E+02  0.63295934415E+03  0.64761195598E+03  0.12499396423E+03 0.  0.
          2    1    1    2  501    0  0.15502077599E+02 -0.19861734718E+02 -0.30306002827E+03  0.30410554689E+03  0.00000000000E+00 0. -1.
          1    1    1    2  502    0 -0.70444922535E+02  0.88387190221E+01  0.33506024557E+03  0.34249960325E+03  0.00000000000E+00 0. -1.
         22    1    3    3    0    0  0.66618228490E+02 -0.42074032110E+02  0.29659158579E+03  0.30687909884E+03  0.00000000000E+00 0.  1.
         22    1    3    3    0    0 -0.11675383554E+02  0.53097047806E+02  0.33636775837E+03  0.34073285714E+03  0.00000000000E+00 0.  1.
</event>
<event>
 7    1  0.6607887E-006  0.1678450E+03  0.7818608E-02  0.1372995E+00
          2   -1    0    0  502    0  0.00000000000E+00  0.00000000000E+00  0.35982467760E+02  0.35982467760E+02  0.00000000000E+00 0. -1.
          1   -1    0    0  501    0 -0.00000000000E+00 -0.00000000000E+00 -0.24132709508E+04  0.24132709508E+04  0.00000000000E+00 0. -1.
         25    2    1    2    0    0  0.11899776092E+03 -0.10027908933E+03 -0.18330974173E+04  0.18439318916E+04  0.12498926755E+03 0.  0.
          2    1    1    2  501    0 -0.53967117938E+01 -0.25660447259E+02 -0.33494877678E+03  0.33597360926E+03  0.00000000000E+00 0. -1.
          1    1    1    2  502    0 -0.11360104913E+03  0.12593953659E+03 -0.20924228899E+03  0.26934791765E+03  0.00000000000E+00 0. -1.
         22    1    3    3    0    0  0.24526828132E+02 -0.96335951144E+02 -0.11556606874E+04  0.11599283621E+04  0.00000000000E+00 0. -1.
         22    1    3    3    0    0  0.94470932788E+02 -0.39431381846E+01 -0.67743672986E+03  0.68400352956E+03  0.00000000000E+00 0. -1.
</event>
<event>
 7    1  0.6607887E-006  0.5276453E+02  0.7818608E-02  0.1514321E+00
          2   -1    0    0  502    0  0.00000000000E+00  0.00000000000E+00  0.14879674591E+04  0.14879674591E+04  0.00000000000E+00 0. -1.
          1   -1    0    0  501    0 -0.00000000000E+00 -0.00000000000E+00 -0.15344868535E+03  0.15344868535E+03  0.00000000000E+00 0. -1.
         25    2    1    2    0    0  0.10377513722E+02 -0.38171308090E+02  0.55753836085E+03  0.57274633944E+03  0.12499841586E+03 0.  0.
          2    1    1    2  501    0 -0.25214902857E+02 -0.14517232865E+02 -0.14357247501E+03  0.14649094496E+03  0.00000000000E+00 0. -1.
          1    1    1    2  502    0  0.14837389135E+02  0.52688540954E+02  0.92055288790E+03  0.92217886003E+03  0.00000000000E+00 0. -1.
         22    1    3    3    0    0  0.15883109925E+02 -0.81217233976E+02  0.28489926346E+03  0.29667507916E+03  0.00000000000E+00 0.  1.
         22    1    3    3    0    0 -0.55055962036E+01  0.43045925887E+02  0.27263909739E+03  0.27607126028E+03  0.00000000000E+00 0.  1.
</event>
<event>
 7    1  0.6607887E-006  0.1314681E+03  0.7818608E-02  0.1410289E+00
          2   -1    0    0  502    0  0.00000000000E+00  0.00000000000E+00  0.19955907078E+04  0.19955907078E+04  0.00000000000E+00 0. -1.
          1   -1    0    0  501    0 -0.00000000000E+00 -0.00000000000E+00 -0.18743153988E+03  0.18743153988E+03  0.00000000000E+00 0. -1.
         25    2    1    2    0    0 -0.11063072830E+03  0.10182725156E+03  0.38607224968E+03  0.43276464731E+03  0.12500204313E+03 0.  0.
          2    1    1    2  501    0  0.24203552821E+02 -0.55224263713E+01 -0.16049028506E+03  0.16239901712E+03  0.00000000000E+00 0. -1.
          1    1    1    2  502    0  0.86427175483E+02 -0.96304825186E+02  0.15825772033E+04  0.15878585832E+04  0.00000000000E+00 0. -1.
         22    1    3    3    0    0 -0.69678667432E+02 -0.72328340288E+01  0.21227884083E+03  0.22353911704E+03  0.00000000000E+00 0. -1.
         22    1    3    3    0    0 -0.40952060872E+02  0.10906008559E+03  0.17379340884E+03  0.20922553027E+03  0.00000000000E+00 0. -1.
</event>
<event>
 7    1  0.6607887E-006  0.1275265E+03  0.7818608E-02  0.1237047E+00
          2   -1    0    0  502    0  0.00000000000E+00  0.00000000000E+00  0.12095026434E+04  0.12095026434E+04  0.00000000000E+00 0. -1.
          1   -1    0    0  501    0 -0.00000000000E+00 -0.00000000000E+00 -0.99083574603E+03  0.99083574603E+03  0.00000000000E+00 0. -1.
         25    2    1    2    0    0 -0.10111581210E+02 -0.14953817206E+03  0.32689658980E+03  0.38072269222E+03  0.12499791586E+03 0.  0.
          2    1    1    2  501    0  0.10391172939E+03  0.74580547388E+02 -0.95542772474E+03  0.96395126576E+03  0.00000000000E+00 0. -1.
          1    1    1    2  502    0 -0.93800148178E+02  0.74957624675E+02  0.84719803230E+03  0.85566443144E+03  0.00000000000E+00 0. -1.
         22    1    3    3    0    0  0.44401506021E+02 -0.12660108813E+03  0.20148189911E+03  0.24206256407E+03  0.00000000000E+00 0.  1.
         22    1    3    3    0    0 -0.54513087231E+02 -0.22937083932E+02  0.12541469069E+03  0.13866012815E+03  0.00000000000E+00 0.  1.
</event>
<event>
 7    1  0.8790529E-006  0.8220435E+02  0.7818608E-02  0.1394015E+00
          2   -1    0    0  502    0  0.00000000000E+00  0.00000000000E+00  0.12547037068E+04  0.12547037068E+04  0.00000000000E+00 0. -1.
          1   -1    0    0  501    0 -0.00000000000E+00 -0.00000000000E+00 -0.90919477963E+03  0.90919477963E+03  0.00000000000E+00 0. -1.
         25    2    1    2    0    0 -0.17538047305E+02  0.38161047320E+02 -0.75665062826E+02  0.15203150123E+03  0.12499810797E+03 0.  0.
          2    1    1    2  501    0  0.93633330851E+01  0.44163555858E+02 -0.79329748508E+03  0.79458101633E+03  0.00000000000E+00 0. -1.
          1    1    1    2  502    0  0.81747142194E+01 -0.82324603178E+02  0.12144714751E+04  0.12172859689E+04  0.00000000000E+00 0. -1.
         22    1    3    3    0    0 -0.38564038627E+02 -0.28076088221E+02 -0.66640560709E+02  0.81953743884E+02  0.00000000000E+00 0. -1.
         22    1    3    3    0    0  0.21025991322E+02  0.66237135540E+02 -0.90245021165E+01  0.70077757342E+02  0.00000000000E+00 0. -1.
</event>
<event>
 7    1  0.6607887E-006  0.9581871E+02  0.7818608E-02  0.1390294E+00
          2   -1    0    0  502    0  0.00000000000E+00  0.00000000000E+00  0.13918336954E+03  0.13918336954E+03  0.00000000000E+00 0. -1.
          1   -1    0    0  501    0 -0.00000000000E+00 -0.00000000000E+00 -0.16184536586E+04  0.16184536586E+04  0.00000000000E+00 0. -1.
         25    2    1    2    0    0 -0.34593408174E+02 -0.10596652581E+03 -0.32378978374E+03  0.36454351850E+03  0.12500617722E+03 0.  0.
          2    1    1    2  501    0  0.38432257884E+02  0.10731041906E+02 -0.12548024631E+04  0.12554367427E+04  0.00000000000E+00 0. -1.
          1    1    1    2  502    0 -0.38388497096E+01  0.95235483909E+02  0.99321957792E+02  0.13765676686E+03  0.00000000000E+00 0. -1.
         22    1    3    3    0    0  0.17631942919E+02  0.97125093568E+01 -0.40494006662E+01  0.20533287483E+02  0.00000000000E+00 0. -1.
         22    1    3    3    0    0 -0.52225351093E+02 -0.11567903517E+03 -0.31974038307E+03  0.34401023101E+03  0.00000000000E+00 0. -1.
</event>
<event>
 7    1  0.6607887E-006  0.5127866E+02  0.7818608E-02  0.1522548E+00
          2   -1    0    0  502    0  0.00000000000E+00  0.00000000000E+00  0.60177696411E+03  0.60177696411E+03  0.00000000000E+00 0. -1.
          1   -1    0    0  501    0 -0.00000000000E+00 -0.00000000000E+00 -0.71242034053E+02  0.71242034053E+02  0.00000000000E+00 0. -1.
         25    2    1    2    0    0  0.13481309662E+01 -0.59156848136E+02  0.45749831770E+03  0.47795654163E+03  0.12504557109E+03 0.  0.
          2    1    1    2  501    0 -0.24114009251E+02  0.14874619512E+02 -0.52695945626E+02  0.59829778816E+02  0.00000000000E+00 0. -1.
          1    1    1    2  502    0  0.22765878285E+02  0.44282228624E+02  0.12573255799E+03  0.13523267772E+03  0.00000000000E+00 0. -1.
         22    1    3    3    0    0 -0.56435524267E+02 -0.45037543287E+02  0.32167443747E+03  0.32967831658E+03  0.00000000000E+00 0.  1.
         22    1    3    3    0    0  0.57783655233E+02 -0.14119304849E+02  0.13582388023E+03  0.14827822505E+03  0.00000000000E+00 0.  1.
</event>
<event>
 7    1  0.6607887E-006  0.6859884E+02  0.7818608E-02  0.1500678E+00
          2   -1    0    0  502    0  0.00000000000E+00  0.00000000000E+00  0.22433262485E+03  0.22433262485E+03  0.00000000000E+00 0. -1.
          1   -1    0    0  501    0 -0.00000000000E+00 -0.00000000000E+00 -0.15788944954E+03  0.15788944954E+03  0.00000000000E+00 0. -1.
         25    2    1    2    0    0 -0.70504734523E+02 -0.48512109972E+02  0.70347035204E+02  0.16702761173E+03  0.12500070125E+03 0.  0.
          2    1    1    2  501    0  0.24448104767E+02  0.22936719087E+01 -0.97810047343E+02  0.10084530787E+03  0.00000000000E+00 0. -1.
          1    1    1    2  502    0  0.46056629756E+02  0.46218438063E+02  0.93906187451E+02  0.11434915480E+03  0.00000000000E+00 0. -1.
         22    1    3    3    0    0 -0.10179791534E+03 -0.11373910628E+02  0.53945370786E+02  0.11576823588E+03  0.00000000000E+00 0. -1.
         22    1    3    3    0    0  0.31293180816E+02 -0.37138199344E+02  0.16401664419E+02  0.51259375843E+02  0.00000000000E+00 0. -1.
</event>
<event>
 7    1  0.6607887E-006  0.1233295E+03  0.7818608E-02  0.1305766E+00
          2   -1    0    0  502    0  0.00000000000E+00  0.00000000000E+00  0.63864967554E+03  0.63864967554E+03  0.00000000000E+00 0. -1.
          1   -1    0    0  501    0 -0.00000000000E+00 -0.00000000000E+00 -0.80525287944E+03  0.80525287944E+03  0.00000000000E+00 0. -1.
         25    2    1    2    0    0 -0.94483345052E+02 -0.61418535424E+02  0.25678533140E+02  0.17025206585E+03  0.12500815925E+03 0.  0.
          2    1    1    2  501    0  0.38298214349E+02 -0.51212115778E+02 -0.72421285780E+03  0.72703074036E+03  0.00000000000E+00 0. -1.
          1    1    1    2  502    0  0.56185130703E+02  0.11263065120E+03  0.53193112077E+03  0.54661974877E+03  0.00000000000E+00 0. -1.
         22    1    3    3    0    0 -0.11376093333E+03 -0.80725506077E+02  0.29852912141E+02  0.14265116069E+03  0.00000000000E+00 0. -1.
         22    1    3    3    0    0  0.19277588280E+02  0.19306970653E+02 -0.41743790015E+01  0.27600905161E+02  0.00000000000E+00 0. -1.
</event>
<event>
 7    1  0.6607887E-006  0.1210225E+03  0.7818608E-02  0.1359928E+00
          2   -1    0    0  502    0  0.00000000000E+00  0.00000000000E+00  0.30119158766E+03  0.30119158766E+03  0.00000000000E+00 0. -1.
          1   -1    0    0  501    0 -0.00000000000E+00 -0.00000000000E+00 -0.64984219440E+03  0.64984219440E+03  0.00000000000E+00 0. -1.
         25    2    1    2    0    0  0.13163095112E+03 -0.73919868618E+02 -0.25029138970E+02  0.19759247792E+03  0.12500190104E+03 0.  0.
          2    1    1    2  501    0 -0.91159885360E+02  0.76361068139E+02 -0.52996981745E+03  0.54314744300E+03  0.00000000000E+00 0. -1.
          1    1    1    2  502    0 -0.40471065760E+02 -0.24411995213E+01  0.20634834968E+03  0.21029386114E+03  0.00000000000E+00 0. -1.
         22    1    3    3    0    0  0.19553943510E+02 -0.12725229869E+02  0.45923107794E+02  0.51509416726E+02  0.00000000000E+00 0.  1.
         22    1    3    3    0    0  0.11207700761E+03 -0.61194638749E+02 -0.70952246764E+02  0.14608306119E+03  0.00000000000E+00 0.  1.
</event>
<event>
 7    1  0.6607887E-006  0.9344634E+02  0.7818608E-02  0.1396431E+00
          2   -1    0    0  502    0  0.00000000000E+00  0.00000000000E+00  0.18593586094E+04  0.18593586094E+04  0.00000000000E+00 0. -1.
          1   -1    0    0  501    0 -0.00000000000E+00 -0.00000000000E+00 -0.47744448330E+03  0.47744448330E+03  0.00000000000E+00 0. -1.
         25    2    1    2    0    0  0.51585325947E+02 -0.72097822354E+02 -0.17801131538E+02  0.15427479659E+03  0.12499876294E+03 0.  0.
          2    1    1    2  501    0 -0.33562237252E+02 -0.19777633806E+02 -0.38920997718E+03  0.39115468156E+03  0.00000000000E+00 0. -1.
          1    1    1    2  502    0 -0.18023088695E+02  0.91875456160E+02  0.17889252348E+04  0.17913736146E+04  0.00000000000E+00 0. -1.
         22    1    3    3    0    0  0.88775470575E+02 -0.73342127191E+02 -0.62914625697E+01  0.11532447398E+03  0.00000000000E+00 0.  1.
         22    1    3    3    0    0 -0.37190144628E+02  0.12443048370E+01 -0.11509668968E+02  0.38950322614E+02  0.00000000000E+00 0.  1.
</event>
<event>
 7    1  0.6607887E-006  0.1319936E+03  0.7818608E-02  0.1232518E+00
          2   -1    0    0  502    0  0.00000000000E+00  0.00000000000E+00  0.30409698541E+03  0.30409698541E+03  0.00000000000E+00 0. -1.
          1   -1    0    0  501    0 -0.00000000000E+00 -0.00000000000E+00 -0.85268688704E+03  0.85268688704E+03  0.00000000000E+00 0. -1.
         25    2    1    2    0    0 -0.17769020176E+02  0.12757252855E+03  0.15613080972E+02  0.18016502020E+03  0.12500071235E+03 0.  0.
          2    1    1    2  501    0 -0.10676483418E+03 -0.77611669493E+02 -0.74212478426E+03  0.75377151477E+03  0.00000000000E+00 0. -1.
          1    1    1    2  502    0  0.12453385436E+03 -0.49960859057E+02  0.17792180166E+03  0.22284733748E+03  0.00000000000E+00 0. -1.
         22    1    3    3    0    0  0.12277028748E+02  0.10667795968E+03  0.59704612512E+02  0.12286396246E+03  0.00000000000E+00 0.  1.
         22    1    3    3    0    0 -0.30046048925E+02  0.20894568866E+02 -0.44091531540E+02  0.57301057736E+02  0.00000000000E+00 0.  1.
</event>
<event>
 7    1  0.6607887E-006  0.1323010E+03  0.7818608E-02  0.1371121E+00
          2   -1    0    0  502    0  0.00000000000E+00  0.00000000000E+00  0.38826083179E+03  0.38826083179E+03  0.00000000000E+00 0. -1.
          1   -1    0    0  501    0 -0.00000000000E+00 -0.00000000000E+00 -0.46463653316E+03  0.46463653316E+03  0.00000000000E+00 0. -1.
         25    2    1    2    0    0 -0.11411543717E+03 -0.66272410173E+02 -0.56939360116E+02  0.19047674348E+03  0.12499973491E+03 0.  0.
          2    1    1    2  501    0 -0.13833580243E+02  0.30822974085E+02 -0.32631137975E+03  0.32805569684E+03  0.00000000000E+00 0. -1.
          1    1    1    2  502    0  0.12794901741E+03  0.35449436088E+02  0.30687503849E+03  0.33436492463E+03  0.00000000000E+00 0. -1.
         22    1    3    3    0    0 -0.10086567958E+03 -0.27200703979E+02 -0.89778311986E+02  0.13774581270E+03  0.00000000000E+00 0. -1.
         22    1    3    3    0    0 -0.13249757592E+02 -0.39071706195E+02  0.32838951870E+02  0.52730930782E+02  0.00000000000E+00 0. -1.
</event>
<event>
 7    1  0.6607887E-006  0.5728443E+02  0.7818608E-02  0.1453460E+00
          2   -1    0    0  502    0  0.00000000000E+00  0.00000000000E+00  0.45992579499E+03  0.45992579499E+03  0.00000000000E+00 0. -1.
          1   -1    0    0  501    0 -0.00000000000E+00 -0.00000000000E+00 -0.31756953138E+03  0.31756953138E+03  0.00000000000E+00 0. -1.
         25    2    1    2    0    0 -0.72482144139E+02 -0.36484881404E+01  0.33844268858E+03  0.36801599970E+03  0.12500139956E+03 0.  0.
          2    1    1    2  501    0  0.26436173220E+02  0.31477614647E+02 -0.29448079403E+03  0.29733592035E+03  0.00000000000E+00 0. -1.
          1    1    1    2  502    0  0.46045970918E+02 -0.27829126507E+02  0.98394369059E+02  0.11214340633E+03  0.00000000000E+00 0. -1.
         22    1    3    3    0    0 -0.52098268082E+02  0.58233092737E+02  0.16021399587E+03  0.17825220083E+03  0.00000000000E+00 0.  1.
         22    1    3    3    0    0 -0.20383876057E+02 -0.61881580878E+02  0.17822869271E+03  0.18976379887E+03  0.00000000000E+00 0.  1.
</event>
<event>
 7    1  0.6607887E-006  0.3783559E+02  0.7818608E-02  0.1582611E+00
          2   -1    0    0  502    0  0.00000000000E+00  0.00000000000E+00  0.68432492820E+03  0.68432492820E+03  0.00000000000E+00 0. -1.
          1   -1    0    0  501    0 -0.00000000000E+00 -0.00000000000E+00 -0.11579300708E+04  0.11579300708E+04  0.00000000000E+00 0. -1.
         25    2    1    2    0    0  0.62541428408E+02  0.13153038521E+02  0.38660073607E+03  0.41131033918E+03  0.12502653038E+03 0.  0.
          2    1    1    2  501    0 -0.37229802756E+02 -0.66280929782E+01 -0.11446638130E+04  0.11452882758E+04  0.00000000000E+00 0. -1.
          1    1    1    2  502    0 -0.25311625652E+02 -0.65249455428E+01  0.28445793436E+03  0.28565638402E+03  0.00000000000E+00 0. -1.
         22    1    3    3    0    0  0.13947014723E+02 -0.49843120757E+02  0.86132898903E+02  0.10048747275E+03  0.00000000000E+00 0. -1.
         22    1    3    3    0    0  0.48594413685E+02  0.62996159278E+02  0.30046783717E+03  0.31082286643E+03  0.00000000000E+00 0. -1.
</event>
<event>
 7    1  0.6607887E-006  0.1079429E+03  0.7818608E-02  0.1330399E+00
          2   -1    0    0  502    0  0.00000000000E+00  0.00000000000E+00  0.24026722742E+04  0.24026722742E+04  0.00000000000E+00 0. -1.
          1   -1    0    0  501    0 -0.00000000000E+00 -0.00000000000E+00 -0.93837651448E+03  0.93837651448E+03  0.00000000000E+00 0. -1.
         25    2    1    2    0    0 -0.63272244892E+02 -0.32531233214E+02  0.97762783819E+03  0.98815187435E+03  0.12500511456E+03 0.  0.
          2    1    1    2  501    0 -0.57419042299E+02 -0.11664544478E+02 -0.92928111998E+03  0.93112641889E+03  0.00000000000E+00 0. -1.
          1    1    1    2  502    0  0.12069128719E+03  0.44195777692E+02  0.14159490415E+04  0.14217704954E+04  0.00000000000E+00 0. -1.
         22    1    3    3    0    0 -0.97668693190E+02 -0.25323708883E+01  0.70316571859E+03  0.70992085075E+03  0.00000000000E+00 0. -1.
         22    1    3    3    0    0  0.34396448298E+02 -0.29998862325E+02  0.27446211961E+03  0.27823102360E+03  0.00000000000E+00 0. -1.
</event>
<event>
 7    1  0.6607887E-006  0.7446312E+02  0.7818608E-02  0.1360332E+00
          2   -1    0    0  502    0  0.00000000000E+00  0.00000000000E+00  0.61207150345E+03  0.61207150345E+03  0.00000000000E+00 0. -1.
          1   -1    0    0  501    0 -0.00000000000E+00 -0.00000000000E+00 -0.71208609759E+03  0.71208609759E+03  0.00000000000E+00 0. -1.
         25    2    1    2    0    0 -0.13588142039E+03 -0.30270084540E+02  0.27676068220E+03  0.33407279859E+03  0.12501248386E+03 0.  0.
          2    1    1    2  501    0  0.70758014243E+02  0.21795133057E+02 -0.67787503766E+03  0.68190636534E+03  0.00000000000E+00 0. -1.
          1    1    1    2  502    0  0.65123406146E+02  0.84749514827E+01  0.30109976132E+03  0.30817843711E+03  0.00000000000E+00 0. -1.
         22    1    3    3    0    0 -0.13097865151E+03 -0.61561082245E+02  0.26158673227E+03  0.29895282654E+03  0.00000000000E+00 0. -1.
         22    1    3    3    0    0 -0.49027688823E+01  0.31290997704E+02  0.15173949925E+02  0.35119972044E+02  0.00000000000E+00 0. -1.
</event>
<event>
 7    1  0.6607887E-006  0.1225105E+03  0.7818608E-02  0.1272111E+00
          2   -1    0    0  502    0  0.00000000000E+00  0.00000000000E+00  0.31213253318E+04  0.31213253318E+04  0.00000000000E+00 0. -1.
          1   -1    0    0  501    0 -0.00000000000E+00 -0.00000000000E+00 -0.35161967186E+03  0.35161967186E+03  0.00000000000E+00 0. -1.
         25    2    1    2    0    0  0.31601229633E+02  0.18989243110E+03  0.47673101760E+03  0.52910807917E+03  0.12500049278E+03 0.  0.
          2    1    1    2  501    0  0.21379127925E+02 -0.11927866744E+03 -0.31337708951E+03  0.33599057702E+03  0.00000000000E+00 0. -1.
          1    1    1    2  502    0 -0.52980357558E+02 -0.70613763659E+02  0.26063517318E+04  0.26078463474E+04  0.00000000000E+00 0. -1.
         22    1    3    3    0    0  0.12600712149E+01  0.19731366874E+03  0.42691763660E+03  0.47031153515E+03  0.00000000000E+00 0.  1.
         22    1    3    3    0    0  0.30341158418E+02 -0.74212376386E+01  0.49813380994E+02  0.58796544017E+02  0.00000000000E+00 0.  1.
</event>
<event>
 7    1  0.6607887E-006  0.6476489E+02  0.7818608E-02  0.1442016E+00
          2   -1    0    0  502    0  0.00000000000E+00  0.00000000000E+00  0.25634695954E+04  0.25634695954E+04  0.00000000000E+00 0. -1.
          1   -1    0    0  501    0 -0.00000000000E+00 -0.00000000000E+00 -0.16561405780E+03  0.16561405780E+03  0.00000000000E+00 0. -1.
         25    2    1    2    0    0 -0.86378745165E+02  0.10771100719E+02  0.22784832045E+03  0.27407536026E+03  0.12500056696E+03 0.  0.
          2    1    1    2  501    0  0.61232333515E+02  0.19777547335E+02 -0.13505799391E+03  0.14960351522E+03  0.00000000000E+00 0. -1.
          1    1    1    2  502    0  0.25146411650E+02 -0.30548648054E+02  0.23050652110E+04  0.23054047777E+04  0.00000000000E+00 0. -1.
         22    1    3    3    0    0 -0.55201718013E+02 -0.12724829016E+02  0.16289750691E+02  0.58944948237E+02  0.00000000000E+00 0. -1.
         22    1    3    3    0    0 -0.31177027151E+02  0.23495929735E+02  0.21155856976E+03  0.21513041202E+03  0.00000000000E+00 0. -1.
</event>
<event>
 7    1  0.6607887E-006  0.5934021E+02  0.7818608E-02  0.1488619E+00
          2   -1    0    0  502    0  0.00000000000E+00  0.00000000000E+00  0.10426507069E+04  0.10426507069E+04  0.00000000000E+00 0. -1.
          1   -1    0    0  501    0 -0.00000000000E+00 -0.00000000000E+00 -0.48053582930E+02  0.48053582930E+02  0.00000000000E+00 0. -1.
         25    2    1    2    0    0 -0.47831478640E+02  0.58701168095E+02  0.65783437415E+03  0.67387318712E+03  0.12500132408E+03 0.  0.
          2    1    1    2  501    0  0.17055082328E+02 -0.56458463611E+02 -0.17271040586E+02  0.61455046900E+02  0.00000000000E+00 0. -1.
          1    1    1    2  502    0  0.30776396312E+02 -0.22427044840E+01  0.35403379043E+03  0.35537605583E+03  0.00000000000E+00 0. -1.
         22    1    3    3    0    0  0.17673379196E+02  0.11144143144E+02  0.45504823483E+03  0.45552764601E+03  0.00000000000E+00 0.  1.
         22    1    3    3    0    0 -0.65504857836E+02  0.47557024951E+02  0.20278613932E+03  0.21834554111E+03  0.00000000000E+00 0.  1.
</event>
<event>
 7    1  0.6607887E-006  0.8926795E+02  0.7818608E-02  0.1339575E+00
          2   -1    0    0  502    0  0.00000000000E+00  0.00000000000E+00  0.50202844305E+03  0.50202844305E+03  0.00000000000E+00 0. -1.
          1   -1    0    0  501    0 -0.00000000000E+00 -0.00000000000E+00 -0.39119675116E+03  0.39119675116E+03  0.00000000000E+00 0. -1.
         25    2    1    2    0    0  0.17726612880E+02  0.30875769908E+02 -0.55118958321E+02  0.14117705105E+03  0.12500125681E+03 0.  0.
          2    1    1    2  501    0 -0.33658993704E+02 -0.94300744769E+02 -0.28205220587E+03  0.29929751947E+03  0.00000000000E+00 0. -1.
          1    1    1    2  502    0  0.15932380825E+02  0.63424974862E+02  0.44800285609E+03  0.45275062369E+03  0.00000000000E+00 0. -1.
         22    1    3    3    0    0  0.42696693483E+02 -0.69982017826E+01  0.24367463240E+02  0.49656376503E+02  0.00000000000E+00 0.  1.
         22    1    3    3    0    0 -0.24970080604E+02  0.37873971691E+02 -0.79486421561E+02  0.91520674547E+02  0.00000000000E+00 0.  1.
</event>
<event>
 7    1  0.6607887E-006  0.5682604E+02  0.7818608E-02  0.1482289E+00
          2   -1    0    0  502    0  0.00000000000E+00  0.00000000000E+00  0.14823894146E+03  0.14823894146E+03  0.00000000000E+00 0. -1.
          1   -1    0    0  501    0 -0.00000000000E+00 -0.00000000000E+00 -0.36438221136E+03  0.36438221136E+03  0.00000000000E+00 0. -1.
         25    2    1    2    0    0 -0.14134436346E+02 -0.83308284106E+02 -0.63304149016E+02  0.16362159518E+03  0.12499823453E+03 0.  0.
          2    1    1    2  501    0  0.18140081117E+02  0.28383878001E+02 -0.24192908366E+03  0.24426294970E+03  0.00000000000E+00 0. -1.
          1    1    1    2  502    0 -0.40056447717E+01  0.54924406105E+02  0.89089962773E+02  0.10473660794E+03  0.00000000000E+00 0. -1.
         22    1    3    3    0    0 -0.64414286064E+02 -0.15338686808E+02 -0.24589829543E+02  0.70633811160E+02  0.00000000000E+00 0.  1.
         22    1    3    3    0    0  0.50279849718E+02 -0.67969597298E+02 -0.38714319473E+02  0.92987784019E+02  0.00000000000E+00 0.  1.
</event>
<event>
 7    1  0.6607887E-006  0.9904747E+02  0.7818608E-02  0.1355595E+00
          2   -1    0    0  502    0  0.00000000000E+00  0.00000000000E+00  0.12229304068E+04  0.12229304068E+04  0.00000000000E+00 0. -1.
          1   -1    0    0  501    0 -0.00000000000E+00 -0.00000000000E+00 -0.64028525916E+02  0.64028525916E+02  0.00000000000E+00 0. -1.
         25    2    1    2    0    0 -0.10810270715E+03 -0.40404078254E+02  0.27274783437E+03  0.32145800311E+03  0.12500072709E+03 0.  0.
          2    1    1    2  501    0  0.66920422133E+02  0.71132814719E+02  0.22373952435E+02  0.10019388193E+03  0.00000000000E+00 0. -1.
          1    1    1    2  502    0  0.41182285020E+02 -0.30728736465E+02  0.86378009404E+03  0.86530704765E+03  0.00000000000E+00 0. -1.
         22    1    3    3    0    0 -0.60436616833E+02 -0.17266992565E+02  0.25927795466E+03  0.26678791476E+03  0.00000000000E+00 0.  1.
         22    1    3    3    0    0 -0.47666090320E+02 -0.23137085689E+02  0.13469879709E+02  0.54670088348E+02  0.00000000000E+00 0.  1.
</event>
<event>
 7    1  0.6607887E-006  0.9815495E+02  0.7818608E-02  0.1318095E+00
          2   -1    0    0  502    0  0.00000000000E+00  0.00000000000E+00  0.50832599631E+03  0.50832599631E+03  0.00000000000E+00 0. -1.
          1   -1    0    0  501    0 -0.00000000000E+00 -0.00000000000E+00 -0.13763128182E+04  0.13763128182E+04  0.00000000000E+00 0. -1.
         25    2    1    2    0    0 -0.44205816433E+02 -0.15850270866E+03  0.74951710084E+02  0.21981981656E+03  0.12500292016E+03 0.  0.
          2    1    1    2  501    0  0.19836677424E+02  0.69077840980E+02 -0.12969172076E+04  0.12989070349E+04  0.00000000000E+00 0. -1.
          1    1    1    2  502    0  0.24369139009E+02  0.89424867681E+02  0.35397867564E+03  0.36591196305E+03  0.00000000000E+00 0. -1.
         22    1    3    3    0    0 -0.32403159945E+02 -0.15717421799E+03  0.17819267821E+02  0.16146586600E+03  0.00000000000E+00 0. -1.
         22    1    3    3    0    0 -0.11802656489E+02 -0.13284906672E+01  0.57132442263E+02  0.58353950566E+02  0.00000000000E+00 0. -1.
</event>
<event>
 7    1  0.6607887E-006  0.5173049E+02  0.7818608E-02  0.1467382E+00
          2   -1    0    0  502    0  0.00000000000E+00  0.00000000000E+00  0.17039978178E+04  0.17039978178E+04  0.00000000000E+00 0. -1.
          1   -1    0    0  501    0 -0.00000000000E+00 -0.00000000000E+00 -0.52166702055E+03  0.52166702055E+03  0.00000000000E+00 0. -1.
         25    2    1    2    0    0 -0.36966686736E+02 -0.15256550946E+02 -0.23729806429E+03  0.27117346081E+03  0.12500150502E+03 0.  0.
          2    1    1    2  501    0 -0.83528031217E+01  0.40286815036E+02 -0.26544887335E+03  0.26861850485E+03  0.00000000000E+00 0. -1.
          1    1    1    2  502    0  0.45319489858E+02 -0.25030264090E+02  0.16850777349E+04  0.16858728727E+04  0.00000000000E+00 0. -1.
         22    1    3    3    0    0 -0.27473122606E+01  0.50120225672E+02 -0.14223289557E+03  0.15083030640E+03  0.00000000000E+00 0.  1.
         22    1    3    3    0    0 -0.34219374476E+02 -0.65376776618E+02 -0.95065168718E+02  0.12034315441E+03  0.00000000000E+00 0.  1.
</event>
<event>
 7    1  0.6607887E-006  0.7263675E+02  0.7818608E-02  0.1474325E+00
          2   -1    0    0  502    0  0.00000000000E+00  0.00000000000E+00  0.14457334462E+04  0.14457334462E+04  0.00000000000E+00 0. -1.
          1   -1    0    0  501    0 -0.00000000000E+00 -0.00000000000E+00 -0.79956046682E+03  0.79956046682E+03  0.00000000000E+00 0. -1.
         25    2    1    2    0    0 -0.81569827823E+02 -0.52325177821E+02  0.63547863728E+02  0.17045266555E+03  0.12499687662E+03 0.  0.
          2    1    1    2  501    0  0.66188209201E+02  0.29070213864E+02 -0.74421019207E+03  0.74771302406E+03  0.00000000000E+00 0. -1.
          1    1    1    2  502    0  0.15381618623E+02  0.23254963957E+02  0.13268353077E+04  0.13271282234E+04  0.00000000000E+00 0. -1.
         22    1    3    3    0    0 -0.32339829360E+02  0.35689165291E+02  0.48745311249E+02  0.68525078992E+02  0.00000000000E+00 0.  1.
         22    1    3    3    0    0 -0.49229998464E+02 -0.88014343111E+02  0.14802552479E+02  0.10192758656E+03  0.00000000000E+00 0.  1.
</event>
<event>
 7    1  0.6607887E-006  0.2391316E+03  0.7818608E-02  0.1301682E+00
          2   -1    0    0  502    0  0.00000000000E+00  0.00000000000E+00  0.44728721896E+03  0.44728721896E+03  0.00000000000E+00 0. -1.
          1   -1    0    0  501    0 -0.00000000000E+00 -0.00000000000E+00 -0.70415363281E+03  0.70415363281E+03  0.00000000000E+00 0. -1.
         25    2    1    2    0    0  0.18013606153E+03  0.18132056748E+03  0.92735848463E+02  0.29925090330E+03  0.12500006673E+03 0.  0.
          2    1    1    2  501    0 -0.18589447420E+03 -0.14756976637E+03 -0.57612201029E+03  0.62309723336E+03  0.00000000000E+00 0. -1.
          1    1    1    2  502    0  0.57584126768E+01 -0.33750801107E+02  0.22651974798E+03  0.22909271511E+03  0.00000000000E+00 0. -1.
         22    1    3    3    0    0  0.16600845763E+03  0.20019677296E+03  0.78293320188E+02  0.27160154619E+03  0.00000000000E+00 0. -1.
         22    1    3    3    0    0  0.14127603897E+02 -0.18876205484E+02  0.14442528276E+02  0.27649357106E+02  0.00000000000E+00 0. -1.
</event>
<event>
 7    1  0.6607887E-006  0.1219704E+03  0.7818608E-02  0.1319704E+00
          2   -1    0    0  502    0  0.00000000000E+00  0.00000000000E+00  0.22425624541E+04  0.22425624541E+04  0.00000000000E+00 0. -1.
          1   -1    0    0  501    0 -0.00000000000E+00 -0.00000000000E+00 -0.14523678128E+04  0.14523678128E+04  0.00000000000E+00 0. -1.
         25    2    1    2    0    0  0.10391273248E+03 -0.10878566062E+03 -0.30447148904E+02  0.19795004128E+03  0.12500005615E+03 0.  0.
          2    1    1    2  501    0 -0.46987170221E+02  0.11188184231E+03 -0.13350405618E+04  0.13405441591E+04  0.00000000000E+00 0. -1.
          1    1    1    2  502    0 -0.56925562262E+02 -0.30961816889E+01  0.21556823520E+04  0.21564360665E+04  0.00000000000E+00 0. -1.
         22    1    3    3    0    0 -0.17091871834E+02 -0.19211029898E+02  0.26559101851E+02  0.36967305064E+02  0.00000000000E+00 0. -1.
         22    1    3    3    0    0  0.12100460432E+03 -0.89574630726E+02 -0.57006250756E+02  0.16098273622E+03  0.00000000000E+00 0. -1.
</event>
<event>
 7    1  0.6607887E-006  0.5760377E+02  0.7818608E-02  0.1429382E+00
          2   -1    0    0  502    0  0.00000000000E+00  0.00000000000E+00  0.26469073301E+04  0.26469073301E+04  0.00000000000E+00 0. -1.
          1   -1    0    0  501    0 -0.00000000000E+00 -0.00000000000E+00 -0.91320287403E+03  0.91320287403E+03  0.00000000000E+00 0. -1.
         25    2    1    2    0    0 -0.57807882807E+02 -0.50849202012E+02  0.95055406626E+03  0.96182405621E+03  0.12500035828E+03 0.  0.
          2    1    1    2  501    0  0.92582551511E+01  0.56853063060E+02 -0.90629949315E+03  0.90812816130E+03  0.00000000000E+00 0. -1.
          1    1    1    2  502    0  0.48549627656E+02 -0.60038610479E+01  0.16894498829E+04  0.16901579866E+04  0.00000000000E+00 0. -1.
         22    1    3    3    0    0 -0.63491179216E+01  0.40918033655E+02  0.29098971950E+03  0.29392110103E+03  0.00000000000E+00 0. -1.
         22    1    3    3    0    0 -0.51458764885E+02 -0.91767235668E+02  0.65956434676E+03  0.66790295518E+03  0.00000000000E+00 0. -1.
</event>
<event>
 7    1  0.6607887E-006  0.4884320E+02  0.7818608E-02  0.1508430E+00
          2   -1    0    0  502    0  0.00000000000E+00  0.00000000000E+00  0.18846953510E+04  0.18846953510E+04  0.00000000000E+00 0. -1.
          1   -1    0    0  501    0 -0.00000000000E+00 -0.00000000000E+00 -0.60336954070E+03  0.60336954070E+03  0.00000000000E+00 0. -1.
         25    2    1    2    0    0  0.59659149752E+02  0.35034672907E+02  0.28338403961E+03  0.31736259400E+03  0.12500343880E+03 0.  0.
          2    1    1    2  501    0 -0.11315144458E+02 -0.30689871194E+02 -0.58555194959E+03  0.58646482108E+03  0.00000000000E+00 0. -1.
          1    1    1    2  502    0 -0.48344005293E+02 -0.43448017129E+01  0.15834937203E+04  0.15842374766E+04  0.00000000000E+00 0. -1.
         22    1    3    3    0    0  0.24559535927E+01 -0.36912874451E+02  0.15570433052E+03  0.16003884076E+03  0.00000000000E+00 0. -1.
         22    1    3    3    0    0  0.57203196159E+02  0.71947547359E+02  0.12767970909E+03  0.15732375324E+03  0.00000000000E+00 0. -1.
</event>
<event>
 7    1  0.6607887E-006  0.1228690E+03  0.7818608E-02  0.1445479E+00
          2   -1    0    0  502    0  0.00000000000E+00  0.00000000000E+00  0.64569481302E+03  0.64569481302E+03  0.00000000000E+00 0. -1.
          1   -1    0    0  501    0 -0.00000000000E+00 -0.00000000000E+00 -0.85236625430E+03  0.85236625430E+03  0.00000000000E+00 0. -1.
         25    2    1    2    0    0  0.49406265393E+02  0.90674928713E+02 -0.74421657040E+03  0.76167264646E+03  0.12499597970E+03 0.  0.
          2    1    1    2  501    0  0.48517968069E+01  0.19738549174E+02 -0.92366008876E+02  0.94576053266E+02  0.00000000000E+00 0. -1.
          1    1    1    2  502    0 -0.54258062200E+02 -0.11041347789E+03  0.62991113800E+03  0.64181236759E+03  0.00000000000E+00 0. -1.
         22    1    3    3    0    0 -0.20703713197E+02  0.84352419124E+02 -0.50102289051E+03  0.50849573368E+03  0.00000000000E+00 0. -1.
         22    1    3    3    0    0  0.70109978590E+02  0.63225095884E+01 -0.24319367989E+03  0.25317691278E+03  0.00000000000E+00 0. -1.
</event>
<event>
 7    1  0.6607887E-006  0.1115458E+03  0.7818608E-02  0.1267948E+00
          2   -1    0    0  502    0  0.00000000000E+00  0.00000000000E+00  0.14646452667E+04  0.14646452667E+04  0.00000000000E+00 0. -1.
          1   -1    0    0  501    0 -0.00000000000E+00 -0.00000000000E+00 -0.31536080090E+03  0.31536080090E+03  0.00000000000E+00 0. -1.
         25    2    1    2    0    0 -0.33647358692E+02  0.75611591782E+02  0.97573770984E+03  0.98718835622E+03  0.12501005839E+03 0.  0.
          2    1    1    2  501    0  0.11168534397E+03 -0.11589761508E+02 -0.29388838548E+03  0.31460820357E+03  0.00000000000E+00 0. -1.
          1    1    1    2  502    0 -0.78037985276E+02 -0.64021830273E+02  0.46743514143E+03  0.47820950779E+03  0.00000000000E+00 0. -1.
         22    1    3    3    0    0 -0.31364760262E+02  0.77816897692E+01  0.53824571083E+02  0.62780469369E+02  0.00000000000E+00 0.  1.
         22    1    3    3    0    0 -0.22825984303E+01  0.67829902013E+02  0.92191313876E+03  0.92440788685E+03  0.00000000000E+00 0.  1.
</event>
<event>
 7    1  0.6607887E-006  0.1437947E+03  0.7818608E-02  0.1234036E+00
          2   -1    0    0  502    0  0.00000000000E+00  0.00000000000E+00  0.40269486214E+03  0.40269486214E+03  0.00000000000E+00 0. -1.
          1   -1    0    0  501    0 -0.00000000000E+00 -0.00000000000E+00 -0.41122124270E+03  0.41122124270E+03  0.00000000000E+00 0. -1.
         25    2    1    2    0    0 -0.14900882798E+03 -0.91515726428E+02  0.17534412814E+03  0.27739645574E+03  0.12499788552E+03 0.  0.
          2    1    1    2  501    0  0.10235788691E+03 -0.39787744617E+02 -0.32206178246E+03  0.34027047088E+03  0.00000000000E+00 0. -1.
          1    1    1    2  502    0  0.46650941067E+02  0.13130347104E+03  0.13819127375E+03  0.19624917822E+03  0.00000000000E+00 0. -1.
         22    1    3    3    0    0 -0.59345397651E+01 -0.26041773240E+02 -0.14845688755E+02  0.30557931709E+02  0.00000000000E+00 0. -1.
         22    1    3    3    0    0 -0.14307428821E+03 -0.65473953188E+02  0.19018981690E+03  0.24683852403E+03  0.00000000000E+00 0. -1.
</event>
<event>
 7    1  0.6607887E-006  0.2947707E+02  0.7818608E-02  0.1650344E+00
          2   -1    0    0  502    0  0.00000000000E+00  0.00000000000E+00  0.28260430225E+04  0.28260430225E+04  0.00000000000E+00 0. -1.
          1   -1    0    0  501    0 -0.00000000000E+00 -0.00000000000E+00 -0.52599185004E+02  0.52599185004E+02  0.00000000000E+00 0. -1.
         25    2    1    2    0    0 -0.12683657449E+02  0.44161498256E+01  0.12868924367E+04  0.12930187356E+04  0.12499971771E+03 0.  0.
          2    1    1    2  501    0  0.26264306129E+02  0.13533907002E+02 -0.45040190195E+02  0.53866493741E+02  0.00000000000E+00 0. -1.
          1    1    1    2  502    0 -0.13580648681E+02 -0.17950056827E+02  0.15315915910E+04  0.15317569782E+04  0.00000000000E+00 0. -1.
         22    1    3    3    0    0 -0.47122420549E+02 -0.41672070575E+02  0.48455988848E+03  0.48862600167E+03  0.00000000000E+00 0.  1.
         22    1    3    3    0    0  0.34438763100E+02  0.46088220400E+02  0.80233254821E+03  0.80439273392E+03  0.00000000000E+00 0.  1.
</event>
<event>
 7    1  0.6607887E-006  0.1415160E+03  0.7818608E-02  0.1344781E+00
          2   -1    0    0  502    0  0.00000000000E+00  0.00000000000E+00  0.20672396621E+04  0.20672396621E+04  0.00000000000E+00 0. -1.
          1   -1    0    0  501    0 -0.00000000000E+00 -0.00000000000E+00 -0.61317237870E+03  0.61317237870E+03  0.00000000000E+00 0. -1.
         25    2    1    2    0    0 -0.11157017764E+03  0.36604850672E+02 -0.98893646353E-01  0.17150244787E+03  0.12500104085E+03 0.  0.
          2    1    1    2  501    0 -0.30304755453E+02 -0.25238728152E+02 -0.52407403421E+03  0.52555586281E+03  0.00000000000E+00 0. -1.
          1    1    1    2  502    0  0.14187493309E+03 -0.11366122520E+02  0.19782402112E+04  0.19833537301E+04  0.00000000000E+00 0. -1.
         22    1    3    3    0    0 -0.95521840083E+00 -0.18512688567E+02 -0.37961798317E+02  0.42246067410E+02  0.00000000000E+00 0. -1.
         22    1    3    3    0    0 -0.11061495924E+03  0.55117539239E+02  0.37862904671E+02  0.12925638046E+03  0.00000000000E+00 0. -1.
</event>
<event>
 7    1  0.6607887E-006  0.6732172E+02  0.7818608E-02  0.1407464E+00
          2   -1    0    0  502    0  0.00000000000E+00  0.00000000000E+00  0.11504302666E+04  0.11504302666E+04  0.00000000000E+00 0. -1.
          1   -1    0    0  501    0 -0.00000000000E+00 -0.00000000000E+00 -0.41523206432E+03  0.41523206432E+03  0.00000000000E+00 0. -1.
         25    2    1    2    0    0  0.23213655354E+02 -0.54589649566E+02  0.98748607068E+02  0.16998133802E+03  0.12499385682E+03 0.  0.
          2    1    1    2  501    0  0.25653882463E+02  0.62859988080E+02 -0.37596899491E+03  0.38204997700E+03  0.00000000000E+00 0. -1.
          1    1    1    2  502    0 -0.48867537817E+02 -0.82703385134E+01  0.10124185901E+04  0.10136310159E+04  0.00000000000E+00 0. -1.
         22    1    3    3    0    0 -0.37272899638E+02  0.49708894204E+01 -0.27023700062E+01  0.37699888498E+02  0.00000000000E+00 0. -1.
         22    1    3    3    0    0  0.60486554992E+02 -0.59560538987E+02  0.10145097707E+03  0.13228144953E+03  0.00000000000E+00 0. -1.
</event>
<event>
 7    1  0.6607887E-006  0.1261623E+03  0.7818608E-02  0.1406112E+00
          2   -1    0    0  502    0  0.00000000000E+00  0.00000000000E+00  0.13810158628E+04  0.13810158628E+04  0.00000000000E+00 0. -1.
          1   -1    0    0  501    0 -0.00000000000E+00 -0.00000000000E+00 -0.11665111304E+04  0.11665111304E+04  0.00000000000E+00 0. -1.
         25    2    1    2    0    0 -0.41242588842E+02  0.13942037281E+03  0.32907239866E+03  0.38085847138E+03  0.12500216067E+03 0.  0.
          2    1    1    2  501    0  0.51777957569E+02 -0.11485519564E+03 -0.11369639301E+04  0.11439229219E+04  0.00000000000E+00 0. -1.
          1    1    1    2  502    0 -0.10535368727E+02 -0.24565177163E+02  0.10223962638E+04  0.10227455999E+04  0.00000000000E+00 0. -1.
         22    1    3    3    0    0  0.16452093151E+01  0.12436179879E+02  0.17982305117E+03  0.18026007604E+03  0.00000000000E+00 0.  1.
         22    1    3    3    0    0 -0.42887798157E+02  0.12698419293E+03  0.14924934749E+03  0.20059839534E+03  0.00000000000E+00 0.  1.
</event>
<event>
 7    1  0.6607887E-006  0.6241672E+02  0.7818608E-02  0.1439232E+00
          2   -1    0    0  502    0  0.00000000000E+00  0.00000000000E+00  0.11453075146E+04  0.11453075146E+04  0.00000000000E+00 0. -1.
          1   -1    0    0  501    0 -0.00000000000E+00 -0.00000000000E+00 -0.28823652227E+03  0.28823652227E+03  0.00000000000E+00 0. -1.
         25    2    1    2    0    0 -0.10269356308E+03  0.12555601174E+02 -0.13659038115E+03  0.21209766958E+03  0.12499951280E+03 0.  0.
          2    1    1    2  501    0  0.41912088701E+02  0.71155412247E+00 -0.10912887025E+03  0.11690269377E+03  0.00000000000E+00 0. -1.
          1    1    1    2  502    0  0.60781474382E+02 -0.13267155297E+02  0.11027902437E+04  0.11045436735E+04  0.00000000000E+00 0. -1.
         22    1    3    3    0    0  0.26754766619E+02  0.16719979275E+02 -0.17121336599E+02  0.35895896851E+02  0.00000000000E+00 0. -1.
         22    1    3    3    0    0 -0.12944832970E+03 -0.41643781009E+01 -0.11946904455E+03  0.17620177273E+03  0.00000000000E+00 0. -1.
</event>
<event>
 7    1  0.6607887E-006  0.3336112E+02  0.7818608E-02  0.1594283E+00
          2   -1    0    0  502    0  0.00000000000E+00  0.00000000000E+00  0.11844978748E+04  0.11844978748E+04  0.00000000000E+00 0. -1.
          1   -1    0    0  501    0 -0.00000000000E+00 -0.00000000000E+00 -0.30164415127E+03  0.30164415127E+03  0.00000000000E+00 0. -1.
         25    2    1    2    0    0  0.79376776553E+01 -0.27641445218E+02  0.40883122937E+03  0.42847930439E+03  0.12499793584E+03 0.  0.
          2    1    1    2  501    0  0.19660275262E+02  0.26996808495E+02 -0.29061470532E+03  0.29252736802E+03  0.00000000000E+00 0. -1.
          1    1    1    2  502    0 -0.27597952917E+02  0.64463672248E+00  0.76463719945E+03  0.76513535361E+03  0.00000000000E+00 0. -1.
         22    1    3    3    0    0 -0.26420472225E+02  0.19107847377E+02  0.27195310247E+02  0.42458639679E+02  0.00000000000E+00 0.  1.
         22    1    3    3    0    0  0.34358149880E+02 -0.46749292595E+02  0.38163591912E+03  0.38602066472E+03  0.00000000000E+00 0.  1.
</event>
<event>
 7    1  0.6736712E-006  0.4933650E+02  0.7818608E-02  0.1546834E+00
          2   -1    0    0  502    0  0.00000000000E+00  0.00000000000E+00  0.81120998263E+03  0.81120998263E+03  0.00000000000E+00 0. -1.
          1   -1    0    0  501    0 -0.00000000000E+00 -0.00000000000E+00 -0.19406461939E+04  0.19406461939E+04  0.00000000000E+00 0. -1.
         25    2    1    2    0    0  0.86239269168E+00 -0.33978989254E+02 -0.35439168464E+03  0.37732516428E+03  0.12500199210E+03 0.  0.
          2    1    1    2  501    0 -0.22958933004E+02 -0.10177642791E+02 -0.15739253613E+04  0.15741257065E+04  0.00000000000E+00 0. -1.
          1    1    1    2  502    0  0.22096540313E+02  0.44156632044E+02  0.79888083472E+03  0.80040530566E+03  0.00000000000E+00 0. -1.
         22    1    3    3    0    0  0.60913687786E+02 -0.55109322435E+01 -0.20240263171E+03  0.21144189050E+03  0.00000000000E+00 0.  1.
         22    1    3    3    0    0 -0.60051295094E+02 -0.28468057010E+02 -0.15198905293E+03  0.16588327379E+03  0.00000000000E+00 0.  1.
</event>
<event>
 7    1  0.6607887E-006  0.1211774E+03  0.7818608E-02  0.1394321E+00
          2   -1    0    0  502    0  0.00000000000E+00  0.00000000000E+00  0.25974733867E+03  0.25974733867E+03  0.00000000000E+00 0. -1.
          1   -1    0    0  501    0 -0.00000000000E+00 -0.00000000000E+00 -0.41151004519E+03  0.41151004519E+03  0.00000000000E+00 0. -1.
         25    2    1    2    0    0 -0.43862171039E+02  0.14032415835E+03  0.32815070908E+02  0.19574773193E+03  0.12500234483E+03 0.  0.
          2    1    1    2  501    0  0.25279137432E+02 -0.11607511705E+03 -0.31756545982E+03  0.33905794322E+03  0.00000000000E+00 0. -1.
          1    1    1    2  502    0  0.18583033607E+02 -0.24249041307E+02  0.13298768240E+03  0.13645170872E+03  0.00000000000E+00 0. -1.
         22    1    3    3    0    0 -0.84137475999E+02  0.62418074681E+02  0.24967533372E+02  0.10769637244E+03  0.00000000000E+00 0.  1.
         22    1    3    3    0    0  0.40275304961E+02  0.77906083673E+02  0.78475375357E+01  0.88051359491E+02  0.00000000000E+00 0.  1.
</event>
<event>
 7    1  0.6607887E-006  0.5953763E+02  0.7818608E-02  0.1503213E+00
          2   -1    0    0  502    0  0.00000000000E+00  0.00000000000E+00  0.16591057251E+04  0.16591057251E+04  0.00000000000E+00 0. -1.
          1   -1    0    0  501    0 -0.00000000000E+00 -0.00000000000E+00 -0.44760756410E+02  0.44760756410E+02  0.00000000000E+00 0. -1.
         25    2    1    2    0    0  0.34299239249E+02  0.74977749246E+02  0.73482824395E+03  0.74993227389E+03  0.12501106599E+03 0.  0.
          2    1    1    2  501    0 -0.35200992703E+02 -0.47187100136E+02 -0.13570433561E+02  0.60414310999E+02  0.00000000000E+00 0. -1.
          1    1    1    2  502    0  0.90175345413E+00 -0.27790649110E+02  0.89308715835E+03  0.89351989667E+03  0.00000000000E+00 0. -1.
         22    1    3    3    0    0 -0.40938546208E+02  0.38587078661E+02  0.17288566811E+03  0.18180863963E+03  0.00000000000E+00 0.  1.
         22    1    3    3    0    0  0.75237785456E+02  0.36390670585E+02  0.56194257584E+03  0.56812363426E+03  0.00000000000E+00 0.  1.
</event>
<event>
 7    1  0.6607887E-006  0.6976346E+02  0.7818608E-02  0.1401410E+00
          2   -1    0    0  502    0  0.00000000000E+00  0.00000000000E+00  0.32439123852E+03  0.32439123852E+03  0.00000000000E+00 0. -1.
          1   -1    0    0  501    0 -0.00000000000E+00 -0.00000000000E+00 -0.53148366529E+03  0.53148366529E+03  0.00000000000E+00 0. -1.
         25    2    1    2    0    0  0.10121891945E+03  0.42521140201E+02 -0.18877434228E+03  0.25162177693E+03  0.12499779720E+03 0.  0.
          2    1    1    2  501    0 -0.65293518522E+02 -0.75147567524E+01 -0.30561898609E+03  0.31260626959E+03  0.00000000000E+00 0. -1.
          1    1    1    2  502    0 -0.35925400929E+02 -0.35006383449E+02  0.28730090159E+03  0.29164685729E+03  0.00000000000E+00 0. -1.
         22    1    3    3    0    0  0.12574333391E+03  0.24587433440E+02 -0.11629856635E+03  0.17303550053E+03  0.00000000000E+00 0.  1.
         22    1    3    3    0    0 -0.24524414464E+02  0.17933706761E+02 -0.72475775925E+02  0.78586276404E+02  0.00000000000E+00 0.  1.
</event>
<event>
 7    1  0.6607887E-006  0.1058000E+03  0.7818608E-02  0.1285738E+00
          2   -1    0    0  502    0  0.00000000000E+00  0.00000000000E+00  0.10258527992E+03  0.10258527992E+03  0.00000000000E+00 0. -1.
          1   -1    0    0  501    0 -0.00000000000E+00 -0.00000000000E+00 -0.15465376645E+04  0.15465376645E+04  0.00000000000E+00 0. -1.
         25    2    1    2    0    0 -0.52582171928E+02 -0.13596683945E+03 -0.19816667175E+03  0.27594781524E+03  0.12500120283E+03 0.  0.
          2    1    1    2  501    0  0.81717592851E+02  0.37160266753E+02 -0.12651731287E+04  0.12683539316E+04  0.00000000000E+00 0. -1.
          1    1    1    2  502    0 -0.29135420923E+02  0.98806572696E+02  0.19387415840E+02  0.10482119754E+03  0.00000000000E+00 0. -1.
         22    1    3    3    0    0 -0.53466655712E+02 -0.90664505847E+02 -0.41974937006E+02  0.11331650908E+03  0.00000000000E+00 0.  1.
         22    1    3    3    0    0  0.88448378377E+00 -0.45302333602E+02 -0.15619173474E+03  0.16263130616E+03  0.00000000000E+00 0.  1.
</event>
<event>
 7    1  0.1328307E-005  0.5248379E+02  0.7818608E-02  0.1467906E+00
          2   -1    0    0  502    0  0.00000000000E+00  0.00000000000E+00  0.15864234146E+04  0.15864234146E+04  0.00000000000E+00 0. -1.
          1   -1    0    0  501    0 -0.00000000000E+00 -0.00000000000E+00 -0.14407290744E+04  0.14407290744E+04  0.00000000000E+00 0. -1.
         25    2    1    2    0    0  0.48349393190E+02  0.29515328149E+01 -0.62845358568E+03  0.64259230976E+03  0.12499836734E+03 0.  0.
          2    1    1    2  501    0 -0.40632728752E+02  0.36705215586E+02 -0.80401640142E+03  0.80587881548E+03  0.00000000000E+00 0. -1.
          1    1    1    2  502    0 -0.77166644378E+01 -0.39656748401E+02  0.15781643272E+04  0.15786813638E+04  0.00000000000E+00 0. -1.
         22    1    3    3    0    0  0.65145442209E+02 -0.10786443536E+02 -0.15296691057E+03  0.16661077916E+03  0.00000000000E+00 0. -1.
         22    1    3    3    0    0 -0.16796049019E+02  0.13737976351E+02 -0.47548667511E+03  0.47598153059E+03  0.00000000000E+00 0. -1.
</event>
<event>
 7    1  0.6607887E-006  0.1283642E+03  0.7818608E-02  0.1258586E+00
          2   -1    0    0  502    0  0.00000000000E+00  0.00000000000E+00  0.14687245688E+04  0.14687245688E+04  0.00000000000E+00 0. -1.
          1   -1    0    0  501    0 -0.00000000000E+00 -0.00000000000E+00 -0.21249373136E+03  0.21249373136E+03  0.00000000000E+00 0. -1.
         25    2    1    2    0    0  0.41444315648E+02 -0.13546289298E+02  0.11639428970E+03  0.17627545864E+03  0.12499709354E+03 0.  0.
          2    1    1    2  501    0  0.81618004512E+02 -0.50770566310E+02 -0.16595903113E+03  0.19178516386E+03  0.00000000000E+00 0. -1.
          1    1    1    2  502    0 -0.12306232016E+03  0.64316855609E+02  0.13057955788E+04  0.13131576776E+04  0.00000000000E+00 0. -1.
         22    1    3    3    0    0 -0.17562470978E+01  0.44510975082E+02  0.69720026761E+01  0.45087915542E+02  0.00000000000E+00 0. -1.
         22    1    3    3    0    0  0.43200562745E+02 -0.58057264380E+02  0.10942228702E+03  0.13118754310E+03  0.00000000000E+00 0. -1.
</event>
<event>
 7    1  0.6607887E-006  0.6644379E+02  0.7818608E-02  0.1483069E+00
          2   -1    0    0  502    0  0.00000000000E+00  0.00000000000E+00  0.33557761423E+03  0.33557761423E+03  0.00000000000E+00 0. -1.
          1   -1    0    0  501    0 -0.00000000000E+00 -0.00000000000E+00 -0.69437277244E+03  0.69437277244E+03  0.00000000000E+00 0. -1.
         25    2    1    2    0    0 -0.55515294823E+02 -0.55392293581E+02 -0.77470348115E+02  0.16665884072E+03  0.12499304064E+03 0.  0.
          2    1    1    2  501    0 -0.48840696603E+01  0.28232278679E+02 -0.56817447804E+03  0.56889643451E+03  0.00000000000E+00 0. -1.
          1    1    1    2  502    0  0.60399364483E+02  0.27160014902E+02  0.28684966794E+03  0.29439511144E+03  0.00000000000E+00 0. -1.
         22    1    3    3    0    0  0.32664314295E+01 -0.69078953124E+02 -0.89999318720E+00  0.69161993369E+02  0.00000000000E+00 0. -1.
         22    1    3    3    0    0 -0.58781726253E+02  0.13686659543E+02 -0.76570354927E+02  0.97496847356E+02  0.00000000000E+00 0. -1.
</event>
<event>
 7    1  0.6607887E-006  0.1227259E+03  0.7818608E-02  0.1301626E+00
          2   -1    0    0  502    0  0.00000000000E+00  0.00000000000E+00  0.20794009447E+04  0.20794009447E+04  0.00000000000E+00 0. -1.
          1   -1    0    0  501    0 -0.00000000000E+00 -0.00000000000E+00 -0.21584255048E+04  0.21584255048E+04  0.00000000000E+00 0. -1.
         25    2    1    2    0    0 -0.14185783503E+03  0.43048949933E+00 -0.13262995766E+03  0.23095343733E+03  0.12499981547E+03 0.  0.
          2    1    1    2  501    0  0.10803190090E+03 -0.57972829673E+02 -0.19741829660E+04  0.19779863811E+04  0.00000000000E+00 0. -1.
          1    1    1    2  502    0  0.33825934129E+02  0.57542340174E+02  0.20277883636E+04  0.20288866312E+04  0.00000000000E+00 0. -1.
         22    1    3    3    0    0 -0.99903062570E+02  0.46728704050E+02 -0.36254694691E+02  0.11609735820E+03  0.00000000000E+00 0. -1.
         22    1    3    3    0    0 -0.41954772457E+02 -0.46298214550E+02 -0.96375262966E+02  0.11485607913E+03  0.00000000000E+00 0. -1.
</event>
<event>
 7    1  0.6607887E-006  0.8042832E+02  0.7818608E-02  0.1416692E+00
          2   -1    0    0  502    0  0.00000000000E+00  0.00000000000E+00  0.74075428272E+03  0.74075428272E+03  0.00000000000E+00 0. -1.
          1   -1    0    0  501    0 -0.00000000000E+00 -0.00000000000E+00 -0.14476375562E+03  0.14476375562E+03  0.00000000000E+00 0. -1.
         25    2    1    2    0    0 -0.94262638231E+02  0.48908285108E+02  0.71869413040E+02  0.17907530456E+03  0.12500114741E+03 0.  0.
          2    1    1    2  501    0  0.55942155003E+02 -0.53642915115E+02 -0.73951105970E+02  0.10712540839E+03  0.00000000000E+00 0. -1.
          1    1    1    2  502    0  0.38320483228E+02  0.47346300066E+01  0.59807222003E+03  0.59931732540E+03  0.00000000000E+00 0. -1.
         22    1    3    3    0    0 -0.10445507337E+03 -0.72946677772E+01  0.32261740435E+02  0.10956684913E+03  0.00000000000E+00 0.  1.
         22    1    3    3    0    0  0.10192435142E+02  0.56202952885E+02  0.39607672605E+02  0.69508455431E+02  0.00000000000E+00 0.  1.
</event>
<event>
 7    1  0.6607887E-006  0.4115721E+02  0.7818608E-02  0.1522136E+00
          2   -1    0    0  502    0  0.00000000000E+00  0.00000000000E+00  0.10069001038E+04  0.10069001038E+04  0.00000000000E+00 0. -1.
          1   -1    0    0  501    0 -0.00000000000E+00 -0.00000000000E+00 -0.20512294297E+03  0.20512294297E+03  0.00000000000E+00 0. -1.
         25    2    1    2    0    0  0.65915209485E+02 -0.44985046874E+01  0.82871382249E+02  0.16388327561E+03  0.12500004258E+03 0.  0.
          2    1    1    2  501    0 -0.28457286724E+02  0.21051413834E+02 -0.16223303776E+03  0.16604980498E+03  0.00000000000E+00 0. -1.
          1    1    1    2  502    0 -0.37457922760E+02 -0.16552909146E+02  0.88113881635E+03  0.88208996619E+03  0.00000000000E+00 0. -1.
         22    1    3    3    0    0  0.95902254061E+02  0.41851081136E+01  0.26730088382E+02  0.99645647616E+02  0.00000000000E+00 0. -1.
         22    1    3    3    0    0 -0.29987044576E+02 -0.86836128009E+01  0.56141293867E+02  0.64237627997E+02  0.00000000000E+00 0. -1.
</event>
<event>
 7    1  0.6607887E-006  0.5574024E+02  0.7818608E-02  0.1423191E+00
          2   -1    0    0  502    0  0.00000000000E+00  0.00000000000E+00  0.14845401111E+04  0.14845401111E+04  0.00000000000E+00 0. -1.
          1   -1    0    0  501    0 -0.00000000000E+00 -0.00000000000E+00 -0.25361431588E+04  0.25361431588E+04  0.00000000000E+00 0. -1.
         25    2    1    2    0    0 -0.67797351620E+02  0.20350749418E+02  0.21346519251E+03  0.25730013207E+03  0.12500134264E+03 0.  0.
          2    1    1    2  501    0  0.24066340344E+02 -0.50288863415E+02 -0.25133543063E+04  0.25139725590E+04  0.00000000000E+00 0. -1.
          1    1    1    2  502    0  0.43731011276E+02  0.29938113997E+02  0.12482860660E+04  0.12494105789E+04  0.00000000000E+00 0. -1.
         22    1    3    3    0    0 -0.40501917093E+02  0.12782009068E+02  0.51474462259E+00  0.42474109832E+02  0.00000000000E+00 0.  1.
         22    1    3    3    0    0 -0.27295434528E+02  0.75687403494E+01  0.21295044788E+03  0.21482602224E+03  0.00000000000E+00 0.  1.
</event>
<event>
 7    1  0.6607887E-006  0.1501575E+03  0.7818608E-02  0.1349483E+00
          2   -1    0    0  502    0  0.00000000000E+00  0.00000000000E+00  0.35950724179E+03  0.35950724179E+03  0.00000000000E+00 0. -1.
          1   -1    0    0  501    0 -0.00000000000E+00 -0.00000000000E+00 -0.14113053395E+04  0.14113053395E+04  0.00000000000E+00 0. -1.
         25    2    1    2    0    0  0.16569909766E+03  0.63294549462E+02 -0.57451321138E+03  0.61412747198E+03  0.12499892333E+03 0.  0.
          2    1    1    2  501    0 -0.13283498949E+03 -0.49348230184E+02 -0.80987784774E+03  0.82218155569E+03  0.00000000000E+00 0. -1.
          1    1    1    2  502    0 -0.32864108164E+02 -0.13946319278E+02  0.33259296139E+03  0.33450355363E+03  0.00000000000E+00 0. -1.
         22    1    3    3    0    0  0.10520941794E+03 -0.25211428060E+02 -0.32583528298E+03  0.34332676762E+03  0.00000000000E+00 0. -1.
         22    1    3    3    0    0  0.60489679711E+02  0.88505977522E+02 -0.24867792840E+03  0.27080070436E+03  0.00000000000E+00 0. -1.
</event>
<event>
 7    1  0.6607887E-006  0.9493186E+02  0.7818608E-02  0.1463681E+00
          2   -1    0    0  502    0  0.00000000000E+00  0.00000000000E+00  0.69603655347E+03  0.69603655347E+03  0.00000000000E+00 0. -1.
          1   -1    0    0  501    0 -0.00000000000E+00 -0.00000000000E+00 -0.30068466606E+03  0.30068466606E+03  0.00000000000E+00 0. -1.
         25    2    1    2    0    0 -0.49285738633E+02  0.67048332567E+02  0.11917102133E+03  0.19170625314E+03  0.12499996894E+03 0.  0.
          2    1    1    2  501    0  0.95901086675E+01  0.20933958994E+02 -0.25959489870E+03  0.26061410601E+03  0.00000000000E+00 0. -1.
          1    1    1    2  502    0  0.39695629966E+02 -0.87982291561E+02  0.53577576478E+03  0.54440086039E+03  0.00000000000E+00 0. -1.
         22    1    3    3    0    0 -0.64971940173E+02  0.86123210818E+02  0.12620196011E+03  0.16602859750E+03  0.00000000000E+00 0.  1.
         22    1    3    3    0    0  0.15686201540E+02 -0.19074878251E+02 -0.70309387772E+01  0.25677655639E+02  0.00000000000E+00 0.  1.
</event>
<event>
 7    1  0.6607887E-006  0.1591938E+03  0.7818608E-02  0.1267567E+00
          2   -1    0    0  502    0  0.00000000000E+00  0.00000000000E+00  0.96024460219E+03  0.96024460219E+03  0.00000000000E+00 0. -1.
          1   -1    0    0  501    0 -0.00000000000E+00 -0.00000000000E+00 -0.44477489724E+03  0.44477489724E+03  0.00000000000E+00 0. -1.
         25    2    1    2    0    0 -0.22172462339E+03 -0.41295190218E+02  0.86789364256E+01  0.25800577271E+03  0.12499821384E+03 0.  0.
          2    1    1    2  501    0  0.70850771938E+02  0.44297350307E+01 -0.30875498827E+03  0.31681082245E+03  0.00000000000E+00 0. -1.
          1    1    1    2  502    0  0.15087385145E+03  0.36865455187E+02  0.81554575680E+03  0.83020290427E+03  0.00000000000E+00 0. -1.
         22    1    3    3    0    0 -0.79426614126E+02  0.44568544019E+02  0.11397508414E+02  0.91786956293E+02  0.00000000000E+00 0.  1.
         22    1    3    3    0    0 -0.14229800926E+03 -0.85863734237E+02 -0.27185719885E+01  0.16621881642E+03  0.00000000000E+00 0.  1.
</event>
<event>
 7    1  0.6607887E-006  0.3202603E+03  0.7818608E-02  0.1210119E+00
          2   -1    0    0  502    0  0.00000000000E+00  0.00000000000E+00  0.24093165197E+04  0.24093165197E+04  0.00000000000E+00 0. -1.
          1   -1    0    0  501    0 -0.00000000000E+00 -0.00000000000E+00 -0.11250187655E+04  0.11250187655E+04  0.00000000000E+00 0. -1.
         25    2    1    2    0    0  0.27355876565E+03 -0.15566373725E+03 -0.40906443898E+03  0.53106115326E+03  0.12500654345E+03 0.  0.
          2    1    1    2  501    0 -0.24709120806E+03  0.21319490569E+03 -0.61384058823E+03  0.69520241705E+03  0.00000000000E+00 0. -1.
          1    1    1    2  502    0 -0.26467557589E+02 -0.57531168438E+02  0.23072027814E+04  0.23080717149E+04  0.00000000000E+00 0. -1.
         22    1    3    3    0    0  0.11873133015E+03 -0.14949141273E+02 -0.21309462405E+03  0.24439706296E+03  0.00000000000E+00 0. -1.
         22    1    3    3    0    0  0.15482743550E+03 -0.14071459597E+03 -0.19596981493E+03  0.28666409030E+03  0.00000000000E+00 0. -1.
</event>
<event>
 7    1  0.6607887E-006  0.7214429E+02  0.7818608E-02  0.1482391E+00
          2   -1    0    0  502    0  0.00000000000E+00  0.00000000000E+00  0.72492396600E+03  0.72492396600E+03  0.00000000000E+00 0. -1.
          1   -1    0    0  501    0 -0.00000000000E+00 -0.00000000000E+00 -0.98400089802E+02  0.98400089802E+02  0.00000000000E+00 0. -1.
         25    2    1    2    0    0 -0.64958622079E+02  0.68954523646E+02  0.13640513288E+03  0.20785902779E+03  0.12499866497E+03 0.  0.
          2    1    1    2  501    0  0.24009278017E+02 -0.11249350046E+02 -0.57486973390E+02  0.63306756487E+02  0.00000000000E+00 0. -1.
          1    1    1    2  502    0  0.40949344061E+02 -0.57705173600E+02  0.54760571670E+03  0.55215827152E+03  0.00000000000E+00 0. -1.
         22    1    3    3    0    0 -0.39094295605E+01  0.59824825097E+02  0.13317382545E+03  0.14604643482E+03  0.00000000000E+00 0.  1.
         22    1    3    3    0    0 -0.61049192518E+02  0.91296985498E+01  0.32313074288E+01  0.61812592976E+02  0.00000000000E+00 0.  1.
</event>
<event>
 7    1  0.6607887E-006  0.5876684E+02  0.7818608E-02  0.1526094E+00
          2   -1    0    0  502    0  0.00000000000E+00  0.00000000000E+00  0.61818196054E+03  0.61818196054E+03  0.00000000000E+00 0. -1.
          1   -1    0    0  501    0 -0.00000000000E+00 -0.00000000000E+00 -0.12287788925E+03  0.12287788925E+03  0.00000000000E+00 0. -1.
         25    2    1    2    0    0  0.51323658238E+02  0.23920008814E+02  0.28644669226E+02  0.14018614820E+03  0.12500141742E+03 0.  0.
          2    1    1    2  501    0 -0.59755360268E+02 -0.12934388030E+01 -0.53462792528E+02  0.80191310312E+02  0.00000000000E+00 0. -1.
          1    1    1    2  502    0  0.84317020304E+01 -0.22626570011E+02  0.52012219459E+03  0.52068239127E+03  0.00000000000E+00 0. -1.
         22    1    3    3    0    0  0.14240532244E+02  0.73465840312E+02  0.21670490061E+02  0.77907846786E+02  0.00000000000E+00 0.  1.
         22    1    3    3    0    0  0.37083125994E+02 -0.49545831498E+02  0.69741791656E+01  0.62278301417E+02  0.00000000000E+00 0.  1.
</event>
<event>
 7    1  0.6607887E-006  0.1507831E+03  0.7818608E-02  0.1362761E+00
          2   -1    0    0  502    0  0.00000000000E+00  0.00000000000E+00  0.16526466719E+04  0.16526466719E+04  0.00000000000E+00 0. -1.
          1   -1    0    0  501    0 -0.00000000000E+00 -0.00000000000E+00 -0.64770990359E+03  0.64770990359E+03  0.00000000000E+00 0. -1.
         25    2    1    2    0    0  0.70077992314E+02 -0.14635063552E+03 -0.11166330137E+03  0.23328910792E+03  0.12500272588E+03 0.  0.
          2    1    1    2  501    0 -0.31770277685E+02  0.69952024864E+00 -0.47113505292E+03  0.47220554630E+03  0.00000000000E+00 0. -1.
          1    1    1    2  502    0 -0.38307714628E+02  0.14565111528E+03  0.15877351226E+04  0.15948619212E+04  0.00000000000E+00 0. -1.
         22    1    3    3    0    0 -0.26101318962E+02 -0.39896234850E+01 -0.38197327015E+02  0.46435242416E+02  0.00000000000E+00 0. -1.
         22    1    3    3    0    0  0.96179311276E+02 -0.14236101204E+03 -0.73465974350E+02  0.18685386550E+03  0.00000000000E+00 0. -1.
</event>
<event>
 7    1  0.6607887E-006  0.3718162E+02  0.7818608E-02  0.1557300E+00
          2   -1    0    0  502    0  0.00000000000E+00  0.00000000000E+00  0.46092330803E+03  0.46092330803E+03  0.00000000000E+00 0. -1.
          1   -1    0    0  501    0 -0.00000000000E+00 -0.00000000000E+00 -0.71208594804E+03  0.71208594804E+03  0.00000000000E+00 0. -1.
         25    2    1    2    0    0 -0.21633745334E+02  0.15685584783E+02 -0.43207540152E+03  0.45058801469E+03  0.12500539939E+03 0.  0.
          2    1    1    2  501    0  0.39033864546E+02  0.10166975230E+02 -0.26870963070E+03  0.27172021566E+03  0.00000000000E+00 0. -1.
          1    1    1    2  502    0 -0.17400119213E+02 -0.25852560014E+02  0.44962239221E+03  0.45070102572E+03  0.00000000000E+00 0. -1.
         22    1    3    3    0    0  0.20123501010E+02  0.41072859679E+02 -0.60656991282E+02  0.75968451916E+02  0.00000000000E+00 0. -1.
         22    1    3    3    0    0 -0.41757246344E+02 -0.25387274896E+02 -0.37141841024E+03  0.37461956277E+03  0.00000000000E+00 0. -1.
</event>
<event>
 7    1  0.6607887E-006  0.1822438E+03  0.7818608E-02  0.1317570E+00
          2   -1    0    0  502    0  0.00000000000E+00  0.00000000000E+00  0.13830728974E+04  0.13830728974E+04  0.00000000000E+00 0. -1.
          1   -1    0    0  501    0 -0.00000000000E+00 -0.00000000000E+00 -0.13473846978E+03  0.13473846978E+03  0.00000000000E+00 0. -1.
         25    2    1    2    0    0  0.19791568596E+03  0.88214241226E+02  0.20775834058E+03  0.32517810439E+03  0.12499960156E+03 0.  0.
          2    1    1    2  501    0 -0.37010012329E+02 -0.11948415189E+02 -0.63406037207E+02  0.74383003384E+02  0.00000000000E+00 0. -1.
          1    1    1    2  502    0 -0.16090567363E+03 -0.76265826037E+02  0.11039821242E+04  0.11182502594E+04  0.00000000000E+00 0. -1.
         22    1    3    3    0    0  0.18251674738E+03  0.35577726048E+02  0.11876382705E+03  0.22064220875E+03  0.00000000000E+00 0. -1.
         22    1    3    3    0    0  0.15398938576E+02  0.52636515178E+02  0.88994513525E+02  0.10453589564E+03  0.00000000000E+00 0. -1.
</event>
<event>
 7    1  0.6607887E-006  0.1254655E+03  0.7818608E-02  0.1375826E+00
          2   -1    0    0  502    0  0.00000000000E+00  0.00000000000E+00  0.27221334530E+03  0.27221334530E+03  0.00000000000E+00 0. -1.
          1   -1    0    0  501    0 -0.00000000000E+00 -0.00000000000E+00 -0.21690512599E+04  0.21690512599E+04  0.00000000000E+00 0. -1.
         25    2    1    2    0    0 -0.92329427986E+02  0.31472871642E+02 -0.64590534769E+03  0.66508197306E+03  0.12500019113E+03 0.  0.
          2    1    1    2  501    0 -0.32241763521E+02 -0.11619541228E+02 -0.14982031209E+04  0.14985950542E+04  0.00000000000E+00 0. -1.
          1    1    1    2  502    0  0.12457119151E+03 -0.19853330414E+02  0.24727055406E+03  0.27758757787E+03  0.00000000000E+00 0. -1.
         22    1    3    3    0    0 -0.25305627410E+02  0.51398479680E+02 -0.10444734612E+03  0.11912777428E+03  0.00000000000E+00 0.  1.
         22    1    3    3    0    0 -0.67023800576E+02 -0.19925608039E+02 -0.54145800157E+03  0.54595419878E+03  0.00000000000E+00 0.  1.
</event>
<event>
 7    1  0.6607887E-006  0.3902260E+02  0.7818608E-02  0.1584302E+00
          2   -1    0    0  502    0  0.00000000000E+00  0.00000000000E+00  0.88211790416E+03  0.88211790416E+03  0.00000000000E+00 0. -1.
          1   -1    0    0  501    0 -0.00000000000E+00 -0.00000000000E+00 -0.31910467795E+03  0.31910467795E+03  0.00000000000E+00 0. -1.
         25    2    1    2    0    0  0.45791901463E+02 -0.25071387011E+01 -0.17826214832E+03  0.22249906695E+03  0.12500102914E+03 0.  0.
          2    1    1    2  501    0 -0.31411198391E+02  0.23057115510E+02 -0.11533844979E+03  0.12174256429E+03  0.00000000000E+00 0. -1.
          1    1    1    2  502    0 -0.14380703072E+02 -0.20549976809E+02  0.85661382431E+03  0.85698095088E+03  0.00000000000E+00 0. -1.
         22    1    3    3    0    0  0.60317040739E+02  0.50161793884E+02 -0.10844269805E+03  0.13384382589E+03  0.00000000000E+00 0. -1.
         22    1    3    3    0    0 -0.14525139276E+02 -0.52668932585E+02 -0.69819450270E+02  0.88655241055E+02  0.00000000000E+00 0. -1.
</event>
<event>
 7    1  0.6607887E-006  0.1334253E+03  0.7818608E-02  0.1232927E+00
          2   -1    0    0  502    0  0.00000000000E+00  0.00000000000E+00  0.14360647596E+03  0.14360647596E+03  0.00000000000E+00 0. -1.
          1   -1    0    0  501    0 -0.00000000000E+00 -0.00000000000E+00 -0.17922102827E+04  0.17922102827E+04  0.00000000000E+00 0. -1.
         25    2    1    2    0    0 -0.12217335556E+03 -0.27218956003E+02 -0.48679806599E+03  0.51794251986E+03  0.12499958578E+03 0.  0.
          2    1    1    2  501    0  0.63937335283E+02  0.13180710602E+03 -0.12566419493E+04  0.12651521983E+04  0.00000000000E+00 0. -1.
          1    1    1    2  502    0  0.58236020280E+02 -0.10458815001E+03  0.94836208616E+02  0.15272204047E+03  0.00000000000E+00 0. -1.
         22    1    3    3    0    0 -0.14618737086E+03 -0.13717694488E+02 -0.37304143066E+03  0.40089753246E+03  0.00000000000E+00 0. -1.
         22    1    3    3    0    0  0.24014015296E+02 -0.13501261514E+02 -0.11375663533E+03  0.11704498740E+03  0.00000000000E+00 0. -1.
</event>
<event>
 7    1  0.6607887E-006  0.5398768E+02  0.7818608E-02  0.1477508E+00
          2   -1    0    0  502    0  0.00000000000E+00  0.00000000000E+00  0.23990962865E+03  0.23990962865E+03  0.00000000000E+00 0. -1.
          1   -1    0    0  501    0 -0.00000000000E+00 -0.00000000000E+00 -0.41599511996E+03  0.41599511996E+03  0.00000000000E+00 0. -1.
         25    2    1    2    0    0  0.54798636004E+02  0.69464823661E+02 -0.16650747284E+03  0.22623520141E+03  0.12501750122E+03 0.  0.
          2    1    1    2  501    0 -0.28643983276E+02 -0.22902461244E+02 -0.21464857380E+03  0.21775906582E+03  0.00000000000E+00 0. -1.
          1    1    1    2  502    0 -0.26154652728E+02 -0.46562362417E+02  0.20507055533E+03  0.21191048138E+03  0.00000000000E+00 0. -1.
         22    1    3    3    0    0 -0.12943792125E+02 -0.27653870008E+02 -0.15214901640E+02  0.34114095517E+02  0.00000000000E+00 0.  1.
         22    1    3    3    0    0  0.67742428129E+02  0.97118693669E+02 -0.15129257120E+03  0.19212110589E+03  0.00000000000E+00 0.  1.
</event>
<event>
 7    1  0.6607887E-006  0.1102687E+03  0.7818608E-02  0.1330488E+00
          2   -1    0    0  502    0  0.00000000000E+00  0.00000000000E+00  0.13175162898E+03  0.13175162898E+03  0.00000000000E+00 0. -1.
          1   -1    0    0  501    0 -0.00000000000E+00 -0.00000000000E+00 -0.99418195699E+03  0.99418195699E+03  0.00000000000E+00 0. -1.
         25    2    1    2    0    0  0.25060068946E+02 -0.10210061797E+03 -0.10236350697E+03  0.19275975661E+03  0.12500197184E+03 0.  0.
          2    1    1    2  501    0 -0.56751039511E+02 -0.79911639529E+01 -0.80724547272E+03  0.80927732725E+03  0.00000000000E+00 0. -1.
          1    1    1    2  502    0  0.31690970565E+02  0.11009178192E+03  0.47178651669E+02  0.12389650211E+03  0.00000000000E+00 0. -1.
         22    1    3    3    0    0  0.20952541238E+02  0.34539669425E+01  0.21330048187E+02  0.30098335961E+02  0.00000000000E+00 0. -1.
         22    1    3    3    0    0  0.41075277077E+01 -0.10555458491E+03 -0.12369355515E+03  0.16266142064E+03  0.00000000000E+00 0. -1.
</event>
<event>
 7    1  0.6607887E-006  0.1987183E+03  0.7818608E-02  0.1309073E+00
          2   -1    0    0  502    0  0.00000000000E+00  0.00000000000E+00  0.26061692836E+04  0.26061692836E+04  0.00000000000E+00 0. -1.
          1   -1    0    0  501    0 -0.00000000000E+00 -0.00000000000E+00 -0.69409328179E+02  0.69409328179E+02  0.00000000000E+00 0. -1.
         25    2    1    2    0    0  0.68489962391E+02 -0.15266040411E+03  0.46684577925E+03  0.51143528552E+03  0.12499998293E+03 0.  0.
          2    1    1    2  501    0  0.17477336901E+02 -0.34315833656E+02 -0.33284328295E+02  0.50900690121E+02  0.00000000000E+00 0. -1.
          1    1    1    2  502    0 -0.85967299291E+02  0.18697623776E+03  0.21031985045E+04  0.21132426362E+04  0.00000000000E+00 0. -1.
         22    1    3    3    0    0  0.21756812796E+02 -0.75345436211E+02  0.72256720642E+02  0.10663642595E+03  0.00000000000E+00 0.  1.
         22    1    3    3    0    0  0.46733149595E+02 -0.77314967897E+02  0.39458905861E+03  0.40479885957E+03  0.00000000000E+00 0.  1.
</event>
<event>
 7    1  0.6607887E-006  0.3743629E+02  0.7818608E-02  0.1540395E+00
          2   -1    0    0  502    0  0.00000000000E+00  0.00000000000E+00  0.16246998550E+04  0.16246998550E+04  0.00000000000E+00 0. -1.
          1   -1    0    0  501    0 -0.00000000000E+00 -0.00000000000E+00 -0.49898120888E+03  0.49898120888E+03  0.00000000000E+00 0. -1.
         25    2    1    2    0    0 -0.26370336985E+02 -0.54325197399E+02  0.19024079321E+03  0.23548490850E+03  0.12495983749E+03 0.  0.
          2    1    1    2  501    0 -0.35948944367E+01  0.37214279647E+02 -0.47541427575E+03  0.47688212324E+03  0.00000000000E+00 0. -1.
          1    1    1    2  502    0  0.29965231422E+02  0.17110917752E+02  0.14108921287E+04  0.14113140321E+04  0.00000000000E+00 0. -1.
         22    1    3    3    0    0  0.48542718575E+02 -0.48554508278E+01  0.60629064332E+02  0.77819370153E+02  0.00000000000E+00 0. -1.
         22    1    3    3    0    0 -0.74913055560E+02 -0.49469746571E+02  0.12961172887E+03  0.15766553834E+03  0.00000000000E+00 0. -1.
</event>
<event>
 7    1  0.6607887E-006  0.1338066E+03  0.7818608E-02  0.1329984E+00
          2   -1    0    0  502    0  0.00000000000E+00  0.00000000000E+00  0.15798230437E+04  0.15798230437E+04  0.00000000000E+00 0. -1.
          1   -1    0    0  501    0 -0.00000000000E+00 -0.00000000000E+00 -0.22784150229E+04  0.22784150229E+04  0.00000000000E+00 0. -1.
         25    2    1    2    0    0  0.79738842910E+02  0.14609335947E+03  0.29395777323E+03  0.36019204920E+03  0.12500234842E+03 0.  0.
          2    1    1    2  501    0 -0.89108663426E+02 -0.99588591527E+02 -0.22428592579E+04  0.22468368637E+04  0.00000000000E+00 0. -1.
          1    1    1    2  502    0  0.93698205162E+01 -0.46504767947E+02  0.12503095055E+04  0.12512091537E+04  0.00000000000E+00 0. -1.
         22    1    3    3    0    0  0.97799683418E+02  0.11973995568E+03  0.28914532917E+03  0.32788329699E+03  0.00000000000E+00 0.  1.
         22    1    3    3    0    0 -0.18060840508E+02  0.26353403796E+02  0.48124440632E+01  0.32308752210E+02  0.00000000000E+00 0.  1.
</event>
<event>
 7    1  0.6607887E-006  0.4394215E+02  0.7818608E-02  0.1490778E+00
          2   -1    0    0  502    0  0.00000000000E+00  0.00000000000E+00  0.14286407577E+03  0.14286407577E+03  0.00000000000E+00 0. -1.
          1   -1    0    0  501    0 -0.00000000000E+00 -0.00000000000E+00 -0.25014526122E+04  0.25014526122E+04  0.00000000000E+00 0. -1.
         25    2    1    2    0    0  0.39219806306E+02 -0.25794464530E+02  0.73642766292E+02  0.15248772419E+03  0.12500280555E+03 0.  0.
          2    1    1    2  501    0 -0.34318043820E+02 -0.22522528944E+02 -0.24419550875E+04  0.24423000720E+04  0.00000000000E+00 0. -1.
          1    1    1    2  502    0 -0.49017624855E+01  0.48316993475E+02  0.97237847196E+01  0.49528891802E+02  0.00000000000E+00 0. -1.
         22    1    3    3    0    0  0.11649466917E+02 -0.73427539198E+02  0.23332415519E+02  0.77921211528E+02  0.00000000000E+00 0.  1.
         22    1    3    3    0    0  0.27570339389E+02  0.47633074667E+02  0.50310350774E+02  0.74566512666E+02  0.00000000000E+00 0.  1.
</event>
<event>
 7    1  0.6607887E-006  0.1362304E+03  0.7818608E-02  0.1406111E+00
          2   -1    0    0  502    0  0.00000000000E+00  0.00000000000E+00  0.12552672943E+04  0.12552672943E+04  0.00000000000E+00 0. -1.
          1   -1    0    0  501    0 -0.00000000000E+00 -0.00000000000E+00 -0.96178109444E+03  0.96178109444E+03  0.00000000000E+00 0. -1.
         25    2    1    2    0    0 -0.53860186501E+02  0.12996959122E+03 -0.32041042952E+03  0.37159264472E+03  0.12500094372E+03 0.  0.
          2    1    1    2  501    0 -0.19520584840E+02 -0.15221429139E+02 -0.61175678803E+03  0.61225739100E+03  0.00000000000E+00 0. -1.
          1    1    1    2  502    0  0.73380771340E+02 -0.11474816208E+03  0.12256534174E+04  0.12331983530E+04  0.00000000000E+00 0. -1.
         22    1    3    3    0    0 -0.80737744198E+02  0.57884548081E+02 -0.24268546769E+03  0.26223165421E+03  0.00000000000E+00 0.  1.
         22    1    3    3    0    0  0.26877557697E+02  0.72085043140E+02 -0.77724961838E+02  0.10936099051E+03  0.00000000000E+00 0.  1.
</event>
<event>
 7    1  0.6607887E-006  0.3576902E+02  0.7818608E-02  0.1581148E+00
          2   -1    0    0  502    0  0.00000000000E+00  0.00000000000E+00  0.85107353943E+03  0.85107353943E+03  0.00000000000E+00 0. -1.
          1   -1    0    0  501    0 -0.00000000000E+00 -0.00000000000E+00 -0.10586811453E+03  0.10586811453E+03  0.00000000000E+00 0. -1.
         25    2    1    2    0    0 -0.25557831975E+02 -0.21850469091E+02  0.45975143618E+03  0.47762686767E+03  0.12500158349E+03 0.  0.
          2    1    1    2  501    0 -0.11207705280E+02  0.25549522339E+02 -0.94006599455E+02  0.98059326382E+02  0.00000000000E+00 0. -1.
          1    1    1    2  502    0  0.36765537255E+02 -0.36990532475E+01  0.37946058818E+03  0.38125545990E+03  0.00000000000E+00 0. -1.
         22    1    3    3    0    0 -0.16442783992E+02 -0.30559801915E+02  0.25186757141E+02  0.42879358365E+02  0.00000000000E+00 0. -1.
         22    1    3    3    0    0 -0.91150479827E+01  0.87093328236E+01  0.43456467904E+03  0.43474750931E+03  0.00000000000E+00 0. -1.
</event>
<event>
 7    1  0.6607887E-006  0.5327403E+03  0.7818608E-02  0.1059630E+00
          2   -1    0    0  502    0  0.00000000000E+00  0.00000000000E+00  0.19703132756E+04  0.19703132756E+04  0.00000000000E+00 0. -1.
          1   -1    0    0  501    0 -0.00000000000E+00 -0.00000000000E+00 -0.81341281505E+03  0.81341281505E+03  0.00000000000E+00 0. -1.
         25    2    1    2    0    0 -0.30510882272E+03 -0.39186219434E+03  0.17523307999E+03  0.54127286620E+03  0.12498924078E+03 0.  0.
          2    1    1    2  501    0  0.12077371646E+03  0.54512935056E+03 -0.49516833565E+03  0.74628679478E+03  0.00000000000E+00 0. -1.
          1    1    1    2  502    0  0.18433510626E+03 -0.15326715621E+03  0.14768357162E+04  0.14961664296E+04  0.00000000000E+00 0. -1.
         22    1    3    3    0    0 -0.10862402051E+03 -0.12261781988E+03  0.12081488210E+03  0.20354494177E+03  0.00000000000E+00 0.  1.
         22    1    3    3    0    0 -0.19648480221E+03 -0.26924437447E+03  0.54418197883E+02  0.33772792443E+03  0.00000000000E+00 0.  1.
</event>
<event>
 7    1  0.6607887E-006  0.9444265E+02  0.7818608E-02  0.1340899E+00
          2   -1    0    0  502    0  0.00000000000E+00  0.00000000000E+00  0.22398633716E+03  0.22398633716E+03  0.00000000000E+00 0. -1.
          1   -1    0    0  501    0 -0.00000000000E+00 -0.00000000000E+00 -0.11615963797E+03  0.11615963797E+03  0.00000000000E+00 0. -1.
         25    2    1    2    0    0 -0.51425057627E+02 -0.30772697129E+02  0.58445532938E+02  0.15044704472E+03  0.12500774977E+03 0.  0.
          2    1    1    2  501    0  0.11252591626E+03  0.29868180258E+02  0.96738894936E+01  0.11682368835E+03  0.00000000000E+00 0. -1.
          1    1    1    2  502    0 -0.61100858637E+02  0.90451687098E+00  0.39707276756E+02  0.72875242053E+02  0.00000000000E+00 0. -1.
         22    1    3    3    0    0 -0.83044383590E+01  0.45606307771E+02  0.25214886578E+01  0.46424744587E+02  0.00000000000E+00 0.  1.
         22    1    3    3    0    0 -0.43120619268E+02 -0.76379004900E+02  0.55924044281E+02  0.10402230013E+03  0.00000000000E+00 0.  1.
</event>
<event>
 7    1  0.7594818E-006  0.1189087E+03  0.7818608E-02  0.1256647E+00
          2   -1    0    0  502    0  0.00000000000E+00  0.00000000000E+00  0.12889374748E+04  0.12889374748E+04  0.00000000000E+00 0. -1.
          1   -1    0    0  501    0 -0.00000000000E+00 -0.00000000000E+00 -0.13803713059E+04  0.13803713059E+04  0.00000000000E+00 0. -1.
         25    2    1    2    0    0 -0.97787963266E+01  0.14892963697E+02 -0.10511985110E+03  0.16429673126E+03  0.12500323029E+03 0.  0.
          2    1    1    2  501    0 -0.11087084923E+01  0.10576124703E+03 -0.12404939975E+04  0.12449947905E+04  0.00000000000E+00 0. -1.
          1    1    1    2  502    0  0.10887504819E+02 -0.12065421073E+03  0.12541800175E+04  0.12600172589E+04  0.00000000000E+00 0. -1.
         22    1    3    3    0    0 -0.57782246640E+02  0.36269185129E+02 -0.35011831385E+02  0.76681615486E+02  0.00000000000E+00 0. -1.
         22    1    3    3    0    0  0.48003450313E+02 -0.21376221432E+02 -0.70108019710E+02  0.87615115775E+02  0.00000000000E+00 0. -1.
</event>
<event>
 7    1  0.6607887E-006  0.8064041E+02  0.7818608E-02  0.1427507E+00
          2   -1    0    0  502    0  0.00000000000E+00  0.00000000000E+00  0.12759262241E+04  0.12759262241E+04  0.00000000000E+00 0. -1.
          1   -1    0    0  501    0 -0.00000000000E+00 -0.00000000000E+00 -0.21960854442E+02  0.21960854442E+02  0.00000000000E+00 0. -1.
         25    2    1    2    0    0  0.73304827876E+02 -0.35171156114E+00  0.38226126999E+03  0.40880607852E+03  0.12500003924E+03 0.  0.
          2    1    1    2  501    0  0.13030008989E+01 -0.35421989944E+02  0.40714288935E+02  0.53982112838E+02  0.00000000000E+00 0. -1.
          1    1    1    2  502    0 -0.74607828775E+02  0.35773701506E+02  0.83098981070E+03  0.83509888715E+03  0.00000000000E+00 0. -1.
         22    1    3    3    0    0 -0.72591254564E+01 -0.47545820438E+02  0.17491326436E+03  0.18140548501E+03  0.00000000000E+00 0.  1.
         22    1    3    3    0    0  0.80563953332E+02  0.47194108877E+02  0.20734800563E+03  0.22740059351E+03  0.00000000000E+00 0.  1.
</event>
<event>
 7    1  0.6607887E-006  0.9704539E+02  0.7818608E-02  0.1430311E+00
          2   -1    0    0  502    0  0.00000000000E+00  0.00000000000E+00  0.38206495843E+03  0.38206495843E+03  0.00000000000E+00 0. -1.
          1   -1    0    0  501    0 -0.00000000000E+00 -0.00000000000E+00 -0.29958231477E+03  0.29958231477E+03  0.00000000000E+00 0. -1.
         25    2    1    2    0    0 -0.70591290429E+02 -0.19609581271E+02  0.61523357423E+02  0.15741167977E+03  0.12500258980E+03 0.  0.
          2    1    1    2  501    0 -0.28695434241E+02 -0.28194859105E+01 -0.24124761944E+03  0.24296458864E+03  0.00000000000E+00 0. -1.
          1    1    1    2  502    0  0.99286724670E+02  0.22429067182E+02  0.26220690568E+03  0.28127100479E+03  0.00000000000E+00 0. -1.
         22    1    3    3    0    0 -0.56844853498E+02 -0.70302127734E+02  0.51145418679E+02  0.10387290496E+03  0.00000000000E+00 0. -1.
         22    1    3    3    0    0 -0.13746436930E+02  0.50692546463E+02  0.10377938744E+02  0.53538774806E+02  0.00000000000E+00 0. -1.
</event>
<event>
 7    1  0.6607887E-006  0.4540354E+02  0.7818608E-02  0.1592833E+00
          2   -1    0    0  502    0  0.00000000000E+00  0.00000000000E+00  0.27616939906E+04  0.27616939906E+04  0.00000000000E+00 0. -1.
          1   -1    0    0  501    0 -0.00000000000E+00 -0.00000000000E+00 -0.31724865840E+03  0.31724865840E+03  0.00000000000E+00 0. -1.
         25    2    1    2    0    0 -0.64084256523E+02 -0.11092863473E+02  0.42442035609E+03  0.44719948834E+03  0.12499960061E+03 0.  0.
          2    1    1    2  501    0  0.19242703609E+02  0.69603119855E+01 -0.30529859602E+03  0.30598359485E+03  0.00000000000E+00 0. -1.
          1    1    1    2  502    0  0.44841552914E+02  0.41325514880E+01  0.23253235721E+04  0.23257595658E+04  0.00000000000E+00 0. -1.
         22    1    3    3    0    0 -0.58001060600E+02  0.39528555480E+02  0.35013087878E+03  0.35709699244E+03  0.00000000000E+00 0.  1.
         22    1    3    3    0    0 -0.60831959235E+01 -0.50621418953E+02  0.74289477304E+02  0.90102495901E+02  0.00000000000E+00 0.  1.
</event>
<event>
 7    1  0.6607887E-006  0.9526993E+02  0.7818608E-02  0.1425376E+00
          2   -1    0    0  502    0  0.00000000000E+00  0.00000000000E+00  0.71161622600E+03  0.71161622600E+03  0.00000000000E+00 0. -1.
          1   -1    0    0  501    0 -0.00000000000E+00 -0.00000000000E+00 -0.17811200090E+03  0.17811200090E+03  0.00000000000E+00 0. -1.
         25    2    1    2    0    0  0.10017689755E+02  0.77320608909E+02  0.12615457610E+03  0.19395612315E+03  0.12500067987E+03 0.  0.
          2    1    1    2  501    0  0.13821610828E+02 -0.96335418490E+02 -0.12730758842E+03  0.16024597296E+03  0.00000000000E+00 0. -1.
          1    1    1    2  502    0 -0.23839300583E+02  0.19014809581E+02  0.53465723742E+03  0.53552613079E+03  0.00000000000E+00 0. -1.
         22    1    3    3    0    0  0.44834431030E+02 -0.36195264016E+01  0.86157080484E+02  0.97191921962E+02  0.00000000000E+00 0.  1.
         22    1    3    3    0    0 -0.34816741275E+02  0.80940135311E+02  0.39997495613E+02  0.96764201193E+02  0.00000000000E+00 0.  1.
</event>
<event>
 7    1  0.6607887E-006  0.1424683E+03  0.7818608E-02  0.1288064E+00
          2   -1    0    0  502    0  0.00000000000E+00  0.00000000000E+00  0.15887148172E+03  0.15887148172E+03  0.00000000000E+00 0. -1.
          1   -1    0    0  501    0 -0.00000000000E+00 -0.00000000000E+00 -0.17017457424E+04  0.17017457424E+04  0.00000000000E+00 0. -1.
         25    2    1    2    0    0 -0.98269909875E+01 -0.19096276195E+03 -0.27053945949E+03  0.35409100797E+03  0.12500198629E+03 0.  0.
          2    1    1    2  501    0  0.33035583941E+02  0.56236812412E+02 -0.13484692374E+04  0.13500456338E+04  0.00000000000E+00 0. -1.
          1    1    1    2  502    0 -0.23208592953E+02  0.13472594954E+03  0.76134436304E+02  0.15648058236E+03  0.00000000000E+00 0. -1.
         22    1    3    3    0    0  0.80293185760E+01 -0.20429200014E+03 -0.22925292202E+03  0.30717518379E+03  0.00000000000E+00 0. -1.
         22    1    3    3    0    0 -0.17856309563E+02  0.13329238194E+02 -0.41286537471E+02  0.46915824179E+02  0.00000000000E+00 0. -1.
</event>
<event>
 7    1  0.6607887E-006  0.4146092E+02  0.7818608E-02  0.1558926E+00
          2   -1    0    0  502    0  0.00000000000E+00  0.00000000000E+00  0.13176105039E+04  0.13176105039E+04  0.00000000000E+00 0. -1.
          1   -1    0    0  501    0 -0.00000000000E+00 -0.00000000000E+00 -0.85568492935E+02  0.85568492935E+02  0.00000000000E+00 0. -1.
         25    2    1    2    0    0 -0.82015256824E+00  0.15421492732E+02  0.20379103318E+03  0.23956989101E+03  0.12499780952E+03 0.  0.
          2    1    1    2  501    0  0.10918451408E+02  0.25412892275E+02 -0.64431440852E+02  0.70117317727E+02  0.00000000000E+00 0. -1.
          1    1    1    2  502    0 -0.10098298839E+02 -0.40834385006E+02  0.10926824186E+04  0.10934917881E+04  0.00000000000E+00 0. -1.
         22    1    3    3    0    0  0.32077294630E+02  0.18838256410E+02  0.44056218745E+01  0.37459875059E+02  0.00000000000E+00 0. -1.
         22    1    3    3    0    0 -0.32897447198E+02 -0.34167636779E+01  0.19938541130E+03  0.20211001595E+03  0.00000000000E+00 0. -1.
</event>
<event>
 7    1  0.6607887E-006  0.6738529E+02  0.7818608E-02  0.1370231E+00
          2   -1    0    0  502    0  0.00000000000E+00  0.00000000000E+00  0.25029548788E+04  0.25029548788E+04  0.00000000000E+00 0. -1.
          1   -1    0    0  501    0 -0.00000000000E+00 -0.00000000000E+00 -0.11636260314E+03  0.11636260314E+03  0.00000000000E+00 0. -1.
         25    2    1    2    0    0 -0.20476565092E+02  0.59967307479E+02  0.19468623252E+03  0.23988033213E+03  0.12499790768E+03 0.  0.
          2    1    1    2  501    0 -0.45883838442E+02 -0.52128922370E+02 -0.80348144767E+02  0.10620063816E+03  0.00000000000E+00 0. -1.
          1    1    1    2  502    0  0.66360403535E+02 -0.78383851089E+01  0.22722541879E+04  0.22732365117E+04  0.00000000000E+00 0. -1.
         22    1    3    3    0    0 -0.41874747303E+02  0.37842523650E+02  0.20072906237E+03  0.20851308721E+03  0.00000000000E+00 0.  1.
         22    1    3    3    0    0  0.21398182211E+02  0.22124783829E+02 -0.60428298474E+01  0.31367244921E+02  0.00000000000E+00 0.  1.
</event>
<event>
 7    1  0.6607887E-006  0.2353301E+03  0.7818608E-02  0.1241273E+00
          2   -1    0    0  502    0  0.00000000000E+00  0.00000000000E+00  0.33451308586E+03  0.33451308586E+03  0.00000000000E+00 0. -1.
          1   -1    0    0  501    0 -0.00000000000E+00 -0.00000000000E+00 -0.72772134694E+03  0.72772134694E+03  0.00000000000E+00 0. -1.
         25    2    1    2    0    0 -0.22818636654E+03 -0.13382371370E+03 -0.13207146929E+03  0.32100802066E+03  0.12500188840E+03 0.  0.
          2    1    1    2  501    0  0.58784959092E+02 -0.20721722959E+02 -0.44374024505E+03  0.44809649217E+03  0.00000000000E+00 0. -1.
          1    1    1    2  502    0  0.16940140745E+03  0.15454543666E+03  0.18260345326E+03  0.29312991997E+03  0.00000000000E+00 0. -1.
         22    1    3    3    0    0 -0.15919564690E+03 -0.99723994321E+02 -0.15184876297E+03  0.24154953085E+03  0.00000000000E+00 0.  1.
         22    1    3    3    0    0 -0.68990719640E+02 -0.34099719378E+02  0.19777293682E+02  0.79458489814E+02  0.00000000000E+00 0.  1.
</event>
<event>
 7    1  0.6607887E-006  0.1139679E+03  0.7818608E-02  0.1400327E+00
          2   -1    0    0  502    0  0.00000000000E+00  0.00000000000E+00  0.57823159335E+03  0.57823159335E+03  0.00000000000E+00 0. -1.
          1   -1    0    0  501    0 -0.00000000000E+00 -0.00000000000E+00 -0.46165470868E+03  0.46165470868E+03  0.00000000000E+00 0. -1.
         25    2    1    2    0    0  0.94777089687E+02  0.44694098865E+02 -0.30532656566E+03  0.34616682755E+03  0.12500760614E+03 0.  0.
          2    1    1    2  501    0  0.17775104686E+02 -0.25359893240E+02 -0.12819978494E+03  0.13188731323E+03  0.00000000000E+00 0. -1.
          1    1    1    2  502    0 -0.11255219437E+03 -0.19334205626E+02  0.55010323527E+03  0.56183216125E+03  0.00000000000E+00 0. -1.
         22    1    3    3    0    0  0.31866517431E+02  0.34531605180E+02 -0.26846813860E+03  0.27254916645E+03  0.00000000000E+00 0. -1.
         22    1    3    3    0    0  0.62910572257E+02  0.10162493685E+02 -0.36858427055E+02  0.73617661091E+02  0.00000000000E+00 0. -1.
</event>
<event>
 7    1  0.6607887E-006  0.1547118E+03  0.7818608E-02  0.1304162E+00
          2   -1    0    0  502    0  0.00000000000E+00  0.00000000000E+00  0.17769722893E+04  0.17769722893E+04  0.00000000000E+00 0. -1.
          1   -1    0    0  501    0 -0.00000000000E+00 -0.00000000000E+00 -0.28679720301E+03  0.28679720301E+03  0.00000000000E+00 0. -1.
         25    2    1    2    0    0  0.11807885413E+03  0.12912448759E+03  0.21504719960E+03  0.30411465093E+03  0.12499869506E+03 0.  0.
          2    1    1    2  501    0  0.13446715787E+02 -0.49952273783E+02 -0.23556686509E+03  0.24117999865E+03  0.00000000000E+00 0. -1.
          1    1    1    2  502    0 -0.13152556992E+03 -0.79172213805E+02  0.15106947518E+04  0.15184748427E+04  0.00000000000E+00 0. -1.
         22    1    3    3    0    0  0.31470184281E+02  0.69689982242E+02  0.17627700841E+03  0.19214746894E+03  0.00000000000E+00 0.  1.
         22    1    3    3    0    0  0.86608669849E+02  0.59434505347E+02  0.38770191182E+02  0.11196718199E+03  0.00000000000E+00 0.  1.
</event>
<event>
 7    1  0.6607887E-006  0.8127616E+02  0.7818608E-02  0.1419187E+00
          2   -1    0    0  502    0  0.00000000000E+00  0.00000000000E+00  0.31838019226E+03  0.31838019226E+03  0.00000000000E+00 0. -1.
          1   -1    0    0  501    0 -0.00000000000E+00 -0.00000000000E+00 -0.68314587380E+03  0.68314587380E+03  0.00000000000E+00 0. -1.
         25    2    1    2    0    0 -0.52864445795E+02  0.94890669759E+02  0.32266645729E+02  0.16871648591E+03  0.12500090942E+03 0.  0.
          2    1    1    2  501    0  0.56471451555E+02 -0.57583645516E+02 -0.61063759044E+03  0.61594088023E+03  0.00000000000E+00 0. -1.
          1    1    1    2  502    0 -0.36070057591E+01 -0.37307024243E+02  0.21360526317E+03  0.21686869992E+03  0.00000000000E+00 0. -1.
         22    1    3    3    0    0  0.23203245223E+02  0.40337953064E+01  0.43728765922E+02  0.49667565498E+02  0.00000000000E+00 0. -1.
         22    1    3    3    0    0 -0.76067691019E+02  0.90856874453E+02 -0.11462120193E+02  0.11904892041E+03  0.00000000000E+00 0. -1.
</event>
<event>
 7    1  0.6607887E-006  0.1374949E+03  0.7818608E-02  0.1350465E+00
          2   -1    0    0  502    0  0.00000000000E+00  0.00000000000E+00  0.33247964656E+04  0.33247964656E+04  0.00000000000E+00 0. -1.
          1   -1    0    0  501    0 -0.00000000000E+00 -0.00000000000E+00 -0.13044551435E+03  0.13044551435E+03  0.00000000000E+00 0. -1.
         25    2    1    2    0    0  0.51639145374E+01  0.17442732368E+03  0.24210484997E+03  0.32356115163E+03  0.12500201280E+03 0.  0.
          2    1    1    2  501    0 -0.51756130339E+01 -0.38315145578E+02 -0.83955240147E+02  0.92430080055E+02  0.00000000000E+00 0. -1.
          1    1    1    2  502    0  0.11698496454E-01 -0.13611217810E+03  0.30362013414E+04  0.30392507482E+04  0.00000000000E+00 0. -1.
         22    1    3    3    0    0 -0.30163393269E+02  0.16963467494E+03  0.16475293191E+03  0.23838892972E+03  0.00000000000E+00 0. -1.
         22    1    3    3    0    0  0.35327307807E+02  0.47926487358E+01  0.77351918052E+02  0.85172221910E+02  0.00000000000E+00 0. -1.
</event>
<event>
 7    1  0.6607887E-006  0.7861083E+02  0.7818608E-02  0.1340008E+00
          2   -1    0    0  502    0  0.00000000000E+00  0.00000000000E+00  0.39897127186E+03  0.39897127186E+03  0.00000000000E+00 0. -1.
          1   -1    0    0  501    0 -0.00000000000E+00 -0.00000000000E+00 -0.46620861714E+03  0.46620861714E+03  0.00000000000E+00 0. -1.
         25    2    1    2    0    0  0.59354599864E+02 -0.68583631761E+02 -0.56376260340E+02  0.16440519576E+03  0.12499641032E+03 0.  0.
          2    1    1    2  501    0  0.13891348535E+02  0.78997193464E+02 -0.34722598205E+03  0.35636976408E+03  0.00000000000E+00 0. -1.
          1    1    1    2  502    0 -0.73245948399E+02 -0.10413561703E+02  0.33636489710E+03  0.34440492916E+03  0.00000000000E+00 0. -1.
         22    1    3    3    0    0 -0.12267037643E+02 -0.59735737478E+02 -0.67966616507E+02  0.91314289703E+02  0.00000000000E+00 0. -1.
         22    1    3    3    0    0  0.71621637507E+02 -0.88478942836E+01  0.11590356167E+02  0.73090906059E+02  0.00000000000E+00 0. -1.
</event>
<event>
 7    1  0.6607887E-006  0.1713739E+03  0.7818608E-02  0.1386771E+00
          2   -1    0    0  502    0  0.00000000000E+00  0.00000000000E+00  0.15518729104E+03  0.15518729104E+03  0.00000000000E+00 0. -1.
          1   -1    0    0  501    0 -0.00000000000E+00 -0.00000000000E+00 -0.11781774014E+04  0.11781774014E+04  0.00000000000E+00 0. -1.
         25    2    1    2    0    0  0.15577817232E+03 -0.10436016651E+03 -0.48922944074E+03  0.53863572367E+03  0.12500045521E+03 0.  0.
          2    1    1    2  501    0 -0.75951515222E+01  0.21659286354E+02 -0.60876235071E+03  0.60919488725E+03  0.00000000000E+00 0. -1.
          1    1    1    2  502    0 -0.14818302080E+03  0.82700880153E+02  0.75001681101E+02  0.18553408150E+03  0.00000000000E+00 0. -1.
         22    1    3    3    0    0 -0.58773679087E+01 -0.22735221074E+02 -0.85773777996E+01  0.25000102815E+02  0.00000000000E+00 0.  1.
         22    1    3    3    0    0  0.16165554023E+03 -0.81624945433E+02 -0.48065206294E+03  0.51363562085E+03  0.00000000000E+00 0.  1.
</event>
<event>
 7    1  0.6607887E-006  0.6515459E+02  0.7818608E-02  0.1403199E+00
          2   -1    0    0  502    0  0.00000000000E+00  0.00000000000E+00  0.72358090377E+03  0.72358090377E+03  0.00000000000E+00 0. -1.
          1   -1    0    0  501    0 -0.00000000000E+00 -0.00000000000E+00 -0.60583923259E+03  0.60583923259E+03  0.00000000000E+00 0. -1.
         25    2    1    2    0    0  0.32340279494E+02  0.21136630528E+02  0.27313007835E+03  0.30284896039E+03  0.12499920912E+03 0.  0.
          2    1    1    2  501    0 -0.31853454470E+01 -0.65344433031E+02 -0.58754801831E+03  0.59117908892E+03  0.00000000000E+00 0. -1.
          1    1    1    2  502    0 -0.29154934047E+02  0.44207802503E+02  0.43215961114E+03  0.43539208706E+03  0.00000000000E+00 0. -1.
         22    1    3    3    0    0  0.21392174488E+02 -0.16682633940E+02  0.25990229450E+03  0.26131425160E+03  0.00000000000E+00 0.  1.
         22    1    3    3    0    0  0.10948105006E+02  0.37819264469E+02  0.13227783851E+02  0.41534708784E+02  0.00000000000E+00 0.  1.
</event>
<event>
 7    1  0.6607887E-006  0.3987494E+02  0.7818608E-02  0.1561350E+00
          2   -1    0    0  502    0  0.00000000000E+00  0.00000000000E+00  0.76543712813E+03  0.76543712813E+03  0.00000000000E+00 0. -1.
          1   -1    0    0  501    0 -0.00000000000E+00 -0.00000000000E+00 -0.79985698202E+03  0.79985698202E+03  0.00000000000E+00 0. -1.
         25    2    1    2    0    0  0.26499852282E+02  0.24382148700E+02  0.19718305604E+02  0.13156271439E+03  0.12499281938E+03 0.  0.
          2    1    1    2  501    0 -0.23680162520E+02  0.15534590882E+02 -0.74308445142E+03  0.74362394768E+03  0.00000000000E+00 0. -1.
          1    1    1    2  502    0 -0.28196897622E+01 -0.39916739582E+02  0.68894629193E+03  0.69010744809E+03  0.00000000000E+00 0. -1.
         22    1    3    3    0    0  0.48685792219E+02 -0.18112549117E+02 -0.32026553309E+02  0.61025166254E+02  0.00000000000E+00 0.  1.
         22    1    3    3    0    0 -0.22185939937E+02  0.42494697817E+02  0.51744858913E+02  0.70537548138E+02  0.00000000000E+00 0.  1.
</event>
<event>
 7    1  0.6607887E-006  0.3329852E+02  0.7818608E-02  0.1595265E+00
          2   -1    0    0  502    0  0.00000000000E+00  0.00000000000E+00  0.33458362648E+03  0.33458362648E+03  0.00000000000E+00 0. -1.
          1   -1    0    0  501    0 -0.00000000000E+00 -0.00000000000E+00 -0.46227664771E+03  0.46227664771E+03  0.00000000000E+00 0. -1.
         25    2    1    2    0    0 -0.19373548017E+02  0.28968176993E+02  0.24711387096E+03  0.27911449902E+03  0.12500059481E+03 0.  0.
          2    1    1    2  501    0  0.32936313180E+02 -0.50529584119E+01 -0.44298315148E+03  0.44423462901E+03  0.00000000000E+00 0. -1.
          1    1    1    2  502    0 -0.13562765163E+02 -0.23915218581E+02  0.68176259290E+02  0.73511146157E+02  0.00000000000E+00 0. -1.
         22    1    3    3    0    0 -0.35763091338E+02  0.29982167627E+02  0.25615341787E+03  0.26036993406E+03  0.00000000000E+00 0.  1.
         22    1    3    3    0    0  0.16389543321E+02 -0.10139906346E+01 -0.90395469079E+01  0.18744564961E+02  0.00000000000E+00 0.  1.
</event>
<event>
 7    1  0.6607887E-006  0.1448347E+03  0.7818608E-02  0.1242861E+00
          2   -1    0    0  502    0  0.00000000000E+00  0.00000000000E+00  0.52087708368E+03  0.52087708368E+03  0.00000000000E+00 0. -1.
          1   -1    0    0  501    0 -0.00000000000E+00 -0.00000000000E+00 -0.42566586278E+03  0.42566586278E+03  0.00000000000E+00 0. -1.
         25    2    1    2    0    0  0.14771430194E+03 -0.86914315069E+02  0.13414629536E+03  0.25100433783E+03  0.12503733797E+03 0.  0.
          2    1    1    2  501    0 -0.14449683306E+03 -0.12695103288E+02 -0.34468128986E+03  0.37395947907E+03  0.00000000000E+00 0. -1.
          1    1    1    2  502    0 -0.32174688815E+01  0.99609418357E+02  0.30574621540E+03  0.32157912955E+03  0.00000000000E+00 0. -1.
         22    1    3    3    0    0 -0.87942022601E+01 -0.15150947481E+02  0.61818276410E+02  0.64252536925E+02  0.00000000000E+00 0. -1.
         22    1    3    3    0    0  0.15650850421E+03 -0.71763367588E+02  0.72328018949E+02  0.18675180090E+03  0.00000000000E+00 0. -1.
</event>
<event>
 7    1  0.6607887E-006  0.7971719E+02  0.7818608E-02  0.1404087E+00
          2   -1    0    0  502    0  0.00000000000E+00  0.00000000000E+00  0.65272071677E+03  0.65272071677E+03  0.00000000000E+00 0. -1.
          1   -1    0    0  501    0 -0.00000000000E+00 -0.00000000000E+00 -0.27890222665E+03  0.27890222665E+03  0.00000000000E+00 0. -1.
         25    2    1    2    0    0 -0.46447102442E+02  0.25707969498E+02  0.15757280226E+03  0.20802088813E+03  0.12500107546E+03 0.  0.
          2    1    1    2  501    0  0.80890454297E+02  0.12521471576E-02 -0.24620786294E+03  0.25915550808E+03  0.00000000000E+00 0. -1.
          1    1    1    2  502    0 -0.34443351855E+02 -0.25709221645E+02  0.46245355079E+03  0.46444654720E+03  0.00000000000E+00 0. -1.
         22    1    3    3    0    0  0.10361257647E+02  0.34010780107E+02  0.14493805809E+03  0.14923514836E+03  0.00000000000E+00 0. -1.
         22    1    3    3    0    0 -0.56808360089E+02 -0.83028106089E+01  0.12634744171E+02  0.58785739770E+02  0.00000000000E+00 0. -1.
</event>
<event>
 7    1  0.6607887E-006  0.1298735E+03  0.7818608E-02  0.1281212E+00
          2   -1    0    0  502    0  0.00000000000E+00  0.00000000000E+00  0.27562742355E+03  0.27562742355E+03  0.00000000000E+00 0. -1.
          1   -1    0    0  501    0 -0.00000000000E+00 -0.00000000000E+00 -0.39744481201E+03  0.39744481201E+03  0.00000000000E+00 0. -1.
         25    2    1    2    0    0 -0.18962796032E+02  0.72855828798E+02 -0.45497516471E+02  0.15284824294E+03  0.12500000776E+03 0.  0.
          2    1    1    2  501    0  0.28872195480E+02  0.70659044445E+02 -0.26908248115E+03  0.27969927761E+03  0.00000000000E+00 0. -1.
          1    1    1    2  502    0 -0.99093994476E+01 -0.14351487324E+03  0.19276260916E+03  0.24052471501E+03  0.00000000000E+00 0. -1.
         22    1    3    3    0    0  0.51570660020E+02  0.30466170525E+02 -0.36314602170E+02  0.70046205123E+02  0.00000000000E+00 0.  1.
         22    1    3    3    0    0 -0.70533456052E+02  0.42389658273E+02 -0.91829143009E+01  0.82802037815E+02  0.00000000000E+00 0.  1.
</event>
<event>
 7    1  0.6607887E-006  0.8532233E+02  0.7818608E-02  0.1388935E+00
          2   -1    0    0  502    0  0.00000000000E+00  0.00000000000E+00  0.14722939594E+04  0.14722939594E+04  0.00000000000E+00 0. -1.
          1   -1    0    0  501    0 -0.00000000000E+00 -0.00000000000E+00 -0.77074765537E+02  0.77074765537E+02  0.00000000000E+00 0. -1.
         25    2    1    2    0    0  0.23756914436E+02 -0.70649118631E+02  0.14625277289E+03  0.20632915633E+03  0.12500463283E+03 0.  0.
          2    1    1    2  501    0 -0.67654515910E+02  0.59449720359E+02 -0.31359189872E+01  0.90117904778E+02  0.00000000000E+00 0. -1.
          1    1    1    2  502    0  0.43897601473E+02  0.11199398272E+02  0.12521023400E+04  0.12529216638E+04  0.00000000000E+00 0. -1.
         22    1    3    3    0    0 -0.48358561769E+02 -0.20874079036E+02  0.82834510684E+02  0.98162283145E+02  0.00000000000E+00 0.  1.
         22    1    3    3    0    0  0.72115476205E+02 -0.49775039594E+02  0.63418262202E+02  0.10816687319E+03  0.00000000000E+00 0.  1.
</event>
<event>
 7    1  0.6607887E-006  0.2804648E+03  0.7818608E-02  0.1149619E+00
          2   -1    0    0  502    0  0.00000000000E+00  0.00000000000E+00  0.49559274764E+03  0.49559274764E+03  0.00000000000E+00 0. -1.
          1   -1    0    0  501    0 -0.00000000000E+00 -0.00000000000E+00 -0.27134623072E+04  0.27134623072E+04  0.00000000000E+00 0. -1.
         25    2    1    2    0    0  0.26808436218E+03 -0.26750919827E+03 -0.56810359758E+03  0.69411662972E+03  0.12500320666E+03 0.  0.
          2    1    1    2  501    0 -0.24339713189E+02  0.14073391126E+03 -0.20359734268E+04  0.20409767882E+04  0.00000000000E+00 0. -1.
          1    1    1    2  502    0 -0.24374464899E+03  0.12677528701E+03  0.38620746485E+03  0.47396163686E+03  0.00000000000E+00 0. -1.
         22    1    3    3    0    0  0.25731623514E+03 -0.26175317651E+03 -0.57339096904E+03  0.68081096764E+03  0.00000000000E+00 0. -1.
         22    1    3    3    0    0  0.10768127040E+02 -0.57560217568E+01  0.52873714668E+01  0.13305662082E+02  0.00000000000E+00 0. -1.
</event>
<event>
 7    1  0.6607887E-006  0.1173803E+03  0.7818608E-02  0.1302652E+00
          2   -1    0    0  502    0  0.00000000000E+00  0.00000000000E+00  0.73686521698E+03  0.73686521698E+03  0.00000000000E+00 0. -1.
          1   -1    0    0  501    0 -0.00000000000E+00 -0.00000000000E+00 -0.33704769690E+03  0.33704769690E+03  0.00000000000E+00 0. -1.
         25    2    1    2    0    0 -0.98922849398E+02  0.11186578849E+03  0.51179760987E+02  0.20135653892E+03  0.12500161224E+03 0.  0.
          2    1    1    2  501    0  0.10716446659E+03 -0.43225909663E+02 -0.24711934237E+03  0.27280152408E+03  0.00000000000E+00 0. -1.
          1    1    1    2  502    0 -0.82416171917E+01 -0.68639878831E+02  0.59575710146E+03  0.59975485089E+03  0.00000000000E+00 0. -1.
         22    1    3    3    0    0 -0.59078009188E+02  0.12787368672E+03  0.66494295197E+02  0.15576707681E+03  0.00000000000E+00 0.  1.
         22    1    3    3    0    0 -0.39844840210E+02 -0.16007898226E+02 -0.15314534210E+02  0.45589462105E+02  0.00000000000E+00 0.  1.
</event>
<event>
 7    1  0.6607887E-006  0.9866960E+02  0.7818608E-02  0.1283213E+00
          2   -1    0    0  502    0  0.00000000000E+00  0.00000000000E+00  0.11256502260E+03  0.11256502260E+03  0.00000000000E+00 0. -1.
          1   -1    0    0  501    0 -0.00000000000E+00 -0.00000000000E+00 -0.10762405934E+04  0.10762405934E+04  0.00000000000E+00 0. -1.
         25    2    1    2    0    0 -0.64099951886E+02 -0.53016514625E+02 -0.22345161254E+02  0.15180036185E+03  0.12499795587E+03 0.  0.
          2    1    1    2  501    0  0.55546174992E+02 -0.81549449773E+02 -0.88564042580E+03  0.89111988763E+03  0.00000000000E+00 0. -1.
          1    1    1    2  502    0  0.85537768939E+01  0.13456596440E+03 -0.55689983740E+02  0.14588536651E+03  0.00000000000E+00 0. -1.
         22    1    3    3    0    0 -0.63777753637E+02 -0.24528234270E+02  0.42847345406E+02  0.80654393208E+02  0.00000000000E+00 0.  1.
         22    1    3    3    0    0 -0.32219824879E+00 -0.28488280354E+02 -0.65192506660E+02  0.71145968641E+02  0.00000000000E+00 0.  1.
</event>
<event>
 7    1  0.6607887E-006  0.8321051E+02  0.7818608E-02  0.1419690E+00
          2   -1    0    0  502    0  0.00000000000E+00  0.00000000000E+00  0.11483773903E+03  0.11483773903E+03  0.00000000000E+00 0. -1.
          1   -1    0    0  501    0 -0.00000000000E+00 -0.00000000000E+00 -0.12082144363E+04  0.12082144363E+04  0.00000000000E+00 0. -1.
         25    2    1    2    0    0 -0.56923211950E+02  0.89541005515E+02 -0.16255707971E+03  0.23088567123E+03  0.12500218112E+03 0.  0.
          2    1    1    2  501    0  0.34628427165E+02 -0.11436446615E+02 -0.99062745962E+03  0.99129848383E+03  0.00000000000E+00 0. -1.
          1    1    1    2  502    0  0.22294784785E+02 -0.78104558900E+02  0.59807842046E+02  0.10086802030E+03  0.00000000000E+00 0. -1.
         22    1    3    3    0    0 -0.36210811341E+02  0.44309736633E+02 -0.17109447093E+03  0.18041034783E+03  0.00000000000E+00 0.  1.
         22    1    3    3    0    0 -0.20712400609E+02  0.45231268881E+02  0.85373912188E+01  0.50475323401E+02  0.00000000000E+00 0.  1.
</event>
<event>
 7    1  0.6607887E-006  0.4263172E+02  0.7818608E-02  0.1569618E+00
          2   -1    0    0  502    0  0.00000000000E+00  0.00000000000E+00  0.20222103495E+03  0.20222103495E+03  0.00000000000E+00 0. -1.
          1   -1    0    0  501    0 -0.00000000000E+00 -0.00000000000E+00 -0.69006782797E+02  0.69006782797E+02  0.00000000000E+00 0. -1.
         25    2    1    2    0    0 -0.29646696714E+02 -0.55744292222E+01  0.52952136484E+02  0.13906392673E+03  0.12499938429E+03 0.  0.
          2    1    1    2  501    0  0.43766144539E+02 -0.15233897638E+02 -0.17585555887E+01  0.46374988548E+02  0.00000000000E+00 0. -1.
          1    1    1    2  502    0 -0.14119447825E+02  0.20808326860E+02  0.82020671253E+02  0.85788902466E+02  0.00000000000E+00 0. -1.
         22    1    3    3    0    0 -0.92134747184E+01 -0.22935131784E+02 -0.37393315329E+02  0.44823748366E+02  0.00000000000E+00 0.  1.
         22    1    3    3    0    0 -0.20433221996E+02  0.17360702561E+02  0.90345451813E+02  0.94240178362E+02  0.00000000000E+00 0.  1.
</event>
<event>
 7    1  0.6607887E-006  0.1635479E+03  0.7818608E-02  0.1283944E+00
          2   -1    0    0  502    0  0.00000000000E+00  0.00000000000E+00  0.10794025012E+04  0.10794025012E+04  0.00000000000E+00 0. -1.
          1   -1    0    0  501    0 -0.00000000000E+00 -0.00000000000E+00 -0.64033611879E+03  0.64033611879E+03  0.00000000000E+00 0. -1.
         25    2    1    2    0    0  0.10730250157E+03 -0.20980364553E+02  0.99480220831E+02  0.19358351132E+03  0.12499703588E+03 0.  0.
          2    1    1    2  501    0 -0.16291429942E+03  0.40879900063E+02 -0.58043029569E+03  0.60424462211E+03  0.00000000000E+00 0. -1.
          1    1    1    2  502    0  0.55611797852E+02 -0.19899535509E+02  0.92001645732E+03  0.92191048660E+03  0.00000000000E+00 0. -1.
         22    1    3    3    0    0 -0.70025868897E+00  0.35378053685E+02 -0.14015365181E+01  0.35412728635E+02  0.00000000000E+00 0. -1.
         22    1    3    3    0    0  0.10800276026E+03 -0.56358418239E+02  0.10088175735E+03  0.15817078268E+03  0.00000000000E+00 0. -1.
</event>
<event>
 7    1  0.6607887E-006  0.1215688E+03  0.7818608E-02  0.1394838E+00
          2   -1    0    0  502    0  0.00000000000E+00  0.00000000000E+00  0.13755647827E+04  0.13755647827E+04  0.00000000000E+00 0. -1.
          1   -1    0    0  501    0 -0.00000000000E+00 -0.00000000000E+00 -0.14047190324E+04  0.14047190324E+04  0.00000000000E+00 0. -1.
         25    2    1    2    0    0 -0.89236076481E+02  0.20477193864E+02  0.10161767670E+04  0.10279221472E+04  0.12500530388E+03 0.  0.
          2    1    1    2  501    0  0.11946230589E+03 -0.22949087276E+02 -0.13955451149E+04  0.14008369180E+04  0.00000000000E+00 0. -1.
          1    1    1    2  502    0 -0.30226229409E+02  0.24718934119E+01  0.35021409820E+03  0.35152474988E+03  0.00000000000E+00 0. -1.
         22    1    3    3    0    0 -0.36717075736E+02 -0.40516256908E+02  0.68202122156E+03  0.68420951278E+03  0.00000000000E+00 0. -1.
         22    1    3    3    0    0 -0.52519000745E+02  0.60993450772E+02  0.33415554547E+03  0.34371263440E+03  0.00000000000E+00 0. -1.
</event>
<event>
 7    1  0.6607887E-006  0.8573679E+02  0.7818608E-02  0.1484384E+00
          2   -1    0    0  502    0  0.00000000000E+00  0.00000000000E+00  0.14487424056E+04  0.14487424056E+04  0.00000000000E+00 0. -1.
          1   -1    0    0  501    0 -0.00000000000E+00 -0.00000000000E+00 -0.47641581458E+02  0.47641581458E+02  0.00000000000E+00 0. -1.
         25    2    1    2    0    0  0.27792694727E+02  0.59489896430E+02  0.70111757419E+03  0.71519347151E+03  0.12499746874E+03 0.  0.
          2    1    1    2  501    0 -0.31510967422E+02 -0.81173484305E+02  0.64556868014E+01  0.87314096882E+02  0.00000000000E+00 0. -1.
          1    1    1    2  502    0  0.37182726953E+01  0.21683587875E+02  0.69352756318E+03  0.69387641870E+03  0.00000000000E+00 0. -1.
         22    1    3    3    0    0 -0.24000296636E+02  0.38853862131E+02  0.84422134855E+02  0.95982986484E+02  0.00000000000E+00 0.  1.
         22    1    3    3    0    0  0.51792991363E+02  0.20636034300E+02  0.61669543934E+03  0.61921048503E+03  0.00000000000E+00 0.  1.
</event>
<event>
 7    1  0.6607887E-006  0.1178779E+03  0.7818608E-02  0.1292988E+00
          2   -1    0    0  502    0  0.00000000000E+00  0.00000000000E+00  0.73302535166E+03  0.73302535166E+03  0.00000000000E+00 0. -1.
          1   -1    0    0  501    0 -0.00000000000E+00 -0.00000000000E+00 -0.79798631597E+03  0.79798631597E+03  0.00000000000E+00 0. -1.
         25    2    1    2    0    0 -0.10112985750E+03 -0.12743726637E+03 -0.10059142702E+02  0.20541136362E+03  0.12500054806E+03 0.  0.
          2    1    1    2  501    0  0.10396009811E+03  0.52212460105E+02 -0.68308608572E+03  0.69292167198E+03  0.00000000000E+00 0. -1.
          1    1    1    2  502    0 -0.28302406049E+01  0.75224806266E+02  0.62818426412E+03  0.63267863203E+03  0.00000000000E+00 0. -1.
         22    1    3    3    0    0 -0.10685924654E+03 -0.14827574669E+03 -0.14516176533E+02  0.18334479815E+03  0.00000000000E+00 0.  1.
         22    1    3    3    0    0  0.57293890417E+01  0.20838480323E+02  0.44570338311E+01  0.22066565467E+02  0.00000000000E+00 0.  1.
</event>
<event>
 7    1  0.6607887E-006  0.1620697E+03  0.7818608E-02  0.1192031E+00
          2   -1    0    0  502    0  0.00000000000E+00  0.00000000000E+00  0.30397527421E+03  0.30397527421E+03  0.00000000000E+00 0. -1.
          1   -1    0    0  501    0 -0.00000000000E+00 -0.00000000000E+00 -0.32117896145E+03  0.32117896145E+03  0.00000000000E+00 0. -1.
         25    2    1    2    0    0 -0.67783724047E+02  0.42076530358E+02  0.66724581564E+02  0.16261269771E+03  0.12500260805E+03 0.  0.
          2    1    1    2  501    0 -0.21624865019E+01 -0.18827543038E+03 -0.19107369496E+03  0.26825635302E+03  0.00000000000E+00 0. -1.
          1    1    1    2  502    0  0.69946210549E+02  0.14619890002E+03  0.10714542615E+03  0.19428518493E+03  0.00000000000E+00 0. -1.
         22    1    3    3    0    0 -0.35593596744E+02 -0.43854260320E+02  0.23387429976E+02  0.61131597053E+02  0.00000000000E+00 0. -1.
         22    1    3    3    0    0 -0.32190127304E+02  0.85930790678E+02  0.43337151587E+02  0.10148110065E+03  0.00000000000E+00 0. -1.
</event>
<event>
 7    1  0.6607887E-006  0.1345109E+03  0.7818608E-02  0.1221373E+00
          2   -1    0    0  502    0  0.00000000000E+00  0.00000000000E+00  0.67564603368E+03  0.67564603368E+03  0.00000000000E+00 0. -1.
          1   -1    0    0  501    0 -0.00000000000E+00 -0.00000000000E+00 -0.95060362609E+02  0.95060362609E+02  0.00000000000E+00 0. -1.
         25    2    1    2    0    0 -0.86010379192E+02 -0.62963788506E+02  0.26900304944E+03  0.31519803196E+03  0.12499973902E+03 0.  0.
          2    1    1    2  501    0 -0.51155487702E+01  0.16102193701E+03  0.62631306483E+02  0.17284939569E+03  0.00000000000E+00 0. -1.
          1    1    1    2  502    0  0.91125927963E+02 -0.98058148507E+02  0.24895131515E+03  0.28265896864E+03  0.00000000000E+00 0. -1.
         22    1    3    3    0    0 -0.72847327888E+02  0.20473931891E+02  0.16257862396E+03  0.17932574839E+03  0.00000000000E+00 0.  1.
         22    1    3    3    0    0 -0.13163051304E+02 -0.83437720397E+02  0.10642442548E+03  0.13587228358E+03  0.00000000000E+00 0.  1.
</event>
<event>
 7    1  0.6607887E-006  0.1128885E+03  0.7818608E-02  0.1331310E+00
          2   -1    0    0  502    0  0.00000000000E+00  0.00000000000E+00  0.27319689972E+04  0.27319689972E+04  0.00000000000E+00 0. -1.
          1   -1    0    0  501    0 -0.00000000000E+00 -0.00000000000E+00 -0.90016169380E+02  0.90016169380E+02  0.00000000000E+00 0. -1.
         25    2    1    2    0    0  0.17867891105E+02 -0.75286829518E+02  0.32192476071E+03  0.35390173609E+03  0.12499407593E+03 0.  0.
          2    1    1    2  501    0 -0.39244982472E+02 -0.39354559935E+02 -0.61964493873E+02  0.83237903252E+02  0.00000000000E+00 0. -1.
          1    1    1    2  502    0  0.21377091367E+02  0.11464138945E+03  0.23819925610E+04  0.23848455273E+04  0.00000000000E+00 0. -1.
         22    1    3    3    0    0 -0.30647361540E+02 -0.15579698006E+02  0.23631619536E+03  0.23880396133E+03  0.00000000000E+00 0.  1.
         22    1    3    3    0    0  0.48515252645E+02 -0.59707131512E+02  0.85608565351E+02  0.11509777476E+03  0.00000000000E+00 0.  1.
</event>
<event>
 7    1  0.6607887E-006  0.7029327E+02  0.7818608E-02  0.1453419E+00
          2   -1    0    0  502    0  0.00000000000E+00  0.00000000000E+00  0.21875602193E+04  0.21875602193E+04  0.00000000000E+00 0. -1.
          1   -1    0    0  501    0 -0.00000000000E+00 -0.00000000000E+00 -0.13290137668E+03  0.13290137668E+03  0.00000000000E+00 0. -1.
         25    2    1    2    0    0 -0.47909427799E+02 -0.14229626557E+02  0.22222566661E+02  0.13644045456E+03  0.12499743849E+03 0.  0.
          2    1    1    2  501    0  0.60874022208E+02  0.45128898414E+02 -0.56683680095E+02  0.94632466104E+02  0.00000000000E+00 0. -1.
          1    1    1    2  502    0 -0.12964594409E+02 -0.30899271857E+02  0.20891199560E+04  0.20893886753E+04  0.00000000000E+00 0. -1.
         22    1    3    3    0    0  0.22955839308E+02 -0.48970539057E+02  0.19429595735E+02  0.57468195067E+02  0.00000000000E+00 0.  1.
         22    1    3    3    0    0 -0.70865267107E+02  0.34740912500E+02  0.27929709262E+01  0.78972259497E+02  0.00000000000E+00 0.  1.
</event>
<event>
 7    1  0.6607887E-006  0.1278364E+03  0.7818608E-02  0.1233672E+00
          2   -1    0    0  502    0  0.00000000000E+00  0.00000000000E+00  0.25070074800E+04  0.25070074800E+04  0.00000000000E+00 0. -1.
          1   -1    0    0  501    0 -0.00000000000E+00 -0.00000000000E+00 -0.42427413829E+03  0.42427413829E+03  0.00000000000E+00 0. -1.
         25    2    1    2    0    0  0.62774369824E+02  0.15969059045E+02  0.48024809563E+03  0.50045812760E+03  0.12499788707E+03 0.  0.
          2    1    1    2  501    0 -0.73037681985E+02  0.10759463849E+03 -0.40199830251E+03  0.42250886906E+03  0.00000000000E+00 0. -1.
          1    1    1    2  502    0  0.10263312160E+02 -0.12356369753E+03  0.20044835485E+04  0.20083146216E+04  0.00000000000E+00 0. -1.
         22    1    3    3    0    0  0.22783806955E+02 -0.20611796376E+01  0.52925593489E+01  0.23481088248E+02  0.00000000000E+00 0. -1.
         22    1    3    3    0    0  0.39990562870E+02  0.18030238683E+02  0.47495553628E+03  0.47697703936E+03  0.00000000000E+00 0. -1.
</event>
<event>
 7    1  0.6607887E-006  0.7949531E+03  0.7818608E-02  0.1090912E+00
          2   -1    0    0  502    0  0.00000000000E+00  0.00000000000E+00  0.17547983874E+04  0.17547983874E+04  0.00000000000E+00 0. -1.
          1   -1    0    0  501    0 -0.00000000000E+00 -0.00000000000E+00 -0.12465743615E+04  0.12465743615E+04  0.00000000000E+00 0. -1.
         25    2    1    2    0    0 -0.39295725949E+03 -0.78325814782E+03 -0.38906460588E+03  0.96690448771E+03  0.12499714761E+03 0.  0.
          2    1    1    2  501    0  0.26628290463E+01  0.10497473669E+03 -0.45777764842E+03  0.46966707506E+03  0.00000000000E+00 0. -1.
          1    1    1    2  502    0  0.39029443044E+03  0.67828341113E+03  0.13550662803E+04  0.15648011861E+04  0.00000000000E+00 0. -1.
         22    1    3    3    0    0 -0.32295253013E+03 -0.58433951280E+03 -0.24349245239E+03  0.71066136613E+03  0.00000000000E+00 0.  1.
         22    1    3    3    0    0 -0.70004729352E+02 -0.19891863502E+03 -0.14557215348E+03  0.25624312159E+03  0.00000000000E+00 0.  1.
</event>
<event>
 7    1  0.6607887E-006  0.6392788E+02  0.7818608E-02  0.1437655E+00
          2   -1    0    0  502    0  0.00000000000E+00  0.00000000000E+00  0.73205344523E+03  0.73205344523E+03  0.00000000000E+00 0. -1.
          1   -1    0    0  501    0 -0.00000000000E+00 -0.00000000000E+00 -0.97502346258E+03  0.97502346258E+03  0.00000000000E+00 0. -1.
         25    2    1    2    0    0 -0.73575436515E+02  0.75171237864E+02 -0.38414488295E+03  0.41744041050E+03  0.12500058144E+03 0.  0.
          2    1    1    2  501    0  0.28478140567E+02 -0.30067998543E+02 -0.57205918713E+03  0.57355627676E+03  0.00000000000E+00 0. -1.
          1    1    1    2  502    0  0.45097295948E+02 -0.45103239321E+02  0.71323405273E+03  0.71608022056E+03  0.00000000000E+00 0. -1.
         22    1    3    3    0    0  0.23406208997E+02  0.10366076207E+02 -0.18412010897E+03  0.18589115279E+03  0.00000000000E+00 0. -1.
         22    1    3    3    0    0 -0.96981645512E+02  0.64805161657E+02 -0.20002477397E+03  0.23154925771E+03  0.00000000000E+00 0. -1.
</event>
<event>
 7    1  0.6607887E-006  0.6187341E+02  0.7818608E-02  0.1463670E+00
          2   -1    0    0  502    0  0.00000000000E+00  0.00000000000E+00  0.60146059390E+03  0.60146059390E+03  0.00000000000E+00 0. -1.
          1   -1    0    0  501    0 -0.00000000000E+00 -0.00000000000E+00 -0.36507144617E+03  0.36507144617E+03  0.00000000000E+00 0. -1.
         25    2    1    2    0    0  0.41446418248E+02  0.47812423009E+02 -0.49018497021E+02  0.14843079409E+03  0.12500021681E+03 0.  0.
          2    1    1    2  501    0 -0.59903427995E+02 -0.17685087681E+02 -0.26210780460E+03  0.26944699710E+03  0.00000000000E+00 0. -1.
          1    1    1    2  502    0  0.18457009748E+02 -0.30127335328E+02  0.54751544935E+03  0.54865424888E+03  0.00000000000E+00 0. -1.
         22    1    3    3    0    0  0.48349553196E+02 -0.33293374291E+02 -0.20372708693E+02  0.62138356314E+02  0.00000000000E+00 0. -1.
         22    1    3    3    0    0 -0.69031349483E+01  0.81105797300E+02 -0.28645788328E+02  0.86292437772E+02  0.00000000000E+00 0. -1.
</event>
<event>
 7    1  0.6607887E-006  0.1549350E+03  0.7818608E-02  0.1227373E+00
          2   -1    0    0  502    0  0.00000000000E+00  0.00000000000E+00  0.16625885815E+04  0.16625885815E+04  0.00000000000E+00 0. -1.
          1   -1    0    0  501    0 -0.00000000000E+00 -0.00000000000E+00 -0.13921938510E+03  0.13921938510E+03  0.00000000000E+00 0. -1.
         25    2    1    2    0    0  0.57004427062E+02  0.86143450831E+02  0.58415479801E+03  0.60624462959E+03  0.12500209614E+03 0.  0.
          2    1    1    2  501    0  0.99120626207E+02  0.45754130049E+02 -0.92936242379E+02  0.14337183860E+03  0.00000000000E+00 0. -1.
          1    1    1    2  502    0 -0.15612505327E+03 -0.13189758088E+03  0.10321506408E+04  0.10521914984E+04  0.00000000000E+00 0. -1.
         22    1    3    3    0    0 -0.59064259719E+01  0.60995877719E+02  0.99356812584E+02  0.11673542382E+03  0.00000000000E+00 0.  1.
         22    1    3    3    0    0  0.62910853034E+02  0.25147573112E+02  0.48479798543E+03  0.48950920577E+03  0.00000000000E+00 0.  1.
</event>
<event>
 7    1  0.6607887E-006  0.1263590E+03  0.7818608E-02  0.1265336E+00
          2   -1    0    0  502    0  0.00000000000E+00  0.00000000000E+00  0.15008980920E+04  0.15008980920E+04  0.00000000000E+00 0. -1.
          1   -1    0    0  501    0 -0.00000000000E+00 -0.00000000000E+00 -0.97746489924E+02  0.97746489924E+02  0.00000000000E+00 0. -1.
         25    2    1    2    0    0 -0.16634567959E+03 -0.10940877780E+03  0.36453373041E+03  0.43376364794E+03  0.12499958354E+03 0.  0.
          2    1    1    2  501    0  0.77620290439E+02  0.87470854352E+02 -0.52087076854E+01  0.11706062739E+03  0.00000000000E+00 0. -1.
          1    1    1    2  502    0  0.88725389152E+02  0.21937923450E+02  0.10438265794E+04  0.10478203066E+04  0.00000000000E+00 0. -1.
         22    1    3    3    0    0 -0.56772822648E+02 -0.10853885723E+03  0.22675519665E+03  0.25772418615E+03  0.00000000000E+00 0.  1.
         22    1    3    3    0    0 -0.10957285694E+03 -0.86992057598E+00  0.13777853377E+03  0.17603946179E+03  0.00000000000E+00 0.  1.
</event>
<event>
 7    1  0.6607887E-006  0.6318550E+02  0.7818608E-02  0.1535355E+00
          2   -1    0    0  502    0  0.00000000000E+00  0.00000000000E+00  0.69554747291E+02  0.69554747291E+02  0.00000000000E+00 0. -1.
          1   -1    0    0  501    0 -0.00000000000E+00 -0.00000000000E+00 -0.57222936139E+03  0.57222936139E+03  0.00000000000E+00 0. -1.
         25    2    1    2    0    0 -0.50230948513E+02 -0.68583607208E+01 -0.18290188054E+03  0.22726315154E+03  0.12500102737E+03 0.  0.
          2    1    1    2  501    0 -0.13862574325E+02  0.15944674040E+02 -0.34455707543E+03  0.34520426102E+03  0.00000000000E+00 0. -1.
          1    1    1    2  502    0  0.64093522837E+02 -0.90863133195E+01  0.24784341868E+02  0.69316696122E+02  0.00000000000E+00 0. -1.
         22    1    3    3    0    0 -0.41332579702E+02  0.31154758331E+02 -0.18091332482E+03  0.18817181566E+03  0.00000000000E+00 0.  1.
         22    1    3    3    0    0 -0.88983688108E+01 -0.38013119052E+02 -0.19885557242E+01  0.39091335887E+02  0.00000000000E+00 0.  1.
</event>
<event>
 7    1  0.6607887E-006  0.1464417E+03  0.7818608E-02  0.1241151E+00
          2   -1    0    0  502    0  0.00000000000E+00  0.00000000000E+00  0.33570527376E+04  0.33570527376E+04  0.00000000000E+00 0. -1.
          1   -1    0    0  501    0 -0.00000000000E+00 -0.00000000000E+00 -0.19174815822E+03  0.19174815822E+03  0.00000000000E+00 0. -1.
         25    2    1    2    0    0  0.53868436776E+02 -0.28874230512E+02  0.20067865234E+03  0.24419686432E+03  0.12499862949E+03 0.  0.
          2    1    1    2  501    0 -0.13670901674E+03  0.85400685089E+02 -0.13078130376E+03  0.20757259377E+03  0.00000000000E+00 0. -1.
          1    1    1    2  502    0  0.82840579960E+02 -0.56526454578E+02  0.30954072308E+04  0.30970314377E+04  0.00000000000E+00 0. -1.
         22    1    3    3    0    0 -0.45853776434E+01 -0.27013871759E+02 -0.71322982898E+01  0.28313329625E+02  0.00000000000E+00 0. -1.
         22    1    3    3    0    0  0.58453814420E+02 -0.18603587526E+01  0.20781095063E+03  0.21588353470E+03  0.00000000000E+00 0. -1.
</event>
<event>
 7    1  0.6607887E-006  0.3507589E+02  0.7818608E-02  0.1581805E+00
          2   -1    0    0  502    0  0.00000000000E+00  0.00000000000E+00  0.22477728191E+04  0.22477728191E+04  0.00000000000E+00 0. -1.
          1   -1    0    0  501    0 -0.00000000000E+00 -0.00000000000E+00 -0.83909581740E+02  0.83909581740E+02  0.00000000000E+00 0. -1.
         25    2    1    2    0    0 -0.12709760106E+02 -0.10647796522E+02  0.12823036420E+03  0.17984079639E+03  0.12499908868E+03 0.  0.
          2    1    1    2  501    0 -0.32512222960E-01  0.35957042398E+02 -0.52436141452E+02  0.63580334109E+02  0.00000000000E+00 0. -1.
          1    1    1    2  502    0  0.12742272329E+02 -0.25309245875E+02  0.20880690146E+04  0.20882612703E+04  0.00000000000E+00 0. -1.
         22    1    3    3    0    0  0.22878695740E+02  0.50161248316E+02  0.48382645972E+02  0.73351659713E+02  0.00000000000E+00 0. -1.
         22    1    3    3    0    0 -0.35588455846E+02 -0.60809044838E+02  0.79847718229E+02  0.10648913668E+03  0.00000000000E+00 0. -1.
</event>
<event>
 7    1  0.6607887E-006  0.1406010E+03  0.7818608E-02  0.1349178E+00
          2   -1    0    0  502    0  0.00000000000E+00  0.00000000000E+00  0.22554118087E+03  0.22554118087E+03  0.00000000000E+00 0. -1.
          1   -1    0    0  501    0 -0.00000000000E+00 -0.00000000000E+00 -0.39328693231E+03  0.39328693231E+03  0.00000000000E+00 0. -1.
         25    2    1    2    0    0  0.43368273835E+02  0.12242138424E+03  0.36346275136E+02  0.18388590199E+03  0.12500068295E+03 0.  0.
          2    1    1    2  501    0  0.38139330818E+02  0.25829657119E+01 -0.26936322415E+03  0.27206217449E+03  0.00000000000E+00 0. -1.
          1    1    1    2  502    0 -0.81507604653E+02 -0.12500434996E+03  0.65271197573E+02  0.16288003670E+03  0.00000000000E+00 0. -1.
         22    1    3    3    0    0 -0.35072666545E+02  0.62108907233E+02  0.45359896654E+02  0.84528862058E+02  0.00000000000E+00 0.  1.
         22    1    3    3    0    0  0.78440940380E+02  0.60312477011E+02 -0.90136215179E+01  0.99357039930E+02  0.00000000000E+00 0.  1.
</event>
<event>
 7    1  0.6607887E-006  0.2951226E+02  0.7818608E-02  0.1633053E+00
          2   -1    0    0  502    0  0.00000000000E+00  0.00000000000E+00  0.19168677404E+04  0.19168677404E+04  0.00000000000E+00 0. -1.
          1   -1    0    0  501    0 -0.00000000000E+00 -0.00000000000E+00 -0.71882550204E+03  0.71882550204E+03  0.00000000000E+00 0. -1.
         25    2    1    2    0    0 -0.12023603577E+02  0.19381703724E+01 -0.13361507327E+03  0.18337341137E+03  0.12499798656E+03 0.  0.
          2    1    1    2  501    0 -0.48976481828E+00  0.24808075509E+02 -0.55994127607E+03  0.56049077880E+03  0.00000000000E+00 0. -1.
          1    1    1    2  502    0  0.12513368395E+02 -0.26746245882E+02  0.18915985877E+04  0.18918290523E+04  0.00000000000E+00 0. -1.
         22    1    3    3    0    0 -0.28897737218E+02  0.45219343135E+02 -0.12512803337E+03  0.13615025870E+03  0.00000000000E+00 0. -1.
         22    1    3    3    0    0  0.16874133641E+02 -0.43281172762E+02 -0.84870399042E+01  0.47223152671E+02  0.00000000000E+00 0. -1.
</event>
<event>
 7    1  0.7918885E-006  0.1034322E+03  0.7818608E-02  0.1307599E+00
          2   -1    0    0  502    0  0.00000000000E+00  0.00000000000E+00  0.27274757584E+04  0.27274757584E+04  0.00000000000E+00 0. -1.
          1   -1    0    0  501    0 -0.00000000000E+00 -0.00000000000E+00 -0.53812583963E+03  0.53812583963E+03  0.00000000000E+00 0. -1.
         25    2    1    2    0    0  0.11725112103E+03 -0.11109255359E+03 -0.17910761355E+03  0.27165085781E+03  0.12500108188E+03 0.  0.
          2    1    1    2  501    0 -0.72812343630E+02  0.17925147107E+02 -0.30724228309E+03  0.31626060267E+03  0.00000000000E+00 0. -1.
          1    1    1    2  502    0 -0.44438777398E+02  0.93167406488E+02  0.26756998154E+04  0.26776901376E+04  0.00000000000E+00 0. -1.
         22    1    3    3    0    0  0.43930504796E+02 -0.59812418145E+02 -0.31825605453E+01  0.74280167660E+02  0.00000000000E+00 0. -1.
         22    1    3    3    0    0  0.73320616233E+02 -0.51280135449E+02 -0.17592505301E+03  0.19737069015E+03  0.00000000000E+00 0. -1.
</event>
<event>
 7    1  0.6607887E-006  0.7236274E+02  0.7818608E-02  0.1418514E+00
          2   -1    0    0  502    0  0.00000000000E+00  0.00000000000E+00  0.24376948436E+04  0.24376948436E+04  0.00000000000E+00 0. -1.
          1   -1    0    0  501    0 -0.00000000000E+00 -0.00000000000E+00 -0.29961883743E+02  0.29961883743E+02  0.00000000000E+00 0. -1.
         25    2    1    2    0    0  0.83263196451E+02 -0.52834735177E+02  0.29856482849E+03  0.33835747620E+03  0.12498222182E+03 0.  0.
          2    1    1    2  501    0 -0.62734199997E+02  0.15831541600E+02  0.96479836750E+02  0.11616615883E+03  0.00000000000E+00 0. -1.
          1    1    1    2  502    0 -0.20528996453E+02  0.37003193577E+02  0.20126882946E+04  0.20131330923E+04  0.00000000000E+00 0. -1.
         22    1    3    3    0    0  0.86908472478E+02 -0.27375218947E+02  0.29906060636E+03  0.31263354183E+03  0.00000000000E+00 0. -1.
         22    1    3    3    0    0 -0.36452760273E+01 -0.25459516230E+02 -0.49577787368E+00  0.25723934374E+02  0.00000000000E+00 0. -1.
</event>
<event>
 7    1  0.6607887E-006  0.4626017E+02  0.7818608E-02  0.1586511E+00
          2   -1    0    0  502    0  0.00000000000E+00  0.00000000000E+00  0.18291915314E+03  0.18291915314E+03  0.00000000000E+00 0. -1.
          1   -1    0    0  501    0 -0.00000000000E+00 -0.00000000000E+00 -0.14322985238E+04  0.14322985238E+04  0.00000000000E+00 0. -1.
         25    2    1    2    0    0  0.42266221783E+02  0.27049702235E+02 -0.16991152621E+03  0.21682797281E+03  0.12500529252E+03 0.  0.
          2    1    1    2  501    0 -0.45814036632E+02 -0.64802048806E+01 -0.12378115997E+04  0.12386760979E+04  0.00000000000E+00 0. -1.
          1    1    1    2  502    0  0.35478148489E+01 -0.20569497354E+02  0.15834375524E+03  0.15971360630E+03  0.00000000000E+00 0. -1.
         22    1    3    3    0    0  0.53309799591E+02  0.70502565858E+02 -0.96965926659E+02  0.13120570665E+03  0.00000000000E+00 0. -1.
         22    1    3    3    0    0 -0.11043577808E+02 -0.43452863623E+02 -0.72945599550E+02  0.85622266155E+02  0.00000000000E+00 0. -1.
</event>
<event>
 7    1  0.6607887E-006  0.7303618E+02  0.7818608E-02  0.1426826E+00
          2   -1    0    0  502    0  0.00000000000E+00  0.00000000000E+00  0.57171654483E+03  0.57171654483E+03  0.00000000000E+00 0. -1.
          1   -1    0    0  501    0 -0.00000000000E+00 -0.00000000000E+00 -0.27167117081E+03  0.27167117081E+03  0.00000000000E+00 0. -1.
         25    2    1    2    0    0 -0.27318712108E+02  0.88246626718E+02  0.12556044185E+03  0.19981373714E+03  0.12500530322E+03 0.  0.
          2    1    1    2  501    0 -0.85651707128E+01 -0.72123460108E+02 -0.22793952677E+03  0.23923123440E+03  0.00000000000E+00 0. -1.
          1    1    1    2  502    0  0.35883882821E+02 -0.16123166610E+02  0.40242445895E+03  0.40434274410E+03  0.00000000000E+00 0. -1.
         22    1    3    3    0    0 -0.74259463777E+01  0.11647250199E+03  0.75507743696E+02  0.13900506378E+03  0.00000000000E+00 0.  1.
         22    1    3    3    0    0 -0.19892765730E+02 -0.28225875271E+02  0.50052698150E+02  0.60808673356E+02  0.00000000000E+00 0.  1.
</event>
<event>
 7    1  0.6607887E-006  0.5346661E+02  0.7818608E-02  0.1486476E+00
          2   -1    0    0  502    0  0.00000000000E+00  0.00000000000E+00  0.66274651717E+02  0.66274651717E+02  0.00000000000E+00 0. -1.
          1   -1    0    0  501    0 -0.00000000000E+00 -0.00000000000E+00 -0.21136339888E+04  0.21136339888E+04  0.00000000000E+00 0. -1.
         25    2    1    2    0    0  0.45466336063E+02  0.24909324764E+02 -0.18649334453E+03  0.23041852355E+03  0.12500106506E+03 0.  0.
          2    1    1    2  501    0 -0.24031800320E+02  0.25120761571E+02 -0.18882439294E+04  0.18885639298E+04  0.00000000000E+00 0. -1.
          1    1    1    2  502    0 -0.21434535743E+02 -0.50030086335E+02  0.27377936810E+02  0.60926187187E+02  0.00000000000E+00 0. -1.
         22    1    3    3    0    0 -0.93701293694E+01  0.45189377892E+02 -0.15946134939E+03  0.16600542506E+03  0.00000000000E+00 0. -1.
         22    1    3    3    0    0  0.54836465432E+02 -0.20280053128E+02 -0.27031995134E+02  0.64413098489E+02  0.00000000000E+00 0. -1.
</event>
<event>
 7    1  0.6607887E-006  0.1116336E+03  0.7818608E-02  0.1388721E+00
          2   -1    0    0  502    0  0.00000000000E+00  0.00000000000E+00  0.49912567760E+03  0.49912567760E+03  0.00000000000E+00 0. -1.
          1   -1    0    0  501    0 -0.00000000000E+00 -0.00000000000E+00 -0.20607735949E+03  0.20607735949E+03  0.00000000000E+00 0. -1.
         25    2    1    2    0    0 -0.66986798685E+02  0.66941235985E+02  0.26194730054E+03  0.30529188371E+03  0.12497354012E+03 0.  0.
          2    1    1    2  501    0 -0.32911062333E+02  0.10951572756E+02 -0.16381565311E+03  0.16744743406E+03  0.00000000000E+00 0. -1.
          1    1    1    2  502    0  0.99897861019E+02 -0.77892808741E+02  0.19491667068E+03  0.23246371931E+03  0.00000000000E+00 0. -1.
         22    1    3    3    0    0 -0.54348155662E+02 -0.30257742218E+01  0.21078021635E+03  0.21769514679E+03  0.00000000000E+00 0. -1.
         22    1    3    3    0    0 -0.12638643023E+02  0.69967010207E+02  0.51167084189E+02  0.87596736920E+02  0.00000000000E+00 0. -1.
</event>
<event>
 7    1  0.6607887E-006  0.6105871E+02  0.7818608E-02  0.1406781E+00
          2   -1    0    0  502    0  0.00000000000E+00  0.00000000000E+00  0.18632342786E+04  0.18632342786E+04  0.00000000000E+00 0. -1.
          1   -1    0    0  501    0 -0.00000000000E+00 -0.00000000000E+00 -0.84034802826E+03  0.84034802826E+03  0.00000000000E+00 0. -1.
         25    2    1    2    0    0  0.55155983020E+02  0.63354406498E+02  0.34119811606E+03  0.37295573889E+03  0.12499546185E+03 0.  0.
          2    1    1    2  501    0 -0.54885847042E+02 -0.24306779540E+01 -0.82293681245E+03  0.82476867162E+03  0.00000000000E+00 0. -1.
          1    1    1    2  502    0 -0.27013597797E+00 -0.60923728544E+02  0.15046249468E+04  0.15058578964E+04  0.00000000000E+00 0. -1.
         22    1    3    3    0    0 -0.30068808706E+02  0.46682578659E+02  0.77594972982E+02  0.95416855111E+02  0.00000000000E+00 0. -1.
         22    1    3    3    0    0  0.85224791726E+02  0.16671827839E+02  0.26360314308E+03  0.27753888378E+03  0.00000000000E+00 0. -1.
</event>
<event>
 7    1  0.6607887E-006  0.6048554E+02  0.7818608E-02  0.1545198E+00
          2   -1    0    0  502    0  0.00000000000E+00  0.00000000000E+00  0.27086065758E+03  0.27086065758E+03  0.00000000000E+00 0. -1.
          1   -1    0    0  501    0 -0.00000000000E+00 -0.00000000000E+00 -0.27123440674E+03  0.27123440674E+03  0.00000000000E+00 0. -1.
         25    2    1    2    0    0  0.54228920159E+02  0.54969092077E+02  0.46947182445E+02  0.15424403467E+03  0.12499922970E+03 0.  0.
          2    1    1    2  501    0 -0.48478418635E+02 -0.35081676741E+02 -0.21281451083E+03  0.22106763023E+03  0.00000000000E+00 0. -1.
          1    1    1    2  502    0 -0.57505015241E+01 -0.19887415336E+02  0.16549357923E+03  0.16678339942E+03  0.00000000000E+00 0. -1.
         22    1    3    3    0    0  0.90851330264E+02  0.38692091575E+02  0.91754073492E+01  0.99172729423E+02  0.00000000000E+00 0. -1.
         22    1    3    3    0    0 -0.36622410104E+02  0.16277000502E+02  0.37771775096E+02  0.55071305242E+02  0.00000000000E+00 0. -1.
</event>
<event>
 7    1  0.6992368E-006  0.6955875E+02  0.7818608E-02  0.1477686E+00
          2   -1    0    0  502    0  0.00000000000E+00  0.00000000000E+00  0.87042435066E+03  0.87042435066E+03  0.00000000000E+00 0. -1.
          1   -1    0    0  501    0 -0.00000000000E+00 -0.00000000000E+00 -0.19659408002E+04  0.19659408002E+04  0.00000000000E+00 0. -1.
         25    2    1    2    0    0  0.16872149306E+02  0.48113309544E+02 -0.22064823439E+03  0.25866991786E+03  0.12499969234E+03 0.  0.
          2    1    1    2  501    0  0.27938122325E+02  0.52586239293E+01 -0.17247383709E+04  0.17249726490E+04  0.00000000000E+00 0. -1.
          1    1    1    2  502    0 -0.44810271631E+02 -0.53371933473E+02  0.84987015572E+03  0.85272258403E+03  0.00000000000E+00 0. -1.
         22    1    3    3    0    0 -0.36385678983E+02  0.39647358225E+02 -0.18818077415E+03  0.19572387286E+03  0.00000000000E+00 0. -1.
         22    1    3    3    0    0  0.53257828289E+02  0.84659513194E+01 -0.32467460245E+02  0.62946044995E+02  0.00000000000E+00 0. -1.
</event>
<event>
 7    1  0.6607887E-006  0.8076454E+02  0.7818608E-02  0.1409722E+00
          2   -1    0    0  502    0  0.00000000000E+00  0.00000000000E+00  0.28391008284E+03  0.28391008284E+03  0.00000000000E+00 0. -1.
          1   -1    0    0  501    0 -0.00000000000E+00 -0.00000000000E+00 -0.11126479140E+04  0.11126479140E+04  0.00000000000E+00 0. -1.
         25    2    1    2    0    0 -0.27446299350E+01 -0.60381174451E+02 -0.66363205493E+02  0.15389114067E+03  0.12499995565E+03 0.  0.
          2    1    1    2  501    0 -0.39155135576E+02 -0.10696779443E+02 -0.99500772375E+03  0.99583528561E+03  0.00000000000E+00 0. -1.
          1    1    1    2  502    0  0.41899765511E+02  0.71077953895E+02  0.23263309811E+03  0.24683157054E+03  0.00000000000E+00 0. -1.
         22    1    3    3    0    0  0.10755606522E+02 -0.86649394143E+02 -0.70094760315E+01  0.87595281444E+02  0.00000000000E+00 0.  1.
         22    1    3    3    0    0 -0.13500236457E+02  0.26268219692E+02 -0.59353729461E+02  0.66295859231E+02  0.00000000000E+00 0.  1.
</event>
<event>
 7    1  0.6607887E-006  0.1382587E+03  0.7818608E-02  0.1363523E+00
          2   -1    0    0  502    0  0.00000000000E+00  0.00000000000E+00  0.14324519109E+04  0.14324519109E+04  0.00000000000E+00 0. -1.
          1   -1    0    0  501    0 -0.00000000000E+00 -0.00000000000E+00 -0.69152235929E+03  0.69152235929E+03  0.00000000000E+00 0. -1.
         25    2    1    2    0    0 -0.10144869199E+03  0.13309540124E+03 -0.34358232058E+02  0.21168815436E+03  0.12500065459E+03 0.  0.
          2    1    1    2  501    0  0.91542152699E+02 -0.10011450596E+03 -0.56018129821E+03  0.57637311430E+03  0.00000000000E+00 0. -1.
          1    1    1    2  502    0  0.99065392866E+01 -0.32980895278E+02  0.13354690819E+04  0.13359130015E+04  0.00000000000E+00 0. -1.
         22    1    3    3    0    0 -0.11039468047E+03  0.14019791577E+03 -0.56161744948E+02  0.18707373588E+03  0.00000000000E+00 0.  1.
         22    1    3    3    0    0  0.89459884878E+01 -0.71025145236E+01  0.21803512890E+02  0.24614418476E+02  0.00000000000E+00 0.  1.
</event>
<event>
 7    1  0.6607887E-006  0.8111632E+02  0.7818608E-02  0.1392449E+00
          2   -1    0    0  502    0  0.00000000000E+00  0.00000000000E+00  0.20096684648E+03  0.20096684648E+03  0.00000000000E+00 0. -1.
          1   -1    0    0  501    0 -0.00000000000E+00 -0.00000000000E+00 -0.19645975470E+04  0.19645975470E+04  0.00000000000E+00 0. -1.
         25    2    1    2    0    0 -0.10941135117E+03 -0.50907121593E+01 -0.12116057502E+03  0.20567231854E+03  0.12499783421E+03 0.  0.
          2    1    1    2  501    0  0.34056070226E+02  0.31407078742E+02 -0.17908270699E+04  0.17914261958E+04  0.00000000000E+00 0. -1.
          1    1    1    2  502    0  0.75355280944E+02 -0.26316366583E+02  0.14835694438E+03  0.16846587922E+03  0.00000000000E+00 0. -1.
         22    1    3    3    0    0  0.14508489322E+02  0.79538762137E+01 -0.68374687714E+02  0.70348122429E+02  0.00000000000E+00 0.  1.
         22    1    3    3    0    0 -0.12391984049E+03 -0.13044588373E+02 -0.52785887307E+02  0.13532419611E+03  0.00000000000E+00 0.  1.
</event>
<event>
 7    1  0.6607887E-006  0.9274044E+02  0.7818608E-02  0.1317563E+00
          2   -1    0    0  502    0  0.00000000000E+00  0.00000000000E+00  0.45062625372E+03  0.45062625372E+03  0.00000000000E+00 0. -1.
          1   -1    0    0  501    0 -0.00000000000E+00 -0.00000000000E+00 -0.12718817353E+04  0.12718817353E+04  0.00000000000E+00 0. -1.
         25    2    1    2    0    0 -0.15597374479E+03  0.39835748170E+02 -0.19350525827E+03  0.28104048535E+03  0.12499909413E+03 0.  0.
          2    1    1    2  501    0  0.64605400124E+02 -0.40835686519E+02 -0.10280420853E+04  0.10308792074E+04  0.00000000000E+00 0. -1.
          1    1    1    2  502    0  0.91368344671E+02  0.99993834961E+00  0.40029186200E+03  0.41058829631E+03  0.00000000000E+00 0. -1.
         22    1    3    3    0    0 -0.11825276513E+03  0.70060671660E+02 -0.18727836018E+03  0.23230453798E+03  0.00000000000E+00 0. -1.
         22    1    3    3    0    0 -0.37720979667E+02 -0.30224923491E+02 -0.62268980951E+01  0.48735947379E+02  0.00000000000E+00 0. -1.
</event>
<event>
 7    1  0.6607887E-006  0.7085457E+02  0.7818608E-02  0.1418523E+00
          2   -1    0    0  502    0  0.00000000000E+00  0.00000000000E+00  0.68238267749E+03  0.68238267749E+03  0.00000000000E+00 0. -1.
          1   -1    0    0  501    0 -0.00000000000E+00 -0.00000000000E+00 -0.18966632525E+03  0.18966632525E+03  0.00000000000E+00 0. -1.
         25    2    1    2    0    0 -0.22829486084E+02 -0.17999972105E+02 -0.81545309921E+02  0.15204978665E+03  0.12499726245E+03 0.  0.
          2    1    1    2  501    0 -0.40103730229E+02 -0.16098308237E+02 -0.64281473331E+02  0.77456907503E+02  0.00000000000E+00 0. -1.
          1    1    1    2  502    0  0.62933216313E+02  0.34098280342E+02  0.63854313549E+03  0.64254230859E+03  0.00000000000E+00 0. -1.
         22    1    3    3    0    0 -0.52177327619E+02 -0.48672101217E+02 -0.14682460883E+02  0.72849307559E+02  0.00000000000E+00 0.  1.
         22    1    3    3    0    0  0.29347841535E+02  0.30672129111E+02 -0.66862849038E+02  0.79200479092E+02  0.00000000000E+00 0.  1.
</event>
<event>
 7    1  0.6607887E-006  0.8771676E+02  0.7818608E-02  0.1485643E+00
          2   -1    0    0  502    0  0.00000000000E+00  0.00000000000E+00  0.18077902548E+04  0.18077902548E+04  0.00000000000E+00 0. -1.
          1   -1    0    0  501    0 -0.00000000000E+00 -0.00000000000E+00 -0.40407167340E+03  0.40407167340E+03  0.00000000000E+00 0. -1.
         25    2    1    2    0    0 -0.67186945920E+02 -0.37048302133E+01  0.10769415502E+03  0.17818753109E+03  0.12499981497E+03 0.  0.
          2    1    1    2  501    0 -0.21199049033E+02  0.22143967032E+01 -0.36734241971E+03  0.36796026491E+03  0.00000000000E+00 0. -1.
          1    1    1    2  502    0  0.88385994952E+02  0.14904335102E+01  0.16633668460E+04  0.16657141321E+04  0.00000000000E+00 0. -1.
         22    1    3    3    0    0 -0.77418380443E+02  0.38769420796E+02  0.35031137707E+02  0.93401575084E+02  0.00000000000E+00 0. -1.
         22    1    3    3    0    0  0.10231434523E+02 -0.42474251009E+02  0.72663017314E+02  0.84785956009E+02  0.00000000000E+00 0. -1.
</event>
<event>
 7    1  0.6607887E-006  0.1269582E+03  0.7818608E-02  0.1265406E+00
          2   -1    0    0  502    0  0.00000000000E+00  0.00000000000E+00  0.42002705325E+03  0.42002705325E+03  0.00000000000E+00 0. -1.
          1   -1    0    0  501    0 -0.00000000000E+00 -0.00000000000E+00 -0.74122898663E+03  0.74122898663E+03  0.00000000000E+00 0. -1.
         25    2    1    2    0    0  0.35840351927E+02 -0.99156704986E+02 -0.20311562260E+03  0.26075887346E+03  0.12499060355E+03 0.  0.
          2    1    1    2  501    0 -0.12220989270E+03  0.70803622707E+02 -0.49397628759E+03  0.51377133393E+03  0.00000000000E+00 0. -1.
          1    1    1    2  502    0  0.86369540769E+02  0.28353082280E+02  0.37588997682E+03  0.38672583249E+03  0.00000000000E+00 0. -1.
         22    1    3    3    0    0 -0.45592909127E+02 -0.43073122716E+02 -0.98805879340E+02  0.11703251281E+03  0.00000000000E+00 0. -1.
         22    1    3    3    0    0  0.81433261054E+02 -0.56083582270E+02 -0.10430974326E+03  0.14372636065E+03  0.00000000000E+00 0. -1.
</event>
<event>
 7    1  0.6607887E-006  0.9331774E+02  0.7818608E-02  0.1388108E+00
          2   -1    0    0  502    0  0.00000000000E+00  0.00000000000E+00  0.10948697064E+04  0.10948697064E+04  0.00000000000E+00 0. -1.
          1   -1    0    0  501    0 -0.00000000000E+00 -0.00000000000E+00 -0.16261536037E+03  0.16261536037E+03  0.00000000000E+00 0. -1.
         25    2    1    2    0    0  0.59784187051E+02 -0.11429405277E+03  0.66431532712E+02  0.19151169016E+03  0.12500519753E+03 0.  0.
          2    1    1    2  501    0 -0.32200603988E+01  0.41574321864E+02 -0.93426636372E+02  0.10230996731E+03  0.00000000000E+00 0. -1.
          1    1    1    2  502    0 -0.56564126652E+02  0.72719730909E+02  0.95924944972E+03  0.96366340933E+03  0.00000000000E+00 0. -1.
         22    1    3    3    0    0  0.23627665342E+02 -0.75487140059E+02 -0.27413997181E+02  0.83714408110E+02  0.00000000000E+00 0.  1.
         22    1    3    3    0    0  0.36156521708E+02 -0.38806912713E+02  0.93845529894E+02  0.10779728205E+03  0.00000000000E+00 0.  1.
</event>
<event>
 7    1  0.6607887E-006  0.1095813E+03  0.7818608E-02  0.1348784E+00
          2   -1    0    0  502    0  0.00000000000E+00  0.00000000000E+00  0.23187405544E+03  0.23187405544E+03  0.00000000000E+00 0. -1.
          1   -1    0    0  501    0 -0.00000000000E+00 -0.00000000000E+00 -0.18649422640E+04  0.18649422640E+04  0.00000000000E+00 0. -1.
         25    2    1    2    0    0 -0.36373523738E+02 -0.94723134093E+02 -0.93529385964E+02  0.18619032442E+03  0.12499434190E+03 0.  0.
          2    1    1    2  501    0 -0.45499518575E+02  0.18753768110E+02 -0.17078876953E+04  0.17085965848E+04  0.00000000000E+00 0. -1.
          1    1    1    2  502    0  0.81873042314E+02  0.75969365983E+02  0.16834887271E+03  0.20202941016E+03  0.00000000000E+00 0. -1.
         22    1    3    3    0    0  0.29158325827E+02 -0.22334688347E+02 -0.79458556263E+02  0.87536897546E+02  0.00000000000E+00 0. -1.
         22    1    3    3    0    0 -0.65531849566E+02 -0.72388445746E+02 -0.14070829701E+02  0.98653426872E+02  0.00000000000E+00 0. -1.
</event>
<event>
 7    1  0.6607887E-006  0.3979392E+03  0.7818608E-02  0.1214989E+00
          2   -1    0    0  502    0  0.00000000000E+00  0.00000000000E+00  0.25338512604E+04  0.25338512604E+04  0.00000000000E+00 0. -1.
          1   -1    0    0  501    0 -0.00000000000E+00 -0.00000000000E+00 -0.89581027417E+03  0.89581027417E+03  0.00000000000E+00 0. -1.
         25    2    1    2    0    0 -0.31399947135E+02  0.35735837862E+03  0.40080733981E+03  0.55223422263E+03  0.12500058220E+03 0.  0.
          2    1    1    2  501    0  0.12380400716E+02 -0.40185882321E+03 -0.77051190054E+03  0.86909860027E+03  0.00000000000E+00 0. -1.
          1    1    1    2  502    0  0.19019546419E+02  0.44500444586E+02  0.20077455469E+04  0.20083287116E+04  0.00000000000E+00 0. -1.
         22    1    3    3    0    0  0.43058640428E+02  0.12024211404E+03  0.17342492071E+03  0.21537970106E+03  0.00000000000E+00 0. -1.
         22    1    3    3    0    0 -0.74458587563E+02  0.23711626458E+03  0.22738241910E+03  0.33685452157E+03  0.00000000000E+00 0. -1.
</event>
<event>
 7    1  0.6607887E-006  0.9244970E+02  0.7818608E-02  0.1392297E+00
          2   -1    0    0  502    0  0.00000000000E+00  0.00000000000E+00  0.42379478651E+03  0.42379478651E+03  0.00000000000E+00 0. -1.
          1   -1    0    0  501    0 -0.00000000000E+00 -0.00000000000E+00 -0.31922809863E+03  0.31922809863E+03  0.00000000000E+00 0. -1.
         25    2    1    2    0    0  0.29610281112E+02  0.10773575854E+03  0.53699829012E+02  0.17604827392E+03  0.12500224278E+03 0.  0.
          2    1    1    2  501    0  0.23048905329E+02 -0.33541418936E+02 -0.24967141097E+03  0.25296658332E+03  0.00000000000E+00 0. -1.
          1    1    1    2  502    0 -0.52659186441E+02 -0.74194339604E+02  0.30053826983E+03  0.31400802789E+03  0.00000000000E+00 0. -1.
         22    1    3    3    0    0  0.17979612358E+02  0.37641828084E+02 -0.40443243005E+02  0.58101889701E+02  0.00000000000E+00 0. -1.
         22    1    3    3    0    0  0.11630668754E+02  0.70093930455E+02  0.94143072016E+02  0.11794638422E+03  0.00000000000E+00 0. -1.
</event>
<event>
 7    1  0.6607887E-006  0.3079920E+03  0.7818608E-02  0.1148056E+00
          2   -1    0    0  502    0  0.00000000000E+00  0.00000000000E+00  0.15706009561E+04  0.15706009561E+04  0.00000000000E+00 0. -1.
          1   -1    0    0  501    0 -0.00000000000E+00 -0.00000000000E+00 -0.43141008856E+03  0.43141008856E+03  0.00000000000E+00 0. -1.
         25    2    1    2    0    0 -0.29296437126E+03 -0.18477010877E+03  0.96608486882E+02  0.38069204154E+03  0.12500045933E+03 0.  0.
          2    1    1    2  501    0  0.29689009453E+03  0.52333615617E+02 -0.20638377244E+03  0.36534476469E+03  0.00000000000E+00 0. -1.
          1    1    1    2  502    0 -0.39257232707E+01  0.13243649315E+03  0.12489661531E+04  0.12559742384E+04  0.00000000000E+00 0. -1.
         22    1    3    3    0    0 -0.15552684425E+03 -0.47016434433E+02 -0.21141444566E+01  0.16249188901E+03  0.00000000000E+00 0. -1.
         22    1    3    3    0    0 -0.13743752702E+03 -0.13775367434E+03  0.98722631338E+02  0.21820015253E+03  0.00000000000E+00 0. -1.
</event>
<event>
 7    1  0.6607887E-006  0.3755107E+03  0.7818608E-02  0.1103454E+00
          2   -1    0    0  502    0  0.00000000000E+00  0.00000000000E+00  0.10000226680E+04  0.10000226680E+04  0.00000000000E+00 0. -1.
          1   -1    0    0  501    0 -0.00000000000E+00 -0.00000000000E+00 -0.67635653428E+03  0.67635653428E+03  0.00000000000E+00 0. -1.
         25    2    1    2    0    0  0.46570683351E+03  0.25318413669E+03  0.12687477867E+03  0.55920315975E+03  0.12500361022E+03 0.  0.
          2    1    1    2  501    0 -0.28687939543E+03 -0.19276504064E+03 -0.37799466063E+03  0.51218952730E+03  0.00000000000E+00 0. -1.
          1    1    1    2  502    0 -0.17882743808E+03 -0.60419096048E+02  0.57478601572E+03  0.60498651526E+03  0.00000000000E+00 0. -1.
         22    1    3    3    0    0  0.47256338390E+03  0.25345132249E+03  0.12002701541E+03  0.54950906189E+03  0.00000000000E+00 0. -1.
         22    1    3    3    0    0 -0.68565503939E+01 -0.26718580278E+00  0.68477632646E+01  0.96940978582E+01  0.00000000000E+00 0. -1.
</event>
<event>
 7    1  0.6607887E-006  0.2310931E+03  0.7818608E-02  0.1325314E+00
          2   -1    0    0  502    0  0.00000000000E+00  0.00000000000E+00  0.89410511695E+03  0.89410511695E+03  0.00000000000E+00 0. -1.
          1   -1    0    0  501    0 -0.00000000000E+00 -0.00000000000E+00 -0.13120420614E+04  0.13120420614E+04  0.00000000000E+00 0. -1.
         25    2    1    2    0    0 -0.23400483552E+03  0.85649458883E+02  0.21865113633E+03  0.35430125128E+03  0.12500785729E+03 0.  0.
          2    1    1    2  501    0  0.22267897569E+03 -0.59361177056E+02 -0.12331996183E+04  0.12545481155E+04  0.00000000000E+00 0. -1.
          1    1    1    2  502    0  0.11325859830E+02 -0.26288281827E+02  0.59661153758E+03  0.59729781151E+03  0.00000000000E+00 0. -1.
         22    1    3    3    0    0 -0.24822444109E+03  0.71271054971E+02  0.20690811992E+03  0.33091676676E+03  0.00000000000E+00 0. -1.
         22    1    3    3    0    0  0.14219605574E+02  0.14378403912E+02  0.11743016409E+02  0.23384484517E+02  0.00000000000E+00 0. -1.
</event>
<event>
 7    1  0.6607887E-006  0.5781948E+02  0.7818608E-02  0.1413255E+00
          2   -1    0    0  502    0  0.00000000000E+00  0.00000000000E+00  0.66868538850E+03  0.66868538850E+03  0.00000000000E+00 0. -1.
          1   -1    0    0  501    0 -0.00000000000E+00 -0.00000000000E+00 -0.29118578775E+02  0.29118578775E+02  0.00000000000E+00 0. -1.
         25    2    1    2    0    0  0.18317041051E+02  0.60713585658E+02  0.39039565749E+03  0.41479493036E+03  0.12499764552E+03 0.  0.
          2    1    1    2  501    0  0.40127974400E+02 -0.37845835526E+02  0.50949398566E+02  0.75089298907E+02  0.00000000000E+00 0. -1.
          1    1    1    2  502    0 -0.58445015451E+02 -0.22867750133E+02  0.19822175367E+03  0.20791973801E+03  0.00000000000E+00 0. -1.
         22    1    3    3    0    0 -0.34735800286E+01  0.84504226788E+02  0.14963789182E+03  0.17188521976E+03  0.00000000000E+00 0.  1.
         22    1    3    3    0    0  0.21790621080E+02 -0.23790641130E+02  0.24075776567E+03  0.24290971060E+03  0.00000000000E+00 0.  1.
</event>
<event>
 7    1  0.6607887E-006  0.1283871E+03  0.7818608E-02  0.1252923E+00
          2   -1    0    0  502    0  0.00000000000E+00  0.00000000000E+00  0.16557620660E+04  0.16557620660E+04  0.00000000000E+00 0. -1.
          1   -1    0    0  501    0 -0.00000000000E+00 -0.00000000000E+00 -0.24471510170E+03  0.24471510170E+03  0.00000000000E+00 0. -1.
         25    2    1    2    0    0  0.38228765848E+01 -0.54015506087E+02  0.25806255207E+01  0.13625074284E+03  0.12500126405E+03 0.  0.
          2    1    1    2  501    0 -0.91003646073E+02 -0.45272004131E+02 -0.16035263741E+03  0.18985306498E+03  0.00000000000E+00 0. -1.
          1    1    1    2  502    0  0.87180769488E+02  0.99287510218E+02  0.15688189762E+04  0.15743733599E+04  0.00000000000E+00 0. -1.
         22    1    3    3    0    0 -0.51238936228E+02 -0.11543487499E+02 -0.28865121837E+02  0.59932261330E+02  0.00000000000E+00 0.  1.
         22    1    3    3    0    0  0.55061812813E+02 -0.42472018588E+02  0.31445747358E+02  0.76318481510E+02  0.00000000000E+00 0.  1.
</event>
<event>
 7    1  0.6607887E-006  0.5333910E+02  0.7818608E-02  0.1430955E+00
          2   -1    0    0  502    0  0.00000000000E+00  0.00000000000E+00  0.26885107094E+03  0.26885107094E+03  0.00000000000E+00 0. -1.
          1   -1    0    0  501    0 -0.00000000000E+00 -0.00000000000E+00 -0.79029351329E+03  0.79029351329E+03  0.00000000000E+00 0. -1.
         25    2    1    2    0    0  0.15952291202E+02  0.19844716510E+02 -0.68618251783E+02  0.14484170595E+03  0.12498946731E+03 0.  0.
          2    1    1    2  501    0  0.32743847752E+02 -0.42105825646E+02 -0.67939792296E+03  0.68148851630E+03  0.00000000000E+00 0. -1.
          1    1    1    2  502    0 -0.48696138954E+02  0.22261109136E+02  0.22657373240E+03  0.23281436197E+03  0.00000000000E+00 0. -1.
         22    1    3    3    0    0 -0.26119430321E+02  0.22257152889E+02  0.24812553567E+02  0.42346998825E+02  0.00000000000E+00 0.  1.
         22    1    3    3    0    0  0.42071721523E+02 -0.24124363783E+01 -0.93430805350E+02  0.10249470713E+03  0.00000000000E+00 0.  1.
</event>
<event>
 7    1  0.6607887E-006  0.6739295E+02  0.7818608E-02  0.1442268E+00
          2   -1    0    0  502    0  0.00000000000E+00  0.00000000000E+00  0.76753963714E+03  0.76753963714E+03  0.00000000000E+00 0. -1.
          1   -1    0    0  501    0 -0.00000000000E+00 -0.00000000000E+00 -0.29020005463E+03  0.29020005463E+03  0.00000000000E+00 0. -1.
         25    2    1    2    0    0 -0.44538213690E+02 -0.42508817749E+02  0.43061652017E+03  0.45260248551E+03  0.12501108102E+03 0.  0.
          2    1    1    2  501    0 -0.26021316508E+02  0.27628149862E+02 -0.27389383357E+03  0.27651085990E+03  0.00000000000E+00 0. -1.
          1    1    1    2  502    0  0.70559530198E+02  0.14880667888E+02  0.32061689591E+03  0.32862634636E+03  0.00000000000E+00 0. -1.
         22    1    3    3    0    0  0.19108377651E+02 -0.63272886598E+02  0.28135906681E+03  0.28901818758E+03  0.00000000000E+00 0. -1.
         22    1    3    3    0    0 -0.63646591341E+02  0.20764068849E+02  0.14925745336E+03  0.16358429792E+03  0.00000000000E+00 0. -1.
</event>
<event>
 7    1  0.6607887E-006  0.1154356E+03  0.7818608E-02  0.1352197E+00
          2   -1    0    0  502    0  0.00000000000E+00  0.00000000000E+00  0.58123936769E+03  0.58123936769E+03  0.00000000000E+00 0. -1.
          1   -1    0    0  501    0 -0.00000000000E+00 -0.00000000000E+00 -0.33650926733E+03  0.33650926733E+03  0.00000000000E+00 0. -1.
         25    2    1    2    0    0  0.87247877912E+02 -0.38501015186E+02  0.37402123910E+03  0.40572478575E+03  0.12500477632E+03 0.  0.
          2    1    1    2  501    0 -0.11611618079E+03  0.34905986824E+01 -0.30719374216E+03  0.32842525321E+03  0.00000000000E+00 0. -1.
          1    1    1    2  502    0  0.28868302876E+02  0.35010416503E+02  0.17790260342E+03  0.18359859607E+03  0.00000000000E+00 0. -1.
         22    1    3    3    0    0  0.98994690271E+02 -0.34501712493E+02  0.37833222792E+03  0.39258832325E+03  0.00000000000E+00 0.  1.
         22    1    3    3    0    0 -0.11746812359E+02 -0.39993026928E+01 -0.43109888145E+01  0.13136462506E+02  0.00000000000E+00 0.  1.
</event>
<event>
 7    1  0.6607887E-006  0.1233753E+03  0.7818608E-02  0.1280650E+00
          2   -1    0    0  502    0  0.00000000000E+00  0.00000000000E+00  0.10838038767E+04  0.10838038767E+04  0.00000000000E+00 0. -1.
          1   -1    0    0  501    0 -0.00000000000E+00 -0.00000000000E+00 -0.17926062856E+03  0.17926062856E+03  0.00000000000E+00 0. -1.
         25    2    1    2    0    0  0.94488761288E+02 -0.13807278977E+03  0.43108532025E+03  0.47901081685E+03  0.12499835215E+03 0.  0.
          2    1    1    2  501    0  0.65370576841E+01  0.80515889530E+02 -0.13893945146E+03  0.16071624922E+03  0.00000000000E+00 0. -1.
          1    1    1    2  502    0 -0.10102581897E+03  0.57556900243E+02  0.61239737933E+03  0.62333743918E+03  0.00000000000E+00 0. -1.
         22    1    3    3    0    0  0.37041083129E+02  0.59070594834E+01  0.27013823596E+02  0.46224256148E+02  0.00000000000E+00 0. -1.
         22    1    3    3    0    0  0.57447678159E+02 -0.14397984926E+03  0.40407149665E+03  0.43278656070E+03  0.00000000000E+00 0. -1.
</event>
<event>
 7    1  0.6607887E-006  0.2674392E+03  0.7818608E-02  0.1194788E+00
          2   -1    0    0  502    0  0.00000000000E+00  0.00000000000E+00  0.36519279491E+03  0.36519279491E+03  0.00000000000E+00 0. -1.
          1   -1    0    0  501    0 -0.00000000000E+00 -0.00000000000E+00 -0.11135836336E+04  0.11135836336E+04  0.00000000000E+00 0. -1.
         25    2    1    2    0    0  0.15371858552E+03  0.26649232378E+03 -0.52998526216E+03  0.62542546935E+03  0.12500030974E+03 0.  0.
          2    1    1    2  501    0  0.35901192950E+02 -0.81996350001E+02 -0.47585283449E+03  0.48419853073E+03  0.00000000000E+00 0. -1.
          1    1    1    2  502    0 -0.18961977847E+03 -0.18449597378E+03  0.25744725801E+03  0.36915242839E+03  0.00000000000E+00 0. -1.
         22    1    3    3    0    0  0.91123559738E+02  0.23947862272E+03 -0.35652425173E+03  0.43904789711E+03  0.00000000000E+00 0. -1.
         22    1    3    3    0    0  0.62595025779E+02  0.27013701064E+02 -0.17346101043E+03  0.18637757225E+03  0.00000000000E+00 0. -1.
</event>
<event>
 7    1  0.6607887E-006  0.4787531E+02  0.7818608E-02  0.1520690E+00
          2   -1    0    0  502    0  0.00000000000E+00  0.00000000000E+00  0.33121947978E+03  0.33121947978E+03  0.00000000000E+00 0. -1.
          1   -1    0    0  501    0 -0.00000000000E+00 -0.00000000000E+00 -0.17693060300E+03  0.17693060300E+03  0.00000000000E+00 0. -1.
         25    2    1    2    0    0  0.19571580200E+02 -0.88295026793E+01  0.51255489615E+02  0.13679914621E+03  0.12500349722E+03 0.  0.
          2    1    1    2  501    0 -0.49230407225E+02  0.80464243207E+00 -0.12859230494E+03  0.13769626478E+03  0.00000000000E+00 0. -1.
          1    1    1    2  502    0  0.29658827025E+02  0.80248602473E+01  0.23162569211E+03  0.23365467178E+03  0.00000000000E+00 0. -1.
         22    1    3    3    0    0  0.13684152486E+02 -0.38017570647E+02  0.83589930813E+02  0.92843245529E+02  0.00000000000E+00 0. -1.
         22    1    3    3    0    0  0.58874277142E+01  0.29188067968E+02 -0.32334441197E+02  0.43955900677E+02  0.00000000000E+00 0. -1.
</event>
<event>
 7    1  0.6607887E-006  0.3270940E+03  0.7818608E-02  0.1124775E+00
          2   -1    0    0  502    0  0.00000000000E+00  0.00000000000E+00  0.28877224113E+04  0.28877224113E+04  0.00000000000E+00 0. -1.
          1   -1    0    0  501    0 -0.00000000000E+00 -0.00000000000E+00 -0.96181791565E+02  0.96181791565E+02  0.00000000000E+00 0. -1.
         25    2    1    2    0    0 -0.23074564243E+03 -0.79006712276E+02  0.71907365581E+03  0.76953102051E+03  0.12500182788E+03 0.  0.
          2    1    1    2  501    0  0.39303343897E+03  0.46543538191E+02  0.52189239757E+03  0.65499103791E+03  0.00000000000E+00 0. -1.
          1    1    1    2  502    0 -0.16228779655E+03  0.32463174085E+02  0.15505745664E+04  0.15593821444E+04  0.00000000000E+00 0. -1.
         22    1    3    3    0    0 -0.10503902366E+03 -0.24499581568E+02  0.49717123654E+03  0.50873634078E+03  0.00000000000E+00 0. -1.
         22    1    3    3    0    0 -0.12570661877E+03 -0.54507130708E+02  0.22190241926E+03  0.26079467973E+03  0.00000000000E+00 0. -1.
</event>
<event>
 7    1  0.6607887E-006  0.6165436E+02  0.7818608E-02  0.1458804E+00
          2   -1    0    0  502    0  0.00000000000E+00  0.00000000000E+00  0.15129677199E+03  0.15129677199E+03  0.00000000000E+00 0. -1.
          1   -1    0    0  501    0 -0.00000000000E+00 -0.00000000000E+00 -0.33338528318E+04  0.33338528318E+04  0.00000000000E+00 0. -1.
         25    2    1    2    0    0  0.22790491548E+02  0.62681508904E+02 -0.22230176690E+04  0.22275280466E+04  0.12500105396E+03 0.  0.
          2    1    1    2  501    0  0.26422223906E+02 -0.25514662582E+02 -0.11018812981E+04  0.11024933228E+04  0.00000000000E+00 0. -1.
          1    1    1    2  502    0 -0.49212715455E+02 -0.37166846322E+02  0.14234290729E+03  0.15512823432E+03  0.00000000000E+00 0. -1.
         22    1    3    3    0    0 -0.48865809885E+02  0.12189573997E+02 -0.10691085562E+04  0.10702941455E+04  0.00000000000E+00 0.  1.
         22    1    3    3    0    0  0.71656301433E+02  0.50491934906E+02 -0.11539091129E+04  0.11572339011E+04  0.00000000000E+00 0.  1.
</event>
<event>
 7    1  0.6607887E-006  0.1017618E+03  0.7818608E-02  0.1349008E+00
          2   -1    0    0  502    0  0.00000000000E+00  0.00000000000E+00  0.53322325564E+02  0.53322325564E+02  0.00000000000E+00 0. -1.
          1   -1    0    0  501    0 -0.00000000000E+00 -0.00000000000E+00 -0.15568108111E+04  0.15568108111E+04  0.00000000000E+00 0. -1.
         25    2    1    2    0    0 -0.33872056872E+02 -0.98598377071E+02 -0.56497031678E+03  0.58795347278E+03  0.12501548350E+03 0.  0.
          2    1    1    2  501    0  0.77649687024E+02  0.68912843264E+02 -0.95962927920E+03  0.96522888859E+03  0.00000000000E+00 0. -1.
          1    1    1    2  502    0 -0.43777630153E+02  0.29685533807E+02  0.21111110466E+02  0.56950775274E+02  0.00000000000E+00 0. -1.
         22    1    3    3    0    0 -0.34569307545E+02  0.14361881964E+02 -0.61753445966E+02  0.72213494351E+02  0.00000000000E+00 0. -1.
         22    1    3    3    0    0  0.69725067343E+00 -0.11296025904E+03 -0.50321687081E+03  0.51573997843E+03  0.00000000000E+00 0. -1.
</event>
<event>
 7    1  0.6607887E-006  0.6161962E+02  0.7818608E-02  0.1405372E+00
          2   -1    0    0  502    0  0.00000000000E+00  0.00000000000E+00  0.22851443579E+04  0.22851443579E+04  0.00000000000E+00 0. -1.
          1   -1    0    0  501    0 -0.00000000000E+00 -0.00000000000E+00 -0.29014749616E+02  0.29014749616E+02  0.00000000000E+00 0. -1.
         25    2    1    2    0    0  0.76063412009E+02 -0.83500770512E+02  0.12548087023E+04  0.12660682490E+04  0.12500364104E+03 0.  0.
          2    1    1    2  501    0 -0.47921353480E+02  0.36193757620E+02  0.17250530614E+02  0.62482197596E+02  0.00000000000E+00 0. -1.
          1    1    1    2  502    0 -0.28142058529E+02  0.47307012892E+02  0.98407037529E+03  0.98560866090E+03  0.00000000000E+00 0. -1.
         22    1    3    3    0    0  0.59277297218E+02 -0.39841402090E+02  0.11380453298E+04  0.11402843101E+04  0.00000000000E+00 0. -1.
         22    1    3    3    0    0  0.16786114791E+02 -0.43659368422E+02  0.11676337255E+03  0.12578393884E+03  0.00000000000E+00 0. -1.
</event>
<event>
 7    1  0.6607887E-006  0.3743284E+02  0.7818608E-02  0.1534502E+00
          2   -1    0    0  502    0  0.00000000000E+00  0.00000000000E+00  0.18306637571E+03  0.18306637571E+03  0.00000000000E+00 0. -1.
          1   -1    0    0  501    0 -0.00000000000E+00 -0.00000000000E+00 -0.57630499190E+03  0.57630499190E+03  0.00000000000E+00 0. -1.
         25    2    1    2    0    0  0.57468923426E+02 -0.43079956703E+02 -0.53950869689E+02  0.15392486270E+03  0.12499442863E+03 0.  0.
          2    1    1    2  501    0 -0.31339470415E+02  0.17437159129E+02 -0.46915185286E+03  0.47052064563E+03  0.00000000000E+00 0. -1.
          1    1    1    2  502    0 -0.26129453011E+02  0.25642797574E+02  0.12986410636E+03  0.13492585928E+03  0.00000000000E+00 0. -1.
         22    1    3    3    0    0  0.21499559538E+01 -0.78320983907E+02 -0.33585274544E+02  0.85245348829E+02  0.00000000000E+00 0. -1.
         22    1    3    3    0    0  0.55318967472E+02  0.35241027204E+02 -0.20365595146E+02  0.68679513876E+02  0.00000000000E+00 0. -1.
</event>
<event>
 7    1  0.6607887E-006  0.1326244E+03  0.7818608E-02  0.1328191E+00
          2   -1    0    0  502    0  0.00000000000E+00  0.00000000000E+00  0.47531951229E+04  0.47531951229E+04  0.00000000000E+00 0. -1.
          1   -1    0    0  501    0 -0.00000000000E+00 -0.00000000000E+00 -0.82278954465E+03  0.82278954465E+03  0.00000000000E+00 0. -1.
         25    2    1    2    0    0  0.35453951790E+02 -0.10566830206E+03  0.18062386704E+03  0.24631770655E+03  0.12499863383E+03 0.  0.
          2    1    1    2  501    0 -0.39950302425E+02 -0.27717957670E+02 -0.78821237555E+03  0.78971074503E+03  0.00000000000E+00 0. -1.
          1    1    1    2  502    0  0.44963506355E+01  0.13338625973E+03  0.45379940867E+04  0.45399562159E+04  0.00000000000E+00 0. -1.
         22    1    3    3    0    0  0.44071849541E+02  0.67960005910E+01  0.94196611379E+02  0.10421859307E+03  0.00000000000E+00 0.  1.
         22    1    3    3    0    0 -0.86178977517E+01 -0.11246430265E+03  0.86427255661E+02  0.14209911348E+03  0.00000000000E+00 0.  1.
</event>
<event>
 7    1  0.6607887E-006  0.6699509E+02  0.7818608E-02  0.1379208E+00
          2   -1    0    0  502    0  0.00000000000E+00  0.00000000000E+00  0.16229870255E+03  0.16229870255E+03  0.00000000000E+00 0. -1.
          1   -1    0    0  501    0 -0.00000000000E+00 -0.00000000000E+00 -0.28910101684E+04  0.28910101684E+04  0.00000000000E+00 0. -1.
         25    2    1    2    0    0 -0.58986990282E+02 -0.52460148328E+02  0.77260421467E+02  0.16680817608E+03  0.12499705075E+03 0.  0.
          2    1    1    2  501    0 -0.17206553676E+01  0.67025152924E+02 -0.28213964906E+04  0.28221930283E+04  0.00000000000E+00 0. -1.
          1    1    1    2  502    0  0.60707645650E+02 -0.14565004596E+02  0.15424603245E+02  0.64307666607E+02  0.00000000000E+00 0. -1.
         22    1    3    3    0    0  0.14667140105E+02 -0.69634445994E+02  0.47364618136E+02  0.85483847123E+02  0.00000000000E+00 0.  1.
         22    1    3    3    0    0 -0.73654130387E+02  0.17174297666E+02  0.29895803331E+02  0.81324328957E+02  0.00000000000E+00 0.  1.
</event>
<event>
 7    1  0.6607887E-006  0.9279938E+02  0.7818608E-02  0.1445447E+00
          2   -1    0    0  502    0  0.00000000000E+00  0.00000000000E+00  0.47049019678E+03  0.47049019678E+03  0.00000000000E+00 0. -1.
          1   -1    0    0  501    0 -0.00000000000E+00 -0.00000000000E+00 -0.23104940509E+03  0.23104940509E+03  0.00000000000E+00 0. -1.
         25    2    1    2    0    0 -0.80906780677E+02  0.60460782816E+02 -0.11132917999E+03  0.19549590007E+03  0.12499218859E+03 0.  0.
          2    1    1    2  501    0  0.55553592589E+02 -0.69506876910E+02 -0.51543524720E+02  0.10283064975E+03  0.00000000000E+00 0. -1.
          1    1    1    2  502    0  0.25353188088E+02  0.90460940940E+01  0.40231349640E+03  0.40321305206E+03  0.00000000000E+00 0. -1.
         22    1    3    3    0    0 -0.41608519943E+02  0.27909364818E+01  0.20398966137E+02  0.46423874006E+02  0.00000000000E+00 0. -1.
         22    1    3    3    0    0 -0.39298260734E+02  0.57669846335E+02 -0.13172814612E+03  0.14907202606E+03  0.00000000000E+00 0. -1.
</event>
<event>
 7    1  0.6607887E-006  0.3647709E+02  0.7818608E-02  0.1585498E+00
          2   -1    0    0  502    0  0.00000000000E+00  0.00000000000E+00  0.97679804831E+03  0.97679804831E+03  0.00000000000E+00 0. -1.
          1   -1    0    0  501    0 -0.00000000000E+00 -0.00000000000E+00 -0.15641527415E+04  0.15641527415E+04  0.00000000000E+00 0. -1.
         25    2    1    2    0    0 -0.99619935099E+01 -0.94590882199E+00 -0.60838867573E+02  0.13937917054E+03  0.12500019725E+03 0.  0.
          2    1    1    2  501    0 -0.26608638228E+02  0.12106956085E+01 -0.14635658441E+04  0.14638082065E+04  0.00000000000E+00 0. -1.
          1    1    1    2  502    0  0.36570631738E+02 -0.26478678649E+00  0.93705001847E+03  0.93776341277E+03  0.00000000000E+00 0. -1.
         22    1    3    3    0    0 -0.59252311373E+01  0.61849858903E+02 -0.25086793275E+02  0.67006422133E+02  0.00000000000E+00 0. -1.
         22    1    3    3    0    0 -0.40367623726E+01 -0.62795767725E+02 -0.35752074298E+02  0.72372748402E+02  0.00000000000E+00 0. -1.
</event>
<event>
 7    1  0.6607887E-006  0.2759250E+02  0.7818608E-02  0.1634288E+00
          2   -1    0    0  502    0  0.00000000000E+00  0.00000000000E+00  0.18236646634E+04  0.18236646634E+04  0.00000000000E+00 0. -1.
          1   -1    0    0  501    0 -0.00000000000E+00 -0.00000000000E+00 -0.21603387433E+02  0.21603387433E+02  0.00000000000E+00 0. -1.
         25    2    1    2    0    0  0.34997026252E+02 -0.10570723910E+02  0.81333631788E+03  0.82369761635E+03  0.12500106064E+03 0.  0.
          2    1    1    2  501    0 -0.22319181730E+02 -0.14008116906E+02 -0.55349336985E+01  0.26925985653E+02  0.00000000000E+00 0. -1.
          1    1    1    2  502    0 -0.12677844522E+02  0.24578840816E+02  0.99425989176E+03  0.99464444880E+03  0.00000000000E+00 0. -1.
         22    1    3    3    0    0  0.73730366760E+02  0.24731344992E+02  0.49835072224E+03  0.50438204644E+03  0.00000000000E+00 0. -1.
         22    1    3    3    0    0 -0.38733340508E+02 -0.35302068902E+02  0.31498559563E+03  0.31931556992E+03  0.00000000000E+00 0. -1.
</event>
<event>
 7    1  0.6607887E-006  0.5093295E+02  0.7818608E-02  0.1507540E+00
          2   -1    0    0  502    0  0.00000000000E+00  0.00000000000E+00  0.42315980677E+03  0.42315980677E+03  0.00000000000E+00 0. -1.
          1   -1    0    0  501    0 -0.00000000000E+00 -0.00000000000E+00 -0.42954013318E+03  0.42954013318E+03  0.00000000000E+00 0. -1.
         25    2    1    2    0    0  0.24144606543E+02  0.92899803080E+01 -0.98285535656E+02  0.16110255836E+03  0.12499888812E+03 0.  0.
          2    1    1    2  501    0  0.26570993038E+02 -0.17025218147E+02 -0.29732791179E+03  0.29899793119E+03  0.00000000000E+00 0. -1.
          1    1    1    2  502    0 -0.50715599581E+02  0.77352378390E+01  0.38923312104E+03  0.39259945040E+03  0.00000000000E+00 0. -1.
         22    1    3    3    0    0 -0.26387479305E+02 -0.30147451243E+02  0.41348197099E+01  0.40277346170E+02  0.00000000000E+00 0.  1.
         22    1    3    3    0    0  0.50532085848E+02  0.39437431551E+02 -0.10242035537E+03  0.12082521219E+03  0.00000000000E+00 0.  1.
</event>
<event>
 7    1  0.6607887E-006  0.4510766E+02  0.7818608E-02  0.1536351E+00
          2   -1    0    0  502    0  0.00000000000E+00  0.00000000000E+00  0.52016114710E+03  0.52016114710E+03  0.00000000000E+00 0. -1.
          1   -1    0    0  501    0 -0.00000000000E+00 -0.00000000000E+00 -0.14312283740E+04  0.14312283740E+04  0.00000000000E+00 0. -1.
         25    2    1    2    0    0 -0.16343122907E+02 -0.54418419479E+02 -0.69957760542E+03  0.71292512884E+03  0.12499980512E+03 0.  0.
          2    1    1    2  501    0  0.27391353501E+02  0.10690012028E+02 -0.72368748555E+03  0.72428457069E+03  0.00000000000E+00 0. -1.
          1    1    1    2  502    0 -0.11048230594E+02  0.43728407452E+02  0.51219786404E+03  0.51417982161E+03  0.00000000000E+00 0. -1.
         22    1    3    3    0    0 -0.61399722193E+02 -0.21360808996E+02 -0.53889927849E+03  0.54280626599E+03  0.00000000000E+00 0.  1.
         22    1    3    3    0    0  0.45056599286E+02 -0.33057610483E+02 -0.16067832693E+03  0.17011886284E+03  0.00000000000E+00 0.  1.
</event>
<event>
 7    1  0.6607887E-006  0.8027953E+02  0.7818608E-02  0.1468663E+00
          2   -1    0    0  502    0  0.00000000000E+00  0.00000000000E+00  0.57478719109E+03  0.57478719109E+03  0.00000000000E+00 0. -1.
          1   -1    0    0  501    0 -0.00000000000E+00 -0.00000000000E+00 -0.13385344821E+04  0.13385344821E+04  0.00000000000E+00 0. -1.
         25    2    1    2    0    0 -0.46939173650E+02 -0.28853912742E+02 -0.23749475440E+02  0.13865446224E+03  0.12500075205E+03 0.  0.
          2    1    1    2  501    0 -0.20824214564E+02 -0.16013270443E+02 -0.12540022931E+04  0.12542774110E+04  0.00000000000E+00 0. -1.
          1    1    1    2  502    0  0.67763388214E+02  0.44867183185E+02  0.51400447754E+03  0.52038979990E+03  0.00000000000E+00 0. -1.
         22    1    3    3    0    0  0.34244322637E+01  0.19611489602E+02 -0.57636178512E+02  0.60977588787E+02  0.00000000000E+00 0. -1.
         22    1    3    3    0    0 -0.50363605914E+02 -0.48465402344E+02  0.33886703072E+02  0.77676873458E+02  0.00000000000E+00 0. -1.
</event>
<event>
 7    1  0.1010591E-005  0.8151940E+02  0.7818608E-02  0.1385525E+00
          2   -1    0    0  502    0  0.00000000000E+00  0.00000000000E+00  0.11511257691E+04  0.11511257691E+04  0.00000000000E+00 0. -1.
          1   -1    0    0  501    0 -0.00000000000E+00 -0.00000000000E+00 -0.88825227599E+03  0.88825227599E+03  0.00000000000E+00 0. -1.
         25    2    1    2    0    0  0.85341150801E+02 -0.49399020096E+02 -0.34496669170E+03  0.37993561917E+03  0.12500272447E+03 0.  0.
          2    1    1    2  501    0 -0.44046666240E+02 -0.20866888602E+02 -0.52320214640E+03  0.52546743176E+03  0.00000000000E+00 0. -1.
          1    1    1    2  502    0 -0.41294484561E+02  0.70265908698E+02  0.11310423312E+04  0.11339749941E+04  0.00000000000E+00 0. -1.
         22    1    3    3    0    0  0.10647481191E+03 -0.10857748615E+01 -0.23100600317E+03  0.25436555973E+03  0.00000000000E+00 0. -1.
         22    1    3    3    0    0 -0.21133661105E+02 -0.48313245234E+02 -0.11396068853E+03  0.12557005944E+03  0.00000000000E+00 0. -1.
</event>
<event>
 7    1  0.6607887E-006  0.1079355E+03  0.7818608E-02  0.1426616E+00
          2   -1    0    0  502    0  0.00000000000E+00  0.00000000000E+00  0.45525240194E+03  0.45525240194E+03  0.00000000000E+00 0. -1.
          1   -1    0    0  501    0 -0.00000000000E+00 -0.00000000000E+00 -0.10119314150E+03  0.10119314150E+03  0.00000000000E+00 0. -1.
         25    2    1    2    0    0  0.10975697199E+03  0.70809523390E+02  0.27432339963E+03  0.32853961503E+03  0.12499747819E+03 0.  0.
          2    1    1    2  501    0 -0.91887680334E+02 -0.51021382643E+02 -0.34484358632E+02  0.11061509063E+03  0.00000000000E+00 0. -1.
          1    1    1    2  502    0 -0.17869291660E+02 -0.19788140747E+02  0.11422021945E+03  0.11729083779E+03  0.00000000000E+00 0. -1.
         22    1    3    3    0    0  0.91305733973E+02 -0.75424455825E+01  0.95007101432E+02  0.13198475239E+03  0.00000000000E+00 0.  1.
         22    1    3    3    0    0  0.18451238021E+02  0.78351968973E+02  0.17931629820E+03  0.19655486263E+03  0.00000000000E+00 0.  1.
</event>
<event>
 7    1  0.6607887E-006  0.4832217E+02  0.7818608E-02  0.1502813E+00
          2   -1    0    0  502    0  0.00000000000E+00  0.00000000000E+00  0.17392031729E+04  0.17392031729E+04  0.00000000000E+00 0. -1.
          1   -1    0    0  501    0 -0.00000000000E+00 -0.00000000000E+00 -0.10123476915E+03  0.10123476915E+03  0.00000000000E+00 0. -1.
         25    2    1    2    0    0 -0.48550280117E+02 -0.58439994158E+02  0.20669688519E+03  0.25322292650E+03  0.12500354213E+03 0.  0.
          2    1    1    2  501    0  0.40428171504E+02  0.25061229111E+02 -0.70502763099E+02  0.85047879811E+02  0.00000000000E+00 0. -1.
          1    1    1    2  502    0  0.81221086132E+01  0.33378765046E+02  0.15017742817E+04  0.15021671357E+04  0.00000000000E+00 0. -1.
         22    1    3    3    0    0 -0.33775518294E+02 -0.92689701054E+02  0.10120899486E+03  0.14133445072E+03  0.00000000000E+00 0. -1.
         22    1    3    3    0    0 -0.14774761823E+02  0.34249706897E+02  0.10548789032E+03  0.11188847579E+03  0.00000000000E+00 0. -1.
</event>
<event>
 7    1  0.6607887E-006  0.6316203E+02  0.7818608E-02  0.1513201E+00
          2   -1    0    0  502    0  0.00000000000E+00  0.00000000000E+00  0.34047005947E+04  0.34047005947E+04  0.00000000000E+00 0. -1.
          1   -1    0    0  501    0 -0.00000000000E+00 -0.00000000000E+00 -0.11332490516E+04  0.11332490516E+04  0.00000000000E+00 0. -1.
         25    2    1    2    0    0 -0.42839679904E+02 -0.17593739476E+02  0.84329015278E+03  0.85376114329E+03  0.12500012070E+03 0.  0.
          2    1    1    2  501    0 -0.70891513355E+01 -0.23441656153E+02 -0.11274720612E+04  0.11277380086E+04  0.00000000000E+00 0. -1.
          1    1    1    2  502    0  0.49928831240E+02  0.41035395629E+02  0.25556334515E+04  0.25564504944E+04  0.00000000000E+00 0. -1.
         22    1    3    3    0    0  0.24794632512E+02  0.38220518956E+02  0.27687068682E+03  0.28059393987E+03  0.00000000000E+00 0. -1.
         22    1    3    3    0    0 -0.67634312416E+02 -0.55814258432E+02  0.56641946596E+03  0.57316720342E+03  0.00000000000E+00 0. -1.
</event>
<event>
 7    1  0.6607887E-006  0.1327880E+03  0.7818608E-02  0.1298805E+00
          2   -1    0    0  502    0  0.00000000000E+00  0.00000000000E+00  0.37820797106E+03  0.37820797106E+03  0.00000000000E+00 0. -1.
          1   -1    0    0  501    0 -0.00000000000E+00 -0.00000000000E+00 -0.10657096880E+04  0.10657096880E+04  0.00000000000E+00 0. -1.
         25    2    1    2    0    0  0.87773359719E+02  0.43765324949E+02 -0.27706157970E+03  0.31938639260E+03  0.12499992995E+03 0.  0.
          2    1    1    2  501    0 -0.14486639449E+03 -0.16394776858E+02 -0.75767356393E+03  0.77157260866E+03  0.00000000000E+00 0. -1.
          1    1    1    2  502    0  0.57093034770E+02 -0.27370548091E+02  0.34723342668E+03  0.35295865781E+03  0.00000000000E+00 0. -1.
         22    1    3    3    0    0 -0.18882885813E+02 -0.37446255172E+01 -0.13093061415E+03  0.13233824587E+03  0.00000000000E+00 0.  1.
         22    1    3    3    0    0  0.10665624553E+03  0.47509950466E+02 -0.14613096554E+03  0.18704814673E+03  0.00000000000E+00 0.  1.
</event>
<event>
 7    1  0.6607887E-006  0.1571799E+03  0.7818608E-02  0.1313515E+00
          2   -1    0    0  502    0  0.00000000000E+00  0.00000000000E+00  0.35308395030E+03  0.35308395030E+03  0.00000000000E+00 0. -1.
          1   -1    0    0  501    0 -0.00000000000E+00 -0.00000000000E+00 -0.45528875618E+04  0.45528875618E+04  0.00000000000E+00 0. -1.
         25    2    1    2    0    0 -0.63853005933E+02  0.10638996817E+03 -0.11886440822E+04  0.12016222628E+04  0.12500110640E+03 0.  0.
          2    1    1    2  501    0  0.10170518014E+03 -0.13385632116E+03 -0.33540619342E+04  0.33582723113E+04  0.00000000000E+00 0. -1.
          1    1    1    2  502    0 -0.37852174210E+02  0.27466352993E+02  0.34290240497E+03  0.34607693794E+03  0.00000000000E+00 0. -1.
         22    1    3    3    0    0 -0.66562426921E+02 -0.37130363083E+00 -0.35737681181E+03  0.36352287434E+03  0.00000000000E+00 0. -1.
         22    1    3    3    0    0  0.27094209881E+01  0.10676127180E+03 -0.83126727043E+03  0.83809938850E+03  0.00000000000E+00 0. -1.
</event>
<event>
 7    1  0.6607887E-006  0.7728038E+02  0.7818608E-02  0.1339440E+00
          2   -1    0    0  502    0  0.00000000000E+00  0.00000000000E+00  0.13313514166E+04  0.13313514166E+04  0.00000000000E+00 0. -1.
          1   -1    0    0  501    0 -0.00000000000E+00 -0.00000000000E+00 -0.10010174380E+03  0.10010174380E+03  0.00000000000E+00 0. -1.
         25    2    1    2    0    0  0.19067985455E+02  0.28279619576E+02  0.23464666907E+03  0.26804268239E+03  0.12499798129E+03 0.  0.
          2    1    1    2  501    0 -0.81125932730E+02  0.14944936646E+02 -0.61321236138E+02  0.10278648790E+03  0.00000000000E+00 0. -1.
          1    1    1    2  502    0  0.62057947274E+02 -0.43224556223E+02  0.10579242399E+04  0.10606239901E+04  0.00000000000E+00 0. -1.
         22    1    3    3    0    0 -0.34026585102E+02  0.32900556578E+01  0.19319785591E+03  0.19619899206E+03  0.00000000000E+00 0. -1.
         22    1    3    3    0    0  0.53094570558E+02  0.24989563919E+02  0.41448813161E+02  0.71843690329E+02  0.00000000000E+00 0. -1.
</event>
<event>
 7    1  0.6607887E-006  0.1497834E+03  0.7818608E-02  0.1219870E+00
          2   -1    0    0  502    0  0.00000000000E+00  0.00000000000E+00  0.37397513819E+03  0.37397513819E+03  0.00000000000E+00 0. -1.
          1   -1    0    0  501    0 -0.00000000000E+00 -0.00000000000E+00 -0.95058660231E+03  0.95058660231E+03  0.00000000000E+00 0. -1.
         25    2    1    2    0    0  0.19886069026E+03  0.77778404212E+02 -0.13637562431E+03  0.28252143698E+03  0.12499998863E+03 0.  0.
          2    1    1    2  501    0 -0.11445703100E+03  0.42585554289E+02 -0.71771147351E+03  0.72802726637E+03  0.00000000000E+00 0. -1.
          1    1    1    2  502    0 -0.84403659255E+02 -0.12036395850E+03  0.27747563370E+03  0.31401303714E+03  0.00000000000E+00 0. -1.
         22    1    3    3    0    0  0.42159244590E+02 -0.32819371191E+02 -0.45972189900E+02  0.70483723469E+02  0.00000000000E+00 0.  1.
         22    1    3    3    0    0  0.15670144567E+03  0.11059777540E+03 -0.90403434412E+02  0.21203771351E+03  0.00000000000E+00 0.  1.
</event>
<event>
 7    1  0.6607887E-006  0.1198899E+03  0.7818608E-02  0.1296434E+00
          2   -1    0    0  502    0  0.00000000000E+00  0.00000000000E+00  0.32556271903E+03  0.32556271903E+03  0.00000000000E+00 0. -1.
          1   -1    0    0  501    0 -0.00000000000E+00 -0.00000000000E+00 -0.34930139408E+03  0.34930139408E+03  0.00000000000E+00 0. -1.
         25    2    1    2    0    0  0.62948387255E+01 -0.86267309711E+02 -0.68998369127E+02  0.16693294763E+03  0.12499664133E+03 0.  0.
          2    1    1    2  501    0 -0.70776249953E+02  0.11757846387E+03 -0.20550865635E+03  0.24711896034E+03  0.00000000000E+00 0. -1.
          1    1    1    2  502    0  0.64481411227E+02 -0.31311154159E+02  0.25076835044E+03  0.26081220514E+03  0.00000000000E+00 0. -1.
         22    1    3    3    0    0 -0.17110586464E+02 -0.73951327142E+02  0.16293927451E+02  0.77634161469E+02  0.00000000000E+00 0. -1.
         22    1    3    3    0    0  0.23405425189E+02 -0.12315982570E+02 -0.85292296578E+02  0.89298786165E+02  0.00000000000E+00 0. -1.
</event>
<event>
 7    1  0.6607887E-006  0.1217909E+03  0.7818608E-02  0.1368146E+00
          2   -1    0    0  502    0  0.00000000000E+00  0.00000000000E+00  0.96828145825E+03  0.96828145825E+03  0.00000000000E+00 0. -1.
          1   -1    0    0  501    0 -0.00000000000E+00 -0.00000000000E+00 -0.25349631514E+04  0.25349631514E+04  0.00000000000E+00 0. -1.
         25    2    1    2    0    0 -0.11445839929E+03  0.98890672485E+02 -0.47180146617E+03  0.51098176515E+03  0.12500260220E+03 0.  0.
          2    1    1    2  501    0  0.77803234749E+02 -0.90442441611E+02 -0.20414564428E+04  0.20449395068E+04  0.00000000000E+00 0. -1.
          1    1    1    2  502    0  0.36655164540E+02 -0.84482308741E+01  0.94657621586E+03  0.94732333768E+03  0.00000000000E+00 0. -1.
         22    1    3    3    0    0 -0.78093496047E+02  0.44507668354E+01 -0.31339168323E+03  0.32300580578E+03  0.00000000000E+00 0.  1.
         22    1    3    3    0    0 -0.36364903242E+02  0.94439905650E+02 -0.15840978294E+03  0.18797595936E+03  0.00000000000E+00 0.  1.
</event>
<event>
 7    1  0.6607887E-006  0.3388924E+02  0.7818608E-02  0.1581387E+00
          2   -1    0    0  502    0  0.00000000000E+00  0.00000000000E+00  0.12382236803E+04  0.12382236803E+04  0.00000000000E+00 0. -1.
          1   -1    0    0  501    0 -0.00000000000E+00 -0.00000000000E+00 -0.35105888507E+03  0.35105888507E+03  0.00000000000E+00 0. -1.
         25    2    1    2    0    0  0.51732049079E+02  0.52244926321E+01  0.94914519387E+02  0.16533968801E+03  0.12499978486E+03 0.  0.
          2    1    1    2  501    0 -0.21398628325E+02 -0.20166267048E+02 -0.31490328699E+03  0.31627307786E+03  0.00000000000E+00 0. -1.
          1    1    1    2  502    0 -0.30333420754E+02  0.14941774416E+02  0.11071535628E+04  0.11076697995E+04  0.00000000000E+00 0. -1.
         22    1    3    3    0    0  0.38419041279E+02 -0.22778180947E+02  0.11833424189E+03  0.12648265124E+03  0.00000000000E+00 0.  1.
         22    1    3    3    0    0  0.13313007800E+02  0.28002673579E+02 -0.23419722505E+02  0.38857036769E+02  0.00000000000E+00 0.  1.
</event>
<event>
 7    1  0.6607887E-006  0.1118067E+03  0.7818608E-02  0.1309121E+00
          2   -1    0    0  502    0  0.00000000000E+00  0.00000000000E+00  0.21339015010E+03  0.21339015010E+03  0.00000000000E+00 0. -1.
          1   -1    0    0  501    0 -0.00000000000E+00 -0.00000000000E+00 -0.72113178799E+03  0.72113178799E+03  0.00000000000E+00 0. -1.
         25    2    1    2    0    0 -0.15565313395E+03 -0.26648241857E+02 -0.18877724459E+03  0.27604328867E+03  0.12500008897E+03 0.  0.
          2    1    1    2  501    0  0.10490646313E+03 -0.19237453298E+02 -0.47567454840E+03  0.48748509886E+03  0.00000000000E+00 0. -1.
          1    1    1    2  502    0  0.50746670825E+02  0.45885695155E+02  0.15671015510E+03  0.17099355055E+03  0.00000000000E+00 0. -1.
         22    1    3    3    0    0 -0.16045713936E+03  0.10209140207E+02 -0.17141573645E+03  0.23501930732E+03  0.00000000000E+00 0.  1.
         22    1    3    3    0    0  0.48040054038E+01 -0.36857382065E+02 -0.17361508149E+02  0.41023981350E+02  0.00000000000E+00 0.  1.
</event>
<event>
 7    1  0.6955115E-006  0.1963256E+03  0.7818608E-02  0.1298858E+00
          2   -1    0    0  502    0  0.00000000000E+00  0.00000000000E+00  0.22769831709E+04  0.22769831709E+04  0.00000000000E+00 0. -1.
          1   -1    0    0  501    0 -0.00000000000E+00 -0.00000000000E+00 -0.86572475465E+03  0.86572475465E+03  0.00000000000E+00 0. -1.
         25    2    1    2    0    0  0.11569200999E+03  0.18935663102E+03 -0.47385123990E+03  0.53796092269E+03  0.12500552749E+03 0.  0.
          2    1    1    2  501    0  0.12520164291E+02 -0.40931055603E+02 -0.35424399425E+03  0.35682056175E+03  0.00000000000E+00 0. -1.
          1    1    1    2  502    0 -0.12821217429E+03 -0.14842557542E+03  0.22393536504E+04  0.22479264411E+04  0.00000000000E+00 0. -1.
         22    1    3    3    0    0  0.86824241175E+02  0.11904111133E+03 -0.17102331526E+03  0.22573925092E+03  0.00000000000E+00 0. -1.
         22    1    3    3    0    0  0.28867768820E+02  0.70315519694E+02 -0.30282792464E+03  0.31222167178E+03  0.00000000000E+00 0. -1.
</event>
<event>
 7    1  0.6607887E-006  0.1013446E+03  0.7818608E-02  0.1472215E+00
          2   -1    0    0  502    0  0.00000000000E+00  0.00000000000E+00  0.69595036633E+03  0.69595036633E+03  0.00000000000E+00 0. -1.
          1   -1    0    0  501    0 -0.00000000000E+00 -0.00000000000E+00 -0.61662823986E+03  0.61662823986E+03  0.00000000000E+00 0. -1.
         25    2    1    2    0    0 -0.48359099148E+02 -0.10807716119E+03 -0.20143762789E+02  0.17334846045E+03  0.12499856927E+03 0.  0.
          2    1    1    2  501    0 -0.82268783548E+00  0.20269958393E+02 -0.51559278256E+03  0.51599173003E+03  0.00000000000E+00 0. -1.
          1    1    1    2  502    0  0.49181786983E+02  0.87807202801E+02  0.61505867182E+03  0.62323841571E+03  0.00000000000E+00 0. -1.
         22    1    3    3    0    0 -0.84214649652E+02 -0.94013612849E+02  0.67117199068E+01  0.12639507032E+03  0.00000000000E+00 0. -1.
         22    1    3    3    0    0  0.35855550505E+02 -0.14063548346E+02 -0.26855482696E+02  0.46953390132E+02  0.00000000000E+00 0. -1.
</event>
<event>
 7    1  0.6607887E-006  0.6544300E+02  0.7818608E-02  0.1395019E+00
          2   -1    0    0  502    0  0.00000000000E+00  0.00000000000E+00  0.35457643979E+03  0.35457643979E+03  0.00000000000E+00 0. -1.
          1   -1    0    0  501    0 -0.00000000000E+00 -0.00000000000E+00 -0.54841717970E+03  0.54841717970E+03  0.00000000000E+00 0. -1.
         25    2    1    2    0    0 -0.11560415728E+03  0.20741720795E+02  0.73578816615E+02  0.18663736215E+03  0.12500049014E+03 0.  0.
          2    1    1    2  501    0  0.54375781790E+02 -0.14419090371E+02 -0.48601490278E+03  0.48925976898E+03  0.00000000000E+00 0. -1.
          1    1    1    2  502    0  0.61228375486E+02 -0.63226304237E+01  0.21859534626E+03  0.22709648836E+03  0.00000000000E+00 0. -1.
         22    1    3    3    0    0 -0.12445855911E+03 -0.22112451008E+02  0.64633076258E+02  0.14197298324E+03  0.00000000000E+00 0. -1.
         22    1    3    3    0    0  0.88544018313E+01  0.42854171803E+02  0.89457403576E+01  0.44664378908E+02  0.00000000000E+00 0. -1.
</event>
<event>
 7    1  0.6607887E-006  0.1157806E+03  0.7818608E-02  0.1318643E+00
          2   -1    0    0  502    0  0.00000000000E+00  0.00000000000E+00  0.91160735099E+03  0.91160735099E+03  0.00000000000E+00 0. -1.
          1   -1    0    0  501    0 -0.00000000000E+00 -0.00000000000E+00 -0.10517609323E+03  0.10517609323E+03  0.00000000000E+00 0. -1.
         25    2    1    2    0    0 -0.35626665787E+02 -0.73102776362E+02  0.17956678417E+03  0.23341715849E+03  0.12500425862E+03 0.  0.
          2    1    1    2  501    0  0.95632642503E+02  0.81778671621E+02 -0.25334086886E+02  0.12835563643E+03  0.00000000000E+00 0. -1.
          1    1    1    2  502    0 -0.60005976715E+02 -0.86758952594E+01  0.65219856049E+03  0.65501064931E+03  0.00000000000E+00 0. -1.
         22    1    3    3    0    0  0.39515835018E+01 -0.94950380506E+02  0.80584139681E+02  0.12459933121E+03  0.00000000000E+00 0. -1.
         22    1    3    3    0    0 -0.39578249289E+02  0.21847604144E+02  0.98982644484E+02  0.10881782727E+03  0.00000000000E+00 0. -1.
</event>
<event>
 7    1  0.6607887E-006  0.6729077E+02  0.7818608E-02  0.1405645E+00
          2   -1    0    0  502    0  0.00000000000E+00  0.00000000000E+00  0.16531270003E+04  0.16531270003E+04  0.00000000000E+00 0. -1.
          1   -1    0    0  501    0 -0.00000000000E+00 -0.00000000000E+00 -0.30406354742E+02  0.30406354742E+02  0.00000000000E+00 0. -1.
         25    2    1    2    0    0 -0.37170413245E+02 -0.52594369633E+01  0.38581091095E+03  0.40728899541E+03  0.12499986192E+03 0.  0.
          2    1    1    2  501    0  0.63895822474E+02 -0.37350512474E+02  0.52438667742E+02  0.90705847586E+02  0.00000000000E+00 0. -1.
          1    1    1    2  502    0 -0.26725409228E+02  0.42609949438E+02  0.11844710669E+04  0.11855385121E+04  0.00000000000E+00 0. -1.
         22    1    3    3    0    0 -0.47286421912E+02  0.52144995363E+02  0.24441542960E+03  0.25435016899E+03  0.00000000000E+00 0. -1.
         22    1    3    3    0    0  0.10116008667E+02 -0.57404432326E+02  0.14139548135E+03  0.15293882642E+03  0.00000000000E+00 0. -1.
</event>
<event>
 7    1  0.6607887E-006  0.7570866E+02  0.7818608E-02  0.1376783E+00
          2   -1    0    0  502    0  0.00000000000E+00  0.00000000000E+00  0.19692746750E+04  0.19692746750E+04  0.00000000000E+00 0. -1.
          1   -1    0    0  501    0 -0.00000000000E+00 -0.00000000000E+00 -0.44367916057E+03  0.44367916057E+03  0.00000000000E+00 0. -1.
         25    2    1    2    0    0  0.94785533790E+02 -0.70316328305E+02  0.32186712377E+03  0.36489966169E+03  0.12499853717E+03 0.  0.
          2    1    1    2  501    0 -0.22849522873E+02  0.51511514800E+02 -0.41942753187E+03  0.42319616177E+03  0.00000000000E+00 0. -1.
          1    1    1    2  502    0 -0.71936010917E+02  0.18804813505E+02  0.16231559225E+04  0.16248580121E+04  0.00000000000E+00 0. -1.
         22    1    3    3    0    0  0.10261250706E+03 -0.49469589123E+01  0.15983091084E+03  0.18999926070E+03  0.00000000000E+00 0. -1.
         22    1    3    3    0    0 -0.78269732686E+01 -0.65369369393E+02  0.16203621293E+03  0.17490040099E+03  0.00000000000E+00 0. -1.
</event>
<event>
 7    1  0.6607887E-006  0.1897003E+03  0.7818608E-02  0.1301547E+00
          2   -1    0    0  502    0  0.00000000000E+00  0.00000000000E+00  0.40149024427E+03  0.40149024427E+03  0.00000000000E+00 0. -1.
          1   -1    0    0  501    0 -0.00000000000E+00 -0.00000000000E+00 -0.35783034716E+03  0.35783034716E+03  0.00000000000E+00 0. -1.
         25    2    1    2    0    0  0.17256699980E+03 -0.47435777567E+02 -0.37753401069E+02  0.22153895328E+03  0.12499866445E+03 0.  0.
          2    1    1    2  501    0 -0.19565865115E+03  0.10908826031E+02 -0.18403958134E+03  0.26883429423E+03  0.00000000000E+00 0. -1.
          1    1    1    2  502    0  0.23091651347E+02  0.36526951536E+02  0.26545287952E+03  0.26894734391E+03  0.00000000000E+00 0. -1.
         22    1    3    3    0    0  0.37534550043E+01 -0.79287022144E+01 -0.47102366159E+02  0.47912270255E+02  0.00000000000E+00 0. -1.
         22    1    3    3    0    0  0.16881354480E+03 -0.39507075353E+02  0.93489650895E+01  0.17362668303E+03  0.00000000000E+00 0. -1.
</event>
<event>
 7    1  0.6607887E-006  0.2372386E+03  0.7818608E-02  0.1231657E+00
          2   -1    0    0  502    0  0.00000000000E+00  0.00000000000E+00  0.13169507985E+04  0.13169507985E+04  0.00000000000E+00 0. -1.
          1   -1    0    0  501    0 -0.00000000000E+00 -0.00000000000E+00 -0.51861279064E+03  0.51861279064E+03  0.00000000000E+00 0. -1.
         25    2    1    2    0    0  0.17860640505E+03 -0.84892166710E+02  0.40628980481E+03  0.46883202772E+03  0.12500054732E+03 0.  0.
          2    1    1    2  501    0  0.46579870034E+02 -0.49829055252E+02 -0.46522355703E+03  0.47019738095E+03  0.00000000000E+00 0. -1.
          1    1    1    2  502    0 -0.22518627508E+03  0.13472122196E+03  0.85727176009E+03  0.89653418049E+03  0.00000000000E+00 0. -1.
         22    1    3    3    0    0  0.37798026977E+02 -0.31694645345E+02  0.23795672086E+03  0.24301572458E+03  0.00000000000E+00 0.  1.
         22    1    3    3    0    0  0.14080837807E+03 -0.53197521364E+02  0.16833308394E+03  0.22581630314E+03  0.00000000000E+00 0.  1.
</event>
<event>
 7    1  0.6607887E-006  0.1186435E+03  0.7818608E-02  0.1310226E+00
          2   -1    0    0  502    0  0.00000000000E+00  0.00000000000E+00  0.13500678952E+04  0.13500678952E+04  0.00000000000E+00 0. -1.
          1   -1    0    0  501    0 -0.00000000000E+00 -0.00000000000E+00 -0.14543309490E+04  0.14543309490E+04  0.00000000000E+00 0. -1.
         25    2    1    2    0    0  0.14127900964E+03  0.10113288326E+03  0.35160994312E+03  0.41163442551E+03  0.12500291806E+03 0.  0.
          2    1    1    2  501    0 -0.78753256099E+02 -0.88297621331E+02 -0.14208054101E+04  0.14257231704E+04  0.00000000000E+00 0. -1.
          1    1    1    2  502    0 -0.62525753545E+02 -0.12835261929E+02  0.96493241315E+03  0.96704124822E+03  0.00000000000E+00 0. -1.
         22    1    3    3    0    0  0.30341544153E+02 -0.10013858777E+02  0.16349392758E+03  0.16658676725E+03  0.00000000000E+00 0. -1.
         22    1    3    3    0    0  0.11093746549E+03  0.11114674204E+03  0.18811601554E+03  0.24504765826E+03  0.00000000000E+00 0. -1.
</event>
<event>
 7    1  0.6607887E-006  0.1945996E+03  0.7818608E-02  0.1268959E+00
          2   -1    0    0  502    0  0.00000000000E+00  0.00000000000E+00  0.37849980252E+04  0.37849980252E+04  0.00000000000E+00 0. -1.
          1   -1    0    0  501    0 -0.00000000000E+00 -0.00000000000E+00 -0.11579318141E+04  0.11579318141E+04  0.00000000000E+00 0. -1.
         25    2    1    2    0    0  0.22670732848E+03  0.93041979402E+02  0.21119547486E+03  0.34681365785E+03  0.12499264758E+03 0.  0.
          2    1    1    2  501    0 -0.41663846496E+02 -0.39329565848E+02 -0.10867201616E+04  0.10882294797E+04  0.00000000000E+00 0. -1.
          1    1    1    2  502    0 -0.18504348199E+03 -0.53712413553E+02  0.35025908979E+04  0.35078867016E+04  0.00000000000E+00 0. -1.
         22    1    3    3    0    0  0.10818684128E+03  0.10590765009E+03  0.86795105292E+02  0.17451135573E+03  0.00000000000E+00 0.  1.
         22    1    3    3    0    0  0.11852048720E+03 -0.12865670688E+02  0.12440036957E+03  0.17230230212E+03  0.00000000000E+00 0.  1.
</event>
<event>
 7    1  0.6607887E-006  0.8678027E+02  0.7818608E-02  0.1332004E+00
          2   -1    0    0  502    0  0.00000000000E+00  0.00000000000E+00  0.17109294030E+04  0.17109294030E+04  0.00000000000E+00 0. -1.
          1   -1    0    0  501    0 -0.00000000000E+00 -0.00000000000E+00 -0.63224025098E+03  0.63224025098E+03  0.00000000000E+00 0. -1.
         25    2    1    2    0    0  0.13071701783E+03  0.60768252859E+02 -0.33689466708E+03  0.38717268975E+03  0.12499982270E+03 0.  0.
          2    1    1    2  501    0 -0.60764468235E+02 -0.44320362216E+02 -0.26418986017E+03  0.27468690781E+03  0.00000000000E+00 0. -1.
          1    1    1    2  502    0 -0.69952549593E+02 -0.16447890643E+02  0.16797736793E+04  0.16813100564E+04  0.00000000000E+00 0. -1.
         22    1    3    3    0    0 -0.11115007626E+02  0.45376697561E+02 -0.10472689705E+03  0.11467480561E+03  0.00000000000E+00 0. -1.
         22    1    3    3    0    0  0.14183202545E+03  0.15391555298E+02 -0.23216777003E+03  0.27249788414E+03  0.00000000000E+00 0. -1.
</event>
<event>
 7    1  0.6607887E-006  0.1222845E+03  0.7818608E-02  0.1336509E+00
          2   -1    0    0  502    0  0.00000000000E+00  0.00000000000E+00  0.14360135761E+04  0.14360135761E+04  0.00000000000E+00 0. -1.
          1   -1    0    0  501    0 -0.00000000000E+00 -0.00000000000E+00 -0.79076689551E+02  0.79076689551E+02  0.00000000000E+00 0. -1.
         25    2    1    2    0    0 -0.93989259280E+02  0.50748672453E+02  0.42388283120E+03  0.45465484656E+03  0.12499986521E+03 0.  0.
          2    1    1    2  501    0  0.12488448756E+03 -0.12680431569E+02 -0.56706133785E+00  0.12552788589E+03  0.00000000000E+00 0. -1.
          1    1    1    2  502    0 -0.30895228282E+02 -0.38068240884E+02  0.93362111666E+03  0.93490753317E+03  0.00000000000E+00 0. -1.
         22    1    3    3    0    0  0.28877602310E+02  0.24187968312E+02  0.12081862237E+03  0.12655478354E+03  0.00000000000E+00 0. -1.
         22    1    3    3    0    0 -0.12286686159E+03  0.26560704141E+02  0.30306420883E+03  0.32810006302E+03  0.00000000000E+00 0. -1.
</event>
<event>
 7    1  0.6607887E-006  0.1013142E+03  0.7818608E-02  0.1415928E+00
          2   -1    0    0  502    0  0.00000000000E+00  0.00000000000E+00  0.19856283095E+03  0.19856283095E+03  0.00000000000E+00 0. -1.
          1   -1    0    0  501    0 -0.00000000000E+00 -0.00000000000E+00 -0.24833188239E+03  0.24833188239E+03  0.00000000000E+00 0. -1.
         25    2    1    2    0    0  0.68587862486E+02 -0.52341132847E+02  0.30425762834E+02  0.15489169234E+03  0.12498728033E+03 0.  0.
          2    1    1    2  501    0 -0.96480797797E+02  0.39199453984E+02 -0.16871457361E+03  0.19826686280E+03  0.00000000000E+00 0. -1.
          1    1    1    2  502    0  0.27892935312E+02  0.13141678863E+02  0.88519759328E+02  0.93736158206E+02  0.00000000000E+00 0. -1.
         22    1    3    3    0    0  0.54668843322E+01 -0.68691765644E+02  0.51872559760E+02  0.86250843171E+02  0.00000000000E+00 0. -1.
         22    1    3    3    0    0  0.63120978153E+02  0.16350632798E+02 -0.21446796926E+02  0.68640849167E+02  0.00000000000E+00 0. -1.
</event>
<event>
 7    1  0.6607887E-006  0.1557462E+03  0.7818608E-02  0.1225960E+00
          2   -1    0    0  502    0  0.00000000000E+00  0.00000000000E+00  0.10946767989E+04  0.10946767989E+04  0.00000000000E+00 0. -1.
          1   -1    0    0  501    0 -0.00000000000E+00 -0.00000000000E+00 -0.32768504925E+03  0.32768504925E+03  0.00000000000E+00 0. -1.
         25    2    1    2    0    0 -0.15923312613E+03  0.13976468780E+03  0.22565691357E+02  0.24702866085E+03  0.12499836976E+03 0.  0.
          2    1    1    2  501    0  0.11002908644E+03  0.62660207069E+01 -0.19465774545E+03  0.22369018920E+03  0.00000000000E+00 0. -1.
          1    1    1    2  502    0  0.49204039693E+02 -0.14603070851E+03  0.93908380379E+03  0.95164299813E+03  0.00000000000E+00 0. -1.
         22    1    3    3    0    0 -0.11466185222E+03  0.13837772427E+03 -0.25446048633E+02  0.18150271712E+03  0.00000000000E+00 0.  1.
         22    1    3    3    0    0 -0.44571273911E+02  0.13869635339E+01  0.48011739991E+02  0.65525943738E+02  0.00000000000E+00 0.  1.
</event>
<event>
 7    1  0.6607887E-006  0.9003116E+02  0.7818608E-02  0.1414752E+00
          2   -1    0    0  502    0  0.00000000000E+00  0.00000000000E+00  0.16836694667E+04  0.16836694667E+04  0.00000000000E+00 0. -1.
          1   -1    0    0  501    0 -0.00000000000E+00 -0.00000000000E+00 -0.27592854617E+04  0.27592854617E+04  0.00000000000E+00 0. -1.
         25    2    1    2    0    0 -0.17556008215E+02 -0.65382834448E+02  0.45745038670E+03  0.47902791965E+03  0.12499505206E+03 0.  0.
          2    1    1    2  501    0  0.51524557574E+02  0.73880380120E+02 -0.27475063286E+04  0.27489823783E+04  0.00000000000E+00 0. -1.
          1    1    1    2  502    0 -0.33968549359E+02 -0.84975456723E+01  0.12144399468E+04  0.12149446305E+04  0.00000000000E+00 0. -1.
         22    1    3    3    0    0  0.42113386598E+02 -0.35822560748E+02  0.90252714614E+02  0.10584113418E+03  0.00000000000E+00 0.  1.
         22    1    3    3    0    0 -0.59669394814E+02 -0.29560273700E+02  0.36719767209E+03  0.37318678547E+03  0.00000000000E+00 0.  1.
</event>
<event>
 7    1  0.6607887E-006  0.1598238E+03  0.7818608E-02  0.1242992E+00
          2   -1    0    0  502    0  0.00000000000E+00  0.00000000000E+00  0.31437658860E+04  0.31437658860E+04  0.00000000000E+00 0. -1.
          1   -1    0    0  501    0 -0.00000000000E+00 -0.00000000000E+00 -0.45391521028E+02  0.45391521028E+02  0.00000000000E+00 0. -1.
         25    2    1    2    0    0 -0.11337087102E+03  0.21589051597E+03  0.24183427902E+04  0.24338177215E+04  0.12500072683E+03 0.  0.
          2    1    1    2  501    0  0.74975978886E+02 -0.13427579552E+03  0.14045383129E+03  0.20827545558E+03  0.00000000000E+00 0. -1.
          1    1    1    2  502    0  0.38394892132E+02 -0.81614720443E+02  0.53957774353E+03  0.54706422991E+03  0.00000000000E+00 0. -1.
         22    1    3    3    0    0 -0.42666471533E+02  0.14078257227E+03  0.18755664546E+04  0.18813265762E+04  0.00000000000E+00 0. -1.
         22    1    3    3    0    0 -0.70704399486E+02  0.75107943693E+02  0.54277633552E+03  0.55249114537E+03  0.00000000000E+00 0. -1.
</event>
<event>
 7    1  0.6607887E-006  0.6852372E+02  0.7818608E-02  0.1402251E+00
          2   -1    0    0  502    0  0.00000000000E+00  0.00000000000E+00  0.64584777610E+03  0.64584777610E+03  0.00000000000E+00 0. -1.
          1   -1    0    0  501    0 -0.00000000000E+00 -0.00000000000E+00 -0.68683072454E+02  0.68683072454E+02  0.00000000000E+00 0. -1.
         25    2    1    2    0    0 -0.26554865700E+02 -0.15158852844E+02  0.18191107817E+03  0.22282571826E+03  0.12499883457E+03 0.  0.
          2    1    1    2  501    0 -0.12403158864E+02 -0.49190575507E+02 -0.30609478409E+02  0.59249398622E+02  0.00000000000E+00 0. -1.
          1    1    1    2  502    0  0.38958024563E+02  0.64349428351E+02  0.42586310389E+03  0.43245573168E+03  0.00000000000E+00 0. -1.
         22    1    3    3    0    0  0.31971952231E+01 -0.60864027051E+02  0.45930702044E+02  0.76316978690E+02  0.00000000000E+00 0.  1.
         22    1    3    3    0    0 -0.29752060923E+02  0.45705174206E+02  0.13598037613E+03  0.14650873957E+03  0.00000000000E+00 0.  1.
</event>
<event>
 7    1  0.6607887E-006  0.9411087E+02  0.7818608E-02  0.1294268E+00
          2   -1    0    0  502    0  0.00000000000E+00  0.00000000000E+00  0.27077786246E+04  0.27077786246E+04  0.00000000000E+00 0. -1.
          1   -1    0    0  501    0 -0.00000000000E+00 -0.00000000000E+00 -0.39369664675E+02  0.39369664675E+02  0.00000000000E+00 0. -1.
         25    2    1    2    0    0 -0.71834729709E+02 -0.44086336287E+02  0.55984540486E+03  0.57978869027E+03  0.12499685827E+03 0.  0.
          2    1    1    2  501    0  0.88136774117E+02 -0.48601842716E+02  0.61118355697E+02  0.11775263679E+03  0.00000000000E+00 0. -1.
          1    1    1    2  502    0 -0.16302044407E+02  0.92688179004E+02  0.20474451994E+04  0.20496069623E+04  0.00000000000E+00 0. -1.
         22    1    3    3    0    0 -0.60631107211E+02  0.26922973574E+02  0.38611296926E+03  0.39177059959E+03  0.00000000000E+00 0.  1.
         22    1    3    3    0    0 -0.11203622498E+02 -0.71009309862E+02  0.17373243560E+03  0.18801809068E+03  0.00000000000E+00 0.  1.
</event>
<event>
 7    1  0.6607887E-006  0.1972542E+03  0.7818608E-02  0.1171471E+00
          2   -1    0    0  502    0  0.00000000000E+00  0.00000000000E+00  0.85932209586E+03  0.85932209586E+03  0.00000000000E+00 0. -1.
          1   -1    0    0  501    0 -0.00000000000E+00 -0.00000000000E+00 -0.11038849999E+04  0.11038849999E+04  0.00000000000E+00 0. -1.
         25    2    1    2    0    0 -0.18589916735E+03  0.21201184404E+03  0.51324568812E+03  0.59879354324E+03  0.12500019445E+03 0.  0.
          2    1    1    2  501    0  0.29388948502E+02 -0.19435767382E+03 -0.10307296536E+04  0.10493055963E+04  0.00000000000E+00 0. -1.
          1    1    1    2  502    0  0.15651021885E+03 -0.17654170223E+02  0.27292106139E+03  0.31510795623E+03  0.00000000000E+00 0. -1.
         22    1    3    3    0    0  0.82759136601E+01  0.62986777163E+02  0.11312369342E+03  0.12974126120E+03  0.00000000000E+00 0.  1.
         22    1    3    3    0    0 -0.19417508101E+03  0.14902506688E+03  0.40012199470E+03  0.46905228204E+03  0.00000000000E+00 0.  1.
</event>
<event>
 7    1  0.6607887E-006  0.9443652E+02  0.7818608E-02  0.1377600E+00
          2   -1    0    0  502    0  0.00000000000E+00  0.00000000000E+00  0.50362347919E+03  0.50362347919E+03  0.00000000000E+00 0. -1.
          1   -1    0    0  501    0 -0.00000000000E+00 -0.00000000000E+00 -0.17163203827E+03  0.17163203827E+03  0.00000000000E+00 0. -1.
         25    2    1    2    0    0  0.27107992309E+02  0.12291585710E+03  0.13347017900E+03  0.22199635157E+03  0.12499976101E+03 0.  0.
          2    1    1    2  501    0  0.51463175943E+01 -0.91715806885E+02 -0.10896308288E+03  0.14251746296E+03  0.00000000000E+00 0. -1.
          1    1    1    2  502    0 -0.32254309903E+02 -0.31200050213E+02  0.30748434480E+03  0.31074170293E+03  0.00000000000E+00 0. -1.
         22    1    3    3    0    0  0.10739442508E+02  0.47354691644E+02  0.13623844162E+03  0.14463303710E+03  0.00000000000E+00 0.  1.
         22    1    3    3    0    0  0.16368549801E+02  0.75561165455E+02 -0.27682626189E+01  0.77363314468E+02  0.00000000000E+00 0.  1.
</event>
<event>
 7    1  0.6607887E-006  0.7097165E+02  0.7818608E-02  0.1418687E+00
          2   -1    0    0  502    0  0.00000000000E+00  0.00000000000E+00  0.19113363000E+03  0.19113363000E+03  0.00000000000E+00 0. -1.
          1   -1    0    0  501    0 -0.00000000000E+00 -0.00000000000E+00 -0.30990028305E+03  0.30990028305E+03  0.00000000000E+00 0. -1.
         25    2    1    2    0    0  0.15524085670E+02  0.36482194967E+02 -0.83552181005E+02  0.15549396975E+03  0.12500183956E+03 0.  0.
          2    1    1    2  501    0  0.42040414173E+02  0.94449845509E+01 -0.17893581542E+03  0.18405061857E+03  0.00000000000E+00 0. -1.
          1    1    1    2  502    0 -0.57564499843E+02 -0.45927179518E+02  0.14372134337E+03  0.16148932473E+03  0.00000000000E+00 0. -1.
         22    1    3    3    0    0 -0.15930383840E+02 -0.30744483077E+02 -0.72645029584E+02  0.80475466399E+02  0.00000000000E+00 0.  1.
         22    1    3    3    0    0  0.31454469510E+02  0.67226678044E+02 -0.10907151421E+02  0.75018503351E+02  0.00000000000E+00 0.  1.
</event>
<event>
 7    1  0.6607887E-006  0.1000592E+03  0.7818608E-02  0.1378767E+00
          2   -1    0    0  502    0  0.00000000000E+00  0.00000000000E+00  0.16433957686E+03  0.16433957686E+03  0.00000000000E+00 0. -1.
          1   -1    0    0  501    0 -0.00000000000E+00 -0.00000000000E+00 -0.25145051562E+03  0.25145051562E+03  0.00000000000E+00 0. -1.
         25    2    1    2    0    0 -0.73011711094E+02  0.70078340540E+02  0.14399824521E+02  0.16147430978E+03  0.12499965601E+03 0.  0.
          2    1    1    2  501    0  0.38282988766E+02 -0.93612091662E+02 -0.15577428129E+03  0.18572678225E+03  0.00000000000E+00 0. -1.
          1    1    1    2  502    0  0.34728722327E+02  0.23533751122E+02  0.54263518003E+02  0.68589000448E+02  0.00000000000E+00 0. -1.
         22    1    3    3    0    0 -0.29158225227E+01 -0.32170255774E+02  0.18898125292E+02  0.37424143505E+02  0.00000000000E+00 0. -1.
         22    1    3    3    0    0 -0.70095888571E+02  0.10224859631E+03 -0.44983007710E+01  0.12405016627E+03  0.00000000000E+00 0. -1.
</event>
<event>
 7    1  0.6607887E-006  0.3759344E+02  0.7818608E-02  0.1564512E+00
          2   -1    0    0  502    0  0.00000000000E+00  0.00000000000E+00  0.75477409758E+02  0.75477409758E+02  0.00000000000E+00 0. -1.
          1   -1    0    0  501    0 -0.00000000000E+00 -0.00000000000E+00 -0.13743870768E+03  0.13743870768E+03  0.00000000000E+00 0. -1.
         25    2    1    2    0    0 -0.76829291897E+00  0.18538660716E+02 -0.28658742552E+02  0.12958449376E+03  0.12500618098E+03 0.  0.
          2    1    1    2  501    0 -0.23845140603E+02 -0.34701458666E+02 -0.33625956705E+02  0.53884013661E+02  0.00000000000E+00 0. -1.
          1    1    1    2  502    0  0.24613433522E+02  0.16162797951E+02  0.32340133470E+00  0.29447610018E+02  0.00000000000E+00 0. -1.
         22    1    3    3    0    0 -0.28831904868E+02  0.56630138369E+02 -0.46791475070E+02  0.78915736385E+02  0.00000000000E+00 0.  1.
         22    1    3    3    0    0  0.28063611949E+02 -0.38091477653E+02  0.18132732517E+02  0.50668757375E+02  0.00000000000E+00 0.  1.
</event>
<event>
 7    1  0.6607887E-006  0.1305066E+03  0.7818608E-02  0.1301166E+00
          2   -1    0    0  502    0  0.00000000000E+00  0.00000000000E+00  0.12882313859E+04  0.12882313859E+04  0.00000000000E+00 0. -1.
          1   -1    0    0  501    0 -0.00000000000E+00 -0.00000000000E+00 -0.10065709262E+03  0.10065709262E+03  0.00000000000E+00 0. -1.
         25    2    1    2    0    0  0.99212745737E+02  0.87453380311E+02  0.61819374959E+03  0.64442232903E+03  0.12500145392E+03 0.  0.
          2    1    1    2  501    0 -0.47016096662E+02 -0.12279309360E+03 -0.35592119323E+02  0.13621841336E+03  0.00000000000E+00 0. -1.
          1    1    1    2  502    0 -0.52196649074E+02  0.35339713289E+02  0.60497266302E+03  0.60824773614E+03  0.00000000000E+00 0. -1.
         22    1    3    3    0    0  0.65483975974E+02  0.58767790582E+02  0.57788511037E+03  0.58454512667E+03  0.00000000000E+00 0.  1.
         22    1    3    3    0    0  0.33728769762E+02  0.28685589728E+02  0.40308639212E+02  0.59877202363E+02  0.00000000000E+00 0.  1.
</event>
<event>
 7    1  0.6607887E-006  0.3624552E+02  0.7818608E-02  0.1619648E+00
          2   -1    0    0  502    0  0.00000000000E+00  0.00000000000E+00  0.23090969030E+03  0.23090969030E+03  0.00000000000E+00 0. -1.
          1   -1    0    0  501    0 -0.00000000000E+00 -0.00000000000E+00 -0.14065801655E+04  0.14065801655E+04  0.00000000000E+00 0. -1.
         25    2    1    2    0    0  0.26106409071E+02 -0.40473643494E+02 -0.32990422911E+03  0.35606312665E+03  0.12499795744E+03 0.  0.
          2    1    1    2  501    0 -0.21357911373E+02  0.45729700563E+01 -0.10619783371E+04  0.10622029283E+04  0.00000000000E+00 0. -1.
          1    1    1    2  502    0 -0.47484976977E+01  0.35900673438E+02  0.21621209098E+03  0.21922380087E+03  0.00000000000E+00 0. -1.
         22    1    3    3    0    0  0.62817917699E+01 -0.10424152178E+02 -0.31787324481E+03  0.31810615150E+03  0.00000000000E+00 0.  1.
         22    1    3    3    0    0  0.19824617301E+02 -0.30049491316E+02 -0.12030984304E+02  0.37956975154E+02  0.00000000000E+00 0.  1.
</event>
<event>
 7    1  0.6607887E-006  0.1223730E+03  0.7818608E-02  0.1338142E+00
          2   -1    0    0  502    0  0.00000000000E+00  0.00000000000E+00  0.74344358063E+03  0.74344358063E+03  0.00000000000E+00 0. -1.
          1   -1    0    0  501    0 -0.00000000000E+00 -0.00000000000E+00 -0.52031152846E+03  0.52031152846E+03  0.00000000000E+00 0. -1.
         25    2    1    2    0    0  0.99293047424E+02  0.93123752992E+02 -0.43653058560E+03  0.47404270645E+03  0.12500557082E+03 0.  0.
          2    1    1    2  501    0 -0.85504469891E+02 -0.46832463909E+02 -0.27152799893E+02  0.10120063532E+03  0.00000000000E+00 0. -1.
          1    1    1    2  502    0 -0.13788577533E+02 -0.46291289083E+02  0.68681543767E+03  0.68851176732E+03  0.00000000000E+00 0. -1.
         22    1    3    3    0    0  0.93498897453E+02  0.12182301982E+03 -0.33792399805E+03  0.37118125012E+03  0.00000000000E+00 0.  1.
         22    1    3    3    0    0  0.57941499705E+01 -0.28699266826E+02 -0.98606587548E+02  0.10286145633E+03  0.00000000000E+00 0.  1.
</event>
<event>
 7    1  0.6607887E-006  0.6575424E+02  0.7818608E-02  0.1379790E+00
          2   -1    0    0  502    0  0.00000000000E+00  0.00000000000E+00  0.62705026744E+03  0.62705026744E+03  0.00000000000E+00 0. -1.
          1   -1    0    0  501    0 -0.00000000000E+00 -0.00000000000E+00 -0.54542370604E+03  0.54542370604E+03  0.00000000000E+00 0. -1.
         25    2    1    2    0    0  0.27386293229E+02  0.69840658453E+02  0.29497723292E+03  0.32903636546E+03  0.12500254085E+03 0.  0.
          2    1    1    2  501    0 -0.62449032644E+02 -0.10387641910E+02 -0.52268064660E+03  0.52650056326E+03  0.00000000000E+00 0. -1.
          1    1    1    2  502    0  0.35062739415E+02 -0.59453016544E+02  0.30932997507E+03  0.31693704477E+03  0.00000000000E+00 0. -1.
         22    1    3    3    0    0  0.27353961293E+02 -0.31569261257E+02  0.59984306792E+02  0.73095653196E+02  0.00000000000E+00 0. -1.
         22    1    3    3    0    0  0.32331935717E-01  0.10140991971E+03  0.23499292613E+03  0.25594071226E+03  0.00000000000E+00 0. -1.
</event>
<event>
 7    1  0.6607887E-006  0.1563489E+03  0.7818608E-02  0.1306747E+00
          2   -1    0    0  502    0  0.00000000000E+00  0.00000000000E+00  0.10248856234E+03  0.10248856234E+03  0.00000000000E+00 0. -1.
          1   -1    0    0  501    0 -0.00000000000E+00 -0.00000000000E+00 -0.23019406906E+04  0.23019406906E+04  0.00000000000E+00 0. -1.
         25    2    1    2    0    0 -0.16574413214E+03 -0.90395095014E+02 -0.41622712752E+03  0.47382746928E+03  0.12500023368E+03 0.  0.
          2    1    1    2  501    0  0.49585781515E+02 -0.63733105370E+01 -0.17786450186E+04  0.17793474846E+04  0.00000000000E+00 0. -1.
          1    1    1    2  502    0  0.11615835063E+03  0.96768405551E+02 -0.45799821011E+01  0.15125429901E+03  0.00000000000E+00 0. -1.
         22    1    3    3    0    0 -0.71665971124E+02 -0.40801154664E+02 -0.31983148449E+03  0.33029217991E+03  0.00000000000E+00 0.  1.
         22    1    3    3    0    0 -0.94078161017E+02 -0.49593940350E+02 -0.96395643030E+02  0.14353528937E+03  0.00000000000E+00 0.  1.
</event>
<event>
 7    1  0.6607887E-006  0.5566964E+02  0.7818608E-02  0.1481649E+00
          2   -1    0    0  502    0  0.00000000000E+00  0.00000000000E+00  0.10410828355E+03  0.10410828355E+03  0.00000000000E+00 0. -1.
          1   -1    0    0  501    0 -0.00000000000E+00 -0.00000000000E+00 -0.73535560721E+03  0.73535560721E+03  0.00000000000E+00 0. -1.
         25    2    1    2    0    0 -0.44573415095E+02  0.14916107821E+02 -0.21001584667E+02  0.13519056014E+03  0.12500456546E+03 0.  0.
          2    1    1    2  501    0  0.52879823094E+02  0.18610624039E+02 -0.64954092475E+03  0.65195555365E+03  0.00000000000E+00 0. -1.
          1    1    1    2  502    0 -0.83064079995E+01 -0.33526731860E+02  0.39295185755E+02  0.52317776965E+02  0.00000000000E+00 0. -1.
         22    1    3    3    0    0  0.24360907121E+02  0.11208159922E+02  0.36537338970E+02  0.45321670133E+02  0.00000000000E+00 0. -1.
         22    1    3    3    0    0 -0.68934322216E+02  0.37079478988E+01 -0.57538923638E+02  0.89868890003E+02  0.00000000000E+00 0. -1.
</event>
<event>
 7    1  0.6607887E-006  0.8855846E+02  0.7818608E-02  0.1436885E+00
          2   -1    0    0  502    0  0.00000000000E+00  0.00000000000E+00  0.97338007901E+03  0.97338007901E+03  0.00000000000E+00 0. -1.
          1   -1    0    0  501    0 -0.00000000000E+00 -0.00000000000E+00 -0.38123544704E+03  0.38123544704E+03  0.00000000000E+00 0. -1.
         25    2    1    2    0    0  0.36354886178E+02  0.10402301412E+03  0.32210298105E+01  0.16666641910E+03  0.12499942003E+03 0.  0.
          2    1    1    2  501    0  0.91381004990E+01 -0.28646286987E+02 -0.29656953610E+03  0.29808992667E+03  0.00000000000E+00 0. -1.
          1    1    1    2  502    0 -0.45492986677E+02 -0.75376727133E+02  0.88549313825E+03  0.88985918028E+03  0.00000000000E+00 0. -1.
         22    1    3    3    0    0  0.27289612858E+02  0.58329502240E+02  0.63530366182E+02  0.90460827040E+02  0.00000000000E+00 0. -1.
         22    1    3    3    0    0  0.90652733197E+01  0.45693511880E+02 -0.60309336371E+02  0.76205592064E+02  0.00000000000E+00 0. -1.
</event>
<event>
 7    1  0.6607887E-006  0.1102003E+03  0.7818608E-02  0.1376325E+00
          2   -1    0    0  502    0  0.00000000000E+00  0.00000000000E+00  0.54266966958E+03  0.54266966958E+03  0.00000000000E+00 0. -1.
          1   -1    0    0  501    0 -0.00000000000E+00 -0.00000000000E+00 -0.58847118483E+03  0.58847118483E+03  0.00000000000E+00 0. -1.
         25    2    1    2    0    0  0.68019836069E+02  0.34944544444E+02 -0.89881601676E+01  0.14681218619E+03  0.12500084682E+03 0.  0.
          2    1    1    2  501    0 -0.93124688238E+02 -0.64606579383E+02 -0.50346331541E+03  0.51606349186E+03  0.00000000000E+00 0. -1.
          1    1    1    2  502    0  0.25104852169E+02  0.29662034939E+02  0.46664996033E+03  0.46826517636E+03  0.00000000000E+00 0. -1.
         22    1    3    3    0    0  0.10436963268E+03  0.16323301700E+02 -0.83090924015E+01  0.10596467063E+03  0.00000000000E+00 0. -1.
         22    1    3    3    0    0 -0.36349796612E+02  0.18621242743E+02 -0.67906776605E+00  0.40847515567E+02  0.00000000000E+00 0. -1.
</event>
<event>
 7    1  0.6607887E-006  0.6214792E+02  0.7818608E-02  0.1425808E+00
          2   -1    0    0  502    0  0.00000000000E+00  0.00000000000E+00  0.29551448279E+04  0.29551448279E+04  0.00000000000E+00 0. -1.
          1   -1    0    0  501    0 -0.00000000000E+00 -0.00000000000E+00 -0.11150428084E+02  0.11150428084E+02  0.00000000000E+00 0. -1.
         25    2    1    2    0    0  0.78731836227E+01 -0.57910707648E+02  0.86565330874E+03  0.87657925042E+03  0.12497957535E+03 0.  0.
          2    1    1    2  501    0  0.38534306399E+02  0.53768381531E+02  0.19722794181E+03  0.20802594226E+03  0.00000000000E+00 0. -1.
          1    1    1    2  502    0 -0.46407490022E+02  0.41423261169E+01  0.18811131493E+04  0.18816900633E+04  0.00000000000E+00 0. -1.
         22    1    3    3    0    0 -0.39069634574E+02  0.21318700201E+01  0.10391163175E+03  0.11103426691E+03  0.00000000000E+00 0. -1.
         22    1    3    3    0    0  0.46942818196E+02 -0.60042577668E+02  0.76174167699E+03  0.76554498351E+03  0.00000000000E+00 0. -1.
</event>
<event>
 7    1  0.6607887E-006  0.9768751E+02  0.7818608E-02  0.1413435E+00
          2   -1    0    0  502    0  0.00000000000E+00  0.00000000000E+00  0.13226043490E+03  0.13226043490E+03  0.00000000000E+00 0. -1.
          1   -1    0    0  501    0 -0.00000000000E+00 -0.00000000000E+00 -0.62547885252E+03  0.62547885252E+03  0.00000000000E+00 0. -1.
         25    2    1    2    0    0 -0.49224766178E+02  0.74159130645E+02 -0.42685924292E+03  0.45360427002E+03  0.12500146500E+03 0.  0.
          2    1    1    2  501    0 -0.29090074109E+02 -0.14720080943E+02 -0.16302705059E+03  0.16625502223E+03  0.00000000000E+00 0. -1.
          1    1    1    2  502    0  0.78314840287E+02 -0.59439049702E+02  0.96667875889E+02  0.13787999517E+03  0.00000000000E+00 0. -1.
         22    1    3    3    0    0 -0.34832958452E+02  0.77506577947E+02 -0.12363784769E+03  0.15002307156E+03  0.00000000000E+00 0.  1.
         22    1    3    3    0    0 -0.14391807726E+02 -0.33474473012E+01 -0.30322139523E+03  0.30358119846E+03  0.00000000000E+00 0.  1.
</event>
<event>
 7    1  0.6607887E-006  0.6194891E+02  0.7818608E-02  0.1420754E+00
          2   -1    0    0  502    0  0.00000000000E+00  0.00000000000E+00  0.10476438657E+04  0.10476438657E+04  0.00000000000E+00 0. -1.
          1   -1    0    0  501    0 -0.00000000000E+00 -0.00000000000E+00 -0.53237637105E+02  0.53237637105E+02  0.00000000000E+00 0. -1.
         25    2    1    2    0    0  0.16375798005E+02  0.12981423202E+02  0.36277343965E+03  0.38427323846E+03  0.12499867670E+03 0.  0.
          2    1    1    2  501    0  0.27984958269E+02  0.39716274109E+02 -0.26185954971E+02  0.55192794422E+02  0.00000000000E+00 0. -1.
          1    1    1    2  502    0 -0.44360756273E+02 -0.52697697312E+02  0.65781874392E+03  0.66141546992E+03  0.00000000000E+00 0. -1.
         22    1    3    3    0    0 -0.75934239940E+01 -0.32382281660E+02  0.30579706152E+03  0.30760057719E+03  0.00000000000E+00 0. -1.
         22    1    3    3    0    0  0.23969221998E+02  0.45363704863E+02  0.56976378129E+02  0.76672661274E+02  0.00000000000E+00 0. -1.
</event>
<event>
 7    1  0.6607887E-006  0.3437696E+02  0.7818608E-02  0.1555267E+00
          2   -1    0    0  502    0  0.00000000000E+00  0.00000000000E+00  0.90755535339E+03  0.90755535339E+03  0.00000000000E+00 0. -1.
          1   -1    0    0  501    0 -0.00000000000E+00 -0.00000000000E+00 -0.14619432194E+02  0.14619432194E+02  0.00000000000E+00 0. -1.
         25    2    1    2    0    0  0.26151564944E+01 -0.88241272141E+01  0.59296085028E+03  0.60606208003E+03  0.12499588243E+03 0.  0.
          2    1    1    2  501    0 -0.36537324581E+02  0.49337949961E+01  0.41995105361E+02  0.55882978579E+02  0.00000000000E+00 0. -1.
          1    1    1    2  502    0  0.33922168087E+02  0.38903322180E+01  0.25797996555E+03  0.26022972697E+03  0.00000000000E+00 0. -1.
         22    1    3    3    0    0  0.42865116632E+02  0.33463107897E+02  0.42018889398E+03  0.42369317252E+03  0.00000000000E+00 0. -1.
         22    1    3    3    0    0 -0.40249960138E+02 -0.42287235111E+02  0.17277195630E+03  0.18236890752E+03  0.00000000000E+00 0. -1.
</event>
<event>
 7    1  0.6607887E-006  0.7467065E+02  0.7818608E-02  0.1355306E+00
          2   -1    0    0  502    0  0.00000000000E+00  0.00000000000E+00  0.38244679951E+03  0.38244679951E+03  0.00000000000E+00 0. -1.
          1   -1    0    0  501    0 -0.00000000000E+00 -0.00000000000E+00 -0.59811116871E+03  0.59811116871E+03  0.00000000000E+00 0. -1.
         25    2    1    2    0    0  0.27989969116E+01 -0.56642257211E+02 -0.39641313203E+02  0.14283553996E+03  0.12495750508E+03 0.  0.
          2    1    1    2  501    0 -0.66851097204E+02  0.14113256700E+02 -0.50005123848E+03  0.50469742849E+03  0.00000000000E+00 0. -1.
          1    1    1    2  502    0  0.64052100293E+02  0.42529000511E+02  0.32402818249E+03  0.33302499978E+03  0.00000000000E+00 0. -1.
         22    1    3    3    0    0  0.35074323477E+02  0.28097687223E+02 -0.23560678375E+02  0.50742425643E+02  0.00000000000E+00 0. -1.
         22    1    3    3    0    0 -0.32275326565E+02 -0.84739944434E+02 -0.16080634828E+02  0.92093114314E+02  0.00000000000E+00 0. -1.
</event>
<event>
 7    1  0.6607887E-006  0.1884807E+03  0.7818608E-02  0.1326746E+00
          2   -1    0    0  502    0  0.00000000000E+00  0.00000000000E+00  0.79380922140E+03  0.79380922140E+03  0.00000000000E+00 0. -1.
          1   -1    0    0  501    0 -0.00000000000E+00 -0.00000000000E+00 -0.36726615918E+03  0.36726615918E+03  0.00000000000E+00 0. -1.
         25    2    1    2    0    0  0.12370217282E+03 -0.17292356359E+03  0.31022528617E+03  0.39631985777E+03  0.12499966031E+03 0.  0.
          2    1    1    2  501    0 -0.23869270800E+02  0.25122291390E+02 -0.30514501202E+03  0.30710641474E+03  0.00000000000E+00 0. -1.
          1    1    1    2  502    0 -0.99832902019E+02  0.14780127220E+03  0.42146278807E+03  0.45764910807E+03  0.00000000000E+00 0. -1.
         22    1    3    3    0    0  0.72088243736E+02 -0.68134970912E+01  0.99980680543E+02  0.12344745890E+03  0.00000000000E+00 0. -1.
         22    1    3    3    0    0  0.51613929084E+02 -0.16611006650E+03  0.21024460563E+03  0.27287239887E+03  0.00000000000E+00 0. -1.
</event>
<event>
 7    1  0.6607887E-006  0.6970010E+02  0.7818608E-02  0.1373652E+00
          2   -1    0    0  502    0  0.00000000000E+00  0.00000000000E+00  0.18935275710E+04  0.18935275710E+04  0.00000000000E+00 0. -1.
          1   -1    0    0  501    0 -0.00000000000E+00 -0.00000000000E+00 -0.97026100892E+03  0.97026100892E+03  0.00000000000E+00 0. -1.
         25    2    1    2    0    0 -0.61227392782E+02 -0.92505637500E+02  0.44548624013E+03  0.47580417360E+03  0.12500213949E+03 0.  0.
          2    1    1    2  501    0  0.27590226130E+01  0.69575873924E+02 -0.95314325289E+03  0.95568325033E+03  0.00000000000E+00 0. -1.
          1    1    1    2  502    0  0.58468370169E+02  0.22929763577E+02  0.14309235748E+04  0.14323011559E+04  0.00000000000E+00 0. -1.
         22    1    3    3    0    0 -0.20453239130E+02 -0.10104228326E+02  0.20133513802E+01  0.22901615767E+02  0.00000000000E+00 0. -1.
         22    1    3    3    0    0 -0.40774153652E+02 -0.82401409175E+02  0.44347288875E+03  0.45290255783E+03  0.00000000000E+00 0. -1.
</event>
<event>
 7    1  0.6607887E-006  0.1839500E+03  0.7818608E-02  0.1277571E+00
          2   -1    0    0  502    0  0.00000000000E+00  0.00000000000E+00  0.60624770746E+03  0.60624770746E+03  0.00000000000E+00 0. -1.
          1   -1    0    0  501    0 -0.00000000000E+00 -0.00000000000E+00 -0.23304966319E+04  0.23304966319E+04  0.00000000000E+00 0. -1.
         25    2    1    2    0    0  0.14429283279E+03  0.18905518343E+03 -0.84219109131E+01  0.26880850802E+03  0.12499920568E+03 0.  0.
          2    1    1    2  501    0 -0.11492540380E+03 -0.14161658023E+03 -0.21864368046E+04  0.21940303108E+04  0.00000000000E+00 0. -1.
          1    1    1    2  502    0 -0.29367428997E+02 -0.47438603198E+02  0.47060979106E+03  0.47390552054E+03  0.00000000000E+00 0. -1.
         22    1    3    3    0    0  0.86460892079E+02  0.18631460288E+03  0.15894080235E+02  0.20601271537E+03  0.00000000000E+00 0.  1.
         22    1    3    3    0    0  0.57831940716E+02  0.27405805465E+01 -0.24315991148E+02  0.62795792648E+02  0.00000000000E+00 0.  1.
</event>
<event>
 7    1  0.6607887E-006  0.7069033E+02  0.7818608E-02  0.1363655E+00
          2   -1    0    0  502    0  0.00000000000E+00  0.00000000000E+00  0.48237607180E+03  0.48237607180E+03  0.00000000000E+00 0. -1.
          1   -1    0    0  501    0 -0.00000000000E+00 -0.00000000000E+00 -0.87453971287E+03  0.87453971287E+03  0.00000000000E+00 0. -1.
         25    2    1    2    0    0  0.71084581369E+02  0.10278844474E+03  0.15079271627E+03  0.23234026367E+03  0.12500029105E+03 0.  0.
          2    1    1    2  501    0 -0.60205989740E+02 -0.36395730363E+02 -0.82836368705E+03  0.83134578149E+03  0.00000000000E+00 0. -1.
          1    1    1    2  502    0 -0.10878591629E+02 -0.66392714377E+02  0.28540732971E+03  0.29322973950E+03  0.00000000000E+00 0. -1.
         22    1    3    3    0    0 -0.26759725150E+02 -0.64664049301E+01  0.39885166084E+02  0.48463633338E+02  0.00000000000E+00 0. -1.
         22    1    3    3    0    0  0.97844306519E+02  0.10925484967E+03  0.11090755018E+03  0.18387663033E+03  0.00000000000E+00 0. -1.
</event>
<event>
 7    1  0.6607887E-006  0.1135398E+03  0.7818608E-02  0.1382555E+00
          2   -1    0    0  502    0  0.00000000000E+00  0.00000000000E+00  0.51034709858E+03  0.51034709858E+03  0.00000000000E+00 0. -1.
          1   -1    0    0  501    0 -0.00000000000E+00 -0.00000000000E+00 -0.26161477667E+03  0.26161477667E+03  0.00000000000E+00 0. -1.
         25    2    1    2    0    0 -0.11285676228E+03  0.84096214651E+02  0.85523582464E+02  0.20675720185E+03  0.12500174099E+03 0.  0.
          2    1    1    2  501    0  0.98222024274E+02 -0.51372939199E+02 -0.18472459101E+03  0.21542961602E+03  0.00000000000E+00 0. -1.
          1    1    1    2  502    0  0.14634738002E+02 -0.32723275451E+02  0.34793333046E+03  0.34977505737E+03  0.00000000000E+00 0. -1.
         22    1    3    3    0    0  0.25468080435E+02  0.13114081463E+02  0.30475539430E+02  0.41825360216E+02  0.00000000000E+00 0. -1.
         22    1    3    3    0    0 -0.13832484271E+03  0.70982133188E+02  0.55048043033E+02  0.16493184163E+03  0.00000000000E+00 0. -1.
</event>
<event>
 7    1  0.6607887E-006  0.5880485E+02  0.7818608E-02  0.1538551E+00
          2   -1    0    0  502    0  0.00000000000E+00  0.00000000000E+00  0.64461902308E+02  0.64461902308E+02  0.00000000000E+00 0. -1.
          1   -1    0    0  501    0 -0.00000000000E+00 -0.00000000000E+00 -0.64780708491E+03  0.64780708491E+03  0.00000000000E+00 0. -1.
         25    2    1    2    0    0  0.48485127806E+02 -0.81049450413E+01 -0.17040786872E+03  0.21698369554E+03  0.12500633846E+03 0.  0.
          2    1    1    2  501    0  0.37332036957E+01 -0.21917190592E+02 -0.43164208768E+03  0.43221428934E+03  0.00000000000E+00 0. -1.
          1    1    1    2  502    0 -0.52218331502E+02  0.30022135634E+02  0.18704773800E+02  0.63071002337E+02  0.00000000000E+00 0. -1.
         22    1    3    3    0    0 -0.29160407349E+02  0.26083152121E+02 -0.97732890535E+02  0.10527287435E+03  0.00000000000E+00 0. -1.
         22    1    3    3    0    0  0.77645535155E+02 -0.34188097162E+02 -0.72674978188E+02  0.11171082119E+03  0.00000000000E+00 0. -1.
</event>
<event>
 7    1  0.6607887E-006  0.5711638E+02  0.7818608E-02  0.1515362E+00
          2   -1    0    0  502    0  0.00000000000E+00  0.00000000000E+00  0.18330690574E+04  0.18330690574E+04  0.00000000000E+00 0. -1.
          1   -1    0    0  501    0 -0.00000000000E+00 -0.00000000000E+00 -0.16625465137E+03  0.16625465137E+03  0.00000000000E+00 0. -1.
         25    2    1    2    0    0  0.29949430050E+02  0.31975129855E+02  0.34258133557E+03  0.36729519557E+03  0.12499764766E+03 0.  0.
          2    1    1    2  501    0  0.24169442792E+02 -0.11324358277E+02 -0.15216822994E+03  0.15449133716E+03  0.00000000000E+00 0. -1.
          1    1    1    2  502    0 -0.54118872842E+02 -0.20650771578E+02  0.14764013004E+04  0.14775371761E+04  0.00000000000E+00 0. -1.
         22    1    3    3    0    0 -0.33803871333E+02  0.55084578886E+02  0.16484200256E+03  0.17705902506E+03  0.00000000000E+00 0. -1.
         22    1    3    3    0    0  0.63753301383E+02 -0.23109449031E+02  0.17773933301E+03  0.19023617051E+03  0.00000000000E+00 0. -1.
</event>
<event>
 7    1  0.6607887E-006  0.2351538E+03  0.7818608E-02  0.1253180E+00
          2   -1    0    0  502    0  0.00000000000E+00  0.00000000000E+00  0.42512649082E+04  0.42512649082E+04  0.00000000000E+00 0. -1.
          1   -1    0    0  501    0 -0.00000000000E+00 -0.00000000000E+00 -0.67541654641E+03  0.67541654641E+03  0.00000000000E+00 0. -1.
         25    2    1    2    0    0 -0.10818712555E+03  0.17369108751E+03  0.86019419456E+01  0.23993632621E+03  0.12498959642E+03 0.  0.
          2    1    1    2  501    0  0.88540205645E+02 -0.22543920815E+03 -0.53335361209E+03  0.58577152553E+03  0.00000000000E+00 0. -1.
          1    1    1    2  502    0  0.19646919907E+02  0.51748120632E+02  0.41006000319E+04  0.41009736029E+04  0.00000000000E+00 0. -1.
         22    1    3    3    0    0 -0.73428909708E+02  0.18609844438E+03  0.20623962285E+02  0.20112131563E+03  0.00000000000E+00 0. -1.
         22    1    3    3    0    0 -0.34758215844E+02 -0.12407356865E+02 -0.12022020340E+02  0.38815010577E+02  0.00000000000E+00 0. -1.
</event>
<event>
 7    1  0.6607887E-006  0.8434209E+02  0.7818608E-02  0.1404600E+00
          2   -1    0    0  502    0  0.00000000000E+00  0.00000000000E+00  0.22556975855E+04  0.22556975855E+04  0.00000000000E+00 0. -1.
          1   -1    0    0  501    0 -0.00000000000E+00 -0.00000000000E+00 -0.72358882689E+02  0.72358882689E+02  0.00000000000E+00 0. -1.
         25    2    1    2    0    0 -0.26090453501E+02 -0.79568096536E+02  0.98561597954E+03  0.99703403661E+03  0.12500486906E+03 0.  0.
          2    1    1    2  501    0  0.40045701727E+02 -0.57749231994E+01 -0.58883484009E+02  0.71444192583E+02  0.00000000000E+00 0. -1.
          1    1    1    2  502    0 -0.13955248226E+02  0.85343019736E+02  0.12566062072E+04  0.12595782389E+04  0.00000000000E+00 0. -1.
         22    1    3    3    0    0  0.17253835879E+02 -0.26513294755E+02  0.77312673818E+03  0.77377361220E+03  0.00000000000E+00 0.  1.
         22    1    3    3    0    0 -0.43344289380E+02 -0.53054801781E+02  0.21248924136E+03  0.22326042441E+03  0.00000000000E+00 0.  1.
</event>
<event>
 7    1  0.6607887E-006  0.4824405E+03  0.7818608E-02  0.1165142E+00
          2   -1    0    0  502    0  0.00000000000E+00  0.00000000000E+00  0.12244016742E+04  0.12244016742E+04  0.00000000000E+00 0. -1.
          1   -1    0    0  501    0 -0.00000000000E+00 -0.00000000000E+00 -0.59910504003E+03  0.59910504003E+03  0.00000000000E+00 0. -1.
         25    2    1    2    0    0  0.42283648398E+03 -0.61580188340E+02  0.38710384583E+03  0.58996436710E+03  0.12500302083E+03 0.  0.
          2    1    1    2  501    0 -0.49176274623E+03  0.68232473876E+02 -0.37140603089E+03  0.62002315187E+03  0.00000000000E+00 0. -1.
          1    1    1    2  502    0  0.68926262250E+02 -0.66522855362E+01  0.60959881924E+03  0.61351919526E+03  0.00000000000E+00 0. -1.
         22    1    3    3    0    0  0.77175255293E+02  0.32731310323E+02  0.47779454604E+02  0.96489558955E+02  0.00000000000E+00 0. -1.
         22    1    3    3    0    0  0.34566122869E+03 -0.94311498663E+02  0.33932439123E+03  0.49347480815E+03  0.00000000000E+00 0. -1.
</event>
<event>
 7    1  0.6607887E-006  0.5299718E+02  0.7818608E-02  0.1534509E+00
          2   -1    0    0  502    0  0.00000000000E+00  0.00000000000E+00  0.79907587113E+02  0.79907587113E+02  0.00000000000E+00 0. -1.
          1   -1    0    0  501    0 -0.00000000000E+00 -0.00000000000E+00 -0.84515501612E+03  0.84515501612E+03  0.00000000000E+00 0. -1.
         25    2    1    2    0    0  0.11708556147E+02  0.37210843372E+02 -0.18633778981E+03  0.22774793383E+03  0.12500244918E+03 0.  0.
          2    1    1    2  501    0 -0.19392405293E+02  0.16295461083E+02 -0.62546328680E+03  0.62597598242E+03  0.00000000000E+00 0. -1.
          1    1    1    2  502    0  0.76838491465E+01 -0.53506304455E+02  0.46553647607E+02  0.71338686977E+02  0.00000000000E+00 0. -1.
         22    1    3    3    0    0 -0.17021740264E+02 -0.16968587019E+02 -0.15865227487E+03  0.16046250936E+03  0.00000000000E+00 0.  1.
         22    1    3    3    0    0  0.28730296411E+02  0.54179430391E+02 -0.27685514939E+02  0.67285424475E+02  0.00000000000E+00 0.  1.
</event>
<event>
 7    1  0.6607887E-006  0.5172955E+02  0.7818608E-02  0.1468432E+00
          2   -1    0    0  502    0  0.00000000000E+00  0.00000000000E+00  0.95894691383E+02  0.95894691383E+02  0.00000000000E+00 0. -1.
          1   -1    0    0  501    0 -0.00000000000E+00 -0.00000000000E+00 -0.88326029388E+03  0.88326029388E+03  0.00000000000E+00 0. -1.
         25    2    1    2    0    0  0.73096885796E+01  0.89250537751E+01 -0.52943326960E+03  0.54411329760E+03  0.12500642193E+03 0.  0.
          2    1    1    2  501    0  0.29195279268E+02  0.28550904586E+02 -0.33742004752E+03  0.33988204859E+03  0.00000000000E+00 0. -1.
          1    1    1    2  502    0 -0.36504967847E+02 -0.37475958361E+02  0.79487714628E+02  0.95159639077E+02  0.00000000000E+00 0. -1.
         22    1    3    3    0    0 -0.55853902640E+02  0.23687343335E+02 -0.25765188762E+03  0.26469840171E+03  0.00000000000E+00 0.  1.
         22    1    3    3    0    0  0.63163591220E+02 -0.14762289560E+02 -0.27178138199E+03  0.27941489589E+03  0.00000000000E+00 0.  1.
</event>
<event>
 7    1  0.6607887E-006  0.2112968E+03  0.7818608E-02  0.1321934E+00
          2   -1    0    0  502    0  0.00000000000E+00  0.00000000000E+00  0.19408074160E+04  0.19408074160E+04  0.00000000000E+00 0. -1.
          1   -1    0    0  501    0 -0.00000000000E+00 -0.00000000000E+00 -0.78273010581E+03  0.78273010581E+03  0.00000000000E+00 0. -1.
         25    2    1    2    0    0  0.11942053726E+03 -0.21104469001E+03 -0.70884391185E+02  0.28187252993E+03  0.12500560112E+03 0.  0.
          2    1    1    2  501    0 -0.15546649639E+02  0.28267114400E+02 -0.59989640504E+03  0.60076320198E+03  0.00000000000E+00 0. -1.
          1    1    1    2  502    0 -0.10387388762E+03  0.18277757561E+03  0.18288581064E+04  0.18409017899E+04  0.00000000000E+00 0. -1.
         22    1    3    3    0    0 -0.19760310246E+02 -0.72316755474E+02 -0.72632349332E+01  0.75318905761E+02  0.00000000000E+00 0. -1.
         22    1    3    3    0    0  0.13918084751E+03 -0.13872793454E+03 -0.63621156252E+02  0.20655362417E+03  0.00000000000E+00 0. -1.
</event>
<event>
 7    1  0.6607887E-006  0.7693313E+02  0.7818608E-02  0.1350949E+00
          2   -1    0    0  502    0  0.00000000000E+00  0.00000000000E+00  0.49599472925E+03  0.49599472925E+03  0.00000000000E+00 0. -1.
          1   -1    0    0  501    0 -0.00000000000E+00 -0.00000000000E+00 -0.79174512701E+02  0.79174512701E+02  0.00000000000E+00 0. -1.
         25    2    1    2    0    0 -0.69731191786E+01  0.28955666581E+00  0.12446018677E+03  0.17653399527E+03  0.12500082064E+03 0.  0.
          2    1    1    2  501    0 -0.49998527984E+02  0.58470964719E+02 -0.16866983659E+02  0.78760406636E+02  0.00000000000E+00 0. -1.
          1    1    1    2  502    0  0.56971647163E+02 -0.58760521385E+02  0.30922701344E+03  0.31987484005E+03  0.00000000000E+00 0. -1.
         22    1    3    3    0    0  0.16569146243E+02 -0.45276761066E+02  0.11456887400E+03  0.12430023568E+03  0.00000000000E+00 0. -1.
         22    1    3    3    0    0 -0.23542265422E+02  0.45566317732E+02  0.98913127699E+01  0.52233759592E+02  0.00000000000E+00 0. -1.
</event>
<event>
 7    1  0.6607887E-006  0.1667768E+03  0.7818608E-02  0.1362470E+00
          2   -1    0    0  502    0  0.00000000000E+00  0.00000000000E+00  0.26571063869E+04  0.26571063869E+04  0.00000000000E+00 0. -1.
          1   -1    0    0  501    0 -0.00000000000E+00 -0.00000000000E+00 -0.21921163503E+02  0.21921163503E+02  0.00000000000E+00 0. -1.
         25    2    1    2    0    0  0.12128352887E+03  0.12994506150E+03  0.19222900759E+04  0.19345326113E+04  0.12498749790E+03 0.  0.
          2    1    1    2  501    0 -0.93073037605E+02 -0.13574571108E+03  0.43474535234E+03  0.46485805337E+03  0.00000000000E+00 0. -1.
          1    1    1    2  502    0 -0.28210491265E+02  0.58006495830E+01  0.27814979515E+03  0.27963688579E+03  0.00000000000E+00 0. -1.
         22    1    3    3    0    0  0.78188487406E+02  0.14208028628E+03  0.17039227079E+04  0.17116228678E+04  0.00000000000E+00 0. -1.
         22    1    3    3    0    0  0.43095041464E+02 -0.12135224782E+02  0.21836736806E+03  0.22290974342E+03  0.00000000000E+00 0. -1.
</event>
<event>
 7    1  0.6607887E-006  0.7963744E+02  0.7818608E-02  0.1366560E+00
          2   -1    0    0  502    0  0.00000000000E+00  0.00000000000E+00  0.31049532778E+04  0.31049532778E+04  0.00000000000E+00 0. -1.
          1   -1    0    0  501    0 -0.00000000000E+00 -0.00000000000E+00 -0.23057525105E+04  0.23057525105E+04  0.00000000000E+00 0. -1.
         25    2    1    2    0    0 -0.12977627975E+03  0.45604522605E+02  0.36153509207E+03  0.40651528991E+03  0.12500161144E+03 0.  0.
          2    1    1    2  501    0  0.76334311788E+02 -0.22329855643E+02 -0.22822574503E+04  0.22836428397E+04  0.00000000000E+00 0. -1.
          1    1    1    2  502    0  0.53441967966E+02 -0.23274666962E+02  0.27199231256E+04  0.27205476587E+04  0.00000000000E+00 0. -1.
         22    1    3    3    0    0 -0.13055263132E+03 -0.37578816198E+01  0.21160143554E+03  0.24866298225E+03  0.00000000000E+00 0. -1.
         22    1    3    3    0    0  0.77635156438E+00  0.49362404225E+02  0.14993365653E+03  0.15785230766E+03  0.00000000000E+00 0. -1.
</event>
<event>
 7    1  0.6607887E-006  0.2485309E+02  0.7818608E-02  0.1667391E+00
          2   -1    0    0  502    0  0.00000000000E+00  0.00000000000E+00  0.29085581647E+03  0.29085581647E+03  0.00000000000E+00 0. -1.
          1   -1    0    0  501    0 -0.00000000000E+00 -0.00000000000E+00 -0.25566598634E+03  0.25566598634E+03  0.00000000000E+00 0. -1.
         25    2    1    2    0    0  0.29921596698E+02  0.90511702227E+00 -0.19718141035E+03  0.23537586709E+03  0.12500067614E+03 0.  0.
          2    1    1    2  501    0 -0.15059497536E+02  0.19035270334E+02 -0.35015377166E+02  0.42605241706E+02  0.00000000000E+00 0. -1.
          1    1    1    2  502    0 -0.14862099162E+02 -0.19940387356E+02  0.26738661765E+03  0.26854069401E+03  0.00000000000E+00 0. -1.
         22    1    3    3    0    0 -0.38032150740E+02  0.31555940536E+02 -0.11050417914E+03  0.12105121015E+03  0.00000000000E+00 0.  1.
         22    1    3    3    0    0  0.67953747438E+02 -0.30650823514E+02 -0.86677231218E+02  0.11432465694E+03  0.00000000000E+00 0.  1.
</event>
<event>
 7    1  0.6607887E-006  0.8603167E+02  0.7818608E-02  0.1360159E+00
          2   -1    0    0  502    0  0.00000000000E+00  0.00000000000E+00  0.56946301603E+03  0.56946301603E+03  0.00000000000E+00 0. -1.
          1   -1    0    0  501    0 -0.00000000000E+00 -0.00000000000E+00 -0.13533941598E+03  0.13533941598E+03  0.00000000000E+00 0. -1.
         25    2    1    2    0    0 -0.79953037646E+02  0.62859630515E+02  0.24906241627E+03  0.29665228410E+03  0.12500667616E+03 0.  0.
          2    1    1    2  501    0  0.26323914796E+02 -0.81946412460E+02 -0.91600267370E+02  0.12569316603E+03  0.00000000000E+00 0. -1.
          1    1    1    2  502    0  0.53629122850E+02  0.19086781945E+02  0.27666145114E+03  0.28245698188E+03  0.00000000000E+00 0. -1.
         22    1    3    3    0    0 -0.83085376928E+02  0.90096717322E+02  0.23676285068E+03  0.26660316164E+03  0.00000000000E+00 0. -1.
         22    1    3    3    0    0  0.31323392818E+01 -0.27237086806E+02  0.12299565590E+02  0.30049122462E+02  0.00000000000E+00 0. -1.
</event>
<event>
 7    1  0.6607887E-006  0.7346299E+02  0.7818608E-02  0.1354888E+00
          2   -1    0    0  502    0  0.00000000000E+00  0.00000000000E+00  0.12946482147E+04  0.12946482147E+04  0.00000000000E+00 0. -1.
          1   -1    0    0  501    0 -0.00000000000E+00 -0.00000000000E+00 -0.12593838126E+04  0.12593838126E+04  0.00000000000E+00 0. -1.
         25    2    1    2    0    0  0.19089417286E+02  0.11635165024E+03  0.31623986377E+03  0.35990883099E+03  0.12499841125E+03 0.  0.
          2    1    1    2  501    0 -0.47921920601E+02 -0.50603912938E+02 -0.12352186320E+04  0.12371832263E+04  0.00000000000E+00 0. -1.
          1    1    1    2  502    0  0.28832503314E+02 -0.65747737305E+02  0.95424317029E+03  0.95693997004E+03  0.00000000000E+00 0. -1.
         22    1    3    3    0    0  0.17265207399E+02  0.43273514132E+02  0.26869966083E+03  0.27270898801E+03  0.00000000000E+00 0. -1.
         22    1    3    3    0    0  0.18242098877E+01  0.73078136111E+02  0.47540202946E+02  0.87199842978E+02  0.00000000000E+00 0. -1.
</event>
<event>
 7    1  0.6607887E-006  0.6695490E+02  0.7818608E-02  0.1497956E+00
          2   -1    0    0  502    0  0.00000000000E+00  0.00000000000E+00  0.49504702618E+03  0.49504702618E+03  0.00000000000E+00 0. -1.
          1   -1    0    0  501    0 -0.00000000000E+00 -0.00000000000E+00 -0.14320035305E+04  0.14320035305E+04  0.00000000000E+00 0. -1.
         25    2    1    2    0    0  0.11967359071E+02  0.90021414827E+02 -0.27665325727E+02  0.15696614741E+03  0.12500371345E+03 0.  0.
          2    1    1    2  501    0 -0.16000355755E+02 -0.64706904101E+02 -0.13384760335E+04  0.13401347272E+04  0.00000000000E+00 0. -1.
          1    1    1    2  502    0  0.40329966840E+01 -0.25314510727E+02  0.42918485485E+03  0.42994968211E+03  0.00000000000E+00 0. -1.
         22    1    3    3    0    0  0.44972813354E+02  0.10772540474E+03 -0.16589777500E+02  0.11790902207E+03  0.00000000000E+00 0.  1.
         22    1    3    3    0    0 -0.33005454283E+02 -0.17703989917E+02 -0.11075548228E+02  0.39057125341E+02  0.00000000000E+00 0.  1.
</event>
<event>
 7    1  0.6607887E-006  0.8374255E+02  0.7818608E-02  0.1370458E+00
          2   -1    0    0  502    0  0.00000000000E+00  0.00000000000E+00  0.39411873113E+02  0.39411873113E+02  0.00000000000E+00 0. -1.
          1   -1    0    0  501    0 -0.00000000000E+00 -0.00000000000E+00 -0.19878782276E+04  0.19878782276E+04  0.00000000000E+00 0. -1.
         25    2    1    2    0    0  0.44272225999E+01 -0.10936570509E+03 -0.66765111344E+03  0.68801366125E+03  0.12499732414E+03 0.  0.
          2    1    1    2  501    0  0.37565539266E+02  0.38329570461E+02 -0.12500601432E+04  0.12512116876E+04  0.00000000000E+00 0. -1.
          1    1    1    2  502    0 -0.41992761866E+02  0.71036134630E+02 -0.30755097897E+02  0.88064751853E+02  0.00000000000E+00 0. -1.
         22    1    3    3    0    0  0.37951636647E+02 -0.66223149789E+02 -0.57805637974E+03  0.58307376072E+03  0.00000000000E+00 0. -1.
         22    1    3    3    0    0 -0.33524414047E+02 -0.43142555303E+02 -0.89594733700E+02  0.10493990052E+03  0.00000000000E+00 0. -1.
</event>
<event>
 7    1  0.6862237E-006  0.7817594E+02  0.7818608E-02  0.1412869E+00
          2   -1    0    0  502    0  0.00000000000E+00  0.00000000000E+00  0.22365270869E+04  0.22365270869E+04  0.00000000000E+00 0. -1.
          1   -1    0    0  501    0 -0.00000000000E+00 -0.00000000000E+00 -0.18327354225E+04  0.18327354225E+04  0.00000000000E+00 0. -1.
         25    2    1    2    0    0  0.83382033030E+02 -0.44293770318E+02 -0.79800438575E+02  0.17580202764E+03  0.12499496552E+03 0.  0.
          2    1    1    2  501    0 -0.53346168035E+01  0.40569651378E+02 -0.17039910769E+04  0.17044823099E+04  0.00000000000E+00 0. -1.
          1    1    1    2  502    0 -0.78047416227E+02  0.37241189405E+01  0.21875831798E+04  0.21889781719E+04  0.00000000000E+00 0. -1.
         22    1    3    3    0    0 -0.52716188660E+01  0.13716167817E+02  0.23574011461E+02  0.27778719218E+02  0.00000000000E+00 0.  1.
         22    1    3    3    0    0  0.88653651896E+02 -0.58009938135E+02 -0.10337445004E+03  0.14802330843E+03  0.00000000000E+00 0.  1.
</event>
<event>
 7    1  0.6607887E-006  0.9794514E+02  0.7818608E-02  0.1335044E+00
          2   -1    0    0  502    0  0.00000000000E+00  0.00000000000E+00  0.98445658531E+02  0.98445658531E+02  0.00000000000E+00 0. -1.
          1   -1    0    0  501    0 -0.00000000000E+00 -0.00000000000E+00 -0.19674770507E+04  0.19674770507E+04  0.00000000000E+00 0. -1.
         25    2    1    2    0    0  0.11090904998E+03 -0.99816938412E+02 -0.24098783286E+03  0.30978032873E+03  0.12499791167E+03 0.  0.
          2    1    1    2  501    0 -0.51870631753E+02  0.80891537865E+02 -0.16753837390E+04  0.16781372638E+04  0.00000000000E+00 0. -1.
          1    1    1    2  502    0 -0.59038418227E+02  0.18925400546E+02  0.47340179696E+02  0.78005116667E+02  0.00000000000E+00 0. -1.
         22    1    3    3    0    0  0.45672915236E+02 -0.34132666673E+02 -0.61434345561E+01  0.57348024452E+02  0.00000000000E+00 0. -1.
         22    1    3    3    0    0  0.65236134743E+02 -0.65684271738E+02 -0.23484439830E+03  0.25243230428E+03  0.00000000000E+00 0. -1.
</event>
<event>
 7    1  0.6607887E-006  0.7490964E+02  0.7818608E-02  0.1489039E+00
          2   -1    0    0  502    0  0.00000000000E+00  0.00000000000E+00  0.10551993004E+04  0.10551993004E+04  0.00000000000E+00 0. -1.
          1   -1    0    0  501    0 -0.00000000000E+00 -0.00000000000E+00 -0.10926369727E+03  0.10926369727E+03  0.00000000000E+00 0. -1.
         25    2    1    2    0    0  0.17569588157E+02 -0.82936650844E+02  0.25067210754E+03  0.29265501888E+03  0.12499310419E+03 0.  0.
          2    1    1    2  501    0  0.52337889825E+01  0.74331826353E+02 -0.72318460101E+02  0.10383916712E+03  0.00000000000E+00 0. -1.
          1    1    1    2  502    0 -0.22803377139E+02  0.86048244911E+01  0.76758195569E+03  0.76796881168E+03  0.00000000000E+00 0. -1.
         22    1    3    3    0    0  0.33600407072E+02 -0.53522096406E+02  0.25132603557E+03  0.25914933593E+03  0.00000000000E+00 0.  1.
         22    1    3    3    0    0 -0.16030818915E+02 -0.29414554438E+02 -0.65392803076E+00  0.33505682947E+02  0.00000000000E+00 0.  1.
</event>
<event>
 7    1  0.6607887E-006  0.1267950E+03  0.7818608E-02  0.1414771E+00
          2   -1    0    0  502    0  0.00000000000E+00  0.00000000000E+00  0.10878069482E+04  0.10878069482E+04  0.00000000000E+00 0. -1.
          1   -1    0    0  501    0 -0.00000000000E+00 -0.00000000000E+00 -0.74189896150E+03  0.74189896150E+03  0.00000000000E+00 0. -1.
         25    2    1    2    0    0 -0.58292509752E+02  0.13631594254E+03 -0.16125982223E+03  0.25220957829E+03  0.12499955292E+03 0.  0.
          2    1    1    2  501    0  0.18833791055E+02 -0.16225228991E+02 -0.53103997009E+03  0.53162150029E+03  0.00000000000E+00 0. -1.
          1    1    1    2  502    0  0.39458718698E+02 -0.12009071355E+03  0.10382077791E+04  0.10458748312E+04  0.00000000000E+00 0. -1.
         22    1    3    3    0    0 -0.11964698805E+02  0.10123922175E+03 -0.16503064648E+03  0.19397847385E+03  0.00000000000E+00 0.  1.
         22    1    3    3    0    0 -0.46327810947E+02  0.35076720788E+02  0.37708242537E+01  0.58231104437E+02  0.00000000000E+00 0.  1.
</event>
<event>
 7    1  0.6607887E-006  0.1941009E+03  0.7818608E-02  0.1320849E+00
          2   -1    0    0  502    0  0.00000000000E+00  0.00000000000E+00  0.19648106825E+04  0.19648106825E+04  0.00000000000E+00 0. -1.
          1   -1    0    0  501    0 -0.00000000000E+00 -0.00000000000E+00 -0.51434296725E+03  0.51434296725E+03  0.00000000000E+00 0. -1.
         25    2    1    2    0    0 -0.19253767386E+03 -0.18795794065E+02  0.54029585031E+03  0.58734019277E+03  0.12499943379E+03 0.  0.
          2    1    1    2  501    0  0.18664104332E+03  0.53761544178E+02 -0.47136903738E+03  0.50981756745E+03  0.00000000000E+00 0. -1.
          1    1    1    2  502    0  0.58966305382E+01 -0.34965750113E+02  0.13815409023E+04  0.13819958895E+04  0.00000000000E+00 0. -1.
         22    1    3    3    0    0 -0.11144416663E+03 -0.63583230821E+02  0.22833730612E+03  0.26191707635E+03  0.00000000000E+00 0.  1.
         22    1    3    3    0    0 -0.81093507233E+02  0.44787436756E+02  0.31195854419E+03  0.32542311641E+03  0.00000000000E+00 0.  1.
</event>
<event>
 7    1  0.6607887E-006  0.4939590E+02  0.7818608E-02  0.1576396E+00
          2   -1    0    0  502    0  0.00000000000E+00  0.00000000000E+00  0.26053491108E+02  0.26053491108E+02  0.00000000000E+00 0. -1.
          1   -1    0    0  501    0 -0.00000000000E+00 -0.00000000000E+00 -0.15013776028E+04  0.15013776028E+04  0.00000000000E+00 0. -1.
         25    2    1    2    0    0 -0.15534101605E+02 -0.41771698225E+02 -0.39002406618E+03  0.41198272471E+03  0.12499924068E+03 0.  0.
          2    1    1    2  501    0 -0.19896282915E+02  0.60831842610E+01 -0.10580431018E+04  0.10582476423E+04  0.00000000000E+00 0. -1.
          1    1    1    2  502    0  0.35430384520E+02  0.35688513964E+02 -0.27256943719E+02  0.57200726893E+02  0.00000000000E+00 0. -1.
         22    1    3    3    0    0 -0.32787666309E+02  0.61781985706E+01 -0.33623833413E+03  0.33788965439E+03  0.00000000000E+00 0. -1.
         22    1    3    3    0    0  0.17253564705E+02 -0.47949896795E+02 -0.53785732048E+02  0.74093070322E+02  0.00000000000E+00 0. -1.
</event>
<event>
 7    1  0.6607887E-006  0.1320943E+03  0.7818608E-02  0.1347455E+00
          2   -1    0    0  502    0  0.00000000000E+00  0.00000000000E+00  0.17325516735E+04  0.17325516735E+04  0.00000000000E+00 0. -1.
          1   -1    0    0  501    0 -0.00000000000E+00 -0.00000000000E+00 -0.80983684412E+02  0.80983684412E+02  0.00000000000E+00 0. -1.
         25    2    1    2    0    0  0.28196076061E+02  0.16137343748E+03  0.30455268914E+03  0.36771498644E+03  0.12500226303E+03 0.  0.
          2    1    1    2  501    0 -0.32837260596E+02 -0.12034247238E+03  0.30184251542E+02  0.12834206397E+03  0.00000000000E+00 0. -1.
          1    1    1    2  502    0  0.46411845344E+01 -0.41030965097E+02  0.13168310484E+04  0.13174783075E+04  0.00000000000E+00 0. -1.
         22    1    3    3    0    0  0.10590777664E+02  0.25668652880E+02 -0.59478475910E+01  0.28397556289E+02  0.00000000000E+00 0.  1.
         22    1    3    3    0    0  0.17605298398E+02  0.13570478460E+03  0.31050053673E+03  0.33931743015E+03  0.00000000000E+00 0.  1.
</event>
<event>
 7    1  0.6607887E-006  0.5281445E+02  0.7818608E-02  0.1532934E+00
          2   -1    0    0  502    0  0.00000000000E+00  0.00000000000E+00  0.34820640003E+03  0.34820640003E+03  0.00000000000E+00 0. -1.
          1   -1    0    0  501    0 -0.00000000000E+00 -0.00000000000E+00 -0.22966617180E+03  0.22966617180E+03  0.00000000000E+00 0. -1.
         25    2    1    2    0    0 -0.26339462179E+02  0.46717820565E+02 -0.34834889482E+02  0.14041152540E+03  0.12500241963E+03 0.  0.
          2    1    1    2  501    0  0.15035769203E+01 -0.53254781417E+02 -0.13645957040E+03  0.14649077391E+03  0.00000000000E+00 0. -1.
          1    1    1    2  502    0  0.24835885258E+02  0.65369608513E+01  0.28983468811E+03  0.29097027251E+03  0.00000000000E+00 0. -1.
         22    1    3    3    0    0 -0.31182025933E+01 -0.11143014409E+02  0.40790406914E+02  0.42399849690E+02  0.00000000000E+00 0. -1.
         22    1    3    3    0    0 -0.23221259585E+02  0.57860834974E+02 -0.75625296396E+02  0.98011675711E+02  0.00000000000E+00 0. -1.
</event>
<event>
 7    1  0.6607887E-006  0.9883888E+02  0.7818608E-02  0.1317888E+00
          2   -1    0    0  502    0  0.00000000000E+00  0.00000000000E+00  0.16451736078E+04  0.16451736078E+04  0.00000000000E+00 0. -1.
          1   -1    0    0  501    0 -0.00000000000E+00 -0.00000000000E+00 -0.15343070778E+03  0.15343070778E+03  0.00000000000E+00 0. -1.
         25    2    1    2    0    0  0.55019597514E+02 -0.17561795948E+02  0.72259178987E+03  0.73559484185E+03  0.12500121517E+03 0.  0.
          2    1    1    2  501    0  0.58099611312E+02 -0.41680948311E+02 -0.13346130085E+03  0.15140932967E+03  0.00000000000E+00 0. -1.
          1    1    1    2  502    0 -0.11311920883E+03  0.59242744259E+02  0.90261241103E+03  0.91160014408E+03  0.00000000000E+00 0. -1.
         22    1    3    3    0    0 -0.24939389469E+02 -0.62044826850E+00  0.45771292191E+03  0.45839227414E+03  0.00000000000E+00 0. -1.
         22    1    3    3    0    0  0.79958986983E+02 -0.16941347680E+02  0.26487886795E+03  0.27720256772E+03  0.00000000000E+00 0. -1.
</event>
<event>
 7    1  0.6607887E-006  0.1758698E+03  0.7818608E-02  0.1191438E+00
          2   -1    0    0  502    0  0.00000000000E+00  0.00000000000E+00  0.12276647417E+04  0.12276647417E+04  0.00000000000E+00 0. -1.
          1   -1    0    0  501    0 -0.00000000000E+00 -0.00000000000E+00 -0.10454271384E+04  0.10454271384E+04  0.00000000000E+00 0. -1.
         25    2    1    2    0    0 -0.40756852751E+02  0.46210893294E+02  0.58872762195E+02  0.15128316008E+03  0.12499609870E+03 0.  0.
          2    1    1    2  501    0 -0.35667694215E+02  0.13664307536E+03 -0.98540168776E+03  0.99546973871E+03  0.00000000000E+00 0. -1.
          1    1    1    2  502    0  0.76424546965E+02 -0.18285396865E+03  0.11087665289E+04  0.11263389813E+04  0.00000000000E+00 0. -1.
         22    1    3    3    0    0 -0.38878977303E+02  0.88054822747E+02  0.31641281206E+02  0.10132323209E+03  0.00000000000E+00 0.  1.
         22    1    3    3    0    0 -0.18778754473E+01 -0.41843929452E+02  0.27231480989E+02  0.49959927993E+02  0.00000000000E+00 0.  1.
</event>
<event>
 7    1  0.6607887E-006  0.6816922E+02  0.7818608E-02  0.1409701E+00
          2   -1    0    0  502    0  0.00000000000E+00  0.00000000000E+00  0.31285579032E+03  0.31285579032E+03  0.00000000000E+00 0. -1.
          1   -1    0    0  501    0 -0.00000000000E+00 -0.00000000000E+00 -0.52912706624E+03  0.52912706624E+03  0.00000000000E+00 0. -1.
         25    2    1    2    0    0 -0.58167380114E+02  0.87584624908E+01 -0.24909116937E+03  0.28483810203E+03  0.12500471567E+03 0.  0.
          2    1    1    2  501    0  0.48966273285E+02 -0.55967789062E+02 -0.25485184934E+03  0.26547985694E+03  0.00000000000E+00 0. -1.
          1    1    1    2  502    0  0.92011068286E+01  0.47209326572E+02  0.28767174279E+03  0.29166489758E+03  0.00000000000E+00 0. -1.
         22    1    3    3    0    0 -0.21260637672E+02 -0.37664350976E+02 -0.19023334718E+02  0.47249394837E+02  0.00000000000E+00 0. -1.
         22    1    3    3    0    0 -0.36906742441E+02  0.46422813466E+02 -0.23006783465E+03  0.23758870720E+03  0.00000000000E+00 0. -1.
</event>
<event>
 7    1  0.6607887E-006  0.6404012E+02  0.7818608E-02  0.1437762E+00
          2   -1    0    0  502    0  0.00000000000E+00  0.00000000000E+00  0.84347915554E+03  0.84347915554E+03  0.00000000000E+00 0. -1.
          1   -1    0    0  501    0 -0.00000000000E+00 -0.00000000000E+00 -0.55674613252E+03  0.55674613252E+03  0.00000000000E+00 0. -1.
         25    2    1    2    0    0 -0.64677585535E+02  0.59894982370E+02  0.16322208041E+03  0.22368980575E+03  0.12500033071E+03 0.  0.
          2    1    1    2  501    0  0.41291583425E+02 -0.11575751241E+01 -0.52416051550E+03  0.52578567958E+03  0.00000000000E+00 0. -1.
          1    1    1    2  502    0  0.23386002110E+02 -0.58737407246E+02  0.64767145810E+03  0.65074980272E+03  0.00000000000E+00 0. -1.
         22    1    3    3    0    0 -0.51202667863E+02  0.33812801903E+02  0.36808820020E+01  0.61470054996E+02  0.00000000000E+00 0.  1.
         22    1    3    3    0    0 -0.13474917671E+02  0.26082180467E+02  0.15954119841E+03  0.16221975076E+03  0.00000000000E+00 0.  1.
</event>
<event>
 7    1  0.6607887E-006  0.7503109E+02  0.7818608E-02  0.1408935E+00
          2   -1    0    0  502    0  0.00000000000E+00  0.00000000000E+00  0.29529714671E+03  0.29529714671E+03  0.00000000000E+00 0. -1.
          1   -1    0    0  501    0 -0.00000000000E+00 -0.00000000000E+00 -0.31855562595E+03  0.31855562595E+03  0.00000000000E+00 0. -1.
         25    2    1    2    0    0 -0.79606652986E+02  0.35342253966E+02  0.22161238544E+03  0.26893435554E+03  0.12500937601E+03 0.  0.
          2    1    1    2  501    0  0.43829602096E+02 -0.60888204537E+02 -0.27922369426E+03  0.28912675232E+03  0.00000000000E+00 0. -1.
          1    1    1    2  502    0  0.35777050890E+02  0.25545950571E+02  0.34352829584E+02  0.55791664802E+02  0.00000000000E+00 0. -1.
         22    1    3    3    0    0 -0.81312720726E+02  0.67561492251E+02  0.20914347415E+03  0.23434441868E+03  0.00000000000E+00 0. -1.
         22    1    3    3    0    0  0.17060677402E+01 -0.32219238285E+02  0.12468911294E+02  0.34589936855E+02  0.00000000000E+00 0. -1.
</event>
<event>
 7    1  0.6607887E-006  0.9505621E+02  0.7818608E-02  0.1420074E+00
          2   -1    0    0  502    0  0.00000000000E+00  0.00000000000E+00  0.25276890243E+03  0.25276890243E+03  0.00000000000E+00 0. -1.
          1   -1    0    0  501    0 -0.00000000000E+00 -0.00000000000E+00 -0.96894707133E+02  0.96894707133E+02  0.00000000000E+00 0. -1.
         25    2    1    2    0    0 -0.77594327599E+02  0.26525191249E+02  0.65068237546E+02  0.16304349700E+03  0.12499936372E+03 0.  0.
          2    1    1    2  501    0  0.10860741126E+03 -0.19363230722E+02  0.10451251518E+03  0.15196502990E+03  0.00000000000E+00 0. -1.
          1    1    1    2  502    0 -0.31013083666E+02 -0.71619605267E+01 -0.13706557429E+02  0.34655082652E+02  0.00000000000E+00 0. -1.
         22    1    3    3    0    0 -0.11463149544E+02 -0.39401022946E+02 -0.11133679118E+02  0.42518269219E+02  0.00000000000E+00 0.  1.
         22    1    3    3    0    0 -0.66131178055E+02  0.65926214195E+02  0.76201916663E+02  0.12052522778E+03  0.00000000000E+00 0.  1.
</event>
<event>
 7    1  0.6607887E-006  0.6021396E+02  0.7818608E-02  0.1537190E+00
          2   -1    0    0  502    0  0.00000000000E+00  0.00000000000E+00  0.23117325963E+04  0.23117325963E+04  0.00000000000E+00 0. -1.
          1   -1    0    0  501    0 -0.00000000000E+00 -0.00000000000E+00 -0.12262119173E+02  0.12262119173E+02  0.00000000000E+00 0. -1.
         25    2    1    2    0    0  0.16148281786E+02  0.76077505791E+02  0.12499182505E+04  0.12585582251E+04  0.12499847662E+03 0.  0.
          2    1    1    2  501    0 -0.10423902871E+02 -0.19267452309E+02  0.95993758667E+01  0.23917367885E+02  0.00000000000E+00 0. -1.
          1    1    1    2  502    0 -0.57243789152E+01 -0.56810053482E+02  0.10399528507E+04  0.10415191224E+04  0.00000000000E+00 0. -1.
         22    1    3    3    0    0  0.56556599226E+02  0.85358191141E+02  0.99946670458E+03  0.10046981454E+04  0.00000000000E+00 0.  1.
         22    1    3    3    0    0 -0.40408317440E+02 -0.92806853505E+01  0.25045154596E+03  0.25386007979E+03  0.00000000000E+00 0.  1.
</event>
<event>
 7    1  0.6607887E-006  0.6699291E+02  0.7818608E-02  0.1430168E+00
          2   -1    0    0  502    0  0.00000000000E+00  0.00000000000E+00  0.18636570211E+04  0.18636570211E+04  0.00000000000E+00 0. -1.
          1   -1    0    0  501    0 -0.00000000000E+00 -0.00000000000E+00 -0.86982205546E+03  0.86982205546E+03  0.00000000000E+00 0. -1.
         25    2    1    2    0    0 -0.62513599690E+02  0.24917460002E+02 -0.76095723155E+01  0.14217204734E+03  0.12500462189E+03 0.  0.
          2    1    1    2  501    0  0.35698496285E+02 -0.57000142508E+02 -0.79326472526E+03  0.79611074809E+03  0.00000000000E+00 0. -1.
          1    1    1    2  502    0  0.26815103405E+02  0.32082682507E+02  0.17947092632E+04  0.17951962811E+04  0.00000000000E+00 0. -1.
         22    1    3    3    0    0 -0.90460757547E+02  0.21029086540E+01  0.24642242949E+02  0.93780653753E+02  0.00000000000E+00 0.  1.
         22    1    3    3    0    0  0.27947157856E+02  0.22814551348E+02 -0.32251815265E+02  0.48391393587E+02  0.00000000000E+00 0.  1.
</event>
<event>
 7    1  0.6607887E-006  0.5568024E+02  0.7818608E-02  0.1448832E+00
          2   -1    0    0  502    0  0.00000000000E+00  0.00000000000E+00  0.28544533606E+03  0.28544533606E+03  0.00000000000E+00 0. -1.
          1   -1    0    0  501    0 -0.00000000000E+00 -0.00000000000E+00 -0.11288447976E+04  0.11288447976E+04  0.00000000000E+00 0. -1.
         25    2    1    2    0    0  0.35125024059E+02  0.16662599358E+02 -0.63056739983E+03  0.64401122198E+03  0.12499519501E+03 0.  0.
          2    1    1    2  501    0 -0.22279670517E+02  0.37657434018E+02 -0.48777178062E+03  0.48973030948E+03  0.00000000000E+00 0. -1.
          1    1    1    2  502    0 -0.12845353542E+02 -0.54320033376E+02  0.27493971894E+03  0.28054860218E+03  0.00000000000E+00 0. -1.
         22    1    3    3    0    0  0.41215971707E+02 -0.44178976319E+01 -0.59462378713E+02  0.72484816517E+02  0.00000000000E+00 0.  1.
         22    1    3    3    0    0 -0.60909476478E+01  0.21080496989E+02 -0.57110502112E+03  0.57152640546E+03  0.00000000000E+00 0.  1.
</event>
<event>
 7    1  0.6607887E-006  0.6799067E+02  0.7818608E-02  0.1367508E+00
          2   -1    0    0  502    0  0.00000000000E+00  0.00000000000E+00  0.38282919328E+04  0.38282919328E+04  0.00000000000E+00 0. -1.
          1   -1    0    0  501    0 -0.00000000000E+00 -0.00000000000E+00 -0.14149775221E+04  0.14149775221E+04  0.00000000000E+00 0. -1.
         25    2    1    2    0    0  0.67676484024E-01  0.43058442459E+01 -0.21990293712E+02  0.12699216503E+03  0.12499956835E+03 0.  0.
          2    1    1    2  501    0 -0.67987448001E+02 -0.66228152446E+00 -0.13393175706E+04  0.13410422390E+04  0.00000000000E+00 0. -1.
          1    1    1    2  502    0  0.67919771517E+02 -0.36435627214E+01  0.37746222750E+04  0.37752350509E+04  0.00000000000E+00 0. -1.
         22    1    3    3    0    0 -0.55828956392E+02  0.27944139196E+02  0.28314601612E-01  0.62431947663E+02  0.00000000000E+00 0.  1.
         22    1    3    3    0    0  0.55896632876E+02 -0.23638294950E+02 -0.22018608314E+02  0.64560217372E+02  0.00000000000E+00 0.  1.
</event>
<event>
 7    1  0.6607887E-006  0.6969391E+02  0.7818608E-02  0.1473571E+00
          2   -1    0    0  502    0  0.00000000000E+00  0.00000000000E+00  0.96324608038E+03  0.96324608038E+03  0.00000000000E+00 0. -1.
          1   -1    0    0  501    0 -0.00000000000E+00 -0.00000000000E+00 -0.56296502236E+03  0.56296502236E+03  0.00000000000E+00 0. -1.
         25    2    1    2    0    0  0.21465339683E+02 -0.56376006810E+02 -0.31809853321E+02  0.14239701451E+03  0.12500411201E+03 0.  0.
          2    1    1    2  501    0 -0.25960682529E+02 -0.13401259966E+02 -0.47406504329E+03  0.47496443664E+03  0.00000000000E+00 0. -1.
          1    1    1    2  502    0  0.44953428460E+01  0.69777266776E+02  0.90615595464E+03  0.90884965159E+03  0.00000000000E+00 0. -1.
         22    1    3    3    0    0 -0.24370772809E+02  0.26183647359E+02  0.12758704440E+02  0.37977657844E+02  0.00000000000E+00 0.  1.
         22    1    3    3    0    0  0.45836112492E+02 -0.82559654168E+02 -0.44568557761E+02  0.10441935666E+03  0.00000000000E+00 0.  1.
</event>
<event>
 7    1  0.6607887E-006  0.1741017E+03  0.7818608E-02  0.1193433E+00
          2   -1    0    0  502    0  0.00000000000E+00  0.00000000000E+00  0.11940028616E+04  0.11940028616E+04  0.00000000000E+00 0. -1.
          1   -1    0    0  501    0 -0.00000000000E+00 -0.00000000000E+00 -0.12232780614E+04  0.12232780614E+04  0.00000000000E+00 0. -1.
         25    2    1    2    0    0  0.25337514603E+03 -0.11802180316E+03 -0.66165385627E+03  0.72906892453E+03  0.12501024174E+03 0.  0.
          2    1    1    2  501    0 -0.13862163668E+03  0.38596923034E+02 -0.51379949876E+03  0.53356874491E+03  0.00000000000E+00 0. -1.
          1    1    1    2  502    0 -0.11475350935E+03  0.79424880123E+02  0.11461781552E+04  0.11546432536E+04  0.00000000000E+00 0. -1.
         22    1    3    3    0    0  0.14094817573E+03 -0.38037991369E+01 -0.37535848465E+03  0.40096739160E+03  0.00000000000E+00 0. -1.
         22    1    3    3    0    0  0.11242697030E+03 -0.11421800402E+03 -0.28629537162E+03  0.32810153292E+03  0.00000000000E+00 0. -1.
</event>
<event>
 7    1  0.6607887E-006  0.6411583E+02  0.7818608E-02  0.1419293E+00
          2   -1    0    0  502    0  0.00000000000E+00  0.00000000000E+00  0.22864876901E+04  0.22864876901E+04  0.00000000000E+00 0. -1.
          1   -1    0    0  501    0 -0.00000000000E+00 -0.00000000000E+00 -0.20002614635E+02  0.20002614635E+02  0.00000000000E+00 0. -1.
         25    2    1    2    0    0  0.38637896003E+02  0.42756480781E+02  0.70753194864E+03  0.72079341401E+03  0.12498273355E+03 0.  0.
          2    1    1    2  501    0 -0.41153124147E+02  0.23668165132E+02  0.31895961991E+02  0.57193654010E+02  0.00000000000E+00 0. -1.
          1    1    1    2  502    0  0.25152281438E+01 -0.66424645913E+02  0.15270571648E+04  0.15285032367E+04  0.00000000000E+00 0. -1.
         22    1    3    3    0    0  0.67841105630E+02  0.61255370782E+02  0.35528727018E+03  0.36685648476E+03  0.00000000000E+00 0. -1.
         22    1    3    3    0    0 -0.29203209627E+02 -0.18498890001E+02  0.35224467846E+03  0.35393692925E+03  0.00000000000E+00 0. -1.
</event>
<event>
 7    1  0.6607887E-006  0.8983939E+02  0.7818608E-02  0.1444628E+00
          2   -1    0    0  502    0  0.00000000000E+00  0.00000000000E+00  0.31838629455E+03  0.31838629455E+03  0.00000000000E+00 0. -1.
          1   -1    0    0  501    0 -0.00000000000E+00 -0.00000000000E+00 -0.12096244871E+04  0.12096244871E+04  0.00000000000E+00 0. -1.
         25    2    1    2    0    0 -0.10654624230E+03  0.29633072335E+02  0.62090457036E+02  0.17807514829E+03  0.12500125142E+03 0.  0.
          2    1    1    2  501    0  0.89237552462E+02 -0.76553562205E+01 -0.11488938242E+04  0.11523796963E+04  0.00000000000E+00 0. -1.
          1    1    1    2  502    0  0.17308689841E+02 -0.21977716114E+02  0.19556517459E+03  0.19755593705E+03  0.00000000000E+00 0. -1.
         22    1    3    3    0    0  0.17946205913E+02 -0.13943372840E+02  0.37581415275E+02  0.43918637580E+02  0.00000000000E+00 0.  1.
         22    1    3    3    0    0 -0.12449244822E+03  0.43576445174E+02  0.24509041761E+02  0.13415651071E+03  0.00000000000E+00 0.  1.
</event>
<event>
 7    1  0.6607887E-006  0.8743412E+02  0.7818608E-02  0.1357018E+00
          2   -1    0    0  502    0  0.00000000000E+00  0.00000000000E+00  0.58051529213E+03  0.58051529213E+03  0.00000000000E+00 0. -1.
          1   -1    0    0  501    0 -0.00000000000E+00 -0.00000000000E+00 -0.24658899283E+03  0.24658899283E+03  0.00000000000E+00 0. -1.
         25    2    1    2    0    0  0.79348459700E+02 -0.37609753993E+02  0.25645048342E+03  0.29849978389E+03  0.12499839554E+03 0.  0.
          2    1    1    2  501    0 -0.39194056449E+02  0.78784088791E+02 -0.21406485551E+03  0.23144517509E+03  0.00000000000E+00 0. -1.
          1    1    1    2  502    0 -0.40154403251E+02 -0.41174334798E+02  0.29154067139E+03  0.29715932598E+03  0.00000000000E+00 0. -1.
         22    1    3    3    0    0 -0.27921842285E+01  0.20073076721E+02  0.15308468147E+03  0.15442034970E+03  0.00000000000E+00 0. -1.
         22    1    3    3    0    0  0.82140643929E+02 -0.57682830714E+02  0.10336580195E+03  0.14407943419E+03  0.00000000000E+00 0. -1.
</event>
<event>
 7    1  0.6607887E-006  0.4662592E+02  0.7818608E-02  0.1524441E+00
          2   -1    0    0  502    0  0.00000000000E+00  0.00000000000E+00  0.10333956603E+04  0.10333956603E+04  0.00000000000E+00 0. -1.
          1   -1    0    0  501    0 -0.00000000000E+00 -0.00000000000E+00 -0.97208826427E+03  0.97208826427E+03  0.00000000000E+00 0. -1.
         25    2    1    2    0    0 -0.38193299583E+01 -0.39529478346E+02  0.10560308734E+03  0.16838748458E+03  0.12500066387E+03 0.  0.
          2    1    1    2  501    0  0.30751145766E+02  0.10778349698E+01 -0.93982946833E+03  0.94033303900E+03  0.00000000000E+00 0. -1.
          1    1    1    2  502    0 -0.26931815807E+02  0.38451643376E+02  0.89553377704E+03  0.89676340101E+03  0.00000000000E+00 0. -1.
         22    1    3    3    0    0 -0.58230481566E+02 -0.18713223533E+02  0.88671036319E+02  0.10771966580E+03  0.00000000000E+00 0. -1.
         22    1    3    3    0    0  0.54411151608E+02 -0.20816254813E+02  0.16932051020E+02  0.60667818780E+02  0.00000000000E+00 0. -1.
</event>
<event>
 7    1  0.6607887E-006  0.4422839E+02  0.7818608E-02  0.1490934E+00
          2   -1    0    0  502    0  0.00000000000E+00  0.00000000000E+00  0.33640294206E+04  0.33640294206E+04  0.00000000000E+00 0. -1.
          1   -1    0    0  501    0 -0.00000000000E+00 -0.00000000000E+00 -0.23140561813E+02  0.23140561813E+02  0.00000000000E+00 0. -1.
         25    2    1    2    0    0  0.10969089131E+02  0.20668300189E+01  0.12918006532E+04  0.12978822275E+04  0.12499902461E+03 0.  0.
          2    1    1    2  501    0  0.14532606788E+02  0.38058551175E+02  0.11060459021E+01  0.40753813504E+02  0.00000000000E+00 0. -1.
          1    1    1    2  502    0 -0.25501695919E+02 -0.40125381194E+02  0.20479821597E+04  0.20485339415E+04  0.00000000000E+00 0. -1.
         22    1    3    3    0    0  0.30141328604E+02 -0.52341199247E+02  0.87866890106E+03  0.88074237920E+03  0.00000000000E+00 0.  1.
         22    1    3    3    0    0 -0.19172239474E+02  0.54408029266E+02  0.41313175212E+03  0.41713984829E+03  0.00000000000E+00 0.  1.
</event>
<event>
 7    1  0.6607887E-006  0.5133913E+02  0.7818608E-02  0.1464504E+00
          2   -1    0    0  502    0  0.00000000000E+00  0.00000000000E+00  0.10205969878E+03  0.10205969878E+03  0.00000000000E+00 0. -1.
          1   -1    0    0  501    0 -0.00000000000E+00 -0.00000000000E+00 -0.41263292572E+03  0.41263292572E+03  0.00000000000E+00 0. -1.
         25    2    1    2    0    0  0.58903703522E+01 -0.24414276527E+02 -0.76023331360E+01  0.12772610076E+03  0.12500163193E+03 0.  0.
          2    1    1    2  501    0 -0.48096993055E+02  0.21241927374E+02 -0.33168079063E+03  0.33582240410E+03  0.00000000000E+00 0. -1.
          1    1    1    2  502    0  0.42206622702E+02  0.31723491533E+01  0.28709896830E+02  0.51144119653E+02  0.00000000000E+00 0. -1.
         22    1    3    3    0    0  0.34408941905E+02  0.12194666211E+02  0.44760039217E+02  0.57759382595E+02  0.00000000000E+00 0. -1.
         22    1    3    3    0    0 -0.28518571553E+02 -0.36608942739E+02 -0.52362372353E+02  0.69966718162E+02  0.00000000000E+00 0. -1.
</event>
<event>
 7    1  0.6607887E-006  0.8966319E+02  0.7818608E-02  0.1363603E+00
          2   -1    0    0  502    0  0.00000000000E+00  0.00000000000E+00  0.81768729866E+03  0.81768729866E+03  0.00000000000E+00 0. -1.
          1   -1    0    0  501    0 -0.00000000000E+00 -0.00000000000E+00 -0.49296472934E+03  0.49296472934E+03  0.00000000000E+00 0. -1.
         25    2    1    2    0    0 -0.43333176876E+02  0.36312847902E+02  0.57936240221E+02  0.14892564362E+03  0.12500340898E+03 0.  0.
          2    1    1    2  501    0  0.90706234953E+02 -0.12403263869E+02 -0.44178481210E+03  0.45117101217E+03  0.00000000000E+00 0. -1.
          1    1    1    2  502    0 -0.47373058077E+02 -0.23909584033E+02  0.70857114120E+03  0.71055537222E+03  0.00000000000E+00 0. -1.
         22    1    3    3    0    0  0.42427599729E+02  0.28135947911E+02  0.24730871264E+02  0.56598134043E+02  0.00000000000E+00 0.  1.
         22    1    3    3    0    0 -0.85760776605E+02  0.81768999903E+01  0.33205368957E+02  0.92327509578E+02  0.00000000000E+00 0.  1.
</event>
<event>
 7    1  0.6607887E-006  0.1888771E+03  0.7818608E-02  0.1269291E+00
          2   -1    0    0  502    0  0.00000000000E+00  0.00000000000E+00  0.28807644213E+03  0.28807644213E+03  0.00000000000E+00 0. -1.
          1   -1    0    0  501    0 -0.00000000000E+00 -0.00000000000E+00 -0.76023553699E+03  0.76023553699E+03  0.00000000000E+00 0. -1.
         25    2    1    2    0    0  0.13167909988E+03  0.96097450765E+02 -0.41944055133E+02  0.20966201332E+03  0.12499900272E+03 0.  0.
          2    1    1    2  501    0  0.54658921719E+02 -0.21787390939E+02 -0.58332681636E+03  0.58628701403E+03  0.00000000000E+00 0. -1.
          1    1    1    2  502    0 -0.18633802160E+03 -0.74310059826E+02  0.15311177663E+03  0.25236295177E+03  0.00000000000E+00 0. -1.
         22    1    3    3    0    0  0.11331198799E+03  0.12519644966E+03 -0.45998473877E+02  0.17501319159E+03  0.00000000000E+00 0.  1.
         22    1    3    3    0    0  0.18367111891E+02 -0.29098998899E+02  0.40544187435E+01  0.34648821734E+02  0.00000000000E+00 0.  1.
</event>
<event>
 7    1  0.6607887E-006  0.4330563E+02  0.7818608E-02  0.1568756E+00
          2   -1    0    0  502    0  0.00000000000E+00  0.00000000000E+00  0.19811456689E+04  0.19811456689E+04  0.00000000000E+00 0. -1.
          1   -1    0    0  501    0 -0.00000000000E+00 -0.00000000000E+00 -0.55764380522E+03  0.55764380522E+03  0.00000000000E+00 0. -1.
         25    2    1    2    0    0  0.71663802640E+01  0.27816845584E+02  0.43530396076E+03  0.45380779356E+03  0.12500736513E+03 0.  0.
          2    1    1    2  501    0 -0.20548447792E+02  0.14043968122E+02 -0.54779502929E+03  0.54836016072E+03  0.00000000000E+00 0. -1.
          1    1    1    2  502    0  0.13382067528E+02 -0.41860813706E+02  0.15359929322E+04  0.15366215199E+04  0.00000000000E+00 0. -1.
         22    1    3    3    0    0 -0.53136086785E+02 -0.12199602497E+02  0.15487245265E+03  0.16418815612E+03  0.00000000000E+00 0. -1.
         22    1    3    3    0    0  0.60302467049E+02  0.40016448081E+02  0.28043150811E+03  0.28961963744E+03  0.00000000000E+00 0. -1.
</event>
<event>
 7    1  0.6607887E-006  0.1327366E+03  0.7818608E-02  0.1430211E+00
          2   -1    0    0  502    0  0.00000000000E+00  0.00000000000E+00  0.16077719455E+03  0.16077719455E+03  0.00000000000E+00 0. -1.
          1   -1    0    0  501    0 -0.00000000000E+00 -0.00000000000E+00 -0.29597433658E+03  0.29597433658E+03  0.00000000000E+00 0. -1.
         25    2    1    2    0    0  0.12471268570E+03 -0.27536447710E+01 -0.17322740086E+03  0.24737331562E+03  0.12499995334E+03 0.  0.
          2    1    1    2  501    0  0.77604968049E+01 -0.19617335884E+02 -0.46213680930E+02  0.50801274422E+02  0.00000000000E+00 0. -1.
          1    1    1    2  502    0 -0.13247318250E+03  0.22370980655E+02  0.84243939767E+02  0.15857694109E+03  0.00000000000E+00 0. -1.
         22    1    3    3    0    0  0.94689020110E+02  0.29700486952E+02 -0.17708272796E+03  0.20299365014E+03  0.00000000000E+00 0. -1.
         22    1    3    3    0    0  0.30023665586E+02 -0.32454131723E+02  0.38553270933E+01  0.44379665480E+02  0.00000000000E+00 0. -1.
</event>
<event>
 7    1  0.6607887E-006  0.7323080E+02  0.7818608E-02  0.1388764E+00
          2   -1    0    0  502    0  0.00000000000E+00  0.00000000000E+00  0.13907075337E+04  0.13907075337E+04  0.00000000000E+00 0. -1.
          1   -1    0    0  501    0 -0.00000000000E+00 -0.00000000000E+00 -0.83047470779E+02  0.83047470779E+02  0.00000000000E+00 0. -1.
         25    2    1    2    0    0 -0.53692855342E+02  0.88111394297E+02  0.43075656179E+03  0.46024624959E+03  0.12501541590E+03 0.  0.
          2    1    1    2  501    0  0.62843072630E+02 -0.36053089239E+02 -0.48121024364E+02  0.86975341374E+02  0.00000000000E+00 0. -1.
          1    1    1    2  502    0 -0.91502172880E+01 -0.52058305058E+02  0.92502452554E+03  0.92653341356E+03  0.00000000000E+00 0. -1.
         22    1    3    3    0    0 -0.61393971684E+02  0.30151788114E+02  0.82734479707E+02  0.10734684075E+03  0.00000000000E+00 0.  1.
         22    1    3    3    0    0  0.77011163420E+01  0.57959606183E+02  0.34802208209E+03  0.35289940884E+03  0.00000000000E+00 0.  1.
</event>
<event>
 7    1  0.6607887E-006  0.6841154E+02  0.7818608E-02  0.1496069E+00
          2   -1    0    0  502    0  0.00000000000E+00  0.00000000000E+00  0.65988391364E+03  0.65988391364E+03  0.00000000000E+00 0. -1.
          1   -1    0    0  501    0 -0.00000000000E+00 -0.00000000000E+00 -0.97065515043E+03  0.97065515043E+03  0.00000000000E+00 0. -1.
         25    2    1    2    0    0  0.42139393518E+02  0.36918867615E+02 -0.15678997698E+03  0.20819679533E+03  0.12499630967E+03 0.  0.
          2    1    1    2  501    0 -0.64638135638E+02 -0.25094344172E+02 -0.78638098288E+03  0.78943198879E+03  0.00000000000E+00 0. -1.
          1    1    1    2  502    0  0.22498742120E+02 -0.11824523444E+02  0.63239972306E+03  0.63291027996E+03  0.00000000000E+00 0. -1.
         22    1    3    3    0    0 -0.10102515267E+02  0.56038780188E+02 -0.19707098105E+02  0.60255916020E+02  0.00000000000E+00 0. -1.
         22    1    3    3    0    0  0.52241908785E+02 -0.19119912573E+02 -0.13708287887E+03  0.14794087931E+03  0.00000000000E+00 0. -1.
</event>
<event>
 7    1  0.6607887E-006  0.5036883E+02  0.7818608E-02  0.1539918E+00
          2   -1    0    0  502    0  0.00000000000E+00  0.00000000000E+00  0.16651398413E+04  0.16651398413E+04  0.00000000000E+00 0. -1.
          1   -1    0    0  501    0 -0.00000000000E+00 -0.00000000000E+00 -0.32361786544E+02  0.32361786544E+02  0.00000000000E+00 0. -1.
         25    2    1    2    0    0  0.53997682611E+02 -0.48351491977E+02  0.35244094500E+03  0.38090948451E+03  0.12499519661E+03 0.  0.
          2    1    1    2  501    0 -0.24257930990E+02  0.85674110555E+01 -0.82739076767E+01  0.27024161344E+02  0.00000000000E+00 0. -1.
          1    1    1    2  502    0 -0.29739751621E+02  0.39784080921E+02  0.12886110174E+04  0.12895679820E+04  0.00000000000E+00 0. -1.
         22    1    3    3    0    0  0.49487688156E+02 -0.67119654047E+02  0.35185090487E+03  0.36159803442E+03  0.00000000000E+00 0. -1.
         22    1    3    3    0    0  0.45099944545E+01  0.18768162070E+02  0.59004013459E+00  0.19311450097E+02  0.00000000000E+00 0. -1.
</event>
<event>
 7    1  0.6607887E-006  0.4326598E+02  0.7818608E-02  0.1541868E+00
          2   -1    0    0  502    0  0.00000000000E+00  0.00000000000E+00  0.10107996803E+04  0.10107996803E+04  0.00000000000E+00 0. -1.
          1   -1    0    0  501    0 -0.00000000000E+00 -0.00000000000E+00 -0.25808127838E+02  0.25808127838E+02  0.00000000000E+00 0. -1.
         25    2    1    2    0    0 -0.33417047242E+02  0.57921908538E+02  0.50796997772E+03  0.52738055656E+03  0.12500042655E+03 0.  0.
          2    1    1    2  501    0  0.31079228556E+02 -0.28441917172E+02  0.12751948342E+02  0.44016738709E+02  0.00000000000E+00 0. -1.
          1    1    1    2  502    0  0.23378186860E+01 -0.29479991366E+02  0.46426962639E+03  0.46521051286E+03  0.00000000000E+00 0. -1.
         22    1    3    3    0    0  0.39070004975E+02  0.22932833846E+02  0.80262560789E+02  0.92165388413E+02  0.00000000000E+00 0.  1.
         22    1    3    3    0    0 -0.72487052217E+02  0.34989074691E+02  0.42770741693E+03  0.43521516815E+03  0.00000000000E+00 0.  1.
</event>
<event>
 7    1  0.6607887E-006  0.1072335E+03  0.7818608E-02  0.1336552E+00
          2   -1    0    0  502    0  0.00000000000E+00  0.00000000000E+00  0.13334488394E+04  0.13334488394E+04  0.00000000000E+00 0. -1.
          1   -1    0    0  501    0 -0.00000000000E+00 -0.00000000000E+00 -0.51945744161E+03  0.51945744161E+03  0.00000000000E+00 0. -1.
         25    2    1    2    0    0  0.99250418374E+01 -0.99562420947E+02  0.85511983136E+03  0.86997948432E+03  0.12499277987E+03 0.  0.
          2    1    1    2  501    0 -0.54332080275E+02 -0.13096037782E+02 -0.50266818802E+03  0.50576554687E+03  0.00000000000E+00 0. -1.
          1    1    1    2  502    0  0.44407038438E+02  0.11265845873E+03  0.46153975440E+03  0.47716124977E+03  0.00000000000E+00 0. -1.
         22    1    3    3    0    0  0.14848507259E+02 -0.12915145050E+03  0.70699155596E+03  0.71884465326E+03  0.00000000000E+00 0.  1.
         22    1    3    3    0    0 -0.49234654214E+01  0.29589029552E+02  0.14812827541E+03  0.15113483105E+03  0.00000000000E+00 0.  1.
</event>
<event>
 7    1  0.6607887E-006  0.5138814E+02  0.7818608E-02  0.1468912E+00
          2   -1    0    0  502    0  0.00000000000E+00  0.00000000000E+00  0.27274038172E+03  0.27274038172E+03  0.00000000000E+00 0. -1.
          1   -1    0    0  501    0 -0.00000000000E+00 -0.00000000000E+00 -0.86120505784E+03  0.86120505784E+03  0.00000000000E+00 0. -1.
         25    2    1    2    0    0  0.16285885800E+02  0.97757183819E+01 -0.85201968511E+02  0.15246397152E+03  0.12500036971E+03 0.  0.
          2    1    1    2  501    0 -0.51067473069E+02  0.11866373587E+02 -0.73968283195E+03  0.74153852868E+03  0.00000000000E+00 0. -1.
          1    1    1    2  502    0  0.34781587269E+02 -0.21642091969E+02  0.23642012435E+03  0.23994293937E+03  0.00000000000E+00 0. -1.
         22    1    3    3    0    0  0.43820902837E+02  0.50802229648E+02 -0.18760622673E+02  0.69664187541E+02  0.00000000000E+00 0. -1.
         22    1    3    3    0    0 -0.27535017037E+02 -0.41026511266E+02 -0.66441345838E+02  0.82799783977E+02  0.00000000000E+00 0. -1.
</event>
<event>
 7    1  0.1522148E-005  0.1248668E+03  0.7818608E-02  0.1380657E+00
          2   -1    0    0  502    0  0.00000000000E+00  0.00000000000E+00  0.16130088520E+04  0.16130088520E+04  0.00000000000E+00 0. -1.
          1   -1    0    0  501    0 -0.00000000000E+00 -0.00000000000E+00 -0.11819891679E+04  0.11819891679E+04  0.00000000000E+00 0. -1.
         25    2    1    2    0    0 -0.43774557982E+02 -0.91838538061E+02 -0.51288390312E+03  0.53760767588E+03  0.12498634362E+03 0.  0.
          2    1    1    2  501    0 -0.32277188535E+02 -0.73445115891E+01 -0.65388424856E+03  0.65472159676E+03  0.00000000000E+00 0. -1.
          1    1    1    2  502    0  0.76051746516E+02  0.99183049650E+02  0.15977878357E+04  0.16026687473E+04  0.00000000000E+00 0. -1.
         22    1    3    3    0    0 -0.60888283418E+02 -0.62236828193E+02 -0.15249605581E+03  0.17560140341E+03  0.00000000000E+00 0. -1.
         22    1    3    3    0    0  0.17113725437E+02 -0.29601709869E+02 -0.36038784730E+03  0.36200627247E+03  0.00000000000E+00 0. -1.
</event>
<event>
 7    1  0.6607887E-006  0.1050254E+03  0.7818608E-02  0.1275564E+00
          2   -1    0    0  502    0  0.00000000000E+00  0.00000000000E+00  0.11163817550E+03  0.11163817550E+03  0.00000000000E+00 0. -1.
          1   -1    0    0  501    0 -0.00000000000E+00 -0.00000000000E+00 -0.10974030485E+04  0.10974030485E+04  0.00000000000E+00 0. -1.
         25    2    1    2    0    0  0.34312626083E+02 -0.24104523121E+02 -0.11268153256E+03  0.17343766996E+03  0.12500045295E+03 0.  0.
          2    1    1    2  501    0  0.13866239810E+02 -0.98645178400E+02 -0.89620620386E+03  0.90172540369E+03  0.00000000000E+00 0. -1.
          1    1    1    2  502    0 -0.48178865893E+02  0.12274970152E+03  0.23122863371E+02  0.13387815039E+03  0.00000000000E+00 0. -1.
         22    1    3    3    0    0  0.41939673331E+02  0.14697342792E+02 -0.12447655775E+03  0.13217171223E+03  0.00000000000E+00 0. -1.
         22    1    3    3    0    0 -0.76270472482E+01 -0.38801865913E+02  0.11795025191E+02  0.41265957730E+02  0.00000000000E+00 0. -1.
</event>
<event>
 7    1  0.6607887E-006  0.1125533E+03  0.7818608E-02  0.1403624E+00
          2   -1    0    0  502    0  0.00000000000E+00  0.00000000000E+00  0.65463664669E+03  0.65463664669E+03  0.00000000000E+00 0. -1.
          1   -1    0    0  501    0 -0.00000000000E+00 -0.00000000000E+00 -0.28963999543E+04  0.28963999543E+04  0.00000000000E+00 0. -1.
         25    2    1    2    0    0  0.50397197278E+02 -0.11036467082E+03 -0.62959712576E+03  0.65325279082E+03  0.12500571943E+03 0.  0.
          2    1    1    2  501    0 -0.70238732907E+02  0.87131528253E+02 -0.22532223054E+04  0.22560000311E+04  0.00000000000E+00 0. -1.
          1    1    1    2  502    0  0.19841535628E+02  0.23233142571E+02  0.64105612358E+03  0.64178377903E+03  0.00000000000E+00 0. -1.
         22    1    3    3    0    0  0.74152382244E+02 -0.19328938305E+02 -0.21917624378E+03  0.23218615265E+03  0.00000000000E+00 0. -1.
         22    1    3    3    0    0 -0.23755184966E+02 -0.91035732519E+02 -0.41042088198E+03  0.42106663816E+03  0.00000000000E+00 0. -1.
</event>
<event>
 7    1  0.6607887E-006  0.1355768E+03  0.7818608E-02  0.1306130E+00
          2   -1    0    0  502    0  0.00000000000E+00  0.00000000000E+00  0.26176119066E+03  0.26176119066E+03  0.00000000000E+00 0. -1.
          1   -1    0    0  501    0 -0.00000000000E+00 -0.00000000000E+00 -0.79489449799E+03  0.79489449799E+03  0.00000000000E+00 0. -1.
         25    2    1    2    0    0  0.23568359260E+02  0.13659593939E+03  0.18051940031E+03  0.25966630840E+03  0.12500167843E+03 0.  0.
          2    1    1    2  501    0  0.34182782371E+02 -0.13146244849E+03 -0.72525112975E+03  0.73786180222E+03  0.00000000000E+00 0. -1.
          1    1    1    2  502    0 -0.57751141631E+02 -0.51334908978E+01  0.11598422109E+02  0.59127578032E+02  0.00000000000E+00 0. -1.
         22    1    3    3    0    0 -0.60441029353E+01  0.13112861541E+03  0.18737699647E+03  0.22878239392E+03  0.00000000000E+00 0. -1.
         22    1    3    3    0    0  0.29612462195E+02  0.54673239728E+01 -0.68575961530E+01  0.30883914481E+02  0.00000000000E+00 0. -1.
</event>
<event>
 7    1  0.6607887E-006  0.3250255E+03  0.7818608E-02  0.1122186E+00
          2   -1    0    0  502    0  0.00000000000E+00  0.00000000000E+00  0.25273317516E+04  0.25273317516E+04  0.00000000000E+00 0. -1.
          1   -1    0    0  501    0 -0.00000000000E+00 -0.00000000000E+00 -0.99083612369E+03  0.99083612369E+03  0.00000000000E+00 0. -1.
         25    2    1    2    0    0 -0.20190256056E+03 -0.37106323351E+03  0.93754786515E+03  0.10358924716E+04  0.12499858413E+03 0.  0.
          2    1    1    2  501    0  0.37366959948E+02  0.32093895898E+03 -0.90891359463E+03  0.96463569683E+03  0.00000000000E+00 0. -1.
          1    1    1    2  502    0  0.16453560061E+03  0.50124274528E+02  0.15078613574E+04  0.15176397069E+04  0.00000000000E+00 0. -1.
         22    1    3    3    0    0 -0.54767537617E+02 -0.22792682759E+03  0.46753736167E+03  0.52301176514E+03  0.00000000000E+00 0.  1.
         22    1    3    3    0    0 -0.14713502294E+03 -0.14313640592E+03  0.47001050347E+03  0.51288070645E+03  0.00000000000E+00 0.  1.
</event>
<event>
 7    1  0.6607887E-006  0.7191060E+02  0.7818608E-02  0.1452085E+00
          2   -1    0    0  502    0  0.00000000000E+00  0.00000000000E+00  0.57477215247E+03  0.57477215247E+03  0.00000000000E+00 0. -1.
          1   -1    0    0  501    0 -0.00000000000E+00 -0.00000000000E+00 -0.20031781050E+04  0.20031781050E+04  0.00000000000E+00 0. -1.
         25    2    1    2    0    0 -0.36129150387E+02 -0.31996129561E+02  0.86471100232E+02  0.15947340413E+03  0.12500179052E+03 0.  0.
          2    1    1    2  501    0  0.31594550703E+02  0.64761255303E+02 -0.19654104163E+04  0.19667308764E+04  0.00000000000E+00 0. -1.
          1    1    1    2  502    0  0.45345996845E+01 -0.32765125743E+02  0.45053336350E+03  0.45174597694E+03  0.00000000000E+00 0. -1.
         22    1    3    3    0    0 -0.76076010655E+02 -0.80729158475E+01  0.21364997397E+02  0.79430438002E+02  0.00000000000E+00 0.  1.
         22    1    3    3    0    0  0.39946860267E+02 -0.23923213713E+02  0.65106102835E+02  0.80042966124E+02  0.00000000000E+00 0.  1.
</event>
<event>
 7    1  0.6607887E-006  0.5606464E+02  0.7818608E-02  0.1526341E+00
          2   -1    0    0  502    0  0.00000000000E+00  0.00000000000E+00  0.37052508809E+03  0.37052508809E+03  0.00000000000E+00 0. -1.
          1   -1    0    0  501    0 -0.00000000000E+00 -0.00000000000E+00 -0.11028207943E+04  0.11028207943E+04  0.00000000000E+00 0. -1.
         25    2    1    2    0    0 -0.78173027676E+02  0.15041698799E+02 -0.59863707541E+03  0.61670803583E+03  0.12500071378E+03 0.  0.
          2    1    1    2  501    0  0.22276545468E+02 -0.11927933104E+02 -0.49265499015E+03  0.49330260428E+03  0.00000000000E+00 0. -1.
          1    1    1    2  502    0  0.55896482208E+02 -0.31137656953E+01  0.35899635934E+03  0.36333524228E+03  0.00000000000E+00 0. -1.
         22    1    3    3    0    0 -0.97764739994E+02  0.32953454507E+02 -0.30713270725E+03  0.32399749137E+03  0.00000000000E+00 0. -1.
         22    1    3    3    0    0  0.19591712317E+02 -0.17911755708E+02 -0.29150436816E+03  0.29271054446E+03  0.00000000000E+00 0. -1.
</event>
<event>
 7    1  0.6607887E-006  0.1369617E+03  0.7818608E-02  0.1339700E+00
          2   -1    0    0  502    0  0.00000000000E+00  0.00000000000E+00  0.38566976620E+03  0.38566976620E+03  0.00000000000E+00 0. -1.
          1   -1    0    0  501    0 -0.00000000000E+00 -0.00000000000E+00 -0.14141914600E+04  0.14141914600E+04  0.00000000000E+00 0. -1.
         25    2    1    2    0    0  0.23037771184E+02 -0.10553593065E+03 -0.51177925063E+03  0.53778409830E+03  0.12500065380E+03 0.  0.
          2    1    1    2  501    0 -0.27945839579E+02 -0.32121628838E+02 -0.87614684979E+03  0.87718075184E+03  0.00000000000E+00 0. -1.
          1    1    1    2  502    0  0.49080683951E+01  0.13765755948E+03  0.35940440661E+03  0.38489637607E+03  0.00000000000E+00 0. -1.
         22    1    3    3    0    0 -0.46325767161E+02 -0.69817428525E+02 -0.21040675830E+03  0.22647638722E+03  0.00000000000E+00 0.  1.
         22    1    3    3    0    0  0.69363538344E+02 -0.35718502122E+02 -0.30137249233E+03  0.31130771108E+03  0.00000000000E+00 0.  1.
</event>
<event>
 7    1  0.6607887E-006  0.1215941E+03  0.7818608E-02  0.1300966E+00
          2   -1    0    0  502    0  0.00000000000E+00  0.00000000000E+00  0.16043743924E+04  0.16043743924E+04  0.00000000000E+00 0. -1.
          1   -1    0    0  501    0 -0.00000000000E+00 -0.00000000000E+00 -0.11532867192E+04  0.11532867192E+04  0.00000000000E+00 0. -1.
         25    2    1    2    0    0 -0.48236584120E+02 -0.40045727217E+02  0.10415477070E+03  0.17436637608E+03  0.12499995412E+03 0.  0.
          2    1    1    2  501    0  0.11600572447E+03  0.41247767201E+02 -0.11140036546E+04  0.11207867098E+04  0.00000000000E+00 0. -1.
          1    1    1    2  502    0 -0.67769140349E+02 -0.12020399843E+01  0.14609365572E+04  0.14625080257E+04  0.00000000000E+00 0. -1.
         22    1    3    3    0    0  0.33884601829E+02 -0.45498554476E+02  0.51814201464E+02  0.76830958434E+02  0.00000000000E+00 0.  1.
         22    1    3    3    0    0 -0.82121185948E+02  0.54528272593E+01  0.52340569237E+02  0.97535417642E+02  0.00000000000E+00 0.  1.
</event>
<event>
 7    1  0.6607887E-006  0.9575392E+02  0.7818608E-02  0.1411178E+00
          2   -1    0    0  502    0  0.00000000000E+00  0.00000000000E+00  0.13745076325E+04  0.13745076325E+04  0.00000000000E+00 0. -1.
          1   -1    0    0  501    0 -0.00000000000E+00 -0.00000000000E+00 -0.16297445710E+04  0.16297445710E+04  0.00000000000E+00 0. -1.
         25    2    1    2    0    0 -0.29163851712E+02  0.62673491932E+02 -0.60207606453E+01  0.14297007586E+03  0.12500278475E+03 0.  0.
          2    1    1    2  501    0 -0.31554558660E+02  0.12251596291E+02 -0.15532842142E+04  0.15536529992E+04  0.00000000000E+00 0. -1.
          1    1    1    2  502    0  0.60718410372E+02 -0.74925088223E+02  0.13040680363E+04  0.13076291285E+04  0.00000000000E+00 0. -1.
         22    1    3    3    0    0  0.34814337452E+02  0.24028849975E+02  0.37456178334E+02  0.56501230241E+02  0.00000000000E+00 0.  1.
         22    1    3    3    0    0 -0.63978189164E+02  0.38644641956E+02 -0.43476938979E+02  0.86468845624E+02  0.00000000000E+00 0.  1.
</event>
<event>
 7    1  0.6607887E-006  0.1593110E+03  0.7818608E-02  0.1317184E+00
          2   -1    0    0  502    0  0.00000000000E+00  0.00000000000E+00  0.97858806620E+03  0.97858806620E+03  0.00000000000E+00 0. -1.
          1   -1    0    0  501    0 -0.00000000000E+00 -0.00000000000E+00 -0.93073393657E+02  0.93073393657E+02  0.00000000000E+00 0. -1.
         25    2    1    2    0    0  0.89629961271E+02  0.15949734968E+03  0.43247383986E+03  0.48593485881E+03  0.12500452122E+03 0.  0.
          2    1    1    2  501    0  0.68022118491E+01 -0.44122046852E+02 -0.46251843995E+02  0.64282642894E+02  0.00000000000E+00 0. -1.
          1    1    1    2  502    0 -0.96432173120E+02 -0.11537530283E+03  0.49929267668E+03  0.52144395816E+03  0.00000000000E+00 0. -1.
         22    1    3    3    0    0  0.21137317119E+02  0.11469918607E+03  0.13994886567E+03  0.18217676708E+03  0.00000000000E+00 0. -1.
         22    1    3    3    0    0  0.68492644152E+02  0.44798163612E+02  0.29252497419E+03  0.30375809173E+03  0.00000000000E+00 0. -1.
</event>
<event>
 7    1  0.6607887E-006  0.1090151E+03  0.7818608E-02  0.1301419E+00
          2   -1    0    0  502    0  0.00000000000E+00  0.00000000000E+00  0.35818540810E+03  0.35818540810E+03  0.00000000000E+00 0. -1.
          1   -1    0    0  501    0 -0.00000000000E+00 -0.00000000000E+00 -0.47906862434E+03  0.47906862434E+03  0.00000000000E+00 0. -1.
         25    2    1    2    0    0 -0.49315038426E+02  0.12365682173E+03  0.78220196274E+02  0.19866053261E+03  0.12499850213E+03 0.  0.
          2    1    1    2  501    0  0.90476980376E+02 -0.60619976937E+02 -0.40498793215E+03  0.41937583474E+03  0.00000000000E+00 0. -1.
          1    1    1    2  502    0 -0.41161941950E+02 -0.63036844792E+02  0.20588451963E+03  0.21921766510E+03  0.00000000000E+00 0. -1.
         22    1    3    3    0    0 -0.73685576845E+02  0.13082596402E+03  0.84769919478E+02  0.17242661147E+03  0.00000000000E+00 0.  1.
         22    1    3    3    0    0  0.24370538419E+02 -0.71691422866E+01 -0.65497232045E+01  0.26233921133E+02  0.00000000000E+00 0.  1.
</event>
<event>
 7    1  0.6607887E-006  0.4277442E+02  0.7818608E-02  0.1577810E+00
          2   -1    0    0  502    0  0.00000000000E+00  0.00000000000E+00  0.11091589759E+04  0.11091589759E+04  0.00000000000E+00 0. -1.
          1   -1    0    0  501    0 -0.00000000000E+00 -0.00000000000E+00 -0.94263167011E+01  0.94263167011E+01  0.00000000000E+00 0. -1.
         25    2    1    2    0    0  0.18180899233E+02 -0.33985728041E+02  0.78368655136E+03  0.79452825084E+03  0.12499982319E+03 0.  0.
          2    1    1    2  501    0 -0.38816351863E+02  0.22094433555E+02  0.15670246729E+03  0.16294335341E+03  0.00000000000E+00 0. -1.
          1    1    1    2  502    0  0.20635452629E+02  0.11891294486E+02  0.15934364059E+03  0.16111368839E+03  0.00000000000E+00 0. -1.
         22    1    3    3    0    0 -0.29779452871E+02 -0.29517040051E+02  0.66664779772E+03  0.66796508716E+03  0.00000000000E+00 0.  1.
         22    1    3    3    0    0  0.47960352104E+02 -0.44686879897E+01  0.11703875364E+03  0.12656316368E+03  0.00000000000E+00 0.  1.
</event>
<event>
 7    1  0.6607887E-006  0.5915243E+02  0.7818608E-02  0.1472691E+00
          2   -1    0    0  502    0  0.00000000000E+00  0.00000000000E+00  0.21986277428E+04  0.21986277428E+04  0.00000000000E+00 0. -1.
          1   -1    0    0  501    0 -0.00000000000E+00 -0.00000000000E+00 -0.29382920126E+03  0.29382920126E+03  0.00000000000E+00 0. -1.
         25    2    1    2    0    0 -0.25034371424E+02 -0.95027349127E+01  0.48346966252E+03  0.50008466353E+03  0.12499893759E+03 0.  0.
          2    1    1    2  501    0 -0.30640861846E+02 -0.16155064503E+02 -0.28391831809E+03  0.28602353027E+03  0.00000000000E+00 0. -1.
          1    1    1    2  502    0  0.55675233270E+02  0.25657799416E+02  0.17052471972E+04  0.17063487503E+04  0.00000000000E+00 0. -1.
         22    1    3    3    0    0  0.14447263973E+01  0.17544038100E+02  0.26786673278E+01  0.17806059808E+02  0.00000000000E+00 0.  1.
         22    1    3    3    0    0 -0.26479097821E+02 -0.27046773013E+02  0.48079099519E+03  0.48227860372E+03  0.00000000000E+00 0.  1.
</event>
<event>
 7    1  0.6607887E-006  0.6538998E+02  0.7818608E-02  0.1475925E+00
          2   -1    0    0  502    0  0.00000000000E+00  0.00000000000E+00  0.13242826970E+04  0.13242826970E+04  0.00000000000E+00 0. -1.
          1   -1    0    0  501    0 -0.00000000000E+00 -0.00000000000E+00 -0.90341831432E+03  0.90341831432E+03  0.00000000000E+00 0. -1.
         25    2    1    2    0    0  0.78760937208E+01  0.39342128288E+02  0.39024039173E+03  0.41173136625E+03  0.12500127484E+03 0.  0.
          2    1    1    2  501    0  0.90811925264E+01 -0.64839533657E+02 -0.89121775825E+03  0.89361945245E+03  0.00000000000E+00 0. -1.
          1    1    1    2  502    0 -0.16957286247E+02  0.25497405369E+02  0.92184174915E+03  0.92235019256E+03  0.00000000000E+00 0. -1.
         22    1    3    3    0    0  0.55080105276E+02  0.13113861962E+02  0.87559872565E+02  0.10427138944E+03  0.00000000000E+00 0.  1.
         22    1    3    3    0    0 -0.47204011555E+02  0.26228266326E+02  0.30268051916E+03  0.30745997681E+03  0.00000000000E+00 0.  1.
</event>
<event>
 7    1  0.6607887E-006  0.1047056E+03  0.7818608E-02  0.1370485E+00
          2   -1    0    0  502    0  0.00000000000E+00  0.00000000000E+00  0.46793772581E+03  0.46793772581E+03  0.00000000000E+00 0. -1.
          1   -1    0    0  501    0 -0.00000000000E+00 -0.00000000000E+00 -0.11822504079E+04  0.11822504079E+04  0.00000000000E+00 0. -1.
         25    2    1    2    0    0  0.14939186776E+02 -0.10573525720E+03 -0.15241787022E+03  0.22417350717E+03  0.12497771895E+03 0.  0.
          2    1    1    2  501    0  0.27760127478E+02  0.10144540913E+03 -0.99009691841E+03  0.99566746635E+03  0.00000000000E+00 0. -1.
          1    1    1    2  502    0 -0.42699314254E+02  0.42898480716E+01  0.42820210655E+03  0.43034716019E+03  0.00000000000E+00 0. -1.
         22    1    3    3    0    0 -0.53338173418E+02 -0.52788389368E+02 -0.92092479104E+02  0.11879646250E+03  0.00000000000E+00 0. -1.
         22    1    3    3    0    0  0.68277360194E+02 -0.52946867834E+02 -0.60325391117E+02  0.10537704466E+03  0.00000000000E+00 0. -1.
</event>
<event>
 7    1  0.6607887E-006  0.2479894E+02  0.7818608E-02  0.1674160E+00
          2   -1    0    0  502    0  0.00000000000E+00  0.00000000000E+00  0.12253982055E+02  0.12253982055E+02  0.00000000000E+00 0. -1.
          1   -1    0    0  501    0 -0.00000000000E+00 -0.00000000000E+00 -0.75996585348E+03  0.75996585348E+03  0.00000000000E+00 0. -1.
         25    2    1    2    0    0 -0.79339326179E+01 -0.40197553189E+01 -0.39169095288E+03  0.41124910387E+03  0.12499966859E+03 0.  0.
          2    1    1    2  501    0 -0.53418631260E+01 -0.22818720211E+02 -0.24025247703E+03  0.24139279652E+03  0.00000000000E+00 0. -1.
          1    1    1    2  502    0  0.13275795744E+02  0.26838475530E+02 -0.11576844152E+03  0.11957793514E+03  0.00000000000E+00 0. -1.
         22    1    3    3    0    0  0.47474105485E+02 -0.16600027329E+02 -0.29371845991E+03  0.29799309604E+03  0.00000000000E+00 0. -1.
         22    1    3    3    0    0 -0.55408038103E+02  0.12580272010E+02 -0.97972492976E+02  0.11325600783E+03  0.00000000000E+00 0. -1.
</event>
<event>
 7    1  0.6607887E-006  0.1184010E+03  0.7818608E-02  0.1368150E+00
          2   -1    0    0  502    0  0.00000000000E+00  0.00000000000E+00  0.19155209930E+04  0.19155209930E+04  0.00000000000E+00 0. -1.
          1   -1    0    0  501    0 -0.00000000000E+00 -0.00000000000E+00 -0.21278665749E+04  0.21278665749E+04  0.00000000000E+00 0. -1.
         25    2    1    2    0    0  0.64594086738E+02 -0.14177788239E+03  0.91508757994E+03  0.93663435939E+03  0.12500112104E+03 0.  0.
          2    1    1    2  501    0 -0.56600118619E+02  0.10392105821E+03 -0.21150605019E+04  0.21183682604E+04  0.00000000000E+00 0. -1.
          1    1    1    2  502    0 -0.79939681184E+01  0.37856824178E+02  0.98762734014E+03  0.98838494812E+03  0.00000000000E+00 0. -1.
         22    1    3    3    0    0 -0.32432652545E+02 -0.34976790883E+02  0.13177327566E+03  0.14014081857E+03  0.00000000000E+00 0. -1.
         22    1    3    3    0    0  0.97026739283E+02 -0.10680109151E+03  0.78331430428E+03  0.79649354083E+03  0.00000000000E+00 0. -1.
</event>
<event>
 7    1  0.6607887E-006  0.3626841E+02  0.7818608E-02  0.1549350E+00
          2   -1    0    0  502    0  0.00000000000E+00  0.00000000000E+00  0.96117673341E+03  0.96117673341E+03  0.00000000000E+00 0. -1.
          1   -1    0    0  501    0 -0.00000000000E+00 -0.00000000000E+00 -0.44416682042E+02  0.44416682042E+02  0.00000000000E+00 0. -1.
         25    2    1    2    0    0  0.53202339858E+02 -0.26342089855E+02  0.15691617287E+03  0.20921734358E+03  0.12499926752E+03 0.  0.
          2    1    1    2  501    0 -0.19667656797E+02  0.28642373334E+02 -0.10299958864E+01  0.34760080058E+02  0.00000000000E+00 0. -1.
          1    1    1    2  502    0 -0.33534683062E+02 -0.23002834792E+01  0.76087387438E+03  0.76161599181E+03  0.00000000000E+00 0. -1.
         22    1    3    3    0    0 -0.27486580922E+02  0.23605114083E+01 -0.30626688848E+01  0.27757234833E+02  0.00000000000E+00 0.  1.
         22    1    3    3    0    0  0.80688920781E+02 -0.28702601263E+02  0.15997884176E+03  0.18146010874E+03  0.00000000000E+00 0.  1.
</event>
<event>
 7    1  0.6607887E-006  0.5292296E+02  0.7818608E-02  0.1525808E+00
          2   -1    0    0  502    0  0.00000000000E+00  0.00000000000E+00  0.63598990660E+02  0.63598990660E+02  0.00000000000E+00 0. -1.
          1   -1    0    0  501    0 -0.00000000000E+00 -0.00000000000E+00 -0.12350830897E+04  0.12350830897E+04  0.00000000000E+00 0. -1.
         25    2    1    2    0    0  0.23052702415E+02  0.74243123372E+02 -0.12933814547E+03  0.19595857073E+03  0.12501174790E+03 0.  0.
          2    1    1    2  501    0 -0.22503807560E+02 -0.47384894649E+02 -0.10657034219E+04  0.10669936894E+04  0.00000000000E+00 0. -1.
          1    1    1    2  502    0 -0.54889485470E+00 -0.26858228723E+02  0.23557468411E+02  0.35729820230E+02  0.00000000000E+00 0. -1.
         22    1    3    3    0    0  0.71494836782E+02  0.22179993194E+02 -0.53603971211E+02  0.92069807832E+02  0.00000000000E+00 0. -1.
         22    1    3    3    0    0 -0.48442134368E+02  0.52063130178E+02 -0.75734174259E+02  0.10388876290E+03  0.00000000000E+00 0. -1.
</event>
<event>
 7    1  0.6607887E-006  0.7299771E+02  0.7818608E-02  0.1404628E+00
          2   -1    0    0  502    0  0.00000000000E+00  0.00000000000E+00  0.14998383008E+03  0.14998383008E+03  0.00000000000E+00 0. -1.
          1   -1    0    0  501    0 -0.00000000000E+00 -0.00000000000E+00 -0.22716494476E+04  0.22716494476E+04  0.00000000000E+00 0. -1.
         25    2    1    2    0    0  0.43706066458E+02 -0.14330277295E+02 -0.86357368621E+02  0.15873873942E+03  0.12499926074E+03 0.  0.
          2    1    1    2  501    0 -0.41242610084E+02  0.61002802884E+02 -0.21436433566E+04  0.21449077219E+04  0.00000000000E+00 0. -1.
          1    1    1    2  502    0 -0.24634563737E+01 -0.46672525589E+02  0.10833510776E+03  0.11798681636E+03  0.00000000000E+00 0. -1.
         22    1    3    3    0    0 -0.32875402733E+02 -0.11774205542E+02  0.93372917303E+01  0.36147047430E+02  0.00000000000E+00 0. -1.
         22    1    3    3    0    0  0.76581469191E+02 -0.25560717528E+01 -0.95694660352E+02  0.12259169199E+03  0.00000000000E+00 0. -1.
</event>
<event>
 7    1  0.6607887E-006  0.5889727E+02  0.7818608E-02  0.1430344E+00
          2   -1    0    0  502    0  0.00000000000E+00  0.00000000000E+00  0.16822240144E+04  0.16822240144E+04  0.00000000000E+00 0. -1.
          1   -1    0    0  501    0 -0.00000000000E+00 -0.00000000000E+00 -0.39885646613E+03  0.39885646613E+03  0.00000000000E+00 0. -1.
         25    2    1    2    0    0  0.36368900481E+02 -0.33864452157E+01 -0.16953939312E+03  0.21378097188E+03  0.12499813273E+03 0.  0.
          2    1    1    2  501    0 -0.58905299393E+01 -0.47130570328E+02 -0.20394226237E+03  0.20940018000E+03  0.00000000000E+00 0. -1.
          1    1    1    2  502    0 -0.30478370542E+02  0.50517015544E+02  0.16568492038E+04  0.16578993286E+04  0.00000000000E+00 0. -1.
         22    1    3    3    0    0 -0.18507497547E+02  0.48863226289E+02 -0.88971081955E+02  0.10317943484E+03  0.00000000000E+00 0. -1.
         22    1    3    3    0    0  0.54876398028E+02 -0.52249671505E+02 -0.80568311162E+02  0.11060153704E+03  0.00000000000E+00 0. -1.
</event>
<event>
 7    1  0.6607887E-006  0.4372780E+02  0.7818608E-02  0.1507173E+00
          2   -1    0    0  502    0  0.00000000000E+00  0.00000000000E+00  0.11224727115E+04  0.11224727115E+04  0.00000000000E+00 0. -1.
          1   -1    0    0  501    0 -0.00000000000E+00 -0.00000000000E+00 -0.74806202697E+03  0.74806202697E+03  0.00000000000E+00 0. -1.
         25    2    1    2    0    0  0.20813074483E+02 -0.33888805806E+02 -0.20944441644E+02  0.13287628162E+03  0.12504319795E+03 0.  0.
          2    1    1    2  501    0  0.22752219088E+02  0.28986343996E+02 -0.67019478342E+03  0.67120706144E+03  0.00000000000E+00 0. -1.
          1    1    1    2  502    0 -0.43565293571E+02  0.49024618094E+01  0.10655499096E+04  0.10664513954E+04  0.00000000000E+00 0. -1.
         22    1    3    3    0    0  0.10803910624E+02  0.43464941152E+02 -0.30657367852E+02  0.54275222687E+02  0.00000000000E+00 0.  1.
         22    1    3    3    0    0  0.10009163858E+02 -0.77353746958E+02  0.97129262078E+01  0.78601058931E+02  0.00000000000E+00 0.  1.
</event>
<event>
 7    1  0.6607887E-006  0.1051578E+03  0.7818608E-02  0.1305265E+00
          2   -1    0    0  502    0  0.00000000000E+00  0.00000000000E+00  0.62901024819E+03  0.62901024819E+03  0.00000000000E+00 0. -1.
          1   -1    0    0  501    0 -0.00000000000E+00 -0.00000000000E+00 -0.22538312345E+03  0.22538312345E+03  0.00000000000E+00 0. -1.
         25    2    1    2    0    0  0.71182557560E+02 -0.80791482663E+02  0.25313228702E+02  0.16690989034E+03  0.12499572702E+03 0.  0.
          2    1    1    2  501    0 -0.13710859979E+01  0.10912828557E+03 -0.13220648007E+03  0.17143341553E+03  0.00000000000E+00 0. -1.
          1    1    1    2  502    0 -0.69811471562E+02 -0.28336802902E+02  0.51052037611E+03  0.51605006577E+03  0.00000000000E+00 0. -1.
         22    1    3    3    0    0  0.78212064757E+02 -0.21802560292E+01 -0.12769327587E+02  0.79277590257E+02  0.00000000000E+00 0. -1.
         22    1    3    3    0    0 -0.70295071969E+01 -0.78611226634E+02  0.38082556289E+02  0.87632300083E+02  0.00000000000E+00 0. -1.
</event>
<event>
 7    1  0.6607887E-006  0.6685905E+02  0.7818608E-02  0.1456778E+00
          2   -1    0    0  502    0  0.00000000000E+00  0.00000000000E+00  0.25139725774E+03  0.25139725774E+03  0.00000000000E+00 0. -1.
          1   -1    0    0  501    0 -0.00000000000E+00 -0.00000000000E+00 -0.14813841172E+04  0.14813841172E+04  0.00000000000E+00 0. -1.
         25    2    1    2    0    0  0.86844447105E+02  0.47633404897E+02 -0.69493383776E+02  0.17396808019E+03  0.12499865312E+03 0.  0.
          2    1    1    2  501    0 -0.61880532603E+02 -0.24001866381E+02 -0.13573531418E+04  0.13589749231E+04  0.00000000000E+00 0. -1.
          1    1    1    2  502    0 -0.24963914503E+02 -0.23631538516E+02  0.19685966615E+03  0.19983837168E+03  0.00000000000E+00 0. -1.
         22    1    3    3    0    0  0.50159906394E+02  0.87774071638E+02 -0.63204302207E+02  0.11922704256E+03  0.00000000000E+00 0. -1.
         22    1    3    3    0    0  0.36684540711E+02 -0.40140666740E+02 -0.62890815693E+01  0.54741037627E+02  0.00000000000E+00 0. -1.
</event>
<event>
 7    1  0.6607887E-006  0.5828311E+02  0.7818608E-02  0.1409175E+00
          2   -1    0    0  502    0  0.00000000000E+00  0.00000000000E+00  0.66832731109E+03  0.66832731109E+03  0.00000000000E+00 0. -1.
          1   -1    0    0  501    0 -0.00000000000E+00 -0.00000000000E+00 -0.54446774078E+02  0.54446774078E+02  0.00000000000E+00 0. -1.
         25    2    1    2    0    0  0.43108881435E+02 -0.29492816427E+02  0.12563876838E+03  0.18476753633E+03  0.12500296189E+03 0.  0.
          2    1    1    2  501    0  0.80358438332E+01  0.57726472001E+02  0.13686032087E+02  0.59868420975E+02  0.00000000000E+00 0. -1.
          1    1    1    2  502    0 -0.51144725269E+02 -0.28233655574E+02  0.47455573655E+03  0.47813812787E+03  0.00000000000E+00 0. -1.
         22    1    3    3    0    0 -0.35508638088E+02 -0.25091943838E+02  0.86552078355E+02  0.96859337660E+02  0.00000000000E+00 0.  1.
         22    1    3    3    0    0  0.78617519524E+02 -0.44008725892E+01  0.39086690023E+02  0.87908198665E+02  0.00000000000E+00 0.  1.
</event>
<event>
 7    1  0.6607887E-006  0.7087613E+02  0.7818608E-02  0.1365254E+00
          2   -1    0    0  502    0  0.00000000000E+00  0.00000000000E+00  0.51633146344E+03  0.51633146344E+03  0.00000000000E+00 0. -1.
          1   -1    0    0  501    0 -0.00000000000E+00 -0.00000000000E+00 -0.26098968568E+03  0.26098968568E+03  0.00000000000E+00 0. -1.
         25    2    1    2    0    0 -0.59354276293E+02 -0.27158334266E+02  0.20596699646E+03  0.24961582267E+03  0.12500060025E+03 0.  0.
          2    1    1    2  501    0  0.54383306043E+02 -0.45451968135E+02 -0.22913330454E+03  0.23984473442E+03  0.00000000000E+00 0. -1.
          1    1    1    2  502    0  0.49709702496E+01  0.72610302401E+02  0.27850808585E+03  0.28786059203E+03  0.00000000000E+00 0. -1.
         22    1    3    3    0    0 -0.72909705821E+02 -0.66944081923E+02  0.14377773860E+03  0.17455478631E+03  0.00000000000E+00 0.  1.
         22    1    3    3    0    0  0.13555429528E+02  0.39785747657E+02  0.62189257861E+02  0.75061036361E+02  0.00000000000E+00 0.  1.
</event>
<event>
 7    1  0.6607887E-006  0.1177707E+03  0.7818608E-02  0.1263926E+00
          2   -1    0    0  502    0  0.00000000000E+00  0.00000000000E+00  0.54493999874E+03  0.54493999874E+03  0.00000000000E+00 0. -1.
          1   -1    0    0  501    0 -0.00000000000E+00 -0.00000000000E+00 -0.76308212872E+03  0.76308212872E+03  0.00000000000E+00 0. -1.
         25    2    1    2    0    0 -0.40967133791E+02  0.19581763706E+02 -0.13802269539E+03  0.19167368984E+03  0.12500714944E+03 0.  0.
          2    1    1    2  501    0 -0.26722038911E+02 -0.11595656601E+03 -0.58547806805E+03  0.59744837496E+03  0.00000000000E+00 0. -1.
          1    1    1    2  502    0  0.67689172702E+02  0.96374802307E+02  0.50535863347E+03  0.51890006267E+03  0.00000000000E+00 0. -1.
         22    1    3    3    0    0  0.31457188288E+02  0.10325362028E+02  0.26160773485E+01  0.33211619302E+02  0.00000000000E+00 0.  1.
         22    1    3    3    0    0 -0.72424322079E+02  0.92564016773E+01 -0.14063877274E+03  0.15846207053E+03  0.00000000000E+00 0.  1.
</event>
<event>
 7    1  0.6607887E-006  0.8299272E+02  0.7818608E-02  0.1461557E+00
          2   -1    0    0  502    0  0.00000000000E+00  0.00000000000E+00  0.10759535242E+04  0.10759535242E+04  0.00000000000E+00 0. -1.
          1   -1    0    0  501    0 -0.00000000000E+00 -0.00000000000E+00 -0.53555673453E+02  0.53555673453E+02  0.00000000000E+00 0. -1.
         25    2    1    2    0    0 -0.10229499559E+03  0.17968906322E+02  0.45856686631E+03  0.48651176447E+03  0.12499191322E+03 0.  0.
          2    1    1    2  501    0  0.81223356708E+02 -0.14956739999E+01  0.27545090117E+01  0.81283811645E+02  0.00000000000E+00 0. -1.
          1    1    1    2  502    0  0.21071638885E+02 -0.16473232322E+02  0.56107647541E+03  0.56171362153E+03  0.00000000000E+00 0. -1.
         22    1    3    3    0    0 -0.81837782813E+02  0.51197924185E+02  0.42245808263E+03  0.43334683766E+03  0.00000000000E+00 0. -1.
         22    1    3    3    0    0 -0.20457212780E+02 -0.33229017863E+02  0.36108783681E+02  0.53164926801E+02  0.00000000000E+00 0. -1.
</event>
<event>
 7    1  0.6607887E-006  0.1557866E+03  0.7818608E-02  0.1373589E+00
          2   -1    0    0  502    0  0.00000000000E+00  0.00000000000E+00  0.24233964231E+03  0.24233964231E+03  0.00000000000E+00 0. -1.
          1   -1    0    0  501    0 -0.00000000000E+00 -0.00000000000E+00 -0.11940025035E+04  0.11940025035E+04  0.00000000000E+00 0. -1.
         25    2    1    2    0    0 -0.85775729695E+02  0.10481941085E+03 -0.67691877370E+02  0.19634648729E+03  0.12500067245E+03 0.  0.
          2    1    1    2  501    0 -0.25134096513E+02  0.12595839395E+02 -0.10251139274E+04  0.10254993624E+04  0.00000000000E+00 0. -1.
          1    1    1    2  502    0  0.11090982621E+03 -0.11741525025E+03  0.14114294361E+03  0.21449629617E+03  0.00000000000E+00 0. -1.
         22    1    3    3    0    0 -0.99333754315E+02  0.47307919512E+02 -0.49120430534E+01  0.11013338350E+03  0.00000000000E+00 0. -1.
         22    1    3    3    0    0  0.13558024619E+02  0.57511491340E+02 -0.62779834317E+02  0.86213103787E+02  0.00000000000E+00 0. -1.
</event>
<event>
 7    1  0.6607887E-006  0.1464780E+03  0.7818608E-02  0.1244387E+00
          2   -1    0    0  502    0  0.00000000000E+00  0.00000000000E+00  0.19947203715E+03  0.19947203715E+03  0.00000000000E+00 0. -1.
          1   -1    0    0  501    0 -0.00000000000E+00 -0.00000000000E+00 -0.11891649022E+04  0.11891649022E+04  0.00000000000E+00 0. -1.
         25    2    1    2    0    0  0.51996862936E+02  0.93338694685E+02 -0.76644534298E+02  0.18142278486E+03  0.12499622614E+03 0.  0.
          2    1    1    2  501    0  0.26150277991E+02 -0.15086463197E+03 -0.10378741375E+04  0.10491075729E+04  0.00000000000E+00 0. -1.
          1    1    1    2  502    0 -0.78147140927E+02  0.57525937288E+02  0.12482580677E+03  0.15810658156E+03  0.00000000000E+00 0. -1.
         22    1    3    3    0    0 -0.26558566098E+02 -0.61860932206E+01  0.86534283063E+01  0.28609561409E+02  0.00000000000E+00 0. -1.
         22    1    3    3    0    0  0.78555429035E+02  0.99524787906E+02 -0.85297962604E+02  0.15281322346E+03  0.00000000000E+00 0. -1.
</event>
<event>
 7    1  0.6607887E-006  0.5436550E+02  0.7818608E-02  0.1481113E+00
          2   -1    0    0  502    0  0.00000000000E+00  0.00000000000E+00  0.42122086125E+03  0.42122086125E+03  0.00000000000E+00 0. -1.
          1   -1    0    0  501    0 -0.00000000000E+00 -0.00000000000E+00 -0.18208066890E+03  0.18208066890E+03  0.00000000000E+00 0. -1.
         25    2    1    2    0    0 -0.27830733517E+02 -0.91253726144E+01  0.13642865079E+02  0.12910258763E+03  0.12499411271E+03 0.  0.
          2    1    1    2  501    0 -0.25447755740E+02  0.24756201527E+02 -0.11955127130E+03  0.12471152414E+03  0.00000000000E+00 0. -1.
          1    1    1    2  502    0  0.53278489257E+02 -0.15630828913E+02  0.34504859857E+03  0.34948741838E+03  0.00000000000E+00 0. -1.
         22    1    3    3    0    0  0.13902026305E+02 -0.42981486997E+02  0.47529076772E+02  0.65572003924E+02  0.00000000000E+00 0. -1.
         22    1    3    3    0    0 -0.41732759823E+02  0.33856114383E+02 -0.33886211692E+02  0.63530583709E+02  0.00000000000E+00 0. -1.
</event>
<event>
 7    1  0.6607887E-006  0.8557977E+02  0.7818608E-02  0.1385512E+00
          2   -1    0    0  502    0  0.00000000000E+00  0.00000000000E+00  0.29152316527E+02  0.29152316527E+02  0.00000000000E+00 0. -1.
          1   -1    0    0  501    0 -0.00000000000E+00 -0.00000000000E+00 -0.26526129638E+04  0.26526129638E+04  0.00000000000E+00 0. -1.
         25    2    1    2    0    0 -0.48284156514E+02  0.28799521011E+02 -0.10373970376E+04  0.10464116315E+04  0.12499566625E+03 0.  0.
          2    1    1    2  501    0  0.93799875833E+02 -0.19621208385E+02 -0.15860292709E+04  0.15889217277E+04  0.00000000000E+00 0. -1.
          1    1    1    2  502    0 -0.45515719319E+02 -0.91783126259E+01 -0.34338753665E-01  0.46431921207E+02  0.00000000000E+00 0. -1.
         22    1    3    3    0    0 -0.79062698842E+02  0.54080980806E+01 -0.90563155353E+03  0.90909222228E+03  0.00000000000E+00 0. -1.
         22    1    3    3    0    0  0.30778542328E+02  0.23391422931E+02 -0.13176548411E+03  0.13731940918E+03  0.00000000000E+00 0. -1.
</event>
<event>
 7    1  0.6607887E-006  0.9992533E+02  0.7818608E-02  0.1356721E+00
          2   -1    0    0  502    0  0.00000000000E+00  0.00000000000E+00  0.25394034502E+03  0.25394034502E+03  0.00000000000E+00 0. -1.
          1   -1    0    0  501    0 -0.00000000000E+00 -0.00000000000E+00 -0.45747245627E+03  0.45747245627E+03  0.00000000000E+00 0. -1.
         25    2    1    2    0    0 -0.53978233477E+02 -0.62804256395E+02 -0.23987273266E+03  0.28288183371E+03  0.12500071863E+03 0.  0.
          2    1    1    2  501    0  0.10372368611E+03  0.54404561364E+02 -0.17537328795E+03  0.21088918769E+03  0.00000000000E+00 0. -1.
          1    1    1    2  502    0 -0.49745452634E+02  0.83996950315E+01  0.21171390936E+03  0.21764177988E+03  0.00000000000E+00 0. -1.
         22    1    3    3    0    0 -0.45531509543E+02 -0.10089346247E+03 -0.18417418144E+03  0.21487842665E+03  0.00000000000E+00 0.  1.
         22    1    3    3    0    0 -0.84467239337E+01  0.38089206070E+02 -0.55698551222E+02  0.68003407065E+02  0.00000000000E+00 0.  1.
</event>
<event>
 7    1  0.6607887E-006  0.6655667E+02  0.7818608E-02  0.1407240E+00
          2   -1    0    0  502    0  0.00000000000E+00  0.00000000000E+00  0.35743005519E+04  0.35743005519E+04  0.00000000000E+00 0. -1.
          1   -1    0    0  501    0 -0.00000000000E+00 -0.00000000000E+00 -0.84544356647E+01  0.84544356647E+01  0.00000000000E+00 0. -1.
         25    2    1    2    0    0 -0.48664964899E+01 -0.38305531801E+02  0.91554007091E+03  0.92483991847E+03  0.12499702721E+03 0.  0.
          2    1    1    2  501    0 -0.24253834208E+02  0.79220988082E+02  0.48492165078E+03  0.49194839244E+03  0.00000000000E+00 0. -1.
          1    1    1    2  502    0  0.29120330698E+02 -0.40915456281E+02  0.21653843945E+04  0.21659666766E+04  0.00000000000E+00 0. -1.
         22    1    3    3    0    0 -0.29889367162E+02  0.13586716376E+02  0.69760866035E+02  0.77100918031E+02  0.00000000000E+00 0. -1.
         22    1    3    3    0    0  0.25022870672E+02 -0.51892248177E+02  0.84577920487E+03  0.84773900044E+03  0.00000000000E+00 0. -1.
</event>
<event>
 7    1  0.6607887E-006  0.1281922E+03  0.7818608E-02  0.1259271E+00
          2   -1    0    0  502    0  0.00000000000E+00  0.00000000000E+00  0.18202509220E+04  0.18202509220E+04  0.00000000000E+00 0. -1.
          1   -1    0    0  501    0 -0.00000000000E+00 -0.00000000000E+00 -0.22305734573E+03  0.22305734573E+03  0.00000000000E+00 0. -1.
         25    2    1    2    0    0 -0.81439325019E+02 -0.96974558606E+02  0.21685813744E+03  0.28051734811E+03  0.12500440848E+03 0.  0.
          2    1    1    2  501    0  0.13043274167E+03  0.14881022057E+02 -0.16704642357E+03  0.21245859018E+03  0.00000000000E+00 0. -1.
          1    1    1    2  502    0 -0.48993416646E+02  0.82093536549E+02  0.15473818624E+04  0.15503323294E+04  0.00000000000E+00 0. -1.
         22    1    3    3    0    0  0.12034521128E+02 -0.62875839344E+02  0.14276628723E+03  0.15646217959E+03  0.00000000000E+00 0. -1.
         22    1    3    3    0    0 -0.93473846147E+02 -0.34098719261E+02  0.74091850203E+02  0.12405516852E+03  0.00000000000E+00 0. -1.
</event>
<event>
 7    1  0.6607887E-006  0.7276594E+02  0.7818608E-02  0.1381116E+00
          2   -1    0    0  502    0  0.00000000000E+00  0.00000000000E+00  0.60898118060E+03  0.60898118060E+03  0.00000000000E+00 0. -1.
          1   -1    0    0  501    0 -0.00000000000E+00 -0.00000000000E+00 -0.60001035938E+03  0.60001035938E+03  0.00000000000E+00 0. -1.
         25    2    1    2    0    0 -0.85290864564E+02 -0.65525668306E+02  0.87055071282E+02  0.18647367098E+03  0.12500279896E+03 0.  0.
          2    1    1    2  501    0  0.14577888466E+02  0.54681896894E+02 -0.54612096601E+03  0.54904529339E+03  0.00000000000E+00 0. -1.
          1    1    1    2  502    0  0.70712976098E+02  0.10843771412E+02  0.46803671595E+03  0.47347257560E+03  0.00000000000E+00 0. -1.
         22    1    3    3    0    0 -0.64443363108E+02 -0.10330401367E+03  0.64384811627E+02  0.13773187815E+03  0.00000000000E+00 0.  1.
         22    1    3    3    0    0 -0.20847501456E+02  0.37778345366E+02  0.22670259655E+02  0.48741792831E+02  0.00000000000E+00 0.  1.
</event>
<event>
 7    1  0.6607887E-006  0.2034230E+03  0.7818608E-02  0.1273722E+00
          2   -1    0    0  502    0  0.00000000000E+00  0.00000000000E+00  0.21756318064E+03  0.21756318064E+03  0.00000000000E+00 0. -1.
          1   -1    0    0  501    0 -0.00000000000E+00 -0.00000000000E+00 -0.17049911072E+04  0.17049911072E+04  0.00000000000E+00 0. -1.
         25    2    1    2    0    0  0.99869410946E+02 -0.14557539491E+03 -0.72026407394E+02  0.22799010703E+03  0.12500236277E+03 0.  0.
          2    1    1    2  501    0 -0.40387790261E+01 -0.52191596460E+02 -0.14677258383E+04  0.14686590519E+04  0.00000000000E+00 0. -1.
          1    1    1    2  502    0 -0.95830631920E+02  0.19776699137E+03  0.52324319093E+02  0.22590512889E+03  0.00000000000E+00 0. -1.
         22    1    3    3    0    0  0.12444582203E+03 -0.85341692699E+02 -0.56332339967E+02  0.16106923872E+03  0.00000000000E+00 0. -1.
         22    1    3    3    0    0 -0.24576411089E+02 -0.60233702208E+02 -0.15694067427E+02  0.66920868315E+02  0.00000000000E+00 0. -1.
</event>
<event>
 7    1  0.6607887E-006  0.9958416E+02  0.7818608E-02  0.1332789E+00
          2   -1    0    0  502    0  0.00000000000E+00  0.00000000000E+00  0.19374570523E+04  0.19374570523E+04  0.00000000000E+00 0. -1.
          1   -1    0    0  501    0 -0.00000000000E+00 -0.00000000000E+00 -0.10063471562E+04  0.10063471562E+04  0.00000000000E+00 0. -1.
         25    2    1    2    0    0  0.48205560340E+01 -0.11590487116E+03  0.13049071418E+03  0.21473116012E+03  0.12499787087E+03 0.  0.
          2    1    1    2  501    0 -0.56828192421E+02  0.81802197772E+02 -0.96110449647E+03  0.96625198377E+03  0.00000000000E+00 0. -1.
          1    1    1    2  502    0  0.52007636387E+02  0.34102673385E+02  0.17617236784E+04  0.17628210646E+04  0.00000000000E+00 0. -1.
         22    1    3    3    0    0 -0.30979716845E+01  0.27033226883E+02  0.24400509929E+02  0.36548292286E+02  0.00000000000E+00 0. -1.
         22    1    3    3    0    0  0.79185277185E+01 -0.14293809804E+03  0.10609020425E+03  0.17818286784E+03  0.00000000000E+00 0. -1.
</event>
<event>
 7    1  0.6607887E-006  0.7401504E+02  0.7818608E-02  0.1366533E+00
          2   -1    0    0  502    0  0.00000000000E+00  0.00000000000E+00  0.18662082276E+04  0.18662082276E+04  0.00000000000E+00 0. -1.
          1   -1    0    0  501    0 -0.00000000000E+00 -0.00000000000E+00 -0.62851960127E+02  0.62851960127E+02  0.00000000000E+00 0. -1.
         25    2    1    2    0    0 -0.11251972492E+03  0.32454526072E+02  0.48997151814E+03  0.51904710947E+03  0.12499531390E+03 0.  0.
          2    1    1    2  501    0  0.60356863700E+02  0.17098592122E+02 -0.26570870931E+02  0.68127263487E+02  0.00000000000E+00 0. -1.
          1    1    1    2  502    0  0.52162861222E+02 -0.49553118194E+02  0.13399556202E+04  0.13418858148E+04  0.00000000000E+00 0. -1.
         22    1    3    3    0    0 -0.99957424583E+02  0.75683090768E+02  0.38264701480E+03  0.40266382367E+03  0.00000000000E+00 0.  1.
         22    1    3    3    0    0 -0.12562300339E+02 -0.43228564695E+02  0.10732450334E+03  0.11638328580E+03  0.00000000000E+00 0.  1.
</event>
<event>
 7    1  0.6607887E-006  0.4848570E+02  0.7818608E-02  0.1502789E+00
          2   -1    0    0  502    0  0.00000000000E+00  0.00000000000E+00  0.29815108433E+03  0.29815108433E+03  0.00000000000E+00 0. -1.
          1   -1    0    0  501    0 -0.00000000000E+00 -0.00000000000E+00 -0.86704937371E+03  0.86704937371E+03  0.00000000000E+00 0. -1.
         25    2    1    2    0    0 -0.20644441924E+02 -0.67012368900E+01 -0.49623431731E+03  0.51219472268E+03  0.12499534676E+03 0.  0.
          2    1    1    2  501    0 -0.25016915146E+02  0.23381906140E+02 -0.35998060386E+03  0.36160557895E+03  0.00000000000E+00 0. -1.
          1    1    1    2  502    0  0.45661357070E+02 -0.16680669250E+02  0.28731663179E+03  0.29140015641E+03  0.00000000000E+00 0. -1.
         22    1    3    3    0    0 -0.65414115203E+02  0.26903638227E+02 -0.28956649731E+03  0.29807980238E+03  0.00000000000E+00 0. -1.
         22    1    3    3    0    0  0.44769673279E+02 -0.33604875117E+02 -0.20666781999E+03  0.21411492031E+03  0.00000000000E+00 0. -1.
</event>
<event>
 7    1  0.6607887E-006  0.2252624E+03  0.7818608E-02  0.1137492E+00
          2   -1    0    0  502    0  0.00000000000E+00  0.00000000000E+00  0.14146886503E+04  0.14146886503E+04  0.00000000000E+00 0. -1.
          1   -1    0    0  501    0 -0.00000000000E+00 -0.00000000000E+00 -0.50873847528E+03  0.50873847528E+03  0.00000000000E+00 0. -1.
         25    2    1    2    0    0 -0.15993290329E+03  0.19866635096E+03  0.56650659645E+03  0.63371998064E+03  0.12499774991E+03 0.  0.
          2    1    1    2  501    0  0.22791554679E+03 -0.45878268045E+01 -0.43354944436E+03  0.48982819981E+03  0.00000000000E+00 0. -1.
          1    1    1    2  502    0 -0.67982643502E+02 -0.19407852415E+03  0.77299302298E+03  0.79987894517E+03  0.00000000000E+00 0. -1.
         22    1    3    3    0    0 -0.31959545386E+01  0.86842583228E+02  0.23225386754E+03  0.24797924787E+03  0.00000000000E+00 0.  1.
         22    1    3    3    0    0 -0.15673694875E+03  0.11182376773E+03  0.33425272891E+03  0.38574073277E+03  0.00000000000E+00 0.  1.
</event>
<event>
 7    1  0.6607887E-006  0.6056189E+02  0.7818608E-02  0.1397392E+00
          2   -1    0    0  502    0  0.00000000000E+00  0.00000000000E+00  0.30913977101E+04  0.30913977101E+04  0.00000000000E+00 0. -1.
          1   -1    0    0  501    0 -0.00000000000E+00 -0.00000000000E+00 -0.83440035923E+01  0.83440035923E+01  0.00000000000E+00 0. -1.
         25    2    1    2    0    0 -0.26983089472E+02 -0.24305033952E+02  0.14663219814E+04  0.14720884227E+04  0.12500139724E+03 0.  0.
          2    1    1    2  501    0  0.35527733889E+02 -0.47917387251E+02  0.19168866066E+03  0.20075566867E+03  0.00000000000E+00 0. -1.
          1    1    1    2  502    0 -0.85446444175E+01  0.72222421203E+02  0.14250430644E+04  0.14268976223E+04  0.00000000000E+00 0. -1.
         22    1    3    3    0    0  0.14637203682E+02  0.78306910512E+01  0.12246331382E+04  0.12247456432E+04  0.00000000000E+00 0. -1.
         22    1    3    3    0    0 -0.41620293154E+02 -0.32135725003E+02  0.24168884322E+03  0.24734277948E+03  0.00000000000E+00 0. -1.
</event>
<event>
 7    1  0.6607887E-006  0.8077461E+02  0.7818608E-02  0.1360864E+00
          2   -1    0    0  502    0  0.00000000000E+00  0.00000000000E+00  0.85331672645E+03  0.85331672645E+03  0.00000000000E+00 0. -1.
          1   -1    0    0  501    0 -0.00000000000E+00 -0.00000000000E+00 -0.11092761952E+04  0.11092761952E+04  0.00000000000E+00 0. -1.
         25    2    1    2    0    0  0.13680769064E+02 -0.42784909353E+02  0.43942916843E+02  0.13990785090E+03  0.12500205955E+03 0.  0.
          2    1    1    2  501    0  0.39282838883E+02  0.71550510853E+02 -0.10585272839E+04  0.10616697358E+04  0.00000000000E+00 0. -1.
          1    1    1    2  502    0 -0.52963607947E+02 -0.28765601500E+02  0.75862489837E+03  0.76101533495E+03  0.00000000000E+00 0. -1.
         22    1    3    3    0    0  0.83655599800E+01 -0.85770852504E+02  0.14136377390E+02  0.87329599213E+02  0.00000000000E+00 0. -1.
         22    1    3    3    0    0  0.53152090843E+01  0.42985943151E+02  0.29806539453E+02  0.52578251686E+02  0.00000000000E+00 0. -1.
</event>
<event>
 7    1  0.6607887E-006  0.8689937E+02  0.7818608E-02  0.1494176E+00
          2   -1    0    0  502    0  0.00000000000E+00  0.00000000000E+00  0.71560852338E+03  0.71560852338E+03  0.00000000000E+00 0. -1.
          1   -1    0    0  501    0 -0.00000000000E+00 -0.00000000000E+00 -0.43860770972E+02  0.43860770972E+02  0.00000000000E+00 0. -1.
         25    2    1    2    0    0 -0.70169013174E+02  0.77436988545E+02  0.46402826344E+03  0.49179865728E+03  0.12499404957E+03 0.  0.
          2    1    1    2  501    0  0.53996153786E+02 -0.65212558547E+02  0.31572513335E+02  0.90360865502E+02  0.00000000000E+00 0. -1.
          1    1    1    2  502    0  0.16172859388E+02 -0.12224429998E+02  0.17614697563E+03  0.17730977157E+03  0.00000000000E+00 0. -1.
         22    1    3    3    0    0 -0.83004127170E+02  0.10082525660E+03  0.32544118174E+03  0.35066705045E+03  0.00000000000E+00 0. -1.
         22    1    3    3    0    0  0.12835113995E+02 -0.23388268055E+02  0.13858708169E+03  0.14113160683E+03  0.00000000000E+00 0. -1.
</event>
<event>
 7    1  0.6607887E-006  0.4000585E+02  0.7818608E-02  0.1551596E+00
          2   -1    0    0  502    0  0.00000000000E+00  0.00000000000E+00  0.14285843977E+03  0.14285843977E+03  0.00000000000E+00 0. -1.
          1   -1    0    0  501    0 -0.00000000000E+00 -0.00000000000E+00 -0.30513378405E+03  0.30513378405E+03  0.00000000000E+00 0. -1.
         25    2    1    2    0    0 -0.65103168833E+01  0.48060738650E+01  0.74590522253E+02  0.14578985562E+03  0.12500181366E+03 0.  0.
          2    1    1    2  501    0  0.24681115787E+02  0.31485081397E+02 -0.25473461985E+03  0.25785692618E+03  0.00000000000E+00 0. -1.
          1    1    1    2  502    0 -0.18170798904E+02 -0.36291155262E+02  0.17868753315E+02  0.44345442021E+02  0.00000000000E+00 0. -1.
         22    1    3    3    0    0  0.46181365444E+02 -0.35902513571E+02  0.38818456270E+02  0.70203857032E+02  0.00000000000E+00 0.  1.
         22    1    3    3    0    0 -0.52691682328E+02  0.40708587436E+02  0.35772065982E+02  0.75585998586E+02  0.00000000000E+00 0.  1.
</event>
<event>
 7    1  0.6607887E-006  0.8262057E+02  0.7818608E-02  0.1396517E+00
          2   -1    0    0  502    0  0.00000000000E+00  0.00000000000E+00  0.36117268275E+03  0.36117268275E+03  0.00000000000E+00 0. -1.
          1   -1    0    0  501    0 -0.00000000000E+00 -0.00000000000E+00 -0.20337426256E+03  0.20337426256E+03  0.00000000000E+00 0. -1.
         25    2    1    2    0    0  0.18826711180E+02  0.51382207964E+02 -0.53108691769E+02  0.14642094728E+03  0.12499593718E+03 0.  0.
          2    1    1    2  501    0 -0.49290163440E+02 -0.83172968570E+02 -0.79025514068E+02  0.12486911062E+03  0.00000000000E+00 0. -1.
          1    1    1    2  502    0  0.30463452260E+02  0.31790760606E+02  0.28993262603E+03  0.29325688742E+03  0.00000000000E+00 0. -1.
         22    1    3    3    0    0  0.31762331279E+02 -0.48760825863E+00  0.32529446771E+02  0.45467002951E+02  0.00000000000E+00 0. -1.
         22    1    3    3    0    0 -0.12935620099E+02  0.51869816223E+02 -0.85638138540E+02  0.10095394433E+03  0.00000000000E+00 0. -1.
</event>
<event>
 7    1  0.6607887E-006  0.1511797E+03  0.7818608E-02  0.1228760E+00
          2   -1    0    0  502    0  0.00000000000E+00  0.00000000000E+00  0.11874348831E+04  0.11874348831E+04  0.00000000000E+00 0. -1.
          1   -1    0    0  501    0 -0.00000000000E+00 -0.00000000000E+00 -0.23708761853E+03  0.23708761853E+03  0.00000000000E+00 0. -1.
         25    2    1    2    0    0  0.25260982286E+02  0.68730157036E+02  0.17019063475E+03  0.22349332111E+03  0.12498984245E+03 0.  0.
          2    1    1    2  501    0  0.90104200065E+02  0.63597722662E+02 -0.18752471780E+03  0.21755219370E+03  0.00000000000E+00 0. -1.
          1    1    1    2  502    0 -0.11536518235E+03 -0.13232787970E+03  0.96768134759E+03  0.98347698678E+03  0.00000000000E+00 0. -1.
         22    1    3    3    0    0  0.61733426511E+02 -0.51992992740E+01  0.64184607945E+02  0.89206011898E+02  0.00000000000E+00 0. -1.
         22    1    3    3    0    0 -0.36472444225E+02  0.73929456310E+02  0.10600602680E+03  0.13428730922E+03  0.00000000000E+00 0. -1.
</event>
<event>
 7    1  0.6607887E-006  0.1646279E+03  0.7818608E-02  0.1276708E+00
          2   -1    0    0  502    0  0.00000000000E+00  0.00000000000E+00  0.21360123080E+03  0.21360123080E+03  0.00000000000E+00 0. -1.
          1   -1    0    0  501    0 -0.00000000000E+00 -0.00000000000E+00 -0.10972875598E+04  0.10972875598E+04  0.00000000000E+00 0. -1.
         25    2    1    2    0    0 -0.17374639409E+03 -0.13812357674E+03 -0.10744033973E+03  0.27646740363E+03  0.12499946703E+03 0.  0.
          2    1    1    2  501    0  0.12995352457E+03  0.93031621895E+02 -0.89011813529E+03  0.90435230745E+03  0.00000000000E+00 0. -1.
          1    1    1    2  502    0  0.43792869516E+02  0.45091954845E+02  0.11387214601E+03  0.13006907953E+03  0.00000000000E+00 0. -1.
         22    1    3    3    0    0  0.17960934977E+02 -0.17792922808E+02  0.13886966495E+01  0.25320184946E+02  0.00000000000E+00 0.  1.
         22    1    3    3    0    0 -0.19170732906E+03 -0.12033065393E+03 -0.10882903637E+03  0.25114721868E+03  0.00000000000E+00 0.  1.
</event>
<event>
 7    1  0.6607887E-006  0.8599675E+02  0.7818608E-02  0.1356726E+00
          2   -1    0    0  502    0  0.00000000000E+00  0.00000000000E+00  0.17815044949E+04  0.17815044949E+04  0.00000000000E+00 0. -1.
          1   -1    0    0  501    0 -0.00000000000E+00 -0.00000000000E+00 -0.42097431021E+02  0.42097431021E+02  0.00000000000E+00 0. -1.
         25    2    1    2    0    0 -0.80473039758E+02 -0.90650171400E+02  0.28747819942E+03  0.33609754162E+03  0.12499791454E+03 0.  0.
          2    1    1    2  501    0  0.70734482261E+02  0.32846734785E+02  0.71415529413E+02  0.10574711726E+03  0.00000000000E+00 0. -1.
          1    1    1    2  502    0  0.97385574971E+01  0.57803436615E+02  0.13805133350E+04  0.13817572670E+04  0.00000000000E+00 0. -1.
         22    1    3    3    0    0 -0.10260574054E+03 -0.31194502121E+02  0.21133482115E+03  0.23698827310E+03  0.00000000000E+00 0. -1.
         22    1    3    3    0    0  0.22132700782E+02 -0.59455669279E+02  0.76143378267E+02  0.99109268524E+02  0.00000000000E+00 0. -1.
</event>
<event>
 7    1  0.6607887E-006  0.7434096E+02  0.7818608E-02  0.1469554E+00
          2   -1    0    0  502    0  0.00000000000E+00  0.00000000000E+00  0.18465784536E+04  0.18465784536E+04  0.00000000000E+00 0. -1.
          1   -1    0    0  501    0 -0.00000000000E+00 -0.00000000000E+00 -0.12145145504E+02  0.12145145504E+02  0.00000000000E+00 0. -1.
         25    2    1    2    0    0 -0.16558803011E+02  0.47701979598E+02  0.57819972955E+03  0.59370837168E+03  0.12500012217E+03 0.  0.
          2    1    1    2  501    0 -0.36161781879E+01  0.27954107787E+02  0.60755113451E+02  0.66975314089E+02  0.00000000000E+00 0. -1.
          1    1    1    2  502    0  0.20174981199E+02 -0.75656087386E+02  0.11954784651E+04  0.11980399133E+04  0.00000000000E+00 0. -1.
         22    1    3    3    0    0 -0.29535853750E+02 -0.26711415805E+02  0.75438228518E+02  0.85304118969E+02  0.00000000000E+00 0. -1.
         22    1    3    3    0    0  0.12977050739E+02  0.74413395403E+02  0.50276150103E+03  0.50840425272E+03  0.00000000000E+00 0. -1.
</event>
<event>
 7    1  0.6607887E-006  0.4509374E+02  0.7818608E-02  0.1592604E+00
          2   -1    0    0  502    0  0.00000000000E+00  0.00000000000E+00  0.94175610458E+03  0.94175610458E+03  0.00000000000E+00 0. -1.
          1   -1    0    0  501    0 -0.00000000000E+00 -0.00000000000E+00 -0.14529022527E+04  0.14529022527E+04  0.00000000000E+00 0. -1.
         25    2    1    2    0    0  0.29325727416E+02 -0.25473489888E+02 -0.67139085065E+03  0.68403193030E+03  0.12500044146E+03 0.  0.
          2    1    1    2  501    0 -0.12535876782E+02 -0.16387097157E+02 -0.77450974946E+03  0.77478451015E+03  0.00000000000E+00 0. -1.
          1    1    1    2  502    0 -0.16789850634E+02  0.41860587045E+02  0.93475445198E+03  0.93584191684E+03  0.00000000000E+00 0. -1.
         22    1    3    3    0    0  0.20921039476E+02 -0.61381948547E+02 -0.18118375867E+03  0.19243956949E+03  0.00000000000E+00 0. -1.
         22    1    3    3    0    0  0.84046879392E+01  0.35908458659E+02 -0.49020709198E+03  0.49159236081E+03  0.00000000000E+00 0. -1.
</event>
<event>
 7    1  0.6607887E-006  0.2433537E+02  0.7818608E-02  0.1673018E+00
          2   -1    0    0  502    0  0.00000000000E+00  0.00000000000E+00  0.54039024325E+03  0.54039024325E+03  0.00000000000E+00 0. -1.
          1   -1    0    0  501    0 -0.00000000000E+00 -0.00000000000E+00 -0.17361465063E+03  0.17361465063E+03  0.00000000000E+00 0. -1.
         25    2    1    2    0    0 -0.13242422705E+02  0.92556603358E+01  0.14584862667E+03  0.19276252767E+03  0.12499816465E+03 0.  0.
          2    1    1    2  501    0  0.19759039271E+02  0.14205307886E+02 -0.14876858971E+03  0.15074582479E+03  0.00000000000E+00 0. -1.
          1    1    1    2  502    0 -0.65166165661E+01 -0.23460968221E+02  0.36969555567E+03  0.37049654142E+03  0.00000000000E+00 0. -1.
         22    1    3    3    0    0  0.38609636502E+02 -0.36923647039E+02  0.42554905764E+02  0.68300656996E+02  0.00000000000E+00 0. -1.
         22    1    3    3    0    0 -0.51852059207E+02  0.46179307375E+02  0.10329372090E+03  0.12446187067E+03  0.00000000000E+00 0. -1.
</event>
<event>
 7    1  0.6607887E-006  0.2416193E+03  0.7818608E-02  0.1337065E+00
          2   -1    0    0  502    0  0.00000000000E+00  0.00000000000E+00  0.59569165697E+03  0.59569165697E+03  0.00000000000E+00 0. -1.
          1   -1    0    0  501    0 -0.00000000000E+00 -0.00000000000E+00 -0.66382183642E+03  0.66382183642E+03  0.00000000000E+00 0. -1.
         25    2    1    2    0    0 -0.10026551655E+03 -0.24162787442E+03 -0.27091736910E+02  0.29119782030E+03  0.12500001933E+03 0.  0.
          2    1    1    2  501    0  0.95267943526E+02  0.21744572522E+03 -0.47638965920E+03  0.53226471973E+03  0.00000000000E+00 0. -1.
          1    1    1    2  502    0  0.49975730202E+01  0.24182149198E+02  0.43535121666E+03  0.43605095335E+03  0.00000000000E+00 0. -1.
         22    1    3    3    0    0 -0.59244781516E+02 -0.20148931152E+03  0.27716126108E+02  0.21183972819E+03  0.00000000000E+00 0. -1.
         22    1    3    3    0    0 -0.41020735029E+02 -0.40138562898E+02 -0.54807863018E+02  0.79358092105E+02  0.00000000000E+00 0. -1.
</event>
<event>
 7    1  0.6607887E-006  0.8405983E+02  0.7818608E-02  0.1399769E+00
          2   -1    0    0  502    0  0.00000000000E+00  0.00000000000E+00  0.17669474394E+04  0.17669474394E+04  0.00000000000E+00 0. -1.
          1   -1    0    0  501    0 -0.00000000000E+00 -0.00000000000E+00 -0.50054315437E+02  0.50054315437E+02  0.00000000000E+00 0. -1.
         25    2    1    2    0    0  0.62605224833E+02  0.27163912091E+02  0.12889932595E+03  0.19208384381E+03  0.12499549802E+03 0.  0.
          2    1    1    2  501    0 -0.11395240051E+02  0.40604764548E+02  0.83501264619E+01  0.42992127323E+02  0.00000000000E+00 0. -1.
          1    1    1    2  502    0 -0.51209984782E+02 -0.67768676639E+02  0.15796436716E+04  0.15819257837E+04  0.00000000000E+00 0. -1.
         22    1    3    3    0    0  0.10087206701E+03  0.25733140373E+02  0.92964179083E+02  0.13956972096E+03  0.00000000000E+00 0.  1.
         22    1    3    3    0    0 -0.38266842179E+02  0.14307717175E+01  0.35935146866E+02  0.52514122847E+02  0.00000000000E+00 0.  1.
</event>
<event>
 7    1  0.6607887E-006  0.3541776E+02  0.7818608E-02  0.1557033E+00
          2   -1    0    0  502    0  0.00000000000E+00  0.00000000000E+00  0.58261531098E+03  0.58261531098E+03  0.00000000000E+00 0. -1.
          1   -1    0    0  501    0 -0.00000000000E+00 -0.00000000000E+00 -0.67244283091E+02  0.67244283091E+02  0.00000000000E+00 0. -1.
         25    2    1    2    0    0  0.51763651223E+02 -0.39330154604E+01  0.15544029477E+03  0.20611446589E+03  0.12500617430E+03 0.  0.
          2    1    1    2  501    0 -0.29111252895E+02 -0.19747341969E+02 -0.33722543451E+02  0.48730201074E+02  0.00000000000E+00 0. -1.
          1    1    1    2  502    0 -0.22652398329E+02  0.23680357429E+02  0.39365327657E+03  0.39501492710E+03  0.00000000000E+00 0. -1.
         22    1    3    3    0    0  0.53233411379E+02 -0.34288420193E+02  0.18680474556E+02  0.66018572963E+02  0.00000000000E+00 0. -1.
         22    1    3    3    0    0 -0.14697601559E+01  0.30355404733E+02  0.13675982021E+03  0.14009589293E+03  0.00000000000E+00 0. -1.
</event>
<event>
 7    1  0.6607887E-006  0.6798511E+02  0.7818608E-02  0.1460487E+00
          2   -1    0    0  502    0  0.00000000000E+00  0.00000000000E+00  0.26018340502E+04  0.26018340502E+04  0.00000000000E+00 0. -1.
          1   -1    0    0  501    0 -0.00000000000E+00 -0.00000000000E+00 -0.64614690333E+02  0.64614690333E+02  0.00000000000E+00 0. -1.
         25    2    1    2    0    0 -0.44734579543E+02 -0.83708677312E+02  0.91434056968E+03  0.92771284223E+03  0.12499646003E+03 0.  0.
          2    1    1    2  501    0  0.44380900982E+02  0.50805337706E+02 -0.38070282136E+02  0.77460913326E+02  0.00000000000E+00 0. -1.
          1    1    1    2  502    0  0.35367856066E+00  0.32903339606E+02  0.16609490723E+04  0.16612749850E+04  0.00000000000E+00 0. -1.
         22    1    3    3    0    0  0.39651376794E+02 -0.44611043633E+02  0.25788050606E+03  0.26469743539E+03  0.00000000000E+00 0.  1.
         22    1    3    3    0    0 -0.84385956337E+02 -0.39097633680E+02  0.65646006362E+03  0.66301540684E+03  0.00000000000E+00 0.  1.
</event>
<event>
 7    1  0.6607887E-006  0.1811966E+03  0.7818608E-02  0.1237074E+00
          2   -1    0    0  502    0  0.00000000000E+00  0.00000000000E+00  0.13407024610E+04  0.13407024610E+04  0.00000000000E+00 0. -1.
          1   -1    0    0  501    0 -0.00000000000E+00 -0.00000000000E+00 -0.18411714142E+03  0.18411714142E+03  0.00000000000E+00 0. -1.
         25    2    1    2    0    0 -0.12009243994E+02 -0.19113077053E+03  0.10378493223E+03  0.25113245076E+03  0.12498400810E+03 0.  0.
          2    1    1    2  501    0 -0.77800873531E+02  0.32932270049E+02 -0.85937486682E+02  0.12051042258E+03  0.00000000000E+00 0. -1.
          1    1    1    2  502    0  0.89810117525E+02  0.15819850048E+03  0.11387378740E+04  0.11531767290E+04  0.00000000000E+00 0. -1.
         22    1    3    3    0    0  0.50899120496E+02 -0.13079055160E+03  0.76231004700E+02  0.15971241321E+03  0.00000000000E+00 0.  1.
         22    1    3    3    0    0 -0.62908364490E+02 -0.60340218929E+02  0.27553927534E+02  0.91420037550E+02  0.00000000000E+00 0.  1.
</event>
<event>
 7    1  0.6607887E-006  0.3975422E+02  0.7818608E-02  0.1577854E+00
          2   -1    0    0  502    0  0.00000000000E+00  0.00000000000E+00  0.16908074100E+04  0.16908074100E+04  0.00000000000E+00 0. -1.
          1   -1    0    0  501    0 -0.00000000000E+00 -0.00000000000E+00 -0.13849362178E+03  0.13849362178E+03  0.00000000000E+00 0. -1.
         25    2    1    2    0    0 -0.60819865937E+02  0.19698909742E+01  0.11010584631E+03  0.17734492799E+03  0.12499995812E+03 0.  0.
          2    1    1    2  501    0  0.23282553884E+02  0.10688710458E+02 -0.10305188189E+03  0.10618858794E+03  0.00000000000E+00 0. -1.
          1    1    1    2  502    0  0.37537312053E+02 -0.12658601432E+02  0.15452598238E+04  0.15457675159E+04  0.00000000000E+00 0. -1.
         22    1    3    3    0    0  0.28138226387E+02 -0.13124347020E+02  0.73835960017E+02  0.80098422335E+02  0.00000000000E+00 0.  1.
         22    1    3    3    0    0 -0.88958092324E+02  0.15094237994E+02  0.36269886289E+02  0.97246505655E+02  0.00000000000E+00 0.  1.
</event>
<event>
 7    1  0.6607887E-006  0.1137122E+03  0.7818608E-02  0.1329373E+00
          2   -1    0    0  502    0  0.00000000000E+00  0.00000000000E+00  0.13937429746E+04  0.13937429746E+04  0.00000000000E+00 0. -1.
          1   -1    0    0  501    0 -0.00000000000E+00 -0.00000000000E+00 -0.58116000952E+03  0.58116000952E+03  0.00000000000E+00 0. -1.
         25    2    1    2    0    0  0.35642667756E+02 -0.15021316165E+03  0.33919786872E+03  0.39308323158E+03  0.12499935642E+03 0.  0.
          2    1    1    2  501    0  0.63602921083E+01  0.11298993528E+03 -0.54766149621E+03  0.55923187787E+03  0.00000000000E+00 0. -1.
          1    1    1    2  502    0 -0.42002959864E+02  0.37223226371E+02  0.10210465926E+04  0.10225878747E+04  0.00000000000E+00 0. -1.
         22    1    3    3    0    0  0.75047430228E+01 -0.33656934968E+02  0.22456902639E+03  0.22720114008E+03  0.00000000000E+00 0.  1.
         22    1    3    3    0    0  0.28137924733E+02 -0.11655622668E+03  0.11462884233E+03  0.16588209150E+03  0.00000000000E+00 0.  1.
</event>
<event>
 7    1  0.6607887E-006  0.2010524E+03  0.7818608E-02  0.1339803E+00
          2   -1    0    0  502    0  0.00000000000E+00  0.00000000000E+00  0.88681321963E+03  0.88681321963E+03  0.00000000000E+00 0. -1.
          1   -1    0    0  501    0 -0.00000000000E+00 -0.00000000000E+00 -0.74311599865E+03  0.74311599865E+03  0.00000000000E+00 0. -1.
         25    2    1    2    0    0  0.90436339559E+02 -0.19159325730E+03 -0.15222230468E+03  0.28928469157E+03  0.12500917959E+03 0.  0.
          2    1    1    2  501    0 -0.28969834007E+02  0.70160931788E+00 -0.50965748103E+03  0.51048064753E+03  0.00000000000E+00 0. -1.
          1    1    1    2  502    0 -0.61466505552E+02  0.19089164799E+03  0.80557700669E+03  0.83016387917E+03  0.00000000000E+00 0. -1.
         22    1    3    3    0    0  0.52882035055E+02 -0.13071194316E+03 -0.16454797769E+03  0.21669831259E+03  0.00000000000E+00 0.  1.
         22    1    3    3    0    0  0.37554304504E+02 -0.60881314141E+02  0.12325673018E+02  0.72586378982E+02  0.00000000000E+00 0.  1.
</event>
<event>
 7    1  0.6607887E-006  0.5902403E+02  0.7818608E-02  0.1505849E+00
          2   -1    0    0  502    0  0.00000000000E+00  0.00000000000E+00  0.29990153560E+03  0.29990153560E+03  0.00000000000E+00 0. -1.
          1   -1    0    0  501    0 -0.00000000000E+00 -0.00000000000E+00 -0.23047290402E+03  0.23047290402E+03  0.00000000000E+00 0. -1.
         25    2    1    2    0    0  0.38300153507E+02  0.18945437314E+02 -0.76791625022E+02  0.15279902573E+03  0.12499902894E+03 0.  0.
          2    1    1    2  501    0 -0.94938135015E+00  0.27530512686E+02 -0.11057208539E+03  0.11395181667E+03  0.00000000000E+00 0. -1.
          1    1    1    2  502    0 -0.37350772157E+02 -0.46475950000E+02  0.25679234200E+03  0.26362359723E+03  0.00000000000E+00 0. -1.
         22    1    3    3    0    0  0.15003765728E+01  0.66856098471E+02 -0.19789962392E+02  0.69739742214E+02  0.00000000000E+00 0. -1.
         22    1    3    3    0    0  0.36799776934E+02 -0.47910661157E+02 -0.57001662630E+02  0.83059283511E+02  0.00000000000E+00 0. -1.
</event>
<event>
 7    1  0.6607887E-006  0.5799118E+02  0.7818608E-02  0.1479540E+00
          2   -1    0    0  502    0  0.00000000000E+00  0.00000000000E+00  0.38074550404E+04  0.38074550404E+04  0.00000000000E+00 0. -1.
          1   -1    0    0  501    0 -0.00000000000E+00 -0.00000000000E+00 -0.43760325807E+03  0.43760325807E+03  0.00000000000E+00 0. -1.
         25    2    1    2    0    0 -0.32323073310E+02 -0.58073238406E+02  0.12908974765E+03  0.19158800067E+03  0.12499806785E+03 0.  0.
          2    1    1    2  501    0 -0.17655645821E+02  0.28651800183E+02 -0.40542629816E+03  0.40682075995E+03  0.00000000000E+00 0. -1.
          1    1    1    2  502    0  0.49978719131E+02  0.29421438223E+02  0.36461883329E+04  0.36466495379E+04  0.00000000000E+00 0. -1.
         22    1    3    3    0    0 -0.70730111491E+02 -0.60910127056E+02  0.11998077101E+03  0.15201374169E+03  0.00000000000E+00 0. -1.
         22    1    3    3    0    0  0.38407038181E+02  0.28368886504E+01  0.91089766416E+01  0.39574258989E+02  0.00000000000E+00 0. -1.
</event>
<event>
 7    1  0.6607887E-006  0.1481119E+03  0.7818608E-02  0.1343696E+00
          2   -1    0    0  502    0  0.00000000000E+00  0.00000000000E+00  0.68940289097E+03  0.68940289097E+03  0.00000000000E+00 0. -1.
          1   -1    0    0  501    0 -0.00000000000E+00 -0.00000000000E+00 -0.39258437700E+03  0.39258437700E+03  0.00000000000E+00 0. -1.
         25    2    1    2    0    0 -0.15835159161E+03 -0.47371014729E+02  0.27261458784E+03  0.34243813601E+03  0.12500369551E+03 0.  0.
          2    1    1    2  501    0  0.16535912765E+02  0.34252906126E+02 -0.34330667928E+03  0.34540725822E+03  0.00000000000E+00 0. -1.
          1    1    1    2  502    0  0.14181567885E+03  0.13118108604E+02  0.36751060542E+03  0.39414187374E+03  0.00000000000E+00 0. -1.
         22    1    3    3    0    0  0.12021365019E+02 -0.33470207938E+02  0.58444867674E+02  0.68414695744E+02  0.00000000000E+00 0.  1.
         22    1    3    3    0    0 -0.17037295663E+03 -0.13900806791E+02  0.21416972017E+03  0.27402344027E+03  0.00000000000E+00 0.  1.
</event>
<event>
 7    1  0.6607887E-006  0.1228652E+03  0.7818608E-02  0.1262892E+00
          2   -1    0    0  502    0  0.00000000000E+00  0.00000000000E+00  0.63649530792E+03  0.63649530792E+03  0.00000000000E+00 0. -1.
          1   -1    0    0  501    0 -0.00000000000E+00 -0.00000000000E+00 -0.15386747737E+03  0.15386747737E+03  0.00000000000E+00 0. -1.
         25    2    1    2    0    0  0.84181362080E+02 -0.51960026595E+02  0.99953222741E+02  0.18815281112E+03  0.12499795002E+03 0.  0.
          2    1    1    2  501    0 -0.33343249908E+02  0.13370713978E+03 -0.59193264278E+02  0.14997737855E+03  0.00000000000E+00 0. -1.
          1    1    1    2  502    0 -0.50838112172E+02 -0.81747113183E+02  0.44186787209E+03  0.45223259562E+03  0.00000000000E+00 0. -1.
         22    1    3    3    0    0  0.89480991788E+02 -0.53112116820E+02  0.17495588767E+02  0.10551701508E+03  0.00000000000E+00 0. -1.
         22    1    3    3    0    0 -0.52996297076E+01  0.11520902252E+01  0.82457633975E+02  0.82635796043E+02  0.00000000000E+00 0. -1.
</event>
<event>
 7    1  0.6607887E-006  0.3853346E+02  0.7818608E-02  0.1552649E+00
          2   -1    0    0  502    0  0.00000000000E+00  0.00000000000E+00  0.16223086739E+04  0.16223086739E+04  0.00000000000E+00 0. -1.
          1   -1    0    0  501    0 -0.00000000000E+00 -0.00000000000E+00 -0.62578510673E+02  0.62578510673E+02  0.00000000000E+00 0. -1.
         25    2    1    2    0    0  0.25298336016E+02 -0.49506700400E+02  0.78649078974E+03  0.79830068149E+03  0.12500118616E+03 0.  0.
          2    1    1    2  501    0  0.72105479386E+01  0.30124266029E+02 -0.51974758366E+02  0.60504866851E+02  0.00000000000E+00 0. -1.
          1    1    1    2  502    0 -0.32508883955E+02  0.19382434371E+02  0.82521413182E+03  0.82608163619E+03  0.00000000000E+00 0. -1.
         22    1    3    3    0    0  0.48593455809E+02  0.21885438894E+02  0.47050834942E+03  0.47351705698E+03  0.00000000000E+00 0.  1.
         22    1    3    3    0    0 -0.23295119793E+02 -0.71392139294E+02  0.31598244032E+03  0.32478362451E+03  0.00000000000E+00 0.  1.
</event>
<event>
 7    1  0.6607887E-006  0.2663287E+03  0.7818608E-02  0.1247035E+00
          2   -1    0    0  502    0  0.00000000000E+00  0.00000000000E+00  0.17339969366E+04  0.17339969366E+04  0.00000000000E+00 0. -1.
          1   -1    0    0  501    0 -0.00000000000E+00 -0.00000000000E+00 -0.14596374207E+04  0.14596374207E+04  0.00000000000E+00 0. -1.
         25    2    1    2    0    0  0.21395842742E+03 -0.26056928379E+02 -0.43815861176E+03  0.50404858050E+03  0.12499932105E+03 0.  0.
          2    1    1    2  501    0  0.51815754710E+02 -0.39505297992E+01 -0.97732571346E+03  0.97870630391E+03  0.00000000000E+00 0. -1.
          1    1    1    2  502    0 -0.26577418214E+03  0.30007458178E+02  0.16898438411E+04  0.17108794728E+04  0.00000000000E+00 0. -1.
         22    1    3    3    0    0  0.19029393131E+02 -0.18511792129E+02 -0.17210932478E+03  0.17414483607E+03  0.00000000000E+00 0.  1.
         22    1    3    3    0    0  0.19492903429E+03 -0.75451362499E+01 -0.26604928698E+03  0.32990374444E+03  0.00000000000E+00 0.  1.
</event>
<event>
 7    1  0.6607887E-006  0.1060514E+03  0.7818608E-02  0.1387652E+00
          2   -1    0    0  502    0  0.00000000000E+00  0.00000000000E+00  0.15442640601E+04  0.15442640601E+04  0.00000000000E+00 0. -1.
          1   -1    0    0  501    0 -0.00000000000E+00 -0.00000000000E+00 -0.21147164802E+04  0.21147164802E+04  0.00000000000E+00 0. -1.
         25    2    1    2    0    0  0.11639903339E+03 -0.21411036972E+02  0.34051481090E+03  0.38155359904E+03  0.12500258006E+03 0.  0.
          2    1    1    2  501    0 -0.93402724797E+02  0.50175515339E+02 -0.20925680251E+04  0.20952523932E+04  0.00000000000E+00 0. -1.
          1    1    1    2  502    0 -0.22996308596E+02 -0.28764478367E+02  0.11816007942E+04  0.11821745481E+04  0.00000000000E+00 0. -1.
         22    1    3    3    0    0  0.87845257665E+02  0.41056863875E+02  0.14598522611E+03  0.17525450524E+03  0.00000000000E+00 0.  1.
         22    1    3    3    0    0  0.28553775728E+02 -0.62467900847E+02  0.19452958479E+03  0.20629909380E+03  0.00000000000E+00 0.  1.
</event>
<event>
 7    1  0.6607887E-006  0.5737711E+02  0.7818608E-02  0.1459377E+00
          2   -1    0    0  502    0  0.00000000000E+00  0.00000000000E+00  0.24684449703E+03  0.24684449703E+03  0.00000000000E+00 0. -1.
          1   -1    0    0  501    0 -0.00000000000E+00 -0.00000000000E+00 -0.11036237096E+04  0.11036237096E+04  0.00000000000E+00 0. -1.
         25    2    1    2    0    0  0.16622759350E+02  0.38821552843E+02 -0.30714313801E+02  0.13546835012E+03  0.12499950287E+03 0.  0.
          2    1    1    2  501    0 -0.35533367984E+02  0.16799441061E+02 -0.10157067248E+04  0.10164669165E+04  0.00000000000E+00 0. -1.
          1    1    1    2  502    0  0.18910608634E+02 -0.55620993904E+02  0.18964182606E+03  0.19853294002E+03  0.00000000000E+00 0. -1.
         22    1    3    3    0    0  0.42315827751E+02  0.75858637664E+02 -0.19939056805E+02  0.89121984789E+02  0.00000000000E+00 0.  1.
         22    1    3    3    0    0 -0.25693068401E+02 -0.37037084821E+02 -0.10775256996E+02  0.46346365329E+02  0.00000000000E+00 0.  1.
</event>
<event>
 7    1  0.6607887E-006  0.9977801E+02  0.7818608E-02  0.1404973E+00
          2   -1    0    0  502    0  0.00000000000E+00  0.00000000000E+00  0.16032426401E+04  0.16032426401E+04  0.00000000000E+00 0. -1.
          1   -1    0    0  501    0 -0.00000000000E+00 -0.00000000000E+00 -0.16265850007E+04  0.16265850007E+04  0.00000000000E+00 0. -1.
         25    2    1    2    0    0  0.69160450219E+02  0.62374931587E+02 -0.66649696122E+02  0.16953505341E+03  0.12500460943E+03 0.  0.
          2    1    1    2  501    0 -0.22225419676E+02  0.25862585381E+02 -0.15066902830E+04  0.15070761267E+04  0.00000000000E+00 0. -1.
          1    1    1    2  502    0 -0.46935030543E+02 -0.88237516968E+02  0.15499976185E+04  0.15532164607E+04  0.00000000000E+00 0. -1.
         22    1    3    3    0    0 -0.34762361081E+02  0.19507461461E+02 -0.34216076002E+02  0.52532872162E+02  0.00000000000E+00 0.  1.
         22    1    3    3    0    0  0.10392281130E+03  0.42867470126E+02 -0.32433620121E+02  0.11700218125E+03  0.00000000000E+00 0.  1.
</event>
<event>
 7    1  0.6607887E-006  0.9330153E+02  0.7818608E-02  0.1470964E+00
          2   -1    0    0  502    0  0.00000000000E+00  0.00000000000E+00  0.46604231919E+03  0.46604231919E+03  0.00000000000E+00 0. -1.
          1   -1    0    0  501    0 -0.00000000000E+00 -0.00000000000E+00 -0.34659700425E+03  0.34659700425E+03  0.00000000000E+00 0. -1.
         25    2    1    2    0    0 -0.56582207290E+02  0.87567076423E+02 -0.10495388595E+03  0.19367617825E+03  0.12500241914E+03 0.  0.
          2    1    1    2  501    0  0.34605680348E+02 -0.84197539748E+02 -0.18646420064E+03  0.20749861911E+03  0.00000000000E+00 0. -1.
          1    1    1    2  502    0  0.21976526942E+02 -0.33695366750E+01  0.41086340152E+03  0.41146452608E+03  0.00000000000E+00 0. -1.
         22    1    3    3    0    0 -0.60705994117E+02 -0.54867921624E+01 -0.73226678243E+02  0.95275752511E+02  0.00000000000E+00 0.  1.
         22    1    3    3    0    0  0.41237868271E+01  0.93053868585E+02 -0.31727207705E+02  0.98400425737E+02  0.00000000000E+00 0.  1.
</event>
<event>
 7    1  0.6607887E-006  0.4267563E+03  0.7818608E-02  0.1154004E+00
          2   -1    0    0  502    0  0.00000000000E+00  0.00000000000E+00  0.11047119982E+04  0.11047119982E+04  0.00000000000E+00 0. -1.
          1   -1    0    0  501    0 -0.00000000000E+00 -0.00000000000E+00 -0.23404241144E+04  0.23404241144E+04  0.00000000000E+00 0. -1.
         25    2    1    2    0    0  0.94363750941E+02  0.36983159876E+03  0.65566632873E+02  0.40694469024E+03  0.12500027455E+03 0.  0.
          2    1    1    2  501    0 -0.53615860441E+02  0.71196629589E+02 -0.21122643340E+04  0.21141438545E+04  0.00000000000E+00 0. -1.
          1    1    1    2  502    0 -0.40747890500E+02 -0.44102822835E+03  0.81098558493E+03  0.92404756790E+03  0.00000000000E+00 0. -1.
         22    1    3    3    0    0  0.94531099588E+02  0.22126767284E+03  0.88993302689E+02  0.25654496635E+03  0.00000000000E+00 0. -1.
         22    1    3    3    0    0 -0.16734864702E+00  0.14856392592E+03 -0.23426669816E+02  0.15039972390E+03  0.00000000000E+00 0. -1.
</event>
<event>
 7    1  0.6607887E-006  0.3933650E+02  0.7818608E-02  0.1535229E+00
          2   -1    0    0  502    0  0.00000000000E+00  0.00000000000E+00  0.10972171042E+04  0.10972171042E+04  0.00000000000E+00 0. -1.
          1   -1    0    0  501    0 -0.00000000000E+00 -0.00000000000E+00 -0.41536077950E+03  0.41536077950E+03  0.00000000000E+00 0. -1.
         25    2    1    2    0    0  0.53241165200E+01 -0.41381067764E+02  0.72898050048E+03  0.74079598829E+03  0.12500154879E+03 0.  0.
          2    1    1    2  501    0  0.28726530136E+02  0.18123896464E+02 -0.40757110297E+03  0.40898397662E+03  0.00000000000E+00 0. -1.
          1    1    1    2  502    0 -0.34050646656E+02  0.23257171299E+02  0.36044692717E+03  0.36279791876E+03  0.00000000000E+00 0. -1.
         22    1    3    3    0    0  0.62008795524E+02 -0.42203851751E+02  0.40221924359E+03  0.40915348677E+03  0.00000000000E+00 0.  1.
         22    1    3    3    0    0 -0.56684679004E+02  0.82278398738E+00  0.32676125689E+03  0.33164250152E+03  0.00000000000E+00 0.  1.
</event>
<event>
 7    1  0.6607887E-006  0.6616402E+02  0.7818608E-02  0.1375497E+00
          2   -1    0    0  502    0  0.00000000000E+00  0.00000000000E+00  0.28186392252E+04  0.28186392252E+04  0.00000000000E+00 0. -1.
          1   -1    0    0  501    0 -0.00000000000E+00 -0.00000000000E+00 -0.20736501549E+04  0.20736501549E+04  0.00000000000E+00 0. -1.
         25    2    1    2    0    0 -0.67897415754E+02 -0.11554480885E+02  0.66263422746E+03  0.67782938360E+03  0.12499995506E+03 0.  0.
          2    1    1    2  501    0  0.23551638246E+02  0.61830394645E+02 -0.20649996280E+04  0.20660593265E+04  0.00000000000E+00 0. -1.
          1    1    1    2  502    0  0.44345777508E+02 -0.50275913761E+02  0.21473544708E+04  0.21484006700E+04  0.00000000000E+00 0. -1.
         22    1    3    3    0    0 -0.79041532672E+02  0.49419702596E+01  0.20505146049E+03  0.21981375846E+03  0.00000000000E+00 0.  1.
         22    1    3    3    0    0  0.11144116919E+02 -0.16496451144E+02  0.45758276697E+03  0.45801562514E+03  0.00000000000E+00 0.  1.
</event>
<event>
 7    1  0.6607887E-006  0.1446002E+03  0.7818608E-02  0.1277780E+00
          2   -1    0    0  502    0  0.00000000000E+00  0.00000000000E+00  0.43713677457E+04  0.43713677457E+04  0.00000000000E+00 0. -1.
          1   -1    0    0  501    0 -0.00000000000E+00 -0.00000000000E+00 -0.85559609813E+02  0.85559609813E+02  0.00000000000E+00 0. -1.
         25    2    1    2    0    0  0.14607338486E+03  0.95521251137E+02  0.12967879592E+03  0.25080508980E+03  0.12499943910E+03 0.  0.
          2    1    1    2  501    0 -0.66376024307E+02  0.24732859704E+02  0.29110562755E+02  0.76582738367E+02  0.00000000000E+00 0. -1.
          1    1    1    2  502    0 -0.79697360548E+02 -0.12025411084E+03  0.41270187772E+04  0.41295395274E+04  0.00000000000E+00 0. -1.
         22    1    3    3    0    0  0.12647112934E+03  0.10357496699E+02  0.84201904210E+02  0.15228980585E+03  0.00000000000E+00 0.  1.
         22    1    3    3    0    0  0.19602255514E+02  0.85163754438E+02  0.45476891709E+02  0.98515283945E+02  0.00000000000E+00 0.  1.
</event>
<event>
 7    1  0.6607887E-006  0.5960895E+02  0.7818608E-02  0.1519320E+00
          2   -1    0    0  502    0  0.00000000000E+00  0.00000000000E+00  0.13259162301E+04  0.13259162301E+04  0.00000000000E+00 0. -1.
          1   -1    0    0  501    0 -0.00000000000E+00 -0.00000000000E+00 -0.46017490212E+03  0.46017490212E+03  0.00000000000E+00 0. -1.
         25    2    1    2    0    0 -0.42350132335E+02 -0.46479696865E+02 -0.33823437890E+03  0.36603493828E+03  0.12500074017E+03 0.  0.
          2    1    1    2  501    0 -0.11939135730E+02  0.21856069171E+02 -0.10591811617E+03  0.10880660851E+03  0.00000000000E+00 0. -1.
          1    1    1    2  502    0  0.54289268064E+02  0.24623627694E+02  0.13098938230E+04  0.13112495854E+04  0.00000000000E+00 0. -1.
         22    1    3    3    0    0 -0.22221875464E+02 -0.70025502691E+02 -0.32349130820E+03  0.33172881885E+03  0.00000000000E+00 0.  1.
         22    1    3    3    0    0 -0.20128256871E+02  0.23545805826E+02 -0.14743070699E+02  0.34306119429E+02  0.00000000000E+00 0.  1.
</event>
<event>
 7    1  0.6607887E-006  0.6109075E+02  0.7818608E-02  0.1403148E+00
          2   -1    0    0  502    0  0.00000000000E+00  0.00000000000E+00  0.14225449151E+03  0.14225449151E+03  0.00000000000E+00 0. -1.
          1   -1    0    0  501    0 -0.00000000000E+00 -0.00000000000E+00 -0.12856997698E+04  0.12856997698E+04  0.00000000000E+00 0. -1.
         25    2    1    2    0    0 -0.12828413884E+02  0.29141681333E+02 -0.12548813217E+03  0.17996030765E+03  0.12499854087E+03 0.  0.
          2    1    1    2  501    0  0.52560353794E+02  0.20732010801E+02 -0.11233729109E+04  0.11247929160E+04  0.00000000000E+00 0. -1.
          1    1    1    2  502    0 -0.39731939910E+02 -0.49873692134E+02  0.10541576476E+03  0.12320103764E+03  0.00000000000E+00 0. -1.
         22    1    3    3    0    0 -0.91279615385E+01 -0.27133480363E+02  0.12238641990E+02  0.31134061672E+02  0.00000000000E+00 0.  1.
         22    1    3    3    0    0 -0.37004523452E+01  0.56275161696E+02 -0.13772677416E+03  0.14882624598E+03  0.00000000000E+00 0.  1.
</event>
<event>
 7    1  0.6607887E-006  0.1118828E+03  0.7818608E-02  0.1341349E+00
          2   -1    0    0  502    0  0.00000000000E+00  0.00000000000E+00  0.95533519868E+03  0.95533519868E+03  0.00000000000E+00 0. -1.
          1   -1    0    0  501    0 -0.00000000000E+00 -0.00000000000E+00 -0.45668204139E+03  0.45668204139E+03  0.00000000000E+00 0. -1.
         25    2    1    2    0    0 -0.56707700676E+02  0.58521724480E+02  0.34762343746E+03  0.37829799263E+03  0.12500704541E+03 0.  0.
          2    1    1    2  501    0  0.10495844933E+03 -0.40859802922E+02 -0.43301256334E+03  0.44742114343E+03  0.00000000000E+00 0. -1.
          1    1    1    2  502    0 -0.48250748650E+02 -0.17661921558E+02  0.58404228318E+03  0.58629810400E+03  0.00000000000E+00 0. -1.
         22    1    3    3    0    0  0.14617808605E+02  0.28099750984E+02  0.12061616615E+02  0.33893346385E+02  0.00000000000E+00 0.  1.
         22    1    3    3    0    0 -0.71325509281E+02  0.30421973495E+02  0.33556182085E+03  0.34440464625E+03  0.00000000000E+00 0.  1.
</event>
<event>
 7    1  0.6607887E-006  0.1316364E+03  0.7818608E-02  0.1382609E+00
          2   -1    0    0  502    0  0.00000000000E+00  0.00000000000E+00  0.24573940797E+03  0.24573940797E+03  0.00000000000E+00 0. -1.
          1   -1    0    0  501    0 -0.00000000000E+00 -0.00000000000E+00 -0.26286357893E+03  0.26286357893E+03  0.00000000000E+00 0. -1.
         25    2    1    2    0    0  0.10802192287E+03  0.39730542233E+02  0.42785348380E+02  0.17521831703E+03  0.12499448299E+03 0.  0.
          2    1    1    2  501    0  0.17094829168E+02  0.25747007367E+02 -0.15829034610E+03  0.16127918415E+03  0.00000000000E+00 0. -1.
          1    1    1    2  502    0 -0.12511675204E+03 -0.65477549600E+02  0.98380826761E+02  0.17210548572E+03  0.00000000000E+00 0. -1.
         22    1    3    3    0    0  0.56557064436E+01 -0.56270752230E+01  0.61227124375E+02  0.61744730546E+02  0.00000000000E+00 0. -1.
         22    1    3    3    0    0  0.10236621643E+03  0.45357617456E+02 -0.18441775995E+02  0.11347358648E+03  0.00000000000E+00 0. -1.
</event>
<event>
 7    1  0.6607887E-006  0.1040109E+03  0.7818608E-02  0.1288456E+00
          2   -1    0    0  502    0  0.00000000000E+00  0.00000000000E+00  0.98938984430E+03  0.98938984430E+03  0.00000000000E+00 0. -1.
          1   -1    0    0  501    0 -0.00000000000E+00 -0.00000000000E+00 -0.65379795093E+02  0.65379795093E+02  0.00000000000E+00 0. -1.
         25    2    1    2    0    0  0.16533205983E+02  0.10995710071E+02  0.30455281192E+03  0.32980646123E+03  0.12500253629E+03 0.  0.
          2    1    1    2  501    0  0.99985139540E+02  0.28657422883E+02  0.11468474930E+02  0.10464130127E+03  0.00000000000E+00 0. -1.
          1    1    1    2  502    0 -0.11651834552E+03 -0.39653132954E+02  0.60798876235E+03  0.62032187689E+03  0.00000000000E+00 0. -1.
         22    1    3    3    0    0  0.59340811051E+02 -0.27342441046E+02  0.12161064947E+03  0.13805104492E+03  0.00000000000E+00 0. -1.
         22    1    3    3    0    0 -0.42807605067E+02  0.38338151117E+02  0.18294216245E+03  0.19175541631E+03  0.00000000000E+00 0. -1.
</event>
<event>
 7    1  0.6607887E-006  0.1133421E+03  0.7818608E-02  0.1334163E+00
          2   -1    0    0  502    0  0.00000000000E+00  0.00000000000E+00  0.25743841968E+04  0.25743841968E+04  0.00000000000E+00 0. -1.
          1   -1    0    0  501    0 -0.00000000000E+00 -0.00000000000E+00 -0.10155692979E+03  0.10155692979E+03  0.00000000000E+00 0. -1.
         25    2    1    2    0    0  0.14816182472E+03  0.58783049351E+02  0.61821064309E+02  0.21178872685E+03  0.12500099052E+03 0.  0.
          2    1    1    2  501    0 -0.53916183974E+02  0.28127994493E+01  0.35941336470E+01  0.54109006013E+02  0.00000000000E+00 0. -1.
          1    1    1    2  502    0 -0.94245640745E+02 -0.61595848801E+02  0.24074120691E+04  0.24100433937E+04  0.00000000000E+00 0. -1.
         22    1    3    3    0    0  0.55463884536E+02  0.26215544568E+02 -0.37646038315E+02  0.71977228799E+02  0.00000000000E+00 0. -1.
         22    1    3    3    0    0  0.92697940183E+02  0.32567504783E+02  0.99467102624E+02  0.13981149805E+03  0.00000000000E+00 0. -1.
</event>
<event>
 7    1  0.6607887E-006  0.1326795E+03  0.7818608E-02  0.1258889E+00
          2   -1    0    0  502    0  0.00000000000E+00  0.00000000000E+00  0.53829182694E+03  0.53829182694E+03  0.00000000000E+00 0. -1.
          1   -1    0    0  501    0 -0.00000000000E+00 -0.00000000000E+00 -0.30300991176E+03  0.30300991176E+03  0.00000000000E+00 0. -1.
         25    2    1    2    0    0  0.99903328144E+02 -0.21992761665E+01  0.35735348331E+02  0.16397321285E+03  0.12499875048E+03 0.  0.
          2    1    1    2  501    0 -0.11341844205E+03 -0.89527534343E+02 -0.21139345774E+03  0.25605881429E+03  0.00000000000E+00 0. -1.
          1    1    1    2  502    0  0.13515113906E+02  0.91726810510E+02  0.41094002459E+03  0.42126971156E+03  0.00000000000E+00 0. -1.
         22    1    3    3    0    0  0.75679944466E+00 -0.40146707000E+02 -0.19124685117E+02  0.44475660862E+02  0.00000000000E+00 0.  1.
         22    1    3    3    0    0  0.99146528700E+02  0.37947430833E+02  0.54860033449E+02  0.11949755198E+03  0.00000000000E+00 0.  1.
</event>
<event>
 7    1  0.6607887E-006  0.3287772E+03  0.7818608E-02  0.1185995E+00
          2   -1    0    0  502    0  0.00000000000E+00  0.00000000000E+00  0.26773744395E+04  0.26773744395E+04  0.00000000000E+00 0. -1.
          1   -1    0    0  501    0 -0.00000000000E+00 -0.00000000000E+00 -0.19900860616E+03  0.19900860616E+03  0.00000000000E+00 0. -1.
         25    2    1    2    0    0  0.34213573088E+03 -0.13278999306E+03  0.25861563012E+03  0.46604439207E+03  0.12500116254E+03 0.  0.
          2    1    1    2  501    0 -0.68110545366E+02 -0.42407794634E+02 -0.64564526502E+02  0.10298565686E+03  0.00000000000E+00 0. -1.
          1    1    1    2  502    0 -0.27402518552E+03  0.17519778769E+03  0.22843147297E+04  0.23073529967E+04  0.00000000000E+00 0. -1.
         22    1    3    3    0    0  0.23569148669E+03 -0.26357751027E+02  0.16039447572E+03  0.28630682105E+03  0.00000000000E+00 0.  1.
         22    1    3    3    0    0  0.10644424419E+03 -0.10643224203E+03  0.98221154396E+02  0.17973757102E+03  0.00000000000E+00 0.  1.
</event>
<event>
 7    1  0.6607887E-006  0.5938245E+02  0.7818608E-02  0.1436679E+00
          2   -1    0    0  502    0  0.00000000000E+00  0.00000000000E+00  0.12584238445E+04  0.12584238445E+04  0.00000000000E+00 0. -1.
          1   -1    0    0  501    0 -0.00000000000E+00 -0.00000000000E+00 -0.28992474825E+02  0.28992474825E+02  0.00000000000E+00 0. -1.
         25    2    1    2    0    0  0.34451605190E+02  0.79498746336E+02  0.52694760576E+03  0.54845425540E+03  0.12498530826E+03 0.  0.
          2    1    1    2  501    0 -0.45256903881E+02 -0.35906620233E+02  0.30215808384E+02  0.65195611828E+02  0.00000000000E+00 0. -1.
          1    1    1    2  502    0  0.10805298691E+02 -0.43592126103E+02  0.67226795550E+03  0.67376645206E+03  0.00000000000E+00 0. -1.
         22    1    3    3    0    0  0.39710111069E+02 -0.17386463009E+02  0.27633399397E+03  0.27971352888E+03  0.00000000000E+00 0.  1.
         22    1    3    3    0    0 -0.52585058799E+01  0.96885209345E+02  0.25061361179E+03  0.26874072651E+03  0.00000000000E+00 0.  1.
</event>
<event>
 7    1  0.6607887E-006  0.6714119E+02  0.7818608E-02  0.1436136E+00
          2   -1    0    0  502    0  0.00000000000E+00  0.00000000000E+00  0.26937521891E+04  0.26937521891E+04  0.00000000000E+00 0. -1.
          1   -1    0    0  501    0 -0.00000000000E+00 -0.00000000000E+00 -0.40281300146E+03  0.40281300146E+03  0.00000000000E+00 0. -1.
         25    2    1    2    0    0  0.28223676880E+02 -0.84728882423E+01  0.60397778364E+02  0.14192072894E+03  0.12500094359E+03 0.  0.
          2    1    1    2  501    0 -0.68056178434E+02  0.64529810803E+01 -0.35866962876E+03  0.36512626170E+03  0.00000000000E+00 0. -1.
          1    1    1    2  502    0  0.39832501554E+02  0.20199071621E+01  0.25892110380E+04  0.25895181999E+04  0.00000000000E+00 0. -1.
         22    1    3    3    0    0  0.49570827287E+02  0.24181590754E+02  0.80850586471E+02  0.97871515682E+02  0.00000000000E+00 0.  1.
         22    1    3    3    0    0 -0.21347150407E+02 -0.32654478996E+02 -0.20452808106E+02  0.44049213255E+02  0.00000000000E+00 0.  1.
</event>
<event>
 7    1  0.6607887E-006  0.2089235E+03  0.7818608E-02  0.1210349E+00
          2   -1    0    0  502    0  0.00000000000E+00  0.00000000000E+00  0.98980406492E+03  0.98980406492E+03  0.00000000000E+00 0. -1.
          1   -1    0    0  501    0 -0.00000000000E+00 -0.00000000000E+00 -0.35470067948E+03  0.35470067948E+03  0.00000000000E+00 0. -1.
         25    2    1    2    0    0  0.13593118808E+03 -0.21752707509E+03 -0.73591067418E+02  0.29467837070E+03  0.12499752265E+03 0.  0.
          2    1    1    2  501    0 -0.14587927245E+03  0.12120149357E+03 -0.11411157850E+03  0.22134140264E+03  0.00000000000E+00 0. -1.
          1    1    1    2  502    0  0.99480843707E+01  0.96325581521E+02  0.82280603136E+03  0.82848497106E+03  0.00000000000E+00 0. -1.
         22    1    3    3    0    0  0.14097938974E+03 -0.11678789306E+03 -0.33355319910E+02  0.18608379205E+03  0.00000000000E+00 0. -1.
         22    1    3    3    0    0 -0.50482016605E+01 -0.10073918203E+03 -0.40235747509E+02  0.10859457865E+03  0.00000000000E+00 0. -1.
</event>
<event>
 7    1  0.6607887E-006  0.1164637E+03  0.7818608E-02  0.1292989E+00
          2   -1    0    0  502    0  0.00000000000E+00  0.00000000000E+00  0.12680720415E+04  0.12680720415E+04  0.00000000000E+00 0. -1.
          1   -1    0    0  501    0 -0.00000000000E+00 -0.00000000000E+00 -0.48134408177E+03  0.48134408177E+03  0.00000000000E+00 0. -1.
         25    2    1    2    0    0 -0.11053715596E+03  0.11773008055E+03  0.46787589585E+02  0.20949730121E+03  0.12498482293E+03 0.  0.
          2    1    1    2  501    0  0.75802342398E+02 -0.76918814207E+01 -0.39340462278E+03  0.40071480804E+03  0.00000000000E+00 0. -1.
          1    1    1    2  502    0  0.34734813559E+02 -0.11003819913E+03  0.11333449930E+04  0.11392040140E+04  0.00000000000E+00 0. -1.
         22    1    3    3    0    0 -0.69713643975E+02 -0.27764326643E+01  0.43504678143E+02  0.82221394752E+02  0.00000000000E+00 0. -1.
         22    1    3    3    0    0 -0.40823511981E+02  0.12050651322E+03  0.32829114427E+01  0.12727590646E+03  0.00000000000E+00 0. -1.
</event>
<event>
 7    1  0.6607887E-006  0.3985426E+02  0.7818608E-02  0.1543205E+00
          2   -1    0    0  502    0  0.00000000000E+00  0.00000000000E+00  0.29211821417E+03  0.29211821417E+03  0.00000000000E+00 0. -1.
          1   -1    0    0  501    0 -0.00000000000E+00 -0.00000000000E+00 -0.16062181329E+04  0.16062181329E+04  0.00000000000E+00 0. -1.
         25    2    1    2    0    0 -0.40206985437E+02 -0.49900580427E+02 -0.44878042597E+02  0.14746496049E+03  0.12500082504E+03 0.  0.
          2    1    1    2  501    0  0.35207209112E+02  0.18468961747E+02 -0.15087320783E+04  0.15092558214E+04  0.00000000000E+00 0. -1.
          1    1    1    2  502    0  0.49997763246E+01  0.31431618680E+02  0.23951020218E+03  0.24161556524E+03  0.00000000000E+00 0. -1.
         22    1    3    3    0    0  0.53368942289E+01  0.24381294225E+02 -0.54362310196E+02  0.59817979889E+02  0.00000000000E+00 0.  1.
         22    1    3    3    0    0 -0.45543879666E+02 -0.74281874652E+02  0.94842675989E+01  0.87646980602E+02  0.00000000000E+00 0.  1.
</event>
<event>
 7    1  0.6607887E-006  0.4764942E+03  0.7818608E-02  0.1184953E+00
          2   -1    0    0  502    0  0.00000000000E+00  0.00000000000E+00  0.15529301433E+04  0.15529301433E+04  0.00000000000E+00 0. -1.
          1   -1    0    0  501    0 -0.00000000000E+00 -0.00000000000E+00 -0.26018949936E+04  0.26018949936E+04  0.00000000000E+00 0. -1.
         25    2    1    2    0    0  0.26912328508E+02  0.42207483229E+03 -0.10108891817E+04  0.11029069924E+04  0.12504182840E+03 0.  0.
          2    1    1    2  501    0  0.11587293640E+02  0.54794997388E+02 -0.15064907980E+04  0.15075315193E+04  0.00000000000E+00 0. -1.
          1    1    1    2  502    0 -0.38499622148E+02 -0.47686982968E+03  0.14684151294E+04  0.15443866251E+04  0.00000000000E+00 0. -1.
         22    1    3    3    0    0  0.49017759862E+02  0.40552055591E+03 -0.89553424325E+03  0.98429225481E+03  0.00000000000E+00 0. -1.
         22    1    3    3    0    0 -0.22105431354E+02  0.16554276382E+02 -0.11535493843E+03  0.11861473763E+03  0.00000000000E+00 0. -1.
</event>
<event>
 7    1  0.6607887E-006  0.2269230E+03  0.7818608E-02  0.1255659E+00
          2   -1    0    0  502    0  0.00000000000E+00  0.00000000000E+00  0.13316436595E+04  0.13316436595E+04  0.00000000000E+00 0. -1.
          1   -1    0    0  501    0 -0.00000000000E+00 -0.00000000000E+00 -0.20406313464E+03  0.20406313464E+03  0.00000000000E+00 0. -1.
         25    2    1    2    0    0 -0.87166027824E+02  0.24407775349E+03  0.33897101311E+03  0.44463263213E+03  0.12499985470E+03 0.  0.
          2    1    1    2  501    0  0.37856361425E+02 -0.21760450839E+03 -0.69185673831E+02  0.23145514389E+03  0.00000000000E+00 0. -1.
          1    1    1    2  502    0  0.49309666399E+02 -0.26473245102E+02  0.85779518559E+03  0.85961901813E+03  0.00000000000E+00 0. -1.
         22    1    3    3    0    0 -0.46552949967E+01  0.76205393530E+02  0.19239800352E+03  0.20699257362E+03  0.00000000000E+00 0. -1.
         22    1    3    3    0    0 -0.82510732827E+02  0.16787235996E+03  0.14657300958E+03  0.23764005851E+03  0.00000000000E+00 0. -1.
</event>
<event>
 7    1  0.6607887E-006  0.2409485E+03  0.7818608E-02  0.1350477E+00
          2   -1    0    0  502    0  0.00000000000E+00  0.00000000000E+00  0.13061616877E+04  0.13061616877E+04  0.00000000000E+00 0. -1.
          1   -1    0    0  501    0 -0.00000000000E+00 -0.00000000000E+00 -0.21722739830E+03  0.21722739830E+03  0.00000000000E+00 0. -1.
         25    2    1    2    0    0 -0.10003501047E+03  0.21619186774E+03  0.10630746127E+03  0.28926044644E+03  0.12499761019E+03 0.  0.
          2    1    1    2  501    0  0.18970451022E+02  0.11260258696E+02 -0.11150622615E+03  0.11366754114E+03  0.00000000000E+00 0. -1.
          1    1    1    2  502    0  0.81064559449E+02 -0.22745212644E+03  0.10941330542E+04  0.11204610984E+04  0.00000000000E+00 0. -1.
         22    1    3    3    0    0 -0.11040500665E+03  0.20730016539E+03  0.62025338354E+02  0.24291925955E+03  0.00000000000E+00 0.  1.
         22    1    3    3    0    0  0.10369996179E+02  0.88917023515E+01  0.44282122919E+02  0.46341186882E+02  0.00000000000E+00 0.  1.
</event>
<event>
 7    1  0.6607887E-006  0.2269402E+03  0.7818608E-02  0.1200798E+00
          2   -1    0    0  502    0  0.00000000000E+00  0.00000000000E+00  0.94806885102E+03  0.94806885102E+03  0.00000000000E+00 0. -1.
          1   -1    0    0  501    0 -0.00000000000E+00 -0.00000000000E+00 -0.20344020995E+03  0.20344020995E+03  0.00000000000E+00 0. -1.
         25    2    1    2    0    0  0.10319645679E+03  0.13266031954E+03  0.80186680106E+02  0.22428036802E+03  0.12499404281E+03 0.  0.
          2    1    1    2  501    0 -0.19047647128E+02  0.96942992318E+02 -0.90308296134E+02  0.13385195169E+03  0.00000000000E+00 0. -1.
          1    1    1    2  502    0 -0.84148809666E+02 -0.22960331186E+03  0.75475025709E+03  0.79337674126E+03  0.00000000000E+00 0. -1.
         22    1    3    3    0    0 -0.10939851676E+02  0.56116018616E+02  0.64136302437E+02  0.85919457577E+02  0.00000000000E+00 0.  1.
         22    1    3    3    0    0  0.11413630847E+03  0.76544300923E+02  0.16050377669E+02  0.13836091044E+03  0.00000000000E+00 0.  1.
</event>
<event>
 7    1  0.6607887E-006  0.6960203E+02  0.7818608E-02  0.1487474E+00
          2   -1    0    0  502    0  0.00000000000E+00  0.00000000000E+00  0.29339663447E+04  0.29339663447E+04  0.00000000000E+00 0. -1.
          1   -1    0    0  501    0 -0.00000000000E+00 -0.00000000000E+00 -0.53357216043E+02  0.53357216043E+02  0.00000000000E+00 0. -1.
         25    2    1    2    0    0  0.39496883901E+02  0.52496917296E+02  0.25190010166E+03  0.28878075223E+03  0.12499892592E+03 0.  0.
          2    1    1    2  501    0 -0.21834935133E+02  0.15050804024E+02 -0.29356042571E+02  0.39560944497E+02  0.00000000000E+00 0. -1.
          1    1    1    2  502    0 -0.17661948767E+02 -0.67547721321E+02  0.26580650696E+04  0.26589818640E+04  0.00000000000E+00 0. -1.
         22    1    3    3    0    0 -0.20964599806E+02 -0.10957877043E+02  0.17502711602E+01  0.23720306985E+02  0.00000000000E+00 0.  1.
         22    1    3    3    0    0  0.60461483707E+02  0.63454794339E+02  0.25014983049E+03  0.26506044524E+03  0.00000000000E+00 0.  1.
</event>
<event>
 7    1  0.6607887E-006  0.9930953E+02  0.7818608E-02  0.1325311E+00
          2   -1    0    0  502    0  0.00000000000E+00  0.00000000000E+00  0.38924552670E+03  0.38924552670E+03  0.00000000000E+00 0. -1.
          1   -1    0    0  501    0 -0.00000000000E+00 -0.00000000000E+00 -0.46941187077E+03  0.46941187077E+03  0.00000000000E+00 0. -1.
         25    2    1    2    0    0  0.30825608584E+02  0.26513553292E+02  0.23867819940E+03  0.27248184150E+03  0.12500353765E+03 0.  0.
          2    1    1    2  501    0 -0.39791359560E+02 -0.92517826896E+02 -0.43812776816E+03  0.44955404772E+03  0.00000000000E+00 0. -1.
          1    1    1    2  502    0  0.89657509761E+01  0.66004273604E+02  0.11928322469E+03  0.13662150825E+03  0.00000000000E+00 0. -1.
         22    1    3    3    0    0  0.31496971079E+02  0.55922375131E+02  0.49560907588E+02  0.81090411199E+02  0.00000000000E+00 0. -1.
         22    1    3    3    0    0 -0.67136249534E+00 -0.29408821839E+02  0.18911729181E+03  0.19139143030E+03  0.00000000000E+00 0. -1.
</event>
<event>
 7    1  0.6607887E-006  0.4153269E+02  0.7818608E-02  0.1590935E+00
          2   -1    0    0  502    0  0.00000000000E+00  0.00000000000E+00  0.17709806712E+04  0.17709806712E+04  0.00000000000E+00 0. -1.
          1   -1    0    0  501    0 -0.00000000000E+00 -0.00000000000E+00 -0.68222717833E+03  0.68222717833E+03  0.00000000000E+00 0. -1.
         25    2    1    2    0    0  0.87413192979E+01 -0.21642244584E+02  0.88023849053E+02  0.15465190786E+03  0.12499686872E+03 0.  0.
          2    1    1    2  501    0 -0.10567181351E+02 -0.20010876806E+02 -0.64845230736E+03  0.64884705087E+03  0.00000000000E+00 0. -1.
          1    1    1    2  502    0  0.18258620536E+01  0.41653121389E+02  0.16491819511E+04  0.16497088907E+04  0.00000000000E+00 0. -1.
         22    1    3    3    0    0 -0.13828645611E+02 -0.69105696068E+02  0.30671592538E+02  0.76860752386E+02  0.00000000000E+00 0.  1.
         22    1    3    3    0    0  0.22569964909E+02  0.47463451484E+02  0.57352256515E+02  0.77791155475E+02  0.00000000000E+00 0.  1.
</event>
<event>
 7    1  0.6607887E-006  0.3460742E+03  0.7818608E-02  0.1193237E+00
          2   -1    0    0  502    0  0.00000000000E+00  0.00000000000E+00  0.11144959993E+04  0.11144959993E+04  0.00000000000E+00 0. -1.
          1   -1    0    0  501    0 -0.00000000000E+00 -0.00000000000E+00 -0.48193967465E+03  0.48193967465E+03  0.00000000000E+00 0. -1.
         25    2    1    2    0    0  0.32391832617E+03 -0.25261396526E+03  0.75055782838E+03  0.86469731308E+03  0.12500996774E+03 0.  0.
          2    1    1    2  501    0 -0.26616335173E+03  0.21242804982E+03 -0.35058104098E+03  0.48874908946E+03  0.00000000000E+00 0. -1.
          1    1    1    2  502    0 -0.57754974442E+02  0.40185915441E+02  0.23257953729E+03  0.24298927145E+03  0.00000000000E+00 0. -1.
         22    1    3    3    0    0  0.15536327318E+03 -0.19812471688E+03  0.46007889758E+03  0.52446519626E+03  0.00000000000E+00 0.  1.
         22    1    3    3    0    0  0.16855505298E+03 -0.54489248381E+02  0.29047893079E+03  0.34023211681E+03  0.00000000000E+00 0.  1.
</event>
<event>
 7    1  0.6607887E-006  0.1834797E+03  0.7818608E-02  0.1304018E+00
          2   -1    0    0  502    0  0.00000000000E+00  0.00000000000E+00  0.56437527070E+03  0.56437527070E+03  0.00000000000E+00 0. -1.
          1   -1    0    0  501    0 -0.00000000000E+00 -0.00000000000E+00 -0.86470913233E+03  0.86470913233E+03  0.00000000000E+00 0. -1.
         25    2    1    2    0    0  0.17392785580E+03 -0.54203186806E+02  0.14825841521E+03  0.26607288848E+03  0.12500135926E+03 0.  0.
          2    1    1    2  501    0 -0.18343117062E+03  0.11572375667E+02 -0.79392787905E+03  0.81492477651E+03  0.00000000000E+00 0. -1.
          1    1    1    2  502    0  0.95033148119E+01  0.42630811139E+02  0.34533560220E+03  0.34808673804E+03  0.00000000000E+00 0. -1.
         22    1    3    3    0    0  0.75619628195E+02  0.26409992029E+02  0.10439891232E+03  0.13158627869E+03  0.00000000000E+00 0.  1.
         22    1    3    3    0    0  0.98308227610E+02 -0.80613178835E+02  0.43859502895E+02  0.13448660979E+03  0.00000000000E+00 0.  1.
</event>
<event>
 7    1  0.6607887E-006  0.1004024E+03  0.7818608E-02  0.1325518E+00
          2   -1    0    0  502    0  0.00000000000E+00  0.00000000000E+00  0.19245391724E+04  0.19245391724E+04  0.00000000000E+00 0. -1.
          1   -1    0    0  501    0 -0.00000000000E+00 -0.00000000000E+00 -0.13065401551E+04  0.13065401551E+04  0.00000000000E+00 0. -1.
         25    2    1    2    0    0  0.16279087386E+03 -0.24440580185E+02 -0.93811120700E+01  0.20690700866E+03  0.12499717756E+03 0.  0.
          2    1    1    2  501    0 -0.65731323191E+02  0.20821367491E+01 -0.11961337736E+04  0.11979402934E+04  0.00000000000E+00 0. -1.
          1    1    1    2  502    0 -0.97059550668E+02  0.22358443435E+02  0.18235139030E+04  0.18262320254E+04  0.00000000000E+00 0. -1.
         22    1    3    3    0    0  0.43832647438E+02  0.32614251376E+02  0.38190339316E+02  0.66659525885E+02  0.00000000000E+00 0.  1.
         22    1    3    3    0    0  0.11895822642E+03 -0.57054831560E+02 -0.47571451386E+02  0.14024748277E+03  0.00000000000E+00 0.  1.
</event>
<event>
 7    1  0.6607887E-006  0.1096260E+03  0.7818608E-02  0.1443447E+00
          2   -1    0    0  502    0  0.00000000000E+00  0.00000000000E+00  0.17346189024E+04  0.17346189024E+04  0.00000000000E+00 0. -1.
          1   -1    0    0  501    0 -0.00000000000E+00 -0.00000000000E+00 -0.17304353554E+03  0.17304353554E+03  0.00000000000E+00 0. -1.
         25    2    1    2    0    0 -0.10221612422E+03  0.63315178547E+02  0.14057236029E+04  0.14163828201E+04  0.12499798949E+03 0.  0.
          2    1    1    2  501    0  0.81359184393E+02 -0.73309427554E+02 -0.14935159936E+03  0.18520121297E+03  0.00000000000E+00 0. -1.
          1    1    1    2  502    0  0.20856939828E+02  0.99942490074E+01  0.30520336337E+03  0.30607840493E+03  0.00000000000E+00 0. -1.
         22    1    3    3    0    0 -0.52726020026E+02  0.98897488549E+02  0.86295028527E+03  0.87019764495E+03  0.00000000000E+00 0.  1.
         22    1    3    3    0    0 -0.49490104195E+02 -0.35582310002E+02  0.54277331762E+03  0.54618517512E+03  0.00000000000E+00 0.  1.
</event>
<event>
 7    1  0.6607887E-006  0.7443225E+02  0.7818608E-02  0.1410073E+00
          2   -1    0    0  502    0  0.00000000000E+00  0.00000000000E+00  0.31011198875E+04  0.31011198875E+04  0.00000000000E+00 0. -1.
          1   -1    0    0  501    0 -0.00000000000E+00 -0.00000000000E+00 -0.12630092797E+03  0.12630092797E+03  0.00000000000E+00 0. -1.
         25    2    1    2    0    0 -0.10639058058E+03 -0.52349924501E+01  0.12895988566E+04  0.13000137949E+04  0.12499718135E+03 0.  0.
          2    1    1    2  501    0  0.71166902786E+02 -0.21004097316E+02 -0.10943243038E+03  0.13221708276E+03  0.00000000000E+00 0. -1.
          1    1    1    2  502    0  0.35223677790E+02  0.26239089766E+02  0.17946525334E+04  0.17951899378E+04  0.00000000000E+00 0. -1.
         22    1    3    3    0    0 -0.89361009878E+02 -0.35411690088E+02  0.12016040942E+04  0.12054425648E+04  0.00000000000E+00 0. -1.
         22    1    3    3    0    0 -0.17029570698E+02  0.30176697638E+02  0.87994762333E+02  0.94571230067E+02  0.00000000000E+00 0. -1.
</event>
<event>
 7    1  0.6607887E-006  0.1360135E+03  0.7818608E-02  0.1421430E+00
          2   -1    0    0  502    0  0.00000000000E+00  0.00000000000E+00  0.46700832282E+03  0.46700832282E+03  0.00000000000E+00 0. -1.
          1   -1    0    0  501    0 -0.00000000000E+00 -0.00000000000E+00 -0.13175245058E+04  0.13175245058E+04  0.00000000000E+00 0. -1.
         25    2    1    2    0    0 -0.12562563534E+03 -0.76486979568E+02 -0.11584610267E+03  0.22511561406E+03  0.12499864755E+03 0.  0.
          2    1    1    2  501    0  0.12380785231E+03  0.54548054593E+02 -0.11427565863E+04  0.11507373679E+04  0.00000000000E+00 0. -1.
          1    1    1    2  502    0  0.18177830371E+01  0.21938924975E+02  0.40808650590E+03  0.40867984666E+03  0.00000000000E+00 0. -1.
         22    1    3    3    0    0 -0.12231770807E+03 -0.57585666310E+02 -0.13976366827E+03  0.19445208572E+03  0.00000000000E+00 0.  1.
         22    1    3    3    0    0 -0.33079272708E+01 -0.18901313258E+02  0.23917565600E+02  0.30663528334E+02  0.00000000000E+00 0.  1.
</event>
<event>
 7    1  0.6729952E-006  0.1230944E+03  0.7818608E-02  0.1341997E+00
          2   -1    0    0  502    0  0.00000000000E+00  0.00000000000E+00  0.16104116161E+04  0.16104116161E+04  0.00000000000E+00 0. -1.
          1   -1    0    0  501    0 -0.00000000000E+00 -0.00000000000E+00 -0.89435659548E+03  0.89435659548E+03  0.00000000000E+00 0. -1.
         25    2    1    2    0    0  0.52670275272E+02 -0.93972766575E+02 -0.14082544745E+03  0.21693789027E+03  0.12500081132E+03 0.  0.
          2    1    1    2  501    0  0.43403506948E+02  0.16520058685E+02 -0.71229620182E+03  0.71380855688E+03  0.00000000000E+00 0. -1.
          1    1    1    2  502    0 -0.96073782220E+02  0.77452707891E+02  0.15691766699E+04  0.15740217644E+04  0.00000000000E+00 0. -1.
         22    1    3    3    0    0  0.15032914841E+01  0.30341870844E+02 -0.21883277201E+02  0.37440176717E+02  0.00000000000E+00 0.  1.
         22    1    3    3    0    0  0.51166983788E+02 -0.12431463742E+03 -0.11894217025E+03  0.17949771355E+03  0.00000000000E+00 0.  1.
</event>
<event>
 7    1  0.6607887E-006  0.1320619E+03  0.7818608E-02  0.1335282E+00
          2   -1    0    0  502    0  0.00000000000E+00  0.00000000000E+00  0.34750632707E+03  0.34750632707E+03  0.00000000000E+00 0. -1.
          1   -1    0    0  501    0 -0.00000000000E+00 -0.00000000000E+00 -0.10033759111E+04  0.10033759111E+04  0.00000000000E+00 0. -1.
         25    2    1    2    0    0 -0.16768254087E+03 -0.45367527147E+02 -0.26111109763E+03  0.33760442492E+03  0.12498838100E+03 0.  0.
          2    1    1    2  501    0  0.45881768102E+02 -0.59964212026E+00 -0.68952094465E+03  0.69104603994E+03  0.00000000000E+00 0. -1.
          1    1    1    2  502    0  0.12180077277E+03  0.45967169267E+02  0.29476245828E+03  0.32223177328E+03  0.00000000000E+00 0. -1.
         22    1    3    3    0    0 -0.14347436696E+03 -0.84843931441E+02 -0.21720588874E+03  0.27379149873E+03  0.00000000000E+00 0.  1.
         22    1    3    3    0    0 -0.24208173915E+02  0.39476404294E+02 -0.43905208897E+02  0.63812926187E+02  0.00000000000E+00 0.  1.
</event>
<event>
 7    1  0.6607887E-006  0.1877801E+03  0.7818608E-02  0.1366536E+00
          2   -1    0    0  502    0  0.00000000000E+00  0.00000000000E+00  0.22038449668E+03  0.22038449668E+03  0.00000000000E+00 0. -1.
          1   -1    0    0  501    0 -0.00000000000E+00 -0.00000000000E+00 -0.26239125184E+03  0.26239125184E+03  0.00000000000E+00 0. -1.
         25    2    1    2    0    0 -0.14337740593E+03  0.13327661790E+03 -0.75264934666E+02  0.24414949168E+03  0.12499770594E+03 0.  0.
          2    1    1    2  501    0 -0.40374384972E+01 -0.24393940125E+02  0.48795381937E+02  0.54702417889E+02  0.00000000000E+00 0. -1.
          1    1    1    2  502    0  0.14741484443E+03 -0.10888267777E+03 -0.15537202432E+02  0.18392383896E+03  0.00000000000E+00 0. -1.
         22    1    3    3    0    0 -0.31644519388E+02 -0.15082373888E+02  0.14416339583E+02  0.37903620624E+02  0.00000000000E+00 0.  1.
         22    1    3    3    0    0 -0.11173288654E+03  0.14835899178E+03 -0.89681274249E+02  0.20624587106E+03  0.00000000000E+00 0.  1.
</event>
<event>
 7    1  0.6607887E-006  0.2137220E+03  0.7818608E-02  0.1162074E+00
          2   -1    0    0  502    0  0.00000000000E+00  0.00000000000E+00  0.68915321328E+03  0.68915321328E+03  0.00000000000E+00 0. -1.
          1   -1    0    0  501    0 -0.00000000000E+00 -0.00000000000E+00 -0.64239391699E+03  0.64239391699E+03  0.00000000000E+00 0. -1.
         25    2    1    2    0    0  0.13840145924E+02 -0.12554968894E+03  0.39855923219E+03  0.43638207055E+03  0.12500230359E+03 0.  0.
          2    1    1    2  501    0  0.14265417579E+03  0.16726883821E+03 -0.57717898830E+03  0.61762825603E+03  0.00000000000E+00 0. -1.
          1    1    1    2  502    0 -0.15649432172E+03 -0.41719149276E+02  0.22537905240E+03  0.27753680370E+03  0.00000000000E+00 0. -1.
         22    1    3    3    0    0  0.57833492100E+02 -0.18713216791E+02  0.11252129886E+03  0.12789034361E+03  0.00000000000E+00 0.  1.
         22    1    3    3    0    0 -0.43993346175E+02 -0.10683647215E+03  0.28603793333E+03  0.30849172694E+03  0.00000000000E+00 0.  1.
</event>
<event>
 7    1  0.6607887E-006  0.1204154E+03  0.7818608E-02  0.1402900E+00
          2   -1    0    0  502    0  0.00000000000E+00  0.00000000000E+00  0.18574581975E+03  0.18574581975E+03  0.00000000000E+00 0. -1.
          1   -1    0    0  501    0 -0.00000000000E+00 -0.00000000000E+00 -0.10910501410E+04  0.10910501410E+04  0.00000000000E+00 0. -1.
         25    2    1    2    0    0 -0.81327582039E+02  0.11542202516E+03 -0.11114264481E+03  0.21889247947E+03  0.12499924232E+03 0.  0.
          2    1    1    2  501    0  0.81552345626E+02 -0.86701816664E+02 -0.92059035806E+03  0.92825352003E+03  0.00000000000E+00 0. -1.
          1    1    1    2  502    0 -0.22476358752E+00 -0.28720208492E+02  0.12642868166E+03  0.12964996121E+03  0.00000000000E+00 0. -1.
         22    1    3    3    0    0  0.25250118939E+02  0.66126619448E+02 -0.35235954214E+02  0.79068772441E+02  0.00000000000E+00 0.  1.
         22    1    3    3    0    0 -0.10657770098E+03  0.49295405709E+02 -0.75906690591E+02  0.13982370702E+03  0.00000000000E+00 0.  1.
</event>
<event>
 7    1  0.6607887E-006  0.1744158E+03  0.7818608E-02  0.1195558E+00
          2   -1    0    0  502    0  0.00000000000E+00  0.00000000000E+00  0.88675250141E+03  0.88675250141E+03  0.00000000000E+00 0. -1.
          1   -1    0    0  501    0 -0.00000000000E+00 -0.00000000000E+00 -0.10852467100E+04  0.10852467100E+04  0.00000000000E+00 0. -1.
         25    2    1    2    0    0  0.74046971420E+02  0.23442521602E+02  0.29379624581E+03  0.32859384283E+03  0.12500069480E+03 0.  0.
          2    1    1    2  501    0  0.55425262391E+02  0.16537507129E+03 -0.10375099732E+04  0.10520683526E+04  0.00000000000E+00 0. -1.
          1    1    1    2  502    0 -0.12947223381E+03 -0.18881759289E+03  0.54521951887E+03  0.59133701598E+03  0.00000000000E+00 0. -1.
         22    1    3    3    0    0  0.25673062449E+00 -0.18226104416E+02  0.20515105160E+03  0.20595924540E+03  0.00000000000E+00 0.  1.
         22    1    3    3    0    0  0.73790240796E+02  0.41668626019E+02  0.88645194205E+02  0.12263459743E+03  0.00000000000E+00 0.  1.
</event>
<event>
 7    1  0.6607887E-006  0.1017356E+03  0.7818608E-02  0.1296607E+00
          2   -1    0    0  502    0  0.00000000000E+00  0.00000000000E+00  0.26254198412E+03  0.26254198412E+03  0.00000000000E+00 0. -1.
          1   -1    0    0  501    0 -0.00000000000E+00 -0.00000000000E+00 -0.29462785388E+03  0.29462785388E+03  0.00000000000E+00 0. -1.
         25    2    1    2    0    0  0.15854647472E+03  0.55109337310E+02 -0.38990388375E+02  0.21288097842E+03  0.12499614747E+03 0.  0.
          2    1    1    2  501    0 -0.92338153934E+02 -0.28669484573E+01 -0.14419227407E+03  0.17124825829E+03  0.00000000000E+00 0. -1.
          1    1    1    2  502    0 -0.66208320782E+02 -0.52242388852E+02  0.15109679269E+03  0.17304060129E+03  0.00000000000E+00 0. -1.
         22    1    3    3    0    0  0.17954218598E+03  0.41674178210E+02 -0.35657884956E+02  0.18773283792E+03  0.00000000000E+00 0. -1.
         22    1    3    3    0    0 -0.20995711260E+02  0.13435159099E+02 -0.33325034189E+01  0.25148140495E+02  0.00000000000E+00 0. -1.
</event>
<event>
 7    1  0.6607887E-006  0.1069389E+03  0.7818608E-02  0.1346038E+00
          2   -1    0    0  502    0  0.00000000000E+00  0.00000000000E+00  0.40021444606E+03  0.40021444606E+03  0.00000000000E+00 0. -1.
          1   -1    0    0  501    0 -0.00000000000E+00 -0.00000000000E+00 -0.49319120882E+03  0.49319120882E+03  0.00000000000E+00 0. -1.
         25    2    1    2    0    0  0.12987677896E+03  0.47798483844E+02  0.12772968801E+03  0.22603773451E+03  0.12500204579E+03 0.  0.
          2    1    1    2  501    0 -0.10604935944E+03 -0.19961777952E+01 -0.43458724255E+03  0.44734385292E+03  0.00000000000E+00 0. -1.
          1    1    1    2  502    0 -0.23827419518E+02 -0.45802306049E+02  0.21388079178E+03  0.22002406744E+03  0.00000000000E+00 0. -1.
         22    1    3    3    0    0  0.92664070554E+02  0.31292685604E+02  0.15042813786E+03  0.17942822187E+03  0.00000000000E+00 0.  1.
         22    1    3    3    0    0  0.37212708404E+02  0.16505798240E+02 -0.22698449854E+02  0.46609512635E+02  0.00000000000E+00 0.  1.
</event>
<event>
 7    1  0.6607887E-006  0.9891412E+02  0.7818608E-02  0.1426697E+00
          2   -1    0    0  502    0  0.00000000000E+00  0.00000000000E+00  0.25058171307E+04  0.25058171307E+04  0.00000000000E+00 0. -1.
          1   -1    0    0  501    0 -0.00000000000E+00 -0.00000000000E+00 -0.84619910330E+03  0.84619910330E+03  0.00000000000E+00 0. -1.
         25    2    1    2    0    0 -0.27131696225E+02 -0.10344080446E+03  0.84533186920E+03  0.86118956674E+03  0.12500148721E+03 0.  0.
          2    1    1    2  501    0  0.28568351010E+02  0.54105224169E+01 -0.83656334970E+03  0.83706849331E+03  0.00000000000E+00 0. -1.
          1    1    1    2  502    0 -0.14366547854E+01  0.98030282047E+02  0.16508495079E+04  0.16537581740E+04  0.00000000000E+00 0. -1.
         22    1    3    3    0    0 -0.87087317241E+01 -0.80442048557E+02  0.20809607422E+03  0.22327279568E+03  0.00000000000E+00 0. -1.
         22    1    3    3    0    0 -0.18422964501E+02 -0.22998755907E+02  0.63723579498E+03  0.63791677106E+03  0.00000000000E+00 0. -1.
</event>
<event>
 7    1  0.6607887E-006  0.8559212E+02  0.7818608E-02  0.1315190E+00
          2   -1    0    0  502    0  0.00000000000E+00  0.00000000000E+00  0.14388126107E+03  0.14388126107E+03  0.00000000000E+00 0. -1.
          1   -1    0    0  501    0 -0.00000000000E+00 -0.00000000000E+00 -0.33429425593E+03  0.33429425593E+03  0.00000000000E+00 0. -1.
         25    2    1    2    0    0 -0.66248075227E+02 -0.25719883995E+02  0.73005529938E+02  0.16125196508E+03  0.12498827520E+03 0.  0.
          2    1    1    2  501    0  0.67127464243E+02 -0.59867722010E+02 -0.14881007778E+03  0.17388122338E+03  0.00000000000E+00 0. -1.
          1    1    1    2  502    0 -0.87938901580E+00  0.85587606005E+02 -0.11460844702E+03  0.14304232854E+03  0.00000000000E+00 0. -1.
         22    1    3    3    0    0 -0.96289282885E+02 -0.39044313824E+02  0.32036893822E+02  0.10873107654E+03  0.00000000000E+00 0. -1.
         22    1    3    3    0    0  0.30041207659E+02  0.13324429829E+02  0.40968636116E+02  0.52520888540E+02  0.00000000000E+00 0. -1.
</event>
<event>
 7    1  0.6607887E-006  0.8110839E+02  0.7818608E-02  0.1433187E+00
          2   -1    0    0  502    0  0.00000000000E+00  0.00000000000E+00  0.60024132687E+02  0.60024132687E+02  0.00000000000E+00 0. -1.
          1   -1    0    0  501    0 -0.00000000000E+00 -0.00000000000E+00 -0.90438808843E+03  0.90438808843E+03  0.00000000000E+00 0. -1.
         25    2    1    2    0    0 -0.79581051923E+02  0.21920553900E+02 -0.54803762103E+03  0.56814668748E+03  0.12502707672E+03 0.  0.
          2    1    1    2  501    0  0.16438581518E+02  0.29483837378E+02 -0.31160096951E+03  0.31342413409E+03  0.00000000000E+00 0. -1.
          1    1    1    2  502    0  0.63142470405E+02 -0.51404391278E+02  0.15274634803E+02  0.82841399553E+02  0.00000000000E+00 0. -1.
         22    1    3    3    0    0 -0.10699679571E+03  0.19848508484E+02 -0.50834179051E+03  0.51985926323E+03  0.00000000000E+00 0.  1.
         22    1    3    3    0    0  0.27415743790E+02  0.20720454159E+01 -0.39695830524E+02  0.48287424250E+02  0.00000000000E+00 0.  1.
</event>
<event>
 7    1  0.6607887E-006  0.2825183E+02  0.7818608E-02  0.1631486E+00
          2   -1    0    0  502    0  0.00000000000E+00  0.00000000000E+00  0.19488773977E+04  0.19488773977E+04  0.00000000000E+00 0. -1.
          1   -1    0    0  501    0 -0.00000000000E+00 -0.00000000000E+00 -0.50722705121E+02  0.50722705121E+02  0.00000000000E+00 0. -1.
         25    2    1    2    0    0  0.17607869289E+02  0.16548300894E+02  0.10213889885E+04  0.10292908097E+04  0.12498088533E+03 0.  0.
          2    1    1    2  501    0  0.10569900128E+02 -0.23924484791E+02 -0.42866498190E+02  0.50215937991E+02  0.00000000000E+00 0. -1.
          1    1    1    2  502    0 -0.28177769417E+02  0.73761838977E+01  0.91963220226E+03  0.92009335517E+03  0.00000000000E+00 0. -1.
         22    1    3    3    0    0 -0.49860259800E+02  0.70523242101E+01  0.25806795504E+03  0.26293506841E+03  0.00000000000E+00 0.  1.
         22    1    3    3    0    0  0.67468129089E+02  0.94959766836E+01  0.76332103350E+03  0.76635574129E+03  0.00000000000E+00 0.  1.
</event>
<event>
 7    1  0.6607887E-006  0.6022199E+02  0.7818608E-02  0.1474490E+00
          2   -1    0    0  502    0  0.00000000000E+00  0.00000000000E+00  0.21642230896E+04  0.21642230896E+04  0.00000000000E+00 0. -1.
          1   -1    0    0  501    0 -0.00000000000E+00 -0.00000000000E+00 -0.10191798289E+02  0.10191798289E+02  0.00000000000E+00 0. -1.
         25    2    1    2    0    0 -0.33682162727E+02 -0.28965609052E+02  0.64417716959E+03  0.65769509001E+03  0.12500044406E+03 0.  0.
          2    1    1    2  501    0  0.33965315708E+02  0.62554594322E+02  0.39516693697E+03  0.40152662180E+03  0.00000000000E+00 0. -1.
          1    1    1    2  502    0 -0.28315298079E+00 -0.33588985269E+02  0.11146871848E+04  0.11151931761E+04  0.00000000000E+00 0. -1.
         22    1    3    3    0    0  0.63055618937E+01 -0.61807585326E+02  0.51190684638E+03  0.51566322060E+03  0.00000000000E+00 0.  1.
         22    1    3    3    0    0 -0.39987724621E+02  0.32841976274E+02  0.13227032321E+03  0.14203186941E+03  0.00000000000E+00 0.  1.
</event>
<event>
 7    1  0.6607887E-006  0.8483179E+02  0.7818608E-02  0.1440440E+00
          2   -1    0    0  502    0  0.00000000000E+00  0.00000000000E+00  0.19941624694E+03  0.19941624694E+03  0.00000000000E+00 0. -1.
          1   -1    0    0  501    0 -0.00000000000E+00 -0.00000000000E+00 -0.12892950581E+04  0.12892950581E+04  0.00000000000E+00 0. -1.
         25    2    1    2    0    0 -0.77273290239E+02 -0.79148776873E+02 -0.56093413121E+03  0.58524151429E+03  0.12499936090E+03 0.  0.
          2    1    1    2  501    0  0.56708146264E+02  0.56537061192E+02 -0.71270270239E+03  0.71718714095E+03  0.00000000000E+00 0. -1.
          1    1    1    2  502    0  0.20565143976E+02  0.22611715681E+02  0.18375802241E+03  0.18628264984E+03  0.00000000000E+00 0. -1.
         22    1    3    3    0    0 -0.30317146235E+02 -0.25611731090E+02 -0.46003428169E+03  0.46174303509E+03  0.00000000000E+00 0. -1.
         22    1    3    3    0    0 -0.46956144004E+02 -0.53537045783E+02 -0.10089984952E+03  0.12349847920E+03  0.00000000000E+00 0. -1.
</event>
<event>
 7    1  0.6607887E-006  0.6181691E+02  0.7818608E-02  0.1415455E+00
          2   -1    0    0  502    0  0.00000000000E+00  0.00000000000E+00  0.19874430114E+03  0.19874430114E+03  0.00000000000E+00 0. -1.
          1   -1    0    0  501    0 -0.00000000000E+00 -0.00000000000E+00 -0.98638207546E+03  0.98638207546E+03  0.00000000000E+00 0. -1.
         25    2    1    2    0    0 -0.11394697472E+02 -0.44578850785E+02 -0.85817263054E+01  0.13347443293E+03  0.12499866060E+03 0.  0.
          2    1    1    2  501    0 -0.47799335977E+02  0.16962592760E+02 -0.90677854894E+03  0.90819592759E+03  0.00000000000E+00 0. -1.
          1    1    1    2  502    0  0.59194033449E+02  0.27616258026E+02  0.12772250093E+03  0.14345601607E+03  0.00000000000E+00 0. -1.
         22    1    3    3    0    0  0.10960225992E+02 -0.48568310707E+02 -0.59582217291E+02  0.77646944409E+02  0.00000000000E+00 0. -1.
         22    1    3    3    0    0 -0.22354923464E+02  0.39894599220E+01  0.51000490985E+02  0.55827488519E+02  0.00000000000E+00 0. -1.
</event>
<event>
 7    1  0.6607887E-006  0.1741330E+03  0.7818608E-02  0.1236436E+00
          2   -1    0    0  502    0  0.00000000000E+00  0.00000000000E+00  0.18094227535E+04  0.18094227535E+04  0.00000000000E+00 0. -1.
          1   -1    0    0  501    0 -0.00000000000E+00 -0.00000000000E+00 -0.35284442919E+03  0.35284442919E+03  0.00000000000E+00 0. -1.
         25    2    1    2    0    0  0.22693698685E+03  0.10845363756E+03 -0.12783559611E+03  0.30859106228E+03  0.12499566628E+03 0.  0.
          2    1    1    2  501    0 -0.59753625230E+02 -0.65261327660E+02 -0.11522963241E+03  0.14528387660E+03  0.00000000000E+00 0. -1.
          1    1    1    2  502    0 -0.16718336162E+03 -0.43192309897E+02  0.16996435528E+04  0.17083922438E+04  0.00000000000E+00 0. -1.
         22    1    3    3    0    0  0.22845052724E+03  0.10183132829E+03 -0.14571220318E+03  0.28946728481E+03  0.00000000000E+00 0. -1.
         22    1    3    3    0    0 -0.15135403907E+01  0.66223092625E+01  0.17876607071E+02  0.19123777473E+02  0.00000000000E+00 0. -1.
</event>
<event>
 7    1  0.6607887E-006  0.5731025E+02  0.7818608E-02  0.1429185E+00
          2   -1    0    0  502    0  0.00000000000E+00  0.00000000000E+00  0.96184527376E+03  0.96184527376E+03  0.00000000000E+00 0. -1.
          1   -1    0    0  501    0 -0.00000000000E+00 -0.00000000000E+00 -0.10458115805E+03  0.10458115805E+03  0.00000000000E+00 0. -1.
         25    2    1    2    0    0  0.74260791785E+02 -0.75629037656E+02 -0.18184556818E+02  0.16492775274E+03  0.12504426809E+03 0.  0.
          2    1    1    2  501    0 -0.35639139769E+02  0.33981671239E+02  0.38192978175E+02  0.62318583468E+02  0.00000000000E+00 0. -1.
          1    1    1    2  502    0 -0.38621652016E+02  0.41647366417E+02  0.83725569435E+03  0.83918009560E+03  0.00000000000E+00 0. -1.
         22    1    3    3    0    0 -0.22069688353E+01  0.24234615128E+02 -0.29962424221E+02  0.38599665116E+02  0.00000000000E+00 0. -1.
         22    1    3    3    0    0  0.76467760620E+02 -0.99863652784E+02  0.11777867404E+02  0.12632808762E+03  0.00000000000E+00 0. -1.
</event>
<event>
 7    1  0.6607887E-006  0.1057786E+03  0.7818608E-02  0.1398157E+00
          2   -1    0    0  502    0  0.00000000000E+00  0.00000000000E+00  0.31956662141E+04  0.31956662141E+04  0.00000000000E+00 0. -1.
          1   -1    0    0  501    0 -0.00000000000E+00 -0.00000000000E+00 -0.12257474469E+04  0.12257474469E+04  0.00000000000E+00 0. -1.
         25    2    1    2    0    0  0.10929020232E+03  0.26194576743E+01  0.22089946707E+04  0.22152277719E+04  0.12500166547E+03 0.  0.
          2    1    1    2  501    0 -0.99752861568E+02 -0.35197759568E+02 -0.12200487709E+04  0.12246258690E+04  0.00000000000E+00 0. -1.
          1    1    1    2  502    0 -0.95373407502E+01  0.32578301894E+02  0.98097286738E+03  0.98156002015E+03  0.00000000000E+00 0. -1.
         22    1    3    3    0    0  0.65114660170E+02 -0.77948299502E+01  0.37633400095E+03  0.38200518140E+03  0.00000000000E+00 0.  1.
         22    1    3    3    0    0  0.44175542148E+02  0.10414287624E+02  0.18326606698E+04  0.18332225905E+04  0.00000000000E+00 0.  1.
</event>
<event>
 7    1  0.6607887E-006  0.5484150E+03  0.7818608E-02  0.1132151E+00
          2   -1    0    0  502    0  0.00000000000E+00  0.00000000000E+00  0.77349864147E+03  0.77349864147E+03  0.00000000000E+00 0. -1.
          1   -1    0    0  501    0 -0.00000000000E+00 -0.00000000000E+00 -0.13095572972E+04  0.13095572972E+04  0.00000000000E+00 0. -1.
         25    2    1    2    0    0 -0.43419363067E+03 -0.39755423030E+03 -0.36246842550E+03  0.70255416392E+03  0.12500207525E+03 0.  0.
          2    1    1    2  501    0  0.34412011667E+03  0.40103444549E+03 -0.68278484611E+03  0.86339007826E+03  0.00000000000E+00 0. -1.
          1    1    1    2  502    0  0.90073514003E+02 -0.34802151937E+01  0.50919461587E+03  0.51711169650E+03  0.00000000000E+00 0. -1.
         22    1    3    3    0    0  0.84755906159E+01 -0.10654549057E+02 -0.11675552595E+02  0.17935260810E+02  0.00000000000E+00 0. -1.
         22    1    3    3    0    0 -0.44266922128E+03 -0.38689968124E+03 -0.35079287291E+03  0.68461890311E+03  0.00000000000E+00 0. -1.
</event>
<event>
 7    1  0.6607887E-006  0.5626946E+02  0.7818608E-02  0.1463765E+00
          2   -1    0    0  502    0  0.00000000000E+00  0.00000000000E+00  0.21808068443E+03  0.21808068443E+03  0.00000000000E+00 0. -1.
          1   -1    0    0  501    0 -0.00000000000E+00 -0.00000000000E+00 -0.84063347089E+03  0.84063347089E+03  0.00000000000E+00 0. -1.
         25    2    1    2    0    0 -0.38661090008E+02  0.17083416162E+02 -0.48449209697E+03  0.50214148772E+03  0.12500783445E+03 0.  0.
          2    1    1    2  501    0  0.16822155218E+02  0.34989934263E+02 -0.34239014289E+03  0.34458422824E+03  0.00000000000E+00 0. -1.
          1    1    1    2  502    0  0.21838934789E+02 -0.52073350425E+02  0.20432945340E+03  0.21198843936E+03  0.00000000000E+00 0. -1.
         22    1    3    3    0    0  0.38909735022E+02  0.64060405287E+01 -0.70224354620E+02  0.80538592095E+02  0.00000000000E+00 0. -1.
         22    1    3    3    0    0 -0.77570825030E+02  0.10677375634E+02 -0.41426774235E+03  0.42160289562E+03  0.00000000000E+00 0. -1.
</event>
<event>
 7    1  0.6607887E-006  0.3598567E+02  0.7818608E-02  0.1613983E+00
          2   -1    0    0  502    0  0.00000000000E+00  0.00000000000E+00  0.86602370662E+03  0.86602370662E+03  0.00000000000E+00 0. -1.
          1   -1    0    0  501    0 -0.00000000000E+00 -0.00000000000E+00 -0.57857617071E+02  0.57857617071E+02  0.00000000000E+00 0. -1.
         25    2    1    2    0    0  0.94436062011E+01 -0.38519743069E+02  0.58441007707E+03  0.59894345789E+03  0.12500070102E+03 0.  0.
          2    1    1    2  501    0  0.17687456194E+02  0.14301271614E+02 -0.46754397397E+02  0.51993712624E+02  0.00000000000E+00 0. -1.
          1    1    1    2  502    0 -0.27131062395E+02  0.24218471454E+02  0.27051040987E+03  0.27294415318E+03  0.00000000000E+00 0. -1.
         22    1    3    3    0    0 -0.44192756365E+02  0.22749815180E+02  0.21848998417E+03  0.22407236998E+03  0.00000000000E+00 0. -1.
         22    1    3    3    0    0  0.53636362567E+02 -0.61269558249E+02  0.36592009290E+03  0.37487108790E+03  0.00000000000E+00 0. -1.
</event>
<event>
 7    1  0.6607887E-006  0.1155013E+03  0.7818608E-02  0.1378603E+00
          2   -1    0    0  502    0  0.00000000000E+00  0.00000000000E+00  0.12535238820E+04  0.12535238820E+04  0.00000000000E+00 0. -1.
          1   -1    0    0  501    0 -0.00000000000E+00 -0.00000000000E+00 -0.19896984747E+04  0.19896984747E+04  0.00000000000E+00 0. -1.
         25    2    1    2    0    0 -0.50101823669E+02  0.63979773033E+02  0.41755801506E+02  0.15483154291E+03  0.12500262249E+03 0.  0.
          2    1    1    2  501    0 -0.17413473267E+02  0.31954713083E+02 -0.19300104940E+04  0.19303535531E+04  0.00000000000E+00 0. -1.
          1    1    1    2  502    0  0.67515296936E+02 -0.95934486116E+02  0.11520800998E+04  0.11580372607E+04  0.00000000000E+00 0. -1.
         22    1    3    3    0    0 -0.22288464675E+02  0.23483243553E+01  0.75859725081E+02  0.79101126252E+02  0.00000000000E+00 0.  1.
         22    1    3    3    0    0 -0.27813358994E+02  0.61631448678E+02 -0.34103923575E+02  0.75730416662E+02  0.00000000000E+00 0.  1.
</event>
<event>
 7    1  0.6607887E-006  0.1180866E+03  0.7818608E-02  0.1284885E+00
          2   -1    0    0  502    0  0.00000000000E+00  0.00000000000E+00  0.33059820508E+03  0.33059820508E+03  0.00000000000E+00 0. -1.
          1   -1    0    0  501    0 -0.00000000000E+00 -0.00000000000E+00 -0.12237688153E+04  0.12237688153E+04  0.00000000000E+00 0. -1.
         25    2    1    2    0    0 -0.93767499915E+02 -0.10231080259E+03 -0.49520946433E+03  0.52926093897E+03  0.12499953437E+03 0.  0.
          2    1    1    2  501    0 -0.21908752239E+02  0.78063627613E+02 -0.69796593900E+03  0.70265950174E+03  0.00000000000E+00 0. -1.
          1    1    1    2  502    0  0.11567625215E+03  0.24247174973E+02  0.30000479315E+03  0.32244657963E+03  0.00000000000E+00 0. -1.
         22    1    3    3    0    0 -0.10953515047E+03 -0.36635631089E+02 -0.25902824857E+03  0.28361197473E+03  0.00000000000E+00 0.  1.
         22    1    3    3    0    0  0.15767650553E+02 -0.65675171497E+02 -0.23618121576E+03  0.24564896424E+03  0.00000000000E+00 0.  1.
</event>
<event>
 7    1  0.6607887E-006  0.1452193E+03  0.7818608E-02  0.1210660E+00
          2   -1    0    0  502    0  0.00000000000E+00  0.00000000000E+00  0.98616349968E+03  0.98616349968E+03  0.00000000000E+00 0. -1.
          1   -1    0    0  501    0 -0.00000000000E+00 -0.00000000000E+00 -0.14085616597E+03  0.14085616597E+03  0.00000000000E+00 0. -1.
         25    2    1    2    0    0  0.31421055838E+02  0.13856248935E+03  0.27103304189E+03  0.33056021381E+03  0.12499719579E+03 0.  0.
          2    1    1    2  501    0  0.10548008417E+03 -0.11534546026E+03 -0.44325733806E+02  0.16246659360E+03  0.00000000000E+00 0. -1.
          1    1    1    2  502    0 -0.13690114001E+03 -0.23217029095E+02  0.61860002562E+03  0.63399285822E+03  0.00000000000E+00 0. -1.
         22    1    3    3    0    0  0.77591800252E+02  0.75184829715E+02  0.12852852012E+03  0.16790719630E+03  0.00000000000E+00 0. -1.
         22    1    3    3    0    0 -0.46170744414E+02  0.63377659637E+02  0.14250452177E+03  0.16265301751E+03  0.00000000000E+00 0. -1.
</event>
<event>
 7    1  0.6607887E-006  0.1081533E+03  0.7818608E-02  0.1365187E+00
          2   -1    0    0  502    0  0.00000000000E+00  0.00000000000E+00  0.20192084771E+03  0.20192084771E+03  0.00000000000E+00 0. -1.
          1   -1    0    0  501    0 -0.00000000000E+00 -0.00000000000E+00 -0.54606379769E+03  0.54606379769E+03  0.00000000000E+00 0. -1.
         25    2    1    2    0    0  0.11899936660E+03  0.88089183246E+02  0.44320823835E+02  0.19874026677E+03  0.12495120949E+03 0.  0.
          2    1    1    2  501    0 -0.79216643899E+02 -0.70705086137E+02 -0.45641748432E+03  0.46860581075E+03  0.00000000000E+00 0. -1.
          1    1    1    2  502    0 -0.39782722703E+02 -0.17384097109E+02  0.67953710503E+02  0.80638567876E+02  0.00000000000E+00 0. -1.
         22    1    3    3    0    0  0.32089960835E+02  0.91162476117E+00  0.66329665451E+02  0.73690034367E+02  0.00000000000E+00 0.  1.
         22    1    3    3    0    0  0.86909405767E+02  0.87177558485E+02 -0.22008841616E+02  0.12505023240E+03  0.00000000000E+00 0.  1.
</event>
<event>
 7    1  0.6607887E-006  0.6330955E+02  0.7818608E-02  0.1407462E+00
          2   -1    0    0  502    0  0.00000000000E+00  0.00000000000E+00  0.16448534298E+04  0.16448534298E+04  0.00000000000E+00 0. -1.
          1   -1    0    0  501    0 -0.00000000000E+00 -0.00000000000E+00 -0.35691824950E+03  0.35691824950E+03  0.00000000000E+00 0. -1.
         25    2    1    2    0    0  0.52519922332E+02 -0.92461436148E+02  0.41213879464E+02  0.16920361849E+03  0.12499528485E+03 0.  0.
          2    1    1    2  501    0 -0.38317878210E+01  0.52564613015E+02 -0.28990309242E+03  0.29465492383E+03  0.00000000000E+00 0. -1.
          1    1    1    2  502    0 -0.48688134511E+02  0.39896823133E+02  0.15366243932E+04  0.15379131369E+04  0.00000000000E+00 0. -1.
         22    1    3    3    0    0  0.33992760898E+01  0.22795652913E+02 -0.19305328694E+02  0.30064806430E+02  0.00000000000E+00 0. -1.
         22    1    3    3    0    0  0.49120646242E+02 -0.11525708906E+03  0.60519208159E+02  0.13913881206E+03  0.00000000000E+00 0. -1.
</event>
<event>
 7    1  0.6607887E-006  0.1140260E+03  0.7818608E-02  0.1288789E+00
          2   -1    0    0  502    0  0.00000000000E+00  0.00000000000E+00  0.80154878697E+03  0.80154878697E+03  0.00000000000E+00 0. -1.
          1   -1    0    0  501    0 -0.00000000000E+00 -0.00000000000E+00 -0.30452795262E+04  0.30452795262E+04  0.00000000000E+00 0. -1.
         25    2    1    2    0    0  0.80648105327E+02  0.90710140778E+02 -0.13491847747E+03  0.22036433769E+03  0.12499999693E+03 0.  0.
          2    1    1    2  501    0 -0.11335147206E+03 -0.16673435530E+02 -0.28643313728E+04  0.28666218398E+04  0.00000000000E+00 0. -1.
          1    1    1    2  502    0  0.32703366730E+02 -0.74036705248E+02  0.75551911103E+03  0.75984213561E+03  0.00000000000E+00 0. -1.
         22    1    3    3    0    0 -0.25558100411E+02  0.57274314762E+02 -0.53333351446E+02  0.82328670610E+02  0.00000000000E+00 0.  1.
         22    1    3    3    0    0  0.10620620574E+03  0.33435826016E+02 -0.81585126025E+02  0.13803566708E+03  0.00000000000E+00 0.  1.
</event>
<event>
 7    1  0.6607887E-006  0.9953690E+02  0.7818608E-02  0.1441344E+00
          2   -1    0    0  502    0  0.00000000000E+00  0.00000000000E+00  0.17981257078E+03  0.17981257078E+03  0.00000000000E+00 0. -1.
          1   -1    0    0  501    0 -0.00000000000E+00 -0.00000000000E+00 -0.61086152802E+03  0.61086152802E+03  0.00000000000E+00 0. -1.
         25    2    1    2    0    0 -0.77491318886E+02  0.42104425702E+02  0.39380999161E+01  0.15302864080E+03  0.12499827642E+03 0.  0.
          2    1    1    2  501    0  0.74050291636E+02 -0.67748811163E+02 -0.52987315608E+03  0.53929482534E+03  0.00000000000E+00 0. -1.
          1    1    1    2  502    0  0.34410272506E+01  0.25644385461E+02  0.94886098923E+02  0.98350632652E+02  0.00000000000E+00 0. -1.
         22    1    3    3    0    0 -0.73674862208E+02 -0.63649807412E+01  0.47382348883E+02  0.87827019116E+02  0.00000000000E+00 0.  1.
         22    1    3    3    0    0 -0.38164566785E+01  0.48469406443E+02 -0.43444248967E+02  0.65201621688E+02  0.00000000000E+00 0.  1.
</event>
<event>
 7    1  0.6607887E-006  0.1147629E+03  0.7818608E-02  0.1410255E+00
          2   -1    0    0  502    0  0.00000000000E+00  0.00000000000E+00  0.43877705841E+02  0.43877705841E+02  0.00000000000E+00 0. -1.
          1   -1    0    0  501    0 -0.00000000000E+00 -0.00000000000E+00 -0.24545848686E+04  0.24545848686E+04  0.00000000000E+00 0. -1.
         25    2    1    2    0    0 -0.16158078191E+02  0.13820787065E+03 -0.86202740210E+03  0.88208940575E+03  0.12501191447E+03 0.  0.
          2    1    1    2  501    0  0.11249530726E+02 -0.26127881019E+02 -0.14890525957E+04  0.14893242934E+04  0.00000000000E+00 0. -1.
          1    1    1    2  502    0  0.49085474651E+01 -0.11207998963E+03 -0.59627164951E+02  0.12704887530E+03  0.00000000000E+00 0. -1.
         22    1    3    3    0    0  0.18589171069E+02  0.36225392713E+02 -0.55896134145E+03  0.56044234101E+03  0.00000000000E+00 0. -1.
         22    1    3    3    0    0 -0.34747249261E+02  0.10198247794E+03 -0.30306606065E+03  0.32164706474E+03  0.00000000000E+00 0. -1.
</event>
<event>
 7    1  0.6607887E-006  0.5320221E+02  0.7818608E-02  0.1458132E+00
          2   -1    0    0  502    0  0.00000000000E+00  0.00000000000E+00  0.32132287440E+04  0.32132287440E+04  0.00000000000E+00 0. -1.
          1   -1    0    0  501    0 -0.00000000000E+00 -0.00000000000E+00 -0.99878715962E+03  0.99878715962E+03  0.00000000000E+00 0. -1.
         25    2    1    2    0    0  0.60592605685E+02  0.45878698078E+02 -0.18698822592E+02  0.14747201880E+03  0.12498812568E+03 0.  0.
          2    1    1    2  501    0 -0.18009870388E+02 -0.49925218721E+02 -0.91478726626E+03  0.91632561102E+03  0.00000000000E+00 0. -1.
          1    1    1    2  502    0 -0.42582735297E+02  0.40465206431E+01  0.31479276732E+04  0.31482182738E+04  0.00000000000E+00 0. -1.
         22    1    3    3    0    0  0.65190707800E+02 -0.26773105627E+02  0.56759801537E+01  0.70702505748E+02  0.00000000000E+00 0.  1.
         22    1    3    3    0    0 -0.45981021151E+01  0.72651803705E+02 -0.24374802745E+02  0.76769513047E+02  0.00000000000E+00 0.  1.
</event>
<event>
 7    1  0.6607887E-006  0.1181726E+03  0.7818608E-02  0.1268073E+00
          2   -1    0    0  502    0  0.00000000000E+00  0.00000000000E+00  0.25598169034E+03  0.25598169034E+03  0.00000000000E+00 0. -1.
          1   -1    0    0  501    0 -0.00000000000E+00 -0.00000000000E+00 -0.14455446497E+04  0.14455446497E+04  0.00000000000E+00 0. -1.
         25    2    1    2    0    0  0.21482802197E+02 -0.20302824531E+03 -0.69353124973E+03  0.73368443107E+03  0.12500108347E+03 0.  0.
          2    1    1    2  501    0 -0.37252689743E+02  0.87568591965E+02 -0.71419462496E+03  0.72050675466E+03  0.00000000000E+00 0. -1.
          1    1    1    2  502    0  0.15769887547E+02  0.11545965335E+03  0.21816291535E+03  0.24733515427E+03  0.00000000000E+00 0. -1.
         22    1    3    3    0    0  0.38644165155E+02 -0.83384366939E+02 -0.47635221819E+03  0.48513684659E+03  0.00000000000E+00 0. -1.
         22    1    3    3    0    0 -0.17161362959E+02 -0.11964387837E+03 -0.21717903154E+03  0.24854758448E+03  0.00000000000E+00 0. -1.
</event>
<event>
 7    1  0.6607887E-006  0.7398906E+02  0.7818608E-02  0.1508272E+00
          2   -1    0    0  502    0  0.00000000000E+00  0.00000000000E+00  0.12721674350E+03  0.12721674350E+03  0.00000000000E+00 0. -1.
          1   -1    0    0  501    0 -0.00000000000E+00 -0.00000000000E+00 -0.20921348794E+04  0.20921348794E+04  0.00000000000E+00 0. -1.
         25    2    1    2    0    0  0.18524963712E+02 -0.87727875188E+02 -0.40912047471E+02  0.15917761627E+03  0.12499745409E+03 0.  0.
          2    1    1    2  501    0 -0.19965306277E+01  0.73797348671E+02 -0.19896723591E+04  0.19910414690E+04  0.00000000000E+00 0. -1.
          1    1    1    2  502    0 -0.16528433085E+02  0.13930526518E+02  0.65666270603E+02  0.69132537666E+02  0.00000000000E+00 0. -1.
         22    1    3    3    0    0  0.24833863839E+01 -0.10019104607E+03  0.13472195443E+02  0.10112325633E+03  0.00000000000E+00 0. -1.
         22    1    3    3    0    0  0.16041577328E+02  0.12463170879E+02 -0.54384242913E+02  0.58054359947E+02  0.00000000000E+00 0. -1.
</event>
<event>
 7    1  0.6607887E-006  0.7954595E+02  0.7818608E-02  0.1420358E+00
          2   -1    0    0  502    0  0.00000000000E+00  0.00000000000E+00  0.21214747054E+03  0.21214747054E+03  0.00000000000E+00 0. -1.
          1   -1    0    0  501    0 -0.00000000000E+00 -0.00000000000E+00 -0.34531340663E+03  0.34531340663E+03  0.00000000000E+00 0. -1.
         25    2    1    2    0    0 -0.13677679338E+01  0.73173774507E+02  0.84204782068E+02  0.16754583230E+03  0.12499955413E+03 0.  0.
          2    1    1    2  501    0  0.39183114922E+02 -0.69947362796E+02 -0.29382063848E+03  0.30456283039E+03  0.00000000000E+00 0. -1.
          1    1    1    2  502    0 -0.37815346988E+02 -0.32264117114E+01  0.76449920322E+02  0.85352214486E+02  0.00000000000E+00 0. -1.
         22    1    3    3    0    0 -0.53625695493E+02  0.42268751876E+02  0.82117787008E+02  0.10679744166E+03  0.00000000000E+00 0.  1.
         22    1    3    3    0    0  0.52257927559E+02  0.30905022632E+02  0.20869950602E+01  0.60748390637E+02  0.00000000000E+00 0.  1.
</event>
<event>
 7    1  0.6607887E-006  0.3666570E+02  0.7818608E-02  0.1609269E+00
          2   -1    0    0  502    0  0.00000000000E+00  0.00000000000E+00  0.13486992298E+04  0.13486992298E+04  0.00000000000E+00 0. -1.
          1   -1    0    0  501    0 -0.00000000000E+00 -0.00000000000E+00 -0.16967077548E+04  0.16967077548E+04  0.00000000000E+00 0. -1.
         25    2    1    2    0    0 -0.19943668825E+02  0.44852732721E+02 -0.81788964988E+03  0.82884146996E+03  0.12500074152E+03 0.  0.
          2    1    1    2  501    0 -0.12817160654E+01 -0.36106886276E+02 -0.87287037429E+03  0.87361778848E+03  0.00000000000E+00 0. -1.
          1    1    1    2  502    0  0.21225384891E+02 -0.87458464454E+01  0.13427514992E+04  0.13429477262E+04  0.00000000000E+00 0. -1.
         22    1    3    3    0    0  0.22749172595E+02 -0.34359644928E+02 -0.34632898471E+03  0.34877195372E+03  0.00000000000E+00 0.  1.
         22    1    3    3    0    0 -0.42692841420E+02  0.79212377649E+02 -0.47156066518E+03  0.48006951624E+03  0.00000000000E+00 0.  1.
</event>
<event>
 7    1  0.6607887E-006  0.5065218E+03  0.7818608E-02  0.1263041E+00
          2   -1    0    0  502    0  0.00000000000E+00  0.00000000000E+00  0.17452911703E+04  0.17452911703E+04  0.00000000000E+00 0. -1.
          1   -1    0    0  501    0 -0.00000000000E+00 -0.00000000000E+00 -0.10331523690E+04  0.10331523690E+04  0.00000000000E+00 0. -1.
         25    2    1    2    0    0  0.50947105160E+03 -0.33358864650E+02  0.33884644562E+02  0.52673117082E+03  0.12499596357E+03 0.  0.
          2    1    1    2  501    0 -0.50535904508E+03  0.10407310831E+02 -0.70543140124E+03  0.86783036270E+03  0.00000000000E+00 0. -1.
          1    1    1    2  502    0 -0.41120065173E+01  0.22951553819E+02  0.13836855580E+04  0.13838820058E+04  0.00000000000E+00 0. -1.
         22    1    3    3    0    0  0.26072626199E+03 -0.23957183747E+02 -0.44882697300E+02  0.26564372167E+03  0.00000000000E+00 0. -1.
         22    1    3    3    0    0  0.24874478961E+03 -0.94016809028E+01  0.78767341862E+02  0.26108744915E+03  0.00000000000E+00 0. -1.
</event>
<event>
 7    1  0.6607887E-006  0.1113842E+03  0.7818608E-02  0.1427928E+00
          2   -1    0    0  502    0  0.00000000000E+00  0.00000000000E+00  0.19268189616E+03  0.19268189616E+03  0.00000000000E+00 0. -1.
          1   -1    0    0  501    0 -0.00000000000E+00 -0.00000000000E+00 -0.56537078529E+03  0.56537078529E+03  0.00000000000E+00 0. -1.
         25    2    1    2    0    0 -0.57958957529E+02 -0.11766054542E+03 -0.14615698763E+03  0.23278779892E+03  0.12500019834E+03 0.  0.
          2    1    1    2  501    0  0.56171983664E+02  0.92142833113E+02 -0.36697404628E+03  0.38251214894E+03  0.00000000000E+00 0. -1.
          1    1    1    2  502    0  0.17869738646E+01  0.25517712306E+02  0.14044214478E+03  0.14275273359E+03  0.00000000000E+00 0. -1.
         22    1    3    3    0    0  0.21486663145E+02 -0.85594873673E+02 -0.41456302225E+02  0.97502738866E+02  0.00000000000E+00 0. -1.
         22    1    3    3    0    0 -0.79445620674E+02 -0.32065671747E+02 -0.10470068541E+03  0.13528506005E+03  0.00000000000E+00 0. -1.
</event>
<event>
 7    1  0.6607887E-006  0.2055806E+03  0.7818608E-02  0.1230682E+00
          2   -1    0    0  502    0  0.00000000000E+00  0.00000000000E+00  0.10284081992E+03  0.10284081992E+03  0.00000000000E+00 0. -1.
          1   -1    0    0  501    0 -0.00000000000E+00 -0.00000000000E+00 -0.18181634237E+04  0.18181634237E+04  0.00000000000E+00 0. -1.
         25    2    1    2    0    0  0.21944240368E+03 -0.92033857131E+02 -0.30863022971E+03  0.40927171585E+03  0.12500207724E+03 0.  0.
          2    1    1    2  501    0 -0.20196814583E+03  0.14468550147E+02 -0.14171461871E+04  0.14315389573E+04  0.00000000000E+00 0. -1.
          1    1    1    2  502    0 -0.17474257857E+02  0.77565306984E+02  0.10453812973E+02  0.80193570446E+02  0.00000000000E+00 0. -1.
         22    1    3    3    0    0 -0.77562453767E+01 -0.70736840259E+00 -0.59293198971E+02  0.59802534701E+02  0.00000000000E+00 0.  1.
         22    1    3    3    0    0  0.22719864906E+03 -0.91326488728E+02 -0.24933703074E+03  0.34946918115E+03  0.00000000000E+00 0.  1.
</event>
<event>
 7    1  0.6607887E-006  0.2585453E+03  0.7818608E-02  0.1272523E+00
          2   -1    0    0  502    0  0.00000000000E+00  0.00000000000E+00  0.14888298168E+04  0.14888298168E+04  0.00000000000E+00 0. -1.
          1   -1    0    0  501    0 -0.00000000000E+00 -0.00000000000E+00 -0.92913265624E+03  0.92913265624E+03  0.00000000000E+00 0. -1.
         25    2    1    2    0    0  0.27391549698E+03  0.53215070551E+02 -0.49877765608E+02  0.30979386494E+03  0.12499161585E+03 0.  0.
          2    1    1    2  501    0 -0.17053000190E+02 -0.38015390720E+02 -0.73652183835E+03  0.73769939211E+03  0.00000000000E+00 0. -1.
          1    1    1    2  502    0 -0.25686249679E+03 -0.15199679830E+02  0.13460967646E+04  0.13704692160E+04  0.00000000000E+00 0. -1.
         22    1    3    3    0    0  0.25692597130E+02 -0.33398466756E+02  0.34829904503E+00  0.42138918367E+02  0.00000000000E+00 0.  1.
         22    1    3    3    0    0  0.24822289985E+03  0.86613537307E+02 -0.50226064653E+02  0.26765494658E+03  0.00000000000E+00 0.  1.
</event>
<event>
 7    1  0.6607887E-006  0.6979010E+02  0.7818608E-02  0.1360860E+00
          2   -1    0    0  502    0  0.00000000000E+00  0.00000000000E+00  0.13415280424E+04  0.13415280424E+04  0.00000000000E+00 0. -1.
          1   -1    0    0  501    0 -0.00000000000E+00 -0.00000000000E+00 -0.14441771909E+03  0.14441771909E+03  0.00000000000E+00 0. -1.
         25    2    1    2    0    0 -0.73053400344E+01 -0.21830157756E+02  0.12513343588E+03  0.17836263078E+03  0.12499971001E+03 0.  0.
          2    1    1    2  501    0  0.74535308436E+02  0.32137838400E+01 -0.10485400295E+03  0.12868645051E+03  0.00000000000E+00 0. -1.
          1    1    1    2  502    0 -0.67229968402E+02  0.18616373916E+02  0.11768308904E+04  0.11788966802E+04  0.00000000000E+00 0. -1.
         22    1    3    3    0    0 -0.65675240726E+02 -0.17687428258E+02  0.75632200879E+02  0.10171682345E+03  0.00000000000E+00 0. -1.
         22    1    3    3    0    0  0.58369900692E+02 -0.41427294982E+01  0.49501235002E+02  0.76645807330E+02  0.00000000000E+00 0. -1.
</event>
<event>
 7    1  0.6607887E-006  0.8037484E+02  0.7818608E-02  0.1385953E+00
          2   -1    0    0  502    0  0.00000000000E+00  0.00000000000E+00  0.33731994395E+03  0.33731994395E+03  0.00000000000E+00 0. -1.
          1   -1    0    0  501    0 -0.00000000000E+00 -0.00000000000E+00 -0.15870219984E+04  0.15870219984E+04  0.00000000000E+00 0. -1.
         25    2    1    2    0    0 -0.58038640299E+02 -0.82596425675E+01 -0.41516456631E+03  0.43752404713E+03  0.12501587592E+03 0.  0.
          2    1    1    2  501    0  0.62342234962E+02  0.57334176172E+02 -0.11572608964E+04  0.11603562144E+04  0.00000000000E+00 0. -1.
          1    1    1    2  502    0 -0.43035946631E+01 -0.49074533605E+02  0.32272340827E+03  0.32646168078E+03  0.00000000000E+00 0. -1.
         22    1    3    3    0    0  0.30453614569E+02  0.24938300714E+02 -0.78089087874E+02  0.87448539883E+02  0.00000000000E+00 0.  1.
         22    1    3    3    0    0 -0.88492254868E+02 -0.33197943282E+02 -0.33707547844E+03  0.35007550725E+03  0.00000000000E+00 0.  1.
</event>
<event>
 7    1  0.1188192E-005  0.7349185E+02  0.7818608E-02  0.1349904E+00
          2   -1    0    0  502    0  0.00000000000E+00  0.00000000000E+00  0.93546850980E+03  0.93546850980E+03  0.00000000000E+00 0. -1.
          1   -1    0    0  501    0 -0.00000000000E+00 -0.00000000000E+00 -0.16822565251E+04  0.16822565251E+04  0.00000000000E+00 0. -1.
         25    2    1    2    0    0 -0.35473039422E+02  0.14151963654E+02 -0.25659915334E+03  0.28796566022E+03  0.12498992508E+03 0.  0.
          2    1    1    2  501    0 -0.10507670604E+02 -0.71918044851E+02 -0.14075533333E+04  0.14094286085E+04  0.00000000000E+00 0. -1.
          1    1    1    2  502    0  0.45980710026E+02  0.57766081197E+02  0.91736447137E+03  0.92033076617E+03  0.00000000000E+00 0. -1.
         22    1    3    3    0    0  0.11696545804E+02  0.51097060443E+02 -0.48504706607E+02  0.71417262148E+02  0.00000000000E+00 0. -1.
         22    1    3    3    0    0 -0.47169585226E+02 -0.36945096789E+02 -0.20809444673E+03  0.21654839807E+03  0.00000000000E+00 0. -1.
</event>
<event>
 7    1  0.6607887E-006  0.1486493E+03  0.7818608E-02  0.1253012E+00
          2   -1    0    0  502    0  0.00000000000E+00  0.00000000000E+00  0.11000379343E+04  0.11000379343E+04  0.00000000000E+00 0. -1.
          1   -1    0    0  501    0 -0.00000000000E+00 -0.00000000000E+00 -0.45393100629E+03  0.45393100629E+03  0.00000000000E+00 0. -1.
         25    2    1    2    0    0  0.59284467427E+02  0.11532898578E+03  0.34803677438E+02  0.18344410398E+03  0.12500008114E+03 0.  0.
          2    1    1    2  501    0 -0.80380254217E+02  0.35100179589E+02 -0.36861332064E+03  0.37890472157E+03  0.00000000000E+00 0. -1.
          1    1    1    2  502    0  0.21095786790E+02 -0.15042916536E+03  0.97991657118E+03  0.99162011501E+03  0.00000000000E+00 0. -1.
         22    1    3    3    0    0 -0.37715863334E+02  0.39662759958E+02 -0.27981784567E+01  0.54803746927E+02  0.00000000000E+00 0.  1.
         22    1    3    3    0    0  0.97000330761E+02  0.75666225817E+02  0.37601855894E+02  0.12864035706E+03  0.00000000000E+00 0.  1.
</event>
<event>
 7    1  0.6607887E-006  0.4686862E+03  0.7818608E-02  0.1227705E+00
          2   -1    0    0  502    0  0.00000000000E+00  0.00000000000E+00  0.29241931918E+04  0.29241931918E+04  0.00000000000E+00 0. -1.
          1   -1    0    0  501    0 -0.00000000000E+00 -0.00000000000E+00 -0.16164934303E+03  0.16164934303E+03  0.00000000000E+00 0. -1.
         25    2    1    2    0    0 -0.19771352970E+03 -0.42565793538E+03  0.10734136527E+04  0.11781839506E+04  0.12500093560E+03 0.  0.
          2    1    1    2  501    0  0.16434414759E+03  0.43907327581E+03  0.39503469543E+03  0.61306341513E+03  0.00000000000E+00 0. -1.
          1    1    1    2  502    0  0.33369382106E+02 -0.13415340428E+02  0.12940955007E+04  0.12945951691E+04  0.00000000000E+00 0. -1.
         22    1    3    3    0    0  0.64302774502E+01 -0.81525949109E+02  0.24314043206E+03  0.25652504468E+03  0.00000000000E+00 0.  1.
         22    1    3    3    0    0 -0.20414380715E+03 -0.34413198627E+03  0.83027322060E+03  0.92165890589E+03  0.00000000000E+00 0.  1.
</event>
<event>
 7    1  0.6607887E-006  0.1109094E+03  0.7818608E-02  0.1410112E+00
          2   -1    0    0  502    0  0.00000000000E+00  0.00000000000E+00  0.46232512051E+03  0.46232512051E+03  0.00000000000E+00 0. -1.
          1   -1    0    0  501    0 -0.00000000000E+00 -0.00000000000E+00 -0.94739417625E+02  0.94739417625E+02  0.00000000000E+00 0. -1.
         25    2    1    2    0    0 -0.29274665921E+02  0.10297892642E+03  0.22352245319E+03  0.27757530247E+03  0.12499638440E+03 0.  0.
          2    1    1    2  501    0  0.57936239258E+02 -0.96132335780E+02 -0.18953919713E+02  0.11383007017E+03  0.00000000000E+00 0. -1.
          1    1    1    2  502    0 -0.28661573338E+02 -0.68465906393E+01  0.16301716941E+03  0.16565916549E+03  0.00000000000E+00 0. -1.
         22    1    3    3    0    0  0.15355509730E+02 -0.22533104447E+01  0.12706759331E+03  0.12801188366E+03  0.00000000000E+00 0. -1.
         22    1    3    3    0    0 -0.44630175650E+02  0.10523223686E+03  0.96454859872E+02  0.14956341881E+03  0.00000000000E+00 0. -1.
</event>
<event>
 7    1  0.6607887E-006  0.1469837E+03  0.7818608E-02  0.1283522E+00
          2   -1    0    0  502    0  0.00000000000E+00  0.00000000000E+00  0.15454092369E+03  0.15454092369E+03  0.00000000000E+00 0. -1.
          1   -1    0    0  501    0 -0.00000000000E+00 -0.00000000000E+00 -0.14231007729E+04  0.14231007729E+04  0.00000000000E+00 0. -1.
         25    2    1    2    0    0  0.10941079681E+03  0.69047055506E+02 -0.50652713448E+03  0.53752495813E+03  0.12500049723E+03 0.  0.
          2    1    1    2  501    0 -0.15695936863E+03 -0.23297450910E+02 -0.88577784342E+03  0.89987854876E+03  0.00000000000E+00 0. -1.
          1    1    1    2  502    0  0.47548571814E+02 -0.45749604596E+02  0.12374512865E+03  0.14023818976E+03  0.00000000000E+00 0. -1.
         22    1    3    3    0    0  0.10159226949E+03  0.10093996533E+03 -0.44899005280E+03  0.47127691789E+03  0.00000000000E+00 0. -1.
         22    1    3    3    0    0  0.78185273275E+01 -0.31892909826E+02 -0.57537081686E+02  0.66248040240E+02  0.00000000000E+00 0. -1.
</event>
<event>
 7    1  0.6607887E-006  0.5018691E+02  0.7818608E-02  0.1531155E+00
          2   -1    0    0  502    0  0.00000000000E+00  0.00000000000E+00  0.60835049771E+03  0.60835049771E+03  0.00000000000E+00 0. -1.
          1   -1    0    0  501    0 -0.00000000000E+00 -0.00000000000E+00 -0.35958614265E+04  0.35958614265E+04  0.00000000000E+00 0. -1.
         25    2    1    2    0    0 -0.10909776669E+02 -0.63628363927E+02 -0.19345894993E+04  0.19396982902E+04  0.12500133735E+03 0.  0.
          2    1    1    2  501    0 -0.16649728709E+02  0.21691322682E+02 -0.16575653427E+04  0.16577908772E+04  0.00000000000E+00 0. -1.
          1    1    1    2  502    0  0.27559505378E+02  0.41937041245E+02  0.60464391328E+03  0.60672275681E+03  0.00000000000E+00 0. -1.
         22    1    3    3    0    0 -0.21157842081E+02 -0.10009063150E+03 -0.13353251153E+04  0.13392381985E+04  0.00000000000E+00 0.  1.
         22    1    3    3    0    0  0.10248065412E+02  0.36462267569E+02 -0.59926438395E+03  0.60046009166E+03  0.00000000000E+00 0.  1.
</event>
<event>
 7    1  0.6607887E-006  0.1739032E+03  0.7818608E-02  0.1185498E+00
          2   -1    0    0  502    0  0.00000000000E+00  0.00000000000E+00  0.63234238703E+03  0.63234238703E+03  0.00000000000E+00 0. -1.
          1   -1    0    0  501    0 -0.00000000000E+00 -0.00000000000E+00 -0.20963045146E+04  0.20963045146E+04  0.00000000000E+00 0. -1.
         25    2    1    2    0    0 -0.21976515660E+03  0.10385563881E+03 -0.10252150020E+03  0.29193000057E+03  0.12501899640E+03 0.  0.
          2    1    1    2  501    0  0.76220502886E+02 -0.15543473643E+03 -0.18842119128E+04  0.18921480002E+04  0.00000000000E+00 0. -1.
          1    1    1    2  502    0  0.14354465372E+03  0.51579097613E+02  0.52277128542E+03  0.54456890086E+03  0.00000000000E+00 0. -1.
         22    1    3    3    0    0 -0.15415118074E+02 -0.57403037433E+01  0.22981112349E+02  0.28261430910E+02  0.00000000000E+00 0. -1.
         22    1    3    3    0    0 -0.20435003853E+03  0.10959594256E+03 -0.12550261255E+03  0.26366856966E+03  0.00000000000E+00 0. -1.
</event>
<event>
 7    1  0.6607887E-006  0.1238580E+03  0.7818608E-02  0.1302523E+00
          2   -1    0    0  502    0  0.00000000000E+00  0.00000000000E+00  0.25865783767E+04  0.25865783767E+04  0.00000000000E+00 0. -1.
          1   -1    0    0  501    0 -0.00000000000E+00 -0.00000000000E+00 -0.13323039616E+04  0.13323039616E+04  0.00000000000E+00 0. -1.
         25    2    1    2    0    0  0.10832170576E+03  0.14684511529E+03  0.36988323808E+03  0.43096588983E+03  0.12498363316E+03 0.  0.
          2    1    1    2  501    0 -0.22931105150E+02 -0.61456104768E+02 -0.12992669881E+04  0.13009217481E+04  0.00000000000E+00 0. -1.
          1    1    1    2  502    0 -0.85390600609E+02 -0.85389010525E+02  0.21836581650E+04  0.21869947004E+04  0.00000000000E+00 0. -1.
         22    1    3    3    0    0  0.11447281181E+03  0.51700439049E+02  0.20060750224E+03  0.23668614238E+03  0.00000000000E+00 0.  1.
         22    1    3    3    0    0 -0.61511060496E+01  0.95144676244E+02  0.16927573584E+03  0.19427974745E+03  0.00000000000E+00 0.  1.
</event>
<event>
 7    1  0.8587136E-006  0.6334213E+02  0.7818608E-02  0.1465976E+00
          2   -1    0    0  502    0  0.00000000000E+00  0.00000000000E+00  0.17656321692E+04  0.17656321692E+04  0.00000000000E+00 0. -1.
          1   -1    0    0  501    0 -0.00000000000E+00 -0.00000000000E+00 -0.12615276974E+04  0.12615276974E+04  0.00000000000E+00 0. -1.
         25    2    1    2    0    0 -0.82381840821E+02 -0.17493004051E+02 -0.95872668642E+03  0.97050370088E+03  0.12501120468E+03 0.  0.
          2    1    1    2  501    0  0.49195883923E+02  0.24622204840E+02 -0.29419887999E+03  0.29929829427E+03  0.00000000000E+00 0. -1.
          1    1    1    2  502    0  0.33185956898E+02 -0.71292007893E+01  0.17570300382E+04  0.17573578714E+04  0.00000000000E+00 0. -1.
         22    1    3    3    0    0 -0.11004793435E+03 -0.64663904237E+01 -0.86897920959E+03  0.87594362191E+03  0.00000000000E+00 0. -1.
         22    1    3    3    0    0  0.27666093532E+02 -0.11026613627E+02 -0.89747476826E+02  0.94560078977E+02  0.00000000000E+00 0. -1.
</event>
<event>
 7    1  0.6607887E-006  0.4299230E+02  0.7818608E-02  0.1564009E+00
          2   -1    0    0  502    0  0.00000000000E+00  0.00000000000E+00  0.32129794275E+03  0.32129794275E+03  0.00000000000E+00 0. -1.
          1   -1    0    0  501    0 -0.00000000000E+00 -0.00000000000E+00 -0.42507803753E+03  0.42507803753E+03  0.00000000000E+00 0. -1.
         25    2    1    2    0    0 -0.59241161798E+02  0.23547734208E+02  0.45301298162E+02  0.14744700431E+03  0.12499760168E+03 0.  0.
          2    1    1    2  501    0  0.42592467820E+02 -0.37993835433E+01 -0.37203484642E+03  0.37448428616E+03  0.00000000000E+00 0. -1.
          1    1    1    2  502    0  0.16648693978E+02 -0.19748350664E+02  0.22295345348E+03  0.22444468981E+03  0.00000000000E+00 0. -1.
         22    1    3    3    0    0 -0.74486933570E+02 -0.10224642208E+02  0.70152467016E+02  0.10283100315E+03  0.00000000000E+00 0. -1.
         22    1    3    3    0    0  0.15245771773E+02  0.33772376416E+02 -0.24851168853E+02  0.44616001155E+02  0.00000000000E+00 0. -1.
</event>
<event>
 7    1  0.6607887E-006  0.3425360E+02  0.7818608E-02  0.1637859E+00
          2   -1    0    0  502    0  0.00000000000E+00  0.00000000000E+00  0.47063409286E+03  0.47063409286E+03  0.00000000000E+00 0. -1.
          1   -1    0    0  501    0 -0.00000000000E+00 -0.00000000000E+00 -0.84262873201E+03  0.84262873201E+03  0.00000000000E+00 0. -1.
         25    2    1    2    0    0  0.46233235135E+02 -0.29404640616E+02  0.38171880456E+03  0.40538552146E+03  0.12500412127E+03 0.  0.
          2    1    1    2  501    0 -0.27478714510E+02  0.20419976234E+02 -0.82903303930E+03  0.82973961905E+03  0.00000000000E+00 0. -1.
          1    1    1    2  502    0 -0.18754520625E+02  0.89846643816E+01  0.75319595591E+02  0.78137684365E+02  0.00000000000E+00 0. -1.
         22    1    3    3    0    0  0.55774514691E+02 -0.50795657602E+02  0.11434794572E+03  0.13699068585E+03  0.00000000000E+00 0.  1.
         22    1    3    3    0    0 -0.95412795561E+01  0.21391016986E+02  0.26737085884E+03  0.26839483560E+03  0.00000000000E+00 0.  1.
</event>
<event>
 7    1  0.6607887E-006  0.1323157E+03  0.7818608E-02  0.1319308E+00
          2   -1    0    0  502    0  0.00000000000E+00  0.00000000000E+00  0.12377544149E+04  0.12377544149E+04  0.00000000000E+00 0. -1.
          1   -1    0    0  501    0 -0.00000000000E+00 -0.00000000000E+00 -0.46283696699E+03  0.46283696699E+03  0.00000000000E+00 0. -1.
         25    2    1    2    0    0 -0.94759816625E+02 -0.58515595377E+02 -0.24585935481E+03  0.29744659217E+03  0.12499662035E+03 0.  0.
          2    1    1    2  501    0  0.17837114847E+02 -0.49630698213E+02 -0.18383203387E+03  0.19124744586E+03  0.00000000000E+00 0. -1.
          1    1    1    2  502    0  0.76922701778E+02  0.10814629359E+03  0.12046088366E+04  0.12118973439E+04  0.00000000000E+00 0. -1.
         22    1    3    3    0    0 -0.26843815615E+02  0.31004066698E+02 -0.21000277798E+02  0.46074442549E+02  0.00000000000E+00 0.  1.
         22    1    3    3    0    0 -0.67916001010E+02 -0.89519662075E+02 -0.22485907701E+03  0.25137214962E+03  0.00000000000E+00 0.  1.
</event>
<event>
 7    1  0.6607887E-006  0.1338144E+03  0.7818608E-02  0.1363813E+00
          2   -1    0    0  502    0  0.00000000000E+00  0.00000000000E+00  0.48431105833E+02  0.48431105833E+02  0.00000000000E+00 0. -1.
          1   -1    0    0  501    0 -0.00000000000E+00 -0.00000000000E+00 -0.18654370003E+04  0.18654370003E+04  0.00000000000E+00 0. -1.
         25    2    1    2    0    0  0.75635917017E+02 -0.79700098163E+02 -0.68800210817E+03  0.70784560080E+03  0.12500238451E+03 0.  0.
          2    1    1    2  501    0 -0.94156030468E+02  0.10997954742E+03 -0.11537212857E+04  0.11627698242E+04  0.00000000000E+00 0. -1.
          1    1    1    2  502    0  0.18520113452E+02 -0.30279449256E+02  0.24717499415E+02  0.43252681152E+02  0.00000000000E+00 0. -1.
         22    1    3    3    0    0  0.89647043346E+01 -0.90998548766E+02 -0.28798282027E+03  0.30215096652E+03  0.00000000000E+00 0.  1.
         22    1    3    3    0    0  0.66671212682E+02  0.11298450602E+02 -0.40001928790E+03  0.40569463427E+03  0.00000000000E+00 0.  1.
</event>
<event>
 7    1  0.6607887E-006  0.8071103E+02  0.7818608E-02  0.1369738E+00
          2   -1    0    0  502    0  0.00000000000E+00  0.00000000000E+00  0.23571249838E+03  0.23571249838E+03  0.00000000000E+00 0. -1.
          1   -1    0    0  501    0 -0.00000000000E+00 -0.00000000000E+00 -0.63977705263E+03  0.63977705263E+03  0.00000000000E+00 0. -1.
         25    2    1    2    0    0 -0.11509529875E+03 -0.28750372097E+02  0.11573975534E+03  0.20759120563E+03  0.12499962400E+03 0.  0.
          2    1    1    2  501    0  0.46722252172E+02  0.30902505017E+02 -0.57639929690E+03  0.57911491358E+03  0.00000000000E+00 0. -1.
          1    1    1    2  502    0  0.68373046579E+02 -0.21521329199E+01  0.56594987304E+02  0.88783431802E+02  0.00000000000E+00 0. -1.
         22    1    3    3    0    0 -0.42267335665E+02 -0.56911215795E+01 -0.23557339383E+02  0.48722323096E+02  0.00000000000E+00 0.  1.
         22    1    3    3    0    0 -0.72827963086E+02 -0.23059250518E+02  0.13929709472E+03  0.15886888254E+03  0.00000000000E+00 0.  1.
</event>
<event>
 7    1  0.6607887E-006  0.7675092E+02  0.7818608E-02  0.1366358E+00
          2   -1    0    0  502    0  0.00000000000E+00  0.00000000000E+00  0.13975529734E+04  0.13975529734E+04  0.00000000000E+00 0. -1.
          1   -1    0    0  501    0 -0.00000000000E+00 -0.00000000000E+00 -0.41513502243E+04  0.41513502243E+04  0.00000000000E+00 0. -1.
         25    2    1    2    0    0 -0.46525251581E+02  0.11742180190E+03 -0.23830975585E+04  0.23897138411E+04  0.12500316303E+03 0.  0.
          2    1    1    2  501    0 -0.48124233048E+01 -0.60392701957E+02 -0.17633681645E+04  0.17644086039E+04  0.00000000000E+00 0. -1.
          1    1    1    2  502    0  0.51337674886E+02 -0.57029099943E+02  0.13926684720E+04  0.13947807527E+04  0.00000000000E+00 0. -1.
         22    1    3    3    0    0 -0.63403983553E+02  0.10871807683E+03 -0.12225784097E+04  0.12290393213E+04  0.00000000000E+00 0. -1.
         22    1    3    3    0    0  0.16878731971E+02  0.87037250701E+01 -0.11605191488E+04  0.11606745199E+04  0.00000000000E+00 0. -1.
</event>
<event>
 7    1  0.6607887E-006  0.1298914E+03  0.7818608E-02  0.1278525E+00
          2   -1    0    0  502    0  0.00000000000E+00  0.00000000000E+00  0.71168697845E+03  0.71168697845E+03  0.00000000000E+00 0. -1.
          1   -1    0    0  501    0 -0.00000000000E+00 -0.00000000000E+00 -0.45991501856E+03  0.45991501856E+03  0.00000000000E+00 0. -1.
         25    2    1    2    0    0 -0.99076609295E+02 -0.17467877900E+02 -0.37442585024E+02  0.16476703092E+03  0.12499970415E+03 0.  0.
          2    1    1    2  501    0 -0.20732133256E+02  0.75501972153E+02 -0.34757213006E+03  0.35628184734E+03  0.00000000000E+00 0. -1.
          1    1    1    2  502    0  0.11980874255E+03 -0.58034094253E+02  0.63678667498E+03  0.65055311876E+03  0.00000000000E+00 0. -1.
         22    1    3    3    0    0 -0.84272735206E+02  0.22906621521E+01  0.32686630874E+02  0.90418786046E+02  0.00000000000E+00 0. -1.
         22    1    3    3    0    0 -0.14803874089E+02 -0.19758540052E+02 -0.70129215898E+02  0.74348244872E+02  0.00000000000E+00 0. -1.
</event>
<event>
 7    1  0.6607887E-006  0.1549930E+03  0.7818608E-02  0.1341938E+00
          2   -1    0    0  502    0  0.00000000000E+00  0.00000000000E+00  0.29792549472E+04  0.29792549472E+04  0.00000000000E+00 0. -1.
          1   -1    0    0  501    0 -0.00000000000E+00 -0.00000000000E+00 -0.20652668986E+03  0.20652668986E+03  0.00000000000E+00 0. -1.
         25    2    1    2    0    0  0.55421363953E+02 -0.15248154798E+03  0.10759273740E+04  0.10952473472E+04  0.12499955023E+03 0.  0.
          2    1    1    2  501    0 -0.18542557380E+02  0.15379081889E+03 -0.16618398638E+03  0.22718397773E+03  0.00000000000E+00 0. -1.
          1    1    1    2  502    0 -0.36878806573E+02 -0.13092709085E+01  0.18629848697E+04  0.18633503121E+04  0.00000000000E+00 0. -1.
         22    1    3    3    0    0  0.65506415723E+02 -0.26754362654E+02  0.54333876328E+03  0.54792690946E+03  0.00000000000E+00 0. -1.
         22    1    3    3    0    0 -0.10085051770E+02 -0.12572718532E+03  0.53258861067E+03  0.54732043778E+03  0.00000000000E+00 0. -1.
</event>
<event>
 7    1  0.6607887E-006  0.2160165E+03  0.7818608E-02  0.1335502E+00
          2   -1    0    0  502    0  0.00000000000E+00  0.00000000000E+00  0.15622998708E+04  0.15622998708E+04  0.00000000000E+00 0. -1.
          1   -1    0    0  501    0 -0.00000000000E+00 -0.00000000000E+00 -0.11480665802E+03  0.11480665802E+03  0.00000000000E+00 0. -1.
         25    2    1    2    0    0  0.43698493045E+02 -0.21548452372E+03  0.55690152285E+03  0.61164724417E+03  0.12501962601E+03 0.  0.
          2    1    1    2  501    0 -0.27973780903E+02  0.11806730518E+01 -0.73007360487E+02  0.78192078193E+02  0.00000000000E+00 0. -1.
          1    1    1    2  502    0 -0.15724712142E+02  0.21430385067E+03  0.96359905044E+03  0.98726720648E+03  0.00000000000E+00 0. -1.
         22    1    3    3    0    0  0.69612300309E+02 -0.11318164114E+03  0.40835102284E+03  0.42942579580E+03  0.00000000000E+00 0. -1.
         22    1    3    3    0    0 -0.25913807264E+02 -0.10230288258E+03  0.14855050001E+03  0.18222144836E+03  0.00000000000E+00 0. -1.
</event>
<event>
 7    1  0.6607887E-006  0.1848343E+03  0.7818608E-02  0.1283777E+00
          2   -1    0    0  502    0  0.00000000000E+00  0.00000000000E+00  0.69428405453E+03  0.69428405453E+03  0.00000000000E+00 0. -1.
          1   -1    0    0  501    0 -0.00000000000E+00 -0.00000000000E+00 -0.75251472216E+03  0.75251472216E+03  0.00000000000E+00 0. -1.
         25    2    1    2    0    0 -0.93466209877E+02 -0.17165911919E+03  0.30192231362E+03  0.38076803288E+03  0.12499770324E+03 0.  0.
          2    1    1    2  501    0  0.52138204344E+02 -0.46551481860E+01 -0.68880349919E+03  0.69078963748E+03  0.00000000000E+00 0. -1.
          1    1    1    2  502    0  0.41328005533E+02  0.17631426738E+03  0.32865051794E+03  0.37524110632E+03  0.00000000000E+00 0. -1.
         22    1    3    3    0    0 -0.11366697516E+03 -0.17502637744E+03  0.25460055625E+03  0.32920488649E+03  0.00000000000E+00 0. -1.
         22    1    3    3    0    0  0.20200765287E+02  0.33672582502E+01  0.47321757361E+02  0.51563146394E+02  0.00000000000E+00 0. -1.
</event>
<event>
 7    1  0.6607887E-006  0.5896448E+02  0.7818608E-02  0.1493307E+00
          2   -1    0    0  502    0  0.00000000000E+00  0.00000000000E+00  0.82186017366E+03  0.82186017366E+03  0.00000000000E+00 0. -1.
          1   -1    0    0  501    0 -0.00000000000E+00 -0.00000000000E+00 -0.36108870664E+03  0.36108870664E+03  0.00000000000E+00 0. -1.
         25    2    1    2    0    0  0.68434350809E+02 -0.42492434631E+02  0.69742870955E+03  0.71310689207E+03  0.12500306893E+03 0.  0.
          2    1    1    2  501    0 -0.57044111083E+02  0.14676028217E+02 -0.34880122418E+03  0.35373960820E+03  0.00000000000E+00 0. -1.
          1    1    1    2  502    0 -0.11390239726E+02  0.27816406415E+02  0.11214398165E+03  0.11610238003E+03  0.00000000000E+00 0. -1.
         22    1    3    3    0    0  0.67058282562E+02 -0.71098605359E+02  0.31997195103E+03  0.33456520200E+03  0.00000000000E+00 0. -1.
         22    1    3    3    0    0  0.13760682470E+01  0.28606170728E+02  0.37745675853E+03  0.37854169008E+03  0.00000000000E+00 0. -1.
</event>
<event>
 7    1  0.6607887E-006  0.1568478E+03  0.7818608E-02  0.1346132E+00
          2   -1    0    0  502    0  0.00000000000E+00  0.00000000000E+00  0.47741299825E+03  0.47741299825E+03  0.00000000000E+00 0. -1.
          1   -1    0    0  501    0 -0.00000000000E+00 -0.00000000000E+00 -0.10061945407E+04  0.10061945407E+04  0.00000000000E+00 0. -1.
         25    2    1    2    0    0  0.10343393966E+03  0.98865253239E+02 -0.24940854472E+03  0.31352539109E+03  0.12498252081E+03 0.  0.
          2    1    1    2  501    0 -0.15109365545E+02  0.31761778049E+02 -0.71032100163E+03  0.71119127443E+03  0.00000000000E+00 0. -1.
          1    1    1    2  502    0 -0.88324574114E+02 -0.13062703129E+03  0.43094800387E+03  0.45889087345E+03  0.00000000000E+00 0. -1.
         22    1    3    3    0    0  0.77396517408E+02  0.29367917424E+02 -0.41162590061E+02  0.92450280158E+02  0.00000000000E+00 0.  1.
         22    1    3    3    0    0  0.26037422251E+02  0.69497335815E+02 -0.20824595465E+03  0.22107511093E+03  0.00000000000E+00 0.  1.
</event>
<event>
 7    1  0.6607887E-006  0.9159924E+02  0.7818608E-02  0.1361545E+00
          2   -1    0    0  502    0  0.00000000000E+00  0.00000000000E+00  0.45341805229E+03  0.45341805229E+03  0.00000000000E+00 0. -1.
          1   -1    0    0  501    0 -0.00000000000E+00 -0.00000000000E+00 -0.15414703526E+04  0.15414703526E+04  0.00000000000E+00 0. -1.
         25    2    1    2    0    0  0.51109123444E+02  0.23665543322E+02 -0.42059162942E+02  0.14339611660E+03  0.12498508963E+03 0.  0.
          2    1    1    2  501    0  0.38867113118E+01  0.52702706885E+02 -0.14427547321E+04  0.14437222374E+04  0.00000000000E+00 0. -1.
          1    1    1    2  502    0 -0.54995834756E+02 -0.76368250207E+02  0.39676159464E+03  0.40777005096E+03  0.00000000000E+00 0. -1.
         22    1    3    3    0    0 -0.37138349296E+02 -0.52330360074E+01  0.73377371590E+01  0.38216279788E+02  0.00000000000E+00 0.  1.
         22    1    3    3    0    0  0.88247472740E+02  0.28898579329E+02 -0.49396900101E+02  0.10517983681E+03  0.00000000000E+00 0.  1.
</event>
<event>
 7    1  0.6607887E-006  0.1608442E+03  0.7818608E-02  0.1229298E+00
          2   -1    0    0  502    0  0.00000000000E+00  0.00000000000E+00  0.11333044507E+04  0.11333044507E+04  0.00000000000E+00 0. -1.
          1   -1    0    0  501    0 -0.00000000000E+00 -0.00000000000E+00 -0.50148109423E+03  0.50148109423E+03  0.00000000000E+00 0. -1.
         25    2    1    2    0    0 -0.84289466859E+02  0.15979529328E+03  0.21303048610E+03  0.30601718024E+03  0.12500110645E+03 0.  0.
          2    1    1    2  501    0 -0.59153566279E+02 -0.84424514309E+02 -0.44148629620E+03  0.45336165779E+03  0.00000000000E+00 0. -1.
          1    1    1    2  502    0  0.14344303314E+03 -0.75370778970E+02  0.86027916656E+03  0.87540670691E+03  0.00000000000E+00 0. -1.
         22    1    3    3    0    0  0.21213663454E+01 -0.45225005955E+01  0.73768154951E+02  0.73937094152E+02  0.00000000000E+00 0.  1.
         22    1    3    3    0    0 -0.86410833205E+02  0.16431779387E+03  0.13926233115E+03  0.23208008608E+03  0.00000000000E+00 0.  1.
</event>
<event>
 7    1  0.6607887E-006  0.1671451E+03  0.7818608E-02  0.1258128E+00
          2   -1    0    0  502    0  0.00000000000E+00  0.00000000000E+00  0.23977974438E+04  0.23977974438E+04  0.00000000000E+00 0. -1.
          1   -1    0    0  501    0 -0.00000000000E+00 -0.00000000000E+00 -0.16289958044E+04  0.16289958044E+04  0.00000000000E+00 0. -1.
         25    2    1    2    0    0  0.24470343315E+02  0.90252136599E+02  0.12261702656E+04  0.12360662534E+04  0.12498806579E+03 0.  0.
          2    1    1    2  501    0 -0.35759276968E+02 -0.16353982824E+03 -0.16185481353E+04  0.16271822478E+04  0.00000000000E+00 0. -1.
          1    1    1    2  502    0  0.11288933653E+02  0.73287691640E+02  0.11611795092E+04  0.11635447470E+04  0.00000000000E+00 0. -1.
         22    1    3    3    0    0 -0.42656252216E+02  0.54144793964E+02  0.81356383159E+03  0.81647861126E+03  0.00000000000E+00 0. -1.
         22    1    3    3    0    0  0.67126595531E+02  0.36107342635E+02  0.41260643403E+03  0.41958764212E+03  0.00000000000E+00 0. -1.
</event>
<event>
 7    1  0.6607887E-006  0.6674698E+02  0.7818608E-02  0.1422360E+00
          2   -1    0    0  502    0  0.00000000000E+00  0.00000000000E+00  0.62209325722E+02  0.62209325722E+02  0.00000000000E+00 0. -1.
          1   -1    0    0  501    0 -0.00000000000E+00 -0.00000000000E+00 -0.87172102152E+03  0.87172102152E+03  0.00000000000E+00 0. -1.
         25    2    1    2    0    0  0.53067660249E+01  0.42656997554E+02 -0.33260189838E+03  0.35790784913E+03  0.12500489773E+03 0.  0.
          2    1    1    2  501    0  0.44196020780E+02  0.55294712131E+01 -0.50091218512E+03  0.50288853686E+03  0.00000000000E+00 0. -1.
          1    1    1    2  502    0 -0.49502786805E+02 -0.48186468767E+02  0.24002387698E+02  0.73133961255E+02  0.00000000000E+00 0. -1.
         22    1    3    3    0    0 -0.25228991450E+01 -0.32104565701E+02 -0.22110540493E+03  0.22343828734E+03  0.00000000000E+00 0.  1.
         22    1    3    3    0    0  0.78296651699E+01  0.74761563255E+02 -0.11149649345E+03  0.13446956179E+03  0.00000000000E+00 0.  1.
</event>
<event>
 7    1  0.6607887E-006  0.5889394E+02  0.7818608E-02  0.1406262E+00
          2   -1    0    0  502    0  0.00000000000E+00  0.00000000000E+00  0.69122981857E+03  0.69122981857E+03  0.00000000000E+00 0. -1.
          1   -1    0    0  501    0 -0.00000000000E+00 -0.00000000000E+00 -0.33431105600E+03  0.33431105600E+03  0.00000000000E+00 0. -1.
         25    2    1    2    0    0 -0.81891433411E+01  0.45917657173E+02  0.43062331689E+03  0.45081849220E+03  0.12500151420E+03 0.  0.
          2    1    1    2  501    0  0.58813057178E+02  0.30855118443E+01 -0.31648864166E+03  0.32192166186E+03  0.00000000000E+00 0. -1.
          1    1    1    2  502    0 -0.50623913836E+02 -0.49003169017E+02  0.24278408734E+03  0.25280072051E+03  0.00000000000E+00 0. -1.
         22    1    3    3    0    0  0.45272021282E+02 -0.74883084251E+01  0.26267585477E+03  0.26665377431E+03  0.00000000000E+00 0. -1.
         22    1    3    3    0    0 -0.53461164623E+02  0.53405965598E+02  0.16794746212E+03  0.18416471789E+03  0.00000000000E+00 0. -1.
</event>
<event>
 7    1  0.6607887E-006  0.4166031E+02  0.7818608E-02  0.1529619E+00
          2   -1    0    0  502    0  0.00000000000E+00  0.00000000000E+00  0.15203073048E+04  0.15203073048E+04  0.00000000000E+00 0. -1.
          1   -1    0    0  501    0 -0.00000000000E+00 -0.00000000000E+00 -0.46275880631E+03  0.46275880631E+03  0.00000000000E+00 0. -1.
         25    2    1    2    0    0 -0.21341403294E+01 -0.36975964110E+02 -0.25922621869E+03  0.29016362239E+03  0.12499967531E+03 0.  0.
          2    1    1    2  501    0  0.32257523501E+02  0.81712899389E+01 -0.18630075105E+03  0.18924927382E+03  0.00000000000E+00 0. -1.
          1    1    1    2  502    0 -0.30123383171E+02  0.28804674171E+02  0.15030754683E+04  0.15036532149E+04  0.00000000000E+00 0. -1.
         22    1    3    3    0    0  0.18331508805E+02 -0.95503119023E+01  0.69419893914E+01  0.21804675857E+02  0.00000000000E+00 0. -1.
         22    1    3    3    0    0 -0.20465649135E+02 -0.27425652207E+02 -0.26616820808E+03  0.26835894654E+03  0.00000000000E+00 0. -1.
</event>
<event>
 7    1  0.6607887E-006  0.6602655E+02  0.7818608E-02  0.1427352E+00
          2   -1    0    0  502    0  0.00000000000E+00  0.00000000000E+00  0.32792458121E+03  0.32792458121E+03  0.00000000000E+00 0. -1.
          1   -1    0    0  501    0 -0.00000000000E+00 -0.00000000000E+00 -0.13384020846E+04  0.13384020846E+04  0.00000000000E+00 0. -1.
         25    2    1    2    0    0  0.22128907113E+02 -0.19939532620E+02 -0.49185706490E+03  0.50836692199E+03  0.12500512625E+03 0.  0.
          2    1    1    2  501    0 -0.51113428859E+02  0.52164311676E+02 -0.83522015161E+03  0.83840706085E+03  0.00000000000E+00 0. -1.
          1    1    1    2  502    0  0.28984521746E+02 -0.32224779055E+02  0.31659971309E+03  0.31955268300E+03  0.00000000000E+00 0. -1.
         22    1    3    3    0    0 -0.15242322877E+02 -0.66218828590E+02 -0.29466302425E+03  0.30239636163E+03  0.00000000000E+00 0.  1.
         22    1    3    3    0    0  0.37371229990E+02  0.46279295970E+02 -0.19719404065E+03  0.20597056036E+03  0.00000000000E+00 0.  1.
</event>
<event>
 7    1  0.6607887E-006  0.1183819E+03  0.7818608E-02  0.1296583E+00
          2   -1    0    0  502    0  0.00000000000E+00  0.00000000000E+00  0.23161141355E+03  0.23161141355E+03  0.00000000000E+00 0. -1.
          1   -1    0    0  501    0 -0.00000000000E+00 -0.00000000000E+00 -0.16453057410E+04  0.16453057410E+04  0.00000000000E+00 0. -1.
         25    2    1    2    0    0  0.62134841517E+02 -0.13854839419E+02 -0.36981817743E+03  0.39552726586E+03  0.12499455418E+03 0.  0.
          2    1    1    2  501    0  0.28301769629E+02 -0.66741895885E+02 -0.12447266604E+04  0.12468359675E+04  0.00000000000E+00 0. -1.
          1    1    1    2  502    0 -0.90436611146E+02  0.80596735304E+02  0.20085051042E+03  0.23455392112E+03  0.00000000000E+00 0. -1.
         22    1    3    3    0    0  0.19261640784E+02  0.49170391630E+02 -0.23298828929E+03  0.23889805601E+03  0.00000000000E+00 0. -1.
         22    1    3    3    0    0  0.42873200733E+02 -0.63025231049E+02 -0.13682988814E+03  0.15662920985E+03  0.00000000000E+00 0. -1.
</event>
<event>
 7    1  0.6607887E-006  0.5215601E+02  0.7818608E-02  0.1570486E+00
          2   -1    0    0  502    0  0.00000000000E+00  0.00000000000E+00  0.35275049994E+03  0.35275049994E+03  0.00000000000E+00 0. -1.
          1   -1    0    0  501    0 -0.00000000000E+00 -0.00000000000E+00 -0.78984383341E+03  0.78984383341E+03  0.00000000000E+00 0. -1.
         25    2    1    2    0    0  0.28857976963E+02  0.50483413739E+02 -0.10918051596E+03  0.17586757898E+03  0.12501064905E+03 0.  0.
          2    1    1    2  501    0 -0.40003393836E+02 -0.33345668042E+02 -0.64594359455E+03  0.64803960716E+03  0.00000000000E+00 0. -1.
          1    1    1    2  502    0  0.11145416874E+02 -0.17137745697E+02  0.31803077705E+03  0.31868714721E+03  0.00000000000E+00 0. -1.
         22    1    3    3    0    0 -0.34117065598E+02 -0.12303844778E+02 -0.16169330337E+01  0.36303901082E+02  0.00000000000E+00 0.  1.
         22    1    3    3    0    0  0.62975042560E+02  0.62787258516E+02 -0.10756358293E+03  0.13956367790E+03  0.00000000000E+00 0.  1.
</event>
<event>
 7    1  0.6607887E-006  0.7387665E+02  0.7818608E-02  0.1490575E+00
          2   -1    0    0  502    0  0.00000000000E+00  0.00000000000E+00  0.43030996291E+03  0.43030996291E+03  0.00000000000E+00 0. -1.
          1   -1    0    0  501    0 -0.00000000000E+00 -0.00000000000E+00 -0.33717703387E+03  0.33717703387E+03  0.00000000000E+00 0. -1.
         25    2    1    2    0    0  0.72248751155E+02  0.28294485810E+02 -0.12011048048E+03  0.18992879157E+03  0.12500383344E+03 0.  0.
          2    1    1    2  501    0  0.15286503380E+01 -0.24402618256E+02 -0.17786263789E+03  0.17953535169E+03  0.00000000000E+00 0. -1.
          1    1    1    2  502    0 -0.73777401493E+02 -0.38918675542E+01  0.39110604741E+03  0.39802285353E+03  0.00000000000E+00 0. -1.
         22    1    3    3    0    0  0.10205720290E+02  0.23467341575E+02  0.22662622607E+02  0.34182851120E+02  0.00000000000E+00 0.  1.
         22    1    3    3    0    0  0.62043030865E+02  0.48271442349E+01 -0.14277310309E+03  0.15574594045E+03  0.00000000000E+00 0.  1.
</event>
<event>
 7    1  0.6607887E-006  0.5499464E+02  0.7818608E-02  0.1452470E+00
          2   -1    0    0  502    0  0.00000000000E+00  0.00000000000E+00  0.58238165538E+03  0.58238165538E+03  0.00000000000E+00 0. -1.
          1   -1    0    0  501    0 -0.00000000000E+00 -0.00000000000E+00 -0.34433936995E+04  0.34433936995E+04  0.00000000000E+00 0. -1.
         25    2    1    2    0    0  0.26818654700E+02 -0.70391792706E+02 -0.27815080118E+03  0.31411429413E+03  0.12500270742E+03 0.  0.
          2    1    1    2  501    0 -0.39659062562E+02  0.16950915015E+02 -0.31457749172E+04  0.31460705657E+04  0.00000000000E+00 0. -1.
          1    1    1    2  502    0  0.12840407862E+02  0.53440877691E+02  0.56291367422E+03  0.56559049507E+03  0.00000000000E+00 0. -1.
         22    1    3    3    0    0 -0.66424825902E+00 -0.25133748734E+02 -0.25514918425E+03  0.25638496986E+03  0.00000000000E+00 0.  1.
         22    1    3    3    0    0  0.27482902959E+02 -0.45258043972E+02 -0.23001616934E+02  0.57729324271E+02  0.00000000000E+00 0.  1.
</event>
<event>
 7    1  0.6607887E-006  0.8946836E+02  0.7818608E-02  0.1477824E+00
          2   -1    0    0  502    0  0.00000000000E+00  0.00000000000E+00  0.97393896696E+03  0.97393896696E+03  0.00000000000E+00 0. -1.
          1   -1    0    0  501    0 -0.00000000000E+00 -0.00000000000E+00 -0.50304859513E+03  0.50304859513E+03  0.00000000000E+00 0. -1.
         25    2    1    2    0    0 -0.95829302701E+02 -0.48519040550E+02 -0.23437242225E+02  0.16646771638E+03  0.12499937488E+03 0.  0.
          2    1    1    2  501    0  0.82809852757E+02  0.30684962458E+02 -0.40318103956E+03  0.41273961440E+03  0.00000000000E+00 0. -1.
          1    1    1    2  502    0  0.13019449944E+02  0.17834078092E+02  0.89750865362E+03  0.89778023132E+03  0.00000000000E+00 0. -1.
         22    1    3    3    0    0 -0.57376904980E+02 -0.56963645580E+02  0.41231634033E+02  0.90757995724E+02  0.00000000000E+00 0.  1.
         22    1    3    3    0    0 -0.38452397721E+02  0.84446050304E+01 -0.64668876258E+02  0.75709720651E+02  0.00000000000E+00 0.  1.
</event>
<event>
 7    1  0.6607887E-006  0.7540571E+02  0.7818608E-02  0.1372508E+00
          2   -1    0    0  502    0  0.00000000000E+00  0.00000000000E+00  0.21475776677E+04  0.21475776677E+04  0.00000000000E+00 0. -1.
          1   -1    0    0  501    0 -0.00000000000E+00 -0.00000000000E+00 -0.21371847133E+04  0.21371847133E+04  0.00000000000E+00 0. -1.
         25    2    1    2    0    0 -0.11831075211E+02  0.12802325993E+02 -0.10847014632E+02  0.12667888076E+03  0.12500402879E+03 0.  0.
          2    1    1    2  501    0 -0.43157819448E+02  0.39642769485E+02 -0.20673156076E+04  0.20681460219E+04  0.00000000000E+00 0. -1.
          1    1    1    2  502    0  0.54988894659E+02 -0.52445095477E+02  0.20885555766E+04  0.20899374783E+04  0.00000000000E+00 0. -1.
         22    1    3    3    0    0  0.36851632765E+02  0.45117558785E+02 -0.29557548815E+02  0.65324464331E+02  0.00000000000E+00 0.  1.
         22    1    3    3    0    0 -0.48682707975E+02 -0.32315232792E+02  0.18710534183E+02  0.61354416432E+02  0.00000000000E+00 0.  1.
</event>
<event>
 7    1  0.6607887E-006  0.1879805E+03  0.7818608E-02  0.1390899E+00
          2   -1    0    0  502    0  0.00000000000E+00  0.00000000000E+00  0.56160448314E+03  0.56160448314E+03  0.00000000000E+00 0. -1.
          1   -1    0    0  501    0 -0.00000000000E+00 -0.00000000000E+00 -0.27088723760E+04  0.27088723760E+04  0.00000000000E+00 0. -1.
         25    2    1    2    0    0 -0.10529674487E+03  0.13371451113E+03 -0.23939809732E+03  0.31922358988E+03  0.12500110545E+03 0.  0.
          2    1    1    2  501    0  0.12194094625E+03 -0.14523234425E+03 -0.24256630361E+04  0.24330645682E+04  0.00000000000E+00 0. -1.
          1    1    1    2  502    0 -0.16644201384E+02  0.11517833118E+02  0.51779324058E+03  0.51818870107E+03  0.00000000000E+00 0. -1.
         22    1    3    3    0    0 -0.12973470466E+03  0.82644195983E+02 -0.16283052251E+03  0.22399762450E+03  0.00000000000E+00 0. -1.
         22    1    3    3    0    0  0.24437959793E+02  0.51070315151E+02 -0.76567574815E+02  0.95225965375E+02  0.00000000000E+00 0. -1.
</event>
<event>
 7    1  0.6607887E-006  0.5286858E+02  0.7818608E-02  0.1430523E+00
          2   -1    0    0  502    0  0.00000000000E+00  0.00000000000E+00  0.14363997636E+04  0.14363997636E+04  0.00000000000E+00 0. -1.
          1   -1    0    0  501    0 -0.00000000000E+00 -0.00000000000E+00 -0.58907300545E+02  0.58907300545E+02  0.00000000000E+00 0. -1.
         25    2    1    2    0    0 -0.13721107379E+02  0.23333594274E+02  0.16387310985E+03  0.20787564677E+03  0.12500065191E+03 0.  0.
          2    1    1    2  501    0 -0.33293309559E+02 -0.47455956243E+02 -0.13217038450E+02  0.59457567641E+02  0.00000000000E+00 0. -1.
          1    1    1    2  502    0  0.47014416938E+02  0.24122361969E+02  0.12268363917E+04  0.12279738498E+04  0.00000000000E+00 0. -1.
         22    1    3    3    0    0 -0.67210513950E+02  0.25551312272E+02  0.73404550016E+02  0.10275383549E+03  0.00000000000E+00 0. -1.
         22    1    3    3    0    0  0.53489406571E+02 -0.22177179980E+01  0.90468559832E+02  0.10512181128E+03  0.00000000000E+00 0. -1.
</event>
<event>
 7    1  0.6607887E-006  0.1255991E+03  0.7818608E-02  0.1299506E+00
          2   -1    0    0  502    0  0.00000000000E+00  0.00000000000E+00  0.13569009198E+04  0.13569009198E+04  0.00000000000E+00 0. -1.
          1   -1    0    0  501    0 -0.00000000000E+00 -0.00000000000E+00 -0.30307368951E+03  0.30307368951E+03  0.00000000000E+00 0. -1.
         25    2    1    2    0    0  0.86611017600E+02 -0.58515202486E+01  0.50356556487E+03  0.52605950877E+03  0.12499847997E+03 0.  0.
          2    1    1    2  501    0 -0.10630130532E+03  0.69376703092E+02 -0.27662448785E+03  0.30435867282E+03  0.00000000000E+00 0. -1.
          1    1    1    2  502    0  0.19690287715E+02 -0.63525182843E+02  0.82688615325E+03  0.82955642769E+03  0.00000000000E+00 0. -1.
         22    1    3    3    0    0  0.11516981945E+03 -0.17699069456E+02  0.44287273359E+03  0.45794497763E+03  0.00000000000E+00 0. -1.
         22    1    3    3    0    0 -0.28558801854E+02  0.11847549207E+02  0.60692831272E+02  0.68114531147E+02  0.00000000000E+00 0. -1.
</event>
<event>
 7    1  0.6607887E-006  0.8964489E+02  0.7818608E-02  0.1336667E+00
          2   -1    0    0  502    0  0.00000000000E+00  0.00000000000E+00  0.54856863446E+03  0.54856863446E+03  0.00000000000E+00 0. -1.
          1   -1    0    0  501    0 -0.00000000000E+00 -0.00000000000E+00 -0.15307078999E+04  0.15307078999E+04  0.00000000000E+00 0. -1.
         25    2    1    2    0    0 -0.67181748417E+02 -0.37738736726E+02  0.41382873090E+03  0.43911051267E+03  0.12500489689E+03 0.  0.
          2    1    1    2  501    0 -0.63061031399E+02  0.21993358955E+02 -0.14818564224E+04  0.14833606635E+04  0.00000000000E+00 0. -1.
          1    1    1    2  502    0  0.13024277982E+03  0.15745377772E+02  0.85888426062E+02  0.15680535816E+03  0.00000000000E+00 0. -1.
         22    1    3    3    0    0 -0.14661267899E+02 -0.52884912406E+02  0.35336759539E+03  0.35760372511E+03  0.00000000000E+00 0.  1.
         22    1    3    3    0    0 -0.52520480518E+02  0.15146175680E+02  0.60461135509E+02  0.81506787561E+02  0.00000000000E+00 0.  1.
</event>
<event>
 7    1  0.6607887E-006  0.7846953E+02  0.7818608E-02  0.1377024E+00
          2   -1    0    0  502    0  0.00000000000E+00  0.00000000000E+00  0.86527170221E+03  0.86527170221E+03  0.00000000000E+00 0. -1.
          1   -1    0    0  501    0 -0.00000000000E+00 -0.00000000000E+00 -0.10930739006E+04  0.10930739006E+04  0.00000000000E+00 0. -1.
         25    2    1    2    0    0  0.10724910581E+03 -0.74733283150E+02 -0.25610494500E+02  0.18266679011E+03  0.12499529780E+03 0.  0.
          2    1    1    2  501    0 -0.48710959605E+02  0.23908141169E+02 -0.98627793756E+03  0.98776947053E+03  0.00000000000E+00 0. -1.
          1    1    1    2  502    0 -0.58538146205E+02  0.50825141980E+02  0.78408623368E+03  0.78790934216E+03  0.00000000000E+00 0. -1.
         22    1    3    3    0    0  0.71339973287E+02 -0.10541992037E+03  0.32157729818E+01  0.12733064280E+03  0.00000000000E+00 0. -1.
         22    1    3    3    0    0  0.35909132523E+02  0.30686637220E+02 -0.28826267482E+02  0.55336147313E+02  0.00000000000E+00 0. -1.
</event>
<event>
 7    1  0.8496848E-006  0.1800007E+03  0.7818608E-02  0.1304428E+00
          2   -1    0    0  502    0  0.00000000000E+00  0.00000000000E+00  0.17348543907E+04  0.17348543907E+04  0.00000000000E+00 0. -1.
          1   -1    0    0  501    0 -0.00000000000E+00 -0.00000000000E+00 -0.16061747961E+04  0.16061747961E+04  0.00000000000E+00 0. -1.
         25    2    1    2    0    0 -0.87405526755E+02 -0.10548318178E+03 -0.10523558394E+03  0.21322873348E+03  0.12500214762E+03 0.  0.
          2    1    1    2  501    0 -0.27016564458E+02 -0.35176890514E+02 -0.14417105706E+04  0.14423926919E+04  0.00000000000E+00 0. -1.
          1    1    1    2  502    0  0.11442209121E+03  0.14066007229E+03  0.16756257491E+04  0.16854077613E+04  0.00000000000E+00 0. -1.
         22    1    3    3    0    0  0.21508292755E+02  0.97864426375E+01 -0.13956811348E+01  0.23671270405E+02  0.00000000000E+00 0.  1.
         22    1    3    3    0    0 -0.10891381951E+03 -0.11526962442E+03 -0.10383990281E+03  0.18955746308E+03  0.00000000000E+00 0.  1.
</event>
<event>
 7    1  0.6607887E-006  0.1196115E+03  0.7818608E-02  0.1374392E+00
          2   -1    0    0  502    0  0.00000000000E+00  0.00000000000E+00  0.63227443645E+02  0.63227443645E+02  0.00000000000E+00 0. -1.
          1   -1    0    0  501    0 -0.00000000000E+00 -0.00000000000E+00 -0.14305827168E+04  0.14305827168E+04  0.00000000000E+00 0. -1.
         25    2    1    2    0    0  0.34072639415E+02 -0.80118504107E+02 -0.71786113610E+03  0.73384729575E+03  0.12500929289E+03 0.  0.
          2    1    1    2  501    0  0.59624464273E+01 -0.35883027682E+02 -0.63540003064E+03  0.63644036750E+03  0.00000000000E+00 0. -1.
          1    1    1    2  502    0 -0.40035085842E+02  0.11600153179E+03 -0.14094106411E+02  0.12352249719E+03  0.00000000000E+00 0. -1.
         22    1    3    3    0    0  0.67318187809E+02 -0.94548598823E+02 -0.55333842583E+03  0.56538003984E+03  0.00000000000E+00 0. -1.
         22    1    3    3    0    0 -0.33245548394E+02  0.14430094716E+02 -0.16452271027E+03  0.16846725592E+03  0.00000000000E+00 0. -1.
</event>
<event>
 7    1  0.6607887E-006  0.3080284E+03  0.7818608E-02  0.1170772E+00
          2   -1    0    0  502    0  0.00000000000E+00  0.00000000000E+00  0.26603583573E+04  0.26603583573E+04  0.00000000000E+00 0. -1.
          1   -1    0    0  501    0 -0.00000000000E+00 -0.00000000000E+00 -0.86026940449E+03  0.86026940449E+03  0.00000000000E+00 0. -1.
         25    2    1    2    0    0 -0.37132646409E+03 -0.58449130551E+02 -0.15523757299E+03  0.42546839723E+03  0.12500003672E+03 0.  0.
          2    1    1    2  501    0  0.27543291929E+03  0.92229580141E+02 -0.53180063414E+03  0.60595503377E+03  0.00000000000E+00 0. -1.
          1    1    1    2  502    0  0.95893544798E+02 -0.33780449589E+02  0.24871271599E+04  0.24892043308E+04  0.00000000000E+00 0. -1.
         22    1    3    3    0    0 -0.89177414783E+02 -0.65794774286E+02 -0.20459195753E+02  0.11269490814E+03  0.00000000000E+00 0. -1.
         22    1    3    3    0    0 -0.28214904930E+03  0.73456437346E+01 -0.13477837723E+03  0.31277348908E+03  0.00000000000E+00 0. -1.
</event>
<event>
 7    1  0.6607887E-006  0.7815853E+02  0.7818608E-02  0.1424742E+00
          2   -1    0    0  502    0  0.00000000000E+00  0.00000000000E+00  0.18846491282E+03  0.18846491282E+03  0.00000000000E+00 0. -1.
          1   -1    0    0  501    0 -0.00000000000E+00 -0.00000000000E+00 -0.49949170466E+03  0.49949170466E+03  0.00000000000E+00 0. -1.
         25    2    1    2    0    0  0.94240236382E+02  0.34532222698E+02  0.19837927095E+02  0.16153077278E+03  0.12499980258E+03 0.  0.
          2    1    1    2  501    0 -0.19845303216E+02 -0.31642137099E+02 -0.41350857779E+03  0.41519200956E+03  0.00000000000E+00 0. -1.
          1    1    1    2  502    0 -0.74394933166E+02 -0.28900855989E+01  0.82643858850E+02  0.11123383515E+03  0.00000000000E+00 0. -1.
         22    1    3    3    0    0 -0.16617062991E+02 -0.21703070855E+02 -0.16619152447E+02  0.31989784229E+02  0.00000000000E+00 0.  1.
         22    1    3    3    0    0  0.11085729937E+03  0.56235293553E+02  0.36457079542E+02  0.12954098855E+03  0.00000000000E+00 0.  1.
</event>
<event>
 7    1  0.6607887E-006  0.9885700E+02  0.7818608E-02  0.1318494E+00
          2   -1    0    0  502    0  0.00000000000E+00  0.00000000000E+00  0.16247883211E+04  0.16247883211E+04  0.00000000000E+00 0. -1.
          1   -1    0    0  501    0 -0.00000000000E+00 -0.00000000000E+00 -0.14710132488E+03  0.14710132488E+03  0.00000000000E+00 0. -1.
         25    2    1    2    0    0 -0.49123487664E+01 -0.38836516107E+02  0.18084963076E+03  0.22330279100E+03  0.12500056547E+03 0.  0.
          2    1    1    2  501    0  0.36879880004E+02 -0.60792310674E+02 -0.11373871482E+03  0.13413547568E+03  0.00000000000E+00 0. -1.
          1    1    1    2  502    0 -0.31967531238E+02  0.99628826781E+02  0.14105760803E+04  0.14144513793E+04  0.00000000000E+00 0. -1.
         22    1    3    3    0    0 -0.44225651410E+02  0.25277934823E+02  0.44743682349E+02  0.67800290130E+02  0.00000000000E+00 0.  1.
         22    1    3    3    0    0  0.39313302644E+02 -0.64114450930E+02  0.13610594841E+03  0.15550250087E+03  0.00000000000E+00 0.  1.
</event>
<event>
 7    1  0.6607887E-006  0.2069085E+03  0.7818608E-02  0.1309372E+00
          2   -1    0    0  502    0  0.00000000000E+00  0.00000000000E+00  0.17345378449E+03  0.17345378449E+03  0.00000000000E+00 0. -1.
          1   -1    0    0  501    0 -0.00000000000E+00 -0.00000000000E+00 -0.87386292057E+03  0.87386292057E+03  0.00000000000E+00 0. -1.
         25    2    1    2    0    0  0.19997952735E+03 -0.90661527731E+02 -0.13237054581E+03  0.28523076237E+03  0.12499320955E+03 0.  0.
          2    1    1    2  501    0 -0.31363730283E+02 -0.19412612676E+02 -0.55931791548E+03  0.56053283908E+03  0.00000000000E+00 0. -1.
          1    1    1    2  502    0 -0.16861579707E+03  0.11007414041E+03 -0.87206747922E+01  0.20155310361E+03  0.00000000000E+00 0. -1.
         22    1    3    3    0    0  0.12480046125E+02 -0.60857079245E+02 -0.41824012570E+02  0.74890477853E+02  0.00000000000E+00 0.  1.
         22    1    3    3    0    0  0.18749948122E+03 -0.29804448486E+02 -0.90546533238E+02  0.21034028452E+03  0.00000000000E+00 0.  1.
</event>
<event>
 7    1  0.6607887E-006  0.6247380E+02  0.7818608E-02  0.1392968E+00
          2   -1    0    0  502    0  0.00000000000E+00  0.00000000000E+00  0.69140663326E+02  0.69140663326E+02  0.00000000000E+00 0. -1.
          1   -1    0    0  501    0 -0.00000000000E+00 -0.00000000000E+00 -0.27468554278E+04  0.27468554278E+04  0.00000000000E+00 0. -1.
         25    2    1    2    0    0 -0.11083249382E+03  0.91563711450E+01 -0.10541180280E+04  0.10673134647E+04  0.12500213649E+03 0.  0.
          2    1    1    2  501    0  0.52283284472E+02 -0.29236245694E+02 -0.16701557950E+04  0.16712296909E+04  0.00000000000E+00 0. -1.
          1    1    1    2  502    0  0.58549209353E+02  0.20079874549E+02  0.46559058639E+02  0.77452935510E+02  0.00000000000E+00 0. -1.
         22    1    3    3    0    0 -0.14272657615E+02 -0.51349922166E+02 -0.32227989283E+03  0.32665708715E+03  0.00000000000E+00 0. -1.
         22    1    3    3    0    0 -0.96559836209E+02  0.60506293312E+02 -0.73183813521E+03  0.74065637758E+03  0.00000000000E+00 0. -1.
</event>
<event>
 7    1  0.6607887E-006  0.1119793E+03  0.7818608E-02  0.1321738E+00
          2   -1    0    0  502    0  0.00000000000E+00  0.00000000000E+00  0.37291044498E+03  0.37291044498E+03  0.00000000000E+00 0. -1.
          1   -1    0    0  501    0 -0.00000000000E+00 -0.00000000000E+00 -0.20928056105E+04  0.20928056105E+04  0.00000000000E+00 0. -1.
         25    2    1    2    0    0  0.11840825001E+03 -0.59063753556E+02  0.47309002054E+02  0.18807634745E+03  0.12500212053E+03 0.  0.
          2    1    1    2  501    0 -0.53011549755E+02 -0.30137169579E+02 -0.20099543601E+04  0.20108791617E+04  0.00000000000E+00 0. -1.
          1    1    1    2  502    0 -0.65396700259E+02  0.89200923135E+02  0.24275019252E+03  0.26676054630E+03  0.00000000000E+00 0. -1.
         22    1    3    3    0    0  0.41886602720E+02  0.51783245554E+01  0.73528289074E+02  0.84780374066E+02  0.00000000000E+00 0.  1.
         22    1    3    3    0    0  0.76521647295E+02 -0.64242078112E+02 -0.26219287020E+02  0.10329597338E+03  0.00000000000E+00 0.  1.
</event>
<event>
 7    1  0.6607887E-006  0.2250579E+03  0.7818608E-02  0.1131804E+00
          2   -1    0    0  502    0  0.00000000000E+00  0.00000000000E+00  0.60804688319E+03  0.60804688319E+03  0.00000000000E+00 0. -1.
          1   -1    0    0  501    0 -0.00000000000E+00 -0.00000000000E+00 -0.80196643025E+03  0.80196643025E+03  0.00000000000E+00 0. -1.
         25    2    1    2    0    0 -0.22582454708E+01  0.18614489964E+03 -0.70189739708E+02  0.23496073495E+03  0.12499969630E+03 0.  0.
          2    1    1    2  501    0  0.21499826244E+03 -0.66534150964E+02 -0.59949071816E+03  0.64034378833E+03  0.00000000000E+00 0. -1.
          1    1    1    2  502    0 -0.21274001697E+03 -0.11961074868E+03  0.47576091080E+03  0.53470879016E+03  0.00000000000E+00 0. -1.
         22    1    3    3    0    0 -0.38285132402E+02  0.16343228465E+03 -0.87134312855E+02  0.18912496267E+03  0.00000000000E+00 0. -1.
         22    1    3    3    0    0  0.36026886931E+02  0.22712614993E+02  0.16944573147E+02  0.45835772284E+02  0.00000000000E+00 0. -1.
</event>
<event>
 7    1  0.6607887E-006  0.1345539E+03  0.7818608E-02  0.1265474E+00
          2   -1    0    0  502    0  0.00000000000E+00  0.00000000000E+00  0.17576135172E+04  0.17576135172E+04  0.00000000000E+00 0. -1.
          1   -1    0    0  501    0 -0.00000000000E+00 -0.00000000000E+00 -0.79161680861E+02  0.79161680861E+02  0.00000000000E+00 0. -1.
         25    2    1    2    0    0 -0.23455298741E+02 -0.89150425221E+02  0.35302824891E+03  0.38568376170E+03  0.12500028064E+03 0.  0.
          2    1    1    2  501    0  0.10842574088E+03  0.10043120039E+03  0.27485865262E+02  0.15032644507E+03  0.00000000000E+00 0. -1.
          1    1    1    2  502    0 -0.84970442142E+02 -0.11280775170E+02  0.12979377222E+04  0.13007649913E+04  0.00000000000E+00 0. -1.
         22    1    3    3    0    0  0.32310029175E+02  0.12164892961E+02  0.12933897934E+03  0.13386745005E+03  0.00000000000E+00 0.  1.
         22    1    3    3    0    0 -0.55765327916E+02 -0.10131531818E+03  0.22368926957E+03  0.25181631166E+03  0.00000000000E+00 0.  1.
</event>
<event>
 7    1  0.6607887E-006  0.7134539E+02  0.7818608E-02  0.1412822E+00
          2   -1    0    0  502    0  0.00000000000E+00  0.00000000000E+00  0.86105735266E+03  0.86105735266E+03  0.00000000000E+00 0. -1.
          1   -1    0    0  501    0 -0.00000000000E+00 -0.00000000000E+00 -0.36222736652E+03  0.36222736652E+03  0.00000000000E+00 0. -1.
         25    2    1    2    0    0  0.68208191681E+02  0.91903749100E+02 -0.13288897634E+03  0.21537330511E+03  0.12501009564E+03 0.  0.
          2    1    1    2  501    0 -0.33182840053E+02 -0.30177234207E+02 -0.18385921970E+03  0.18925110041E+03  0.00000000000E+00 0. -1.
          1    1    1    2  502    0 -0.35025351628E+02 -0.61726514893E+02  0.81557818218E+03  0.81866031365E+03  0.00000000000E+00 0. -1.
         22    1    3    3    0    0  0.46299809347E+02  0.22142597364E+02 -0.13267187068E+03  0.14225256495E+03  0.00000000000E+00 0. -1.
         22    1    3    3    0    0  0.21908382334E+02  0.69761151736E+02 -0.21710565848E+00  0.73120740169E+02  0.00000000000E+00 0. -1.
</event>
<event>
 7    1  0.6607887E-006  0.4124710E+02  0.7818608E-02  0.1519902E+00
          2   -1    0    0  502    0  0.00000000000E+00  0.00000000000E+00  0.92820033941E+03  0.92820033941E+03  0.00000000000E+00 0. -1.
          1   -1    0    0  501    0 -0.00000000000E+00 -0.00000000000E+00 -0.75127485951E+02  0.75127485951E+02  0.00000000000E+00 0. -1.
         25    2    1    2    0    0 -0.31440208867E+02  0.15739503617E+02  0.45101571630E+02  0.13746013576E+03  0.12499967381E+03 0.  0.
          2    1    1    2  501    0  0.40468109438E+02  0.18956383809E+02 -0.11072817218E+02  0.46039327208E+02  0.00000000000E+00 0. -1.
          1    1    1    2  502    0 -0.90279005718E+01 -0.34695887426E+02  0.81904409904E+03  0.81982836239E+03  0.00000000000E+00 0. -1.
         22    1    3    3    0    0  0.42120038354E+02  0.33357644824E+02  0.24582436324E+02  0.59085753569E+02  0.00000000000E+00 0. -1.
         22    1    3    3    0    0 -0.73560247221E+02 -0.17618141206E+02  0.20519135306E+02  0.78374382195E+02  0.00000000000E+00 0. -1.
</event>
<event>
 7    1  0.6607887E-006  0.3063879E+02  0.7818608E-02  0.1618323E+00
          2   -1    0    0  502    0  0.00000000000E+00  0.00000000000E+00  0.67411696756E+03  0.67411696756E+03  0.00000000000E+00 0. -1.
          1   -1    0    0  501    0 -0.00000000000E+00 -0.00000000000E+00 -0.13535186648E+04  0.13535186648E+04  0.00000000000E+00 0. -1.
         25    2    1    2    0    0  0.18734624178E+01 -0.29362565575E+02 -0.62103447546E+02  0.14264379924E+03  0.12499898057E+03 0.  0.
          2    1    1    2  501    0 -0.24547787503E+02  0.86906844624E+01 -0.12506380969E+04  0.12509091779E+04  0.00000000000E+00 0. -1.
          1    1    1    2  502    0  0.22674325085E+02  0.20671881113E+02  0.63333984719E+03  0.63408265528E+03  0.00000000000E+00 0. -1.
         22    1    3    3    0    0  0.30321665332E+02 -0.22466276502E+02 -0.92828987872E+02  0.10020657642E+03  0.00000000000E+00 0. -1.
         22    1    3    3    0    0 -0.28448202914E+02 -0.68962890730E+01  0.30725540326E+02  0.42437222816E+02  0.00000000000E+00 0. -1.
</event>
<event>
 7    1  0.6607887E-006  0.1266522E+03  0.7818608E-02  0.1419941E+00
          2   -1    0    0  502    0  0.00000000000E+00  0.00000000000E+00  0.64004966569E+02  0.64004966569E+02  0.00000000000E+00 0. -1.
          1   -1    0    0  501    0 -0.00000000000E+00 -0.00000000000E+00 -0.19875494104E+04  0.19875494104E+04  0.00000000000E+00 0. -1.
         25    2    1    2    0    0  0.10428986687E+03  0.81651225326E+01 -0.16134401396E+04  0.16216524572E+04  0.12499824919E+03 0.  0.
          2    1    1    2  501    0  0.23274659698E+02 -0.54899258141E+01 -0.30103944506E+03  0.30198774238E+03  0.00000000000E+00 0. -1.
          1    1    1    2  502    0 -0.12756452656E+03 -0.26751967185E+01 -0.90648592144E+01  0.12791417743E+03  0.00000000000E+00 0. -1.
         22    1    3    3    0    0  0.12365059979E+03  0.24443041054E+02 -0.10329778519E+04  0.10406393110E+04  0.00000000000E+00 0.  1.
         22    1    3    3    0    0 -0.19360732922E+02 -0.16277918522E+02 -0.58046228765E+03  0.58101314614E+03  0.00000000000E+00 0.  1.
</event>
<event>
 7    1  0.6607887E-006  0.3268111E+02  0.7818608E-02  0.1592030E+00
          2   -1    0    0  502    0  0.00000000000E+00  0.00000000000E+00  0.18697316524E+04  0.18697316524E+04  0.00000000000E+00 0. -1.
          1   -1    0    0  501    0 -0.00000000000E+00 -0.00000000000E+00 -0.54118383424E+03  0.54118383424E+03  0.00000000000E+00 0. -1.
         25    2    1    2    0    0  0.48716880238E+02  0.21879317456E+02 -0.23094837132E+03  0.26798843343E+03  0.12501444431E+03 0.  0.
          2    1    1    2  501    0 -0.31922936702E+02  0.12309720562E+01 -0.29073018994E+03  0.29248014039E+03  0.00000000000E+00 0. -1.
          1    1    1    2  502    0 -0.16793943536E+02 -0.23110289512E+02  0.18502263794E+04  0.18504469128E+04  0.00000000000E+00 0. -1.
         22    1    3    3    0    0  0.49129554938E+02  0.56246903373E+02 -0.21934861803E+03  0.23171371030E+03  0.00000000000E+00 0. -1.
         22    1    3    3    0    0 -0.41267469984E+00 -0.34367585917E+02 -0.11599753285E+02  0.36274723134E+02  0.00000000000E+00 0. -1.
</event>
<event>
 7    1  0.1650279E-005  0.6265865E+02  0.7818608E-02  0.1401521E+00
          2   -1    0    0  502    0  0.00000000000E+00  0.00000000000E+00  0.19766089817E+04  0.19766089817E+04  0.00000000000E+00 0. -1.
          1   -1    0    0  501    0 -0.00000000000E+00 -0.00000000000E+00 -0.11979360531E+04  0.11979360531E+04  0.00000000000E+00 0. -1.
         25    2    1    2    0    0 -0.54311537109E+02  0.62346549909E+02 -0.82131121308E+02  0.17090092223E+03  0.12499907514E+03 0.  0.
          2    1    1    2  501    0 -0.79478520298E+01 -0.55230369447E+02 -0.10701849151E+04  0.10716386119E+04  0.00000000000E+00 0. -1.
          1    1    1    2  502    0  0.62259389138E+02 -0.71161804616E+01  0.19309889650E+04  0.19320055007E+04  0.00000000000E+00 0. -1.
         22    1    3    3    0    0 -0.78830845716E+02  0.76210780646E+02 -0.89779285635E+02  0.14171346249E+03  0.00000000000E+00 0. -1.
         22    1    3    3    0    0  0.24519308608E+02 -0.13864230737E+02  0.76481643277E+01  0.29187459740E+02  0.00000000000E+00 0. -1.
</event>
<event>
 7    1  0.6607887E-006  0.9208135E+02  0.7818608E-02  0.1366388E+00
          2   -1    0    0  502    0  0.00000000000E+00  0.00000000000E+00  0.13913677207E+03  0.13913677207E+03  0.00000000000E+00 0. -1.
          1   -1    0    0  501    0 -0.00000000000E+00 -0.00000000000E+00 -0.23211103790E+04  0.23211103790E+04  0.00000000000E+00 0. -1.
         25    2    1    2    0    0  0.39959235111E+02  0.10386987749E+03 -0.15292563877E+03  0.22670891408E+03  0.12499995524E+03 0.  0.
          2    1    1    2  501    0 -0.48741800989E+02 -0.13152754933E+02 -0.21106202894E+04  0.21112239967E+04  0.00000000000E+00 0. -1.
          1    1    1    2  502    0  0.87825658775E+01 -0.90717122553E+02  0.81572321242E+02  0.12231424030E+03  0.00000000000E+00 0. -1.
         22    1    3    3    0    0 -0.25912008458E+02  0.22201799715E+02  0.75776411427E+01  0.34953865855E+02  0.00000000000E+00 0.  1.
         22    1    3    3    0    0  0.65871243570E+02  0.81668077770E+02 -0.16050327991E+03  0.19175504822E+03  0.00000000000E+00 0.  1.
</event>
<event>
 7    1  0.6607887E-006  0.6899432E+02  0.7818608E-02  0.1513375E+00
          2   -1    0    0  502    0  0.00000000000E+00  0.00000000000E+00  0.61291302464E+03  0.61291302464E+03  0.00000000000E+00 0. -1.
          1   -1    0    0  501    0 -0.00000000000E+00 -0.00000000000E+00 -0.12318560972E+04  0.12318560972E+04  0.00000000000E+00 0. -1.
         25    2    1    2    0    0 -0.18303023653E+02  0.77363236819E+02 -0.29632218172E+03  0.33128893083E+03  0.12500179689E+03 0.  0.
          2    1    1    2  501    0  0.20733807088E+02 -0.84607382396E+01 -0.91591741256E+03  0.91619112716E+03  0.00000000000E+00 0. -1.
          1    1    1    2  502    0 -0.24307834350E+01 -0.68902498579E+02  0.59329652176E+03  0.59728906381E+03  0.00000000000E+00 0. -1.
         22    1    3    3    0    0 -0.22982665572E+02  0.11030370645E+03 -0.25038760667E+03  0.27457069062E+03  0.00000000000E+00 0.  1.
         22    1    3    3    0    0  0.46796419192E+01 -0.32940469627E+02 -0.45934575051E+02  0.56718240213E+02  0.00000000000E+00 0.  1.
</event>
<event>
 7    1  0.6607887E-006  0.7282536E+02  0.7818608E-02  0.1397355E+00
          2   -1    0    0  502    0  0.00000000000E+00  0.00000000000E+00  0.10312086359E+04  0.10312086359E+04  0.00000000000E+00 0. -1.
          1   -1    0    0  501    0 -0.00000000000E+00 -0.00000000000E+00 -0.65636762729E+03  0.65636762729E+03  0.00000000000E+00 0. -1.
         25    2    1    2    0    0  0.42954744759E+02 -0.92751198654E+01  0.26502443825E+03  0.29630104256E+03  0.12500086802E+03 0.  0.
          2    1    1    2  501    0 -0.63778546448E+02 -0.35764801510E+02 -0.63781798433E+03  0.64199579839E+03  0.00000000000E+00 0. -1.
          1    1    1    2  502    0  0.20823801688E+02  0.45039921375E+02  0.74763455472E+03  0.74927942228E+03  0.00000000000E+00 0. -1.
         22    1    3    3    0    0 -0.73269638324E+01 -0.17823895179E+01  0.23913061179E+03  0.23924947400E+03  0.00000000000E+00 0. -1.
         22    1    3    3    0    0  0.50281708592E+02 -0.74927303474E+01  0.25893826458E+02  0.57051568564E+02  0.00000000000E+00 0. -1.
</event>
<event>
 7    1  0.6607887E-006  0.1086254E+03  0.7818608E-02  0.1392936E+00
          2   -1    0    0  502    0  0.00000000000E+00  0.00000000000E+00  0.40244880495E+03  0.40244880495E+03  0.00000000000E+00 0. -1.
          1   -1    0    0  501    0 -0.00000000000E+00 -0.00000000000E+00 -0.11319796188E+04  0.11319796188E+04  0.00000000000E+00 0. -1.
         25    2    1    2    0    0  0.12980780788E+03 -0.18932173744E+02  0.10689427890E+03  0.21037944086E+03  0.12499851233E+03 0.  0.
          2    1    1    2  501    0 -0.25740411325E+02  0.22911836684E+02 -0.10688255325E+04  0.10693809144E+04  0.00000000000E+00 0. -1.
          1    1    1    2  502    0 -0.10406739655E+03 -0.39796629406E+01  0.23240043975E+03  0.25466806854E+03  0.00000000000E+00 0. -1.
         22    1    3    3    0    0  0.19966548585E+02  0.46194718836E+01 -0.28085745016E+02  0.34767968822E+02  0.00000000000E+00 0.  1.
         22    1    3    3    0    0  0.10984125929E+03 -0.23551645627E+02  0.13498002392E+03  0.17561147204E+03  0.00000000000E+00 0.  1.
</event>
<event>
 7    1  0.6607887E-006  0.8735660E+02  0.7818608E-02  0.1445615E+00
          2   -1    0    0  502    0  0.00000000000E+00  0.00000000000E+00  0.10054036295E+04  0.10054036295E+04  0.00000000000E+00 0. -1.
          1   -1    0    0  501    0 -0.00000000000E+00 -0.00000000000E+00 -0.12666101153E+03  0.12666101153E+03  0.00000000000E+00 0. -1.
         25    2    1    2    0    0 -0.92059596562E+02  0.70797826733E+01  0.22443855430E+03  0.27298949399E+03  0.12500202611E+03 0.  0.
          2    1    1    2  501    0  0.11387109147E+02  0.26192057558E+02 -0.97820792623E+02  0.10190484583E+03  0.00000000000E+00 0. -1.
          1    1    1    2  502    0  0.80672487415E+02 -0.33271840232E+02  0.75212485625E+03  0.75717030117E+03  0.00000000000E+00 0. -1.
         22    1    3    3    0    0 -0.51269614375E+02  0.34159613542E+02  0.21431384613E+03  0.22299299809E+03  0.00000000000E+00 0.  1.
         22    1    3    3    0    0 -0.40789982187E+02 -0.27079830868E+02  0.10124708170E+02  0.49996495899E+02  0.00000000000E+00 0.  1.
</event>
<event>
 7    1  0.6607887E-006  0.1143164E+03  0.7818608E-02  0.1331004E+00
          2   -1    0    0  502    0  0.00000000000E+00  0.00000000000E+00  0.16394893991E+04  0.16394893991E+04  0.00000000000E+00 0. -1.
          1   -1    0    0  501    0 -0.00000000000E+00 -0.00000000000E+00 -0.25432602501E+04  0.25432602501E+04  0.00000000000E+00 0. -1.
         25    2    1    2    0    0 -0.51284845793E+02  0.12077703410E+03 -0.17870172943E+03  0.25451108472E+03  0.12499742706E+03 0.  0.
          2    1    1    2  501    0 -0.33363303176E+01 -0.11406911724E+03 -0.23247810990E+04  0.23275803000E+04  0.00000000000E+00 0. -1.
          1    1    1    2  502    0  0.54621176110E+02 -0.67079168549E+01  0.15997119774E+04  0.16006582645E+04  0.00000000000E+00 0. -1.
         22    1    3    3    0    0 -0.92374037496E+02  0.78712809323E+02 -0.10712649278E+03  0.16187882693E+03  0.00000000000E+00 0. -1.
         22    1    3    3    0    0  0.41089191703E+02  0.42064224775E+02 -0.71575236657E+02  0.92632257790E+02  0.00000000000E+00 0. -1.
</event>
<event>
 7    1  0.6607887E-006  0.7142070E+02  0.7818608E-02  0.1364104E+00
          2   -1    0    0  502    0  0.00000000000E+00  0.00000000000E+00  0.13060077303E+04  0.13060077303E+04  0.00000000000E+00 0. -1.
          1   -1    0    0  501    0 -0.00000000000E+00 -0.00000000000E+00 -0.18107105095E+02  0.18107105095E+02  0.00000000000E+00 0. -1.
         25    2    1    2    0    0 -0.16577777505E+02 -0.31198890720E+02  0.55394118186E+03  0.56896685624E+03  0.12499702819E+03 0.  0.
          2    1    1    2  501    0  0.17819251000E+02 -0.69162059500E+02  0.40387338226E+03  0.41013976286E+03  0.00000000000E+00 0. -1.
          1    1    1    2  502    0 -0.12414734944E+01  0.10036095022E+03  0.33008606108E+03  0.34500821628E+03  0.00000000000E+00 0. -1.
         22    1    3    3    0    0 -0.43651220157E+00  0.15785383793E+02  0.33549595243E+01  0.16143873073E+02  0.00000000000E+00 0.  1.
         22    1    3    3    0    0 -0.16141265304E+02 -0.46984274512E+02  0.55058622233E+03  0.55282298317E+03  0.00000000000E+00 0.  1.
</event>
<event>
 7    1  0.6607887E-006  0.5786560E+02  0.7818608E-02  0.1514277E+00
          2   -1    0    0  502    0  0.00000000000E+00  0.00000000000E+00  0.69111862691E+02  0.69111862691E+02  0.00000000000E+00 0. -1.
          1   -1    0    0  501    0 -0.00000000000E+00 -0.00000000000E+00 -0.39177249720E+03  0.39177249720E+03  0.00000000000E+00 0. -1.
         25    2    1    2    0    0  0.29304377366E+02 -0.27124488394E+02 -0.49541097766E+02  0.14026362762E+03  0.12500032184E+03 0.  0.
          2    1    1    2  501    0 -0.55229141609E+02  0.21450490804E+02 -0.28532390644E+03  0.29141055785E+03  0.00000000000E+00 0. -1.
          1    1    1    2  502    0  0.25924764243E+02  0.56739975907E+01  0.12204369705E+02  0.29210174419E+02  0.00000000000E+00 0. -1.
         22    1    3    3    0    0 -0.42631483046E+02 -0.33374042195E+02 -0.40245602670E+02  0.67460941095E+02  0.00000000000E+00 0.  1.
         22    1    3    3    0    0  0.71935860412E+02  0.62495538009E+01 -0.92954950957E+01  0.72802686523E+02  0.00000000000E+00 0.  1.
</event>
<event>
 7    1  0.6607887E-006  0.1075179E+03  0.7818608E-02  0.1326313E+00
          2   -1    0    0  502    0  0.00000000000E+00  0.00000000000E+00  0.60037246131E+03  0.60037246131E+03  0.00000000000E+00 0. -1.
          1   -1    0    0  501    0 -0.00000000000E+00 -0.00000000000E+00 -0.17389517974E+03  0.17389517974E+03  0.00000000000E+00 0. -1.
         25    2    1    2    0    0 -0.29286459774E+02  0.14398003522E+03  0.37868182828E+03  0.42498551886E+03  0.12499926761E+03 0.  0.
          2    1    1    2  501    0  0.28753134238E+02 -0.53777542138E+02 -0.13350946400E+03  0.14677719082E+03  0.00000000000E+00 0. -1.
          1    1    1    2  502    0  0.53332553546E+00 -0.90202493083E+02  0.18130491729E+03  0.20250493137E+03  0.00000000000E+00 0. -1.
         22    1    3    3    0    0  0.45477269616E+02  0.40841545964E+02  0.16814529494E+03  0.17891074350E+03  0.00000000000E+00 0. -1.
         22    1    3    3    0    0 -0.74763729390E+02  0.10313848926E+03  0.21053653333E+03  0.24607477535E+03  0.00000000000E+00 0. -1.
</event>
<event>
 7    1  0.6607887E-006  0.4440115E+02  0.7818608E-02  0.1521510E+00
          2   -1    0    0  502    0  0.00000000000E+00  0.00000000000E+00  0.98598281651E+02  0.98598281651E+02  0.00000000000E+00 0. -1.
          1   -1    0    0  501    0 -0.00000000000E+00 -0.00000000000E+00 -0.35192151225E+03  0.35192151225E+03  0.00000000000E+00 0. -1.
         25    2    1    2    0    0  0.22525683927E+02  0.16776240386E+02  0.87934756219E+01  0.12841767284E+03  0.12499969922E+03 0.  0.
          2    1    1    2  501    0 -0.48708512302E+01  0.32586617525E+02 -0.26739015126E+03  0.26941251980E+03  0.00000000000E+00 0. -1.
          1    1    1    2  502    0 -0.17654832697E+02 -0.49362857911E+02  0.52734450386E+01  0.52689601263E+02  0.00000000000E+00 0. -1.
         22    1    3    3    0    0  0.18308908351E+02  0.58253336968E+02  0.42839466209E+02  0.74591469070E+02  0.00000000000E+00 0. -1.
         22    1    3    3    0    0  0.42167755758E+01 -0.41477096582E+02 -0.34045990588E+02  0.53826203769E+02  0.00000000000E+00 0. -1.
</event>
<event>
 7    1  0.6607887E-006  0.7965373E+02  0.7818608E-02  0.1361180E+00
          2   -1    0    0  502    0  0.00000000000E+00  0.00000000000E+00  0.82318907139E+03  0.82318907139E+03  0.00000000000E+00 0. -1.
          1   -1    0    0  501    0 -0.00000000000E+00 -0.00000000000E+00 -0.60615664802E+03  0.60615664802E+03  0.00000000000E+00 0. -1.
         25    2    1    2    0    0 -0.85542539827E+01  0.58179254028E+02  0.16782107450E+03  0.21736608135E+03  0.12500439759E+03 0.  0.
          2    1    1    2  501    0 -0.60145258036E+02 -0.99184948975E+01 -0.57697696603E+03  0.58018811426E+03  0.00000000000E+00 0. -1.
          1    1    1    2  502    0  0.68699512019E+02 -0.48260759130E+02  0.62618831490E+03  0.63179152379E+03  0.00000000000E+00 0. -1.
         22    1    3    3    0    0  0.35300224582E+02  0.43939699359E+02  0.16121895935E+03  0.17078745823E+03  0.00000000000E+00 0. -1.
         22    1    3    3    0    0 -0.43854478565E+02  0.14239554668E+02  0.66021151480E+01  0.46578623120E+02  0.00000000000E+00 0. -1.
</event>
<event>
 7    1  0.6607887E-006  0.2444870E+03  0.7818608E-02  0.1306260E+00
          2   -1    0    0  502    0  0.00000000000E+00  0.00000000000E+00  0.11236865704E+04  0.11236865704E+04  0.00000000000E+00 0. -1.
          1   -1    0    0  501    0 -0.00000000000E+00 -0.00000000000E+00 -0.76448447711E+03  0.76448447711E+03  0.00000000000E+00 0. -1.
         25    2    1    2    0    0  0.91658747602E+02 -0.25920941815E+03 -0.45107764923E+03  0.54285176215E+03  0.12500456617E+03 0.  0.
          2    1    1    2  501    0 -0.40630138794E+01  0.31854983626E+02 -0.25272121726E+03  0.25475333505E+03  0.00000000000E+00 0. -1.
          1    1    1    2  502    0 -0.87595733723E+02  0.22735443453E+03  0.10630009598E+04  0.10905659503E+04  0.00000000000E+00 0. -1.
         22    1    3    3    0    0  0.11661121508E+03 -0.18921865887E+03 -0.37878696670E+03  0.43918269830E+03  0.00000000000E+00 0.  1.
         22    1    3    3    0    0 -0.24952467478E+02 -0.69990759286E+02 -0.72290682535E+02  0.10366906385E+03  0.00000000000E+00 0.  1.
</event>
<event>
 7    1  0.6607887E-006  0.1952145E+03  0.7818608E-02  0.1251258E+00
          2   -1    0    0  502    0  0.00000000000E+00  0.00000000000E+00  0.25585108339E+04  0.25585108339E+04  0.00000000000E+00 0. -1.
          1   -1    0    0  501    0 -0.00000000000E+00 -0.00000000000E+00 -0.18044359794E+03  0.18044359794E+03  0.00000000000E+00 0. -1.
         25    2    1    2    0    0 -0.20017265450E+03 -0.37127193083E+02  0.12060918647E+01  0.23889813192E+03  0.12499337064E+03 0.  0.
          2    1    1    2  501    0  0.72500980643E+01  0.67576330789E+02 -0.37624883954E+02  0.77683693896E+02  0.00000000000E+00 0. -1.
          1    1    1    2  502    0  0.19292255644E+03 -0.30449137706E+02  0.24144860280E+04  0.24223726060E+04  0.00000000000E+00 0. -1.
         22    1    3    3    0    0 -0.18702736261E+03 -0.70451388678E+02 -0.13188186600E+02  0.20029119002E+03  0.00000000000E+00 0.  1.
         22    1    3    3    0    0 -0.13145291888E+02  0.33324195595E+02  0.14394278464E+02  0.38606941907E+02  0.00000000000E+00 0.  1.
</event>
<event>
 7    1  0.6607887E-006  0.2953208E+02  0.7818608E-02  0.1634342E+00
          2   -1    0    0  502    0  0.00000000000E+00  0.00000000000E+00  0.10580519554E+04  0.10580519554E+04  0.00000000000E+00 0. -1.
          1   -1    0    0  501    0 -0.00000000000E+00 -0.00000000000E+00 -0.72799666273E+02  0.72799666273E+02  0.00000000000E+00 0. -1.
         25    2    1    2    0    0 -0.44987604486E+02 -0.11259568617E+02  0.24672375814E+02  0.13558706927E+03  0.12499785911E+03 0.  0.
          2    1    1    2  501    0  0.21255156004E+02  0.17782832609E+02 -0.60134065730E+01  0.28357923954E+02  0.00000000000E+00 0. -1.
          1    1    1    2  502    0  0.23732448482E+02 -0.65232639922E+01  0.96659331987E+03  0.96690662843E+03  0.00000000000E+00 0. -1.
         22    1    3    3    0    0 -0.29870666112E+02  0.46908509295E+01 -0.49623170667E+02  0.58109550364E+02  0.00000000000E+00 0.  1.
         22    1    3    3    0    0 -0.15116938374E+02 -0.15950419547E+02  0.74295546480E+02  0.77477518909E+02  0.00000000000E+00 0.  1.
</event>
<event>
 7    1  0.6607887E-006  0.9932015E+02  0.7818608E-02  0.1426449E+00
          2   -1    0    0  502    0  0.00000000000E+00  0.00000000000E+00  0.84812905883E+03  0.84812905883E+03  0.00000000000E+00 0. -1.
          1   -1    0    0  501    0 -0.00000000000E+00 -0.00000000000E+00 -0.79449113612E+02  0.79449113612E+02  0.00000000000E+00 0. -1.
         25    2    1    2    0    0  0.45573172742E+02 -0.61612058883E+02  0.58532246469E+03  0.60340749024E+03  0.12500100690E+03 0.  0.
          2    1    1    2  501    0 -0.73689338958E+02  0.68766231570E+02 -0.32862122082E+02  0.10601335929E+03  0.00000000000E+00 0. -1.
          1    1    1    2  502    0  0.28116166215E+02 -0.71541726869E+01  0.21621960261E+03  0.21815732292E+03  0.00000000000E+00 0. -1.
         22    1    3    3    0    0 -0.13427067076E+02 -0.21131883930E+02  0.44676234888E+03  0.44746333819E+03  0.00000000000E+00 0. -1.
         22    1    3    3    0    0  0.59000239819E+02 -0.40480174954E+02  0.13856011582E+03  0.15594415205E+03  0.00000000000E+00 0. -1.
</event>
<event>
 7    1  0.6607887E-006  0.1802901E+03  0.7818608E-02  0.1279393E+00
          2   -1    0    0  502    0  0.00000000000E+00  0.00000000000E+00  0.22200313271E+04  0.22200313271E+04  0.00000000000E+00 0. -1.
          1   -1    0    0  501    0 -0.00000000000E+00 -0.00000000000E+00 -0.61242464427E+03  0.61242464427E+03  0.00000000000E+00 0. -1.
         25    2    1    2    0    0  0.15642064980E+03  0.59023490300E+01 -0.12783638874E+02  0.20074652473E+03  0.12503394882E+03 0.  0.
          2    1    1    2  501    0  0.18840298881E+02 -0.52676969923E+02 -0.50022820890E+03  0.50334687940E+03  0.00000000000E+00 0. -1.
          1    1    1    2  502    0 -0.17526094868E+03  0.46774620893E+02  0.21206185306E+04  0.21283625672E+04  0.00000000000E+00 0. -1.
         22    1    3    3    0    0  0.96008081904E+02 -0.47816458874E+02 -0.41429047790E+02  0.11497970052E+03  0.00000000000E+00 0. -1.
         22    1    3    3    0    0  0.60412567900E+02  0.53718807904E+02  0.28645408916E+02  0.85766824209E+02  0.00000000000E+00 0. -1.
</event>
<event>
 7    1  0.6607887E-006  0.9825006E+02  0.7818608E-02  0.1406382E+00
          2   -1    0    0  502    0  0.00000000000E+00  0.00000000000E+00  0.26114646574E+04  0.26114646574E+04  0.00000000000E+00 0. -1.
          1   -1    0    0  501    0 -0.00000000000E+00 -0.00000000000E+00 -0.45166855301E+03  0.45166855301E+03  0.00000000000E+00 0. -1.
         25    2    1    2    0    0 -0.57282490955E+02  0.69728693208E+02  0.34014815376E+02  0.15787825074E+03  0.12500063985E+03 0.  0.
          2    1    1    2  501    0  0.85444947564E+02 -0.50236914563E+02 -0.38331600585E+03  0.39592391566E+03  0.00000000000E+00 0. -1.
          1    1    1    2  502    0 -0.28162456608E+02 -0.19491778646E+02  0.25090972948E+04  0.25093310440E+04  0.00000000000E+00 0. -1.
         22    1    3    3    0    0 -0.70628590751E+02  0.61886402263E+02 -0.24746781644E+02  0.97111934479E+02  0.00000000000E+00 0. -1.
         22    1    3    3    0    0  0.13346099796E+02  0.78422909457E+01  0.58761597020E+02  0.60766316256E+02  0.00000000000E+00 0. -1.
</event>
<event>
 7    1  0.6607887E-006  0.9663963E+02  0.7818608E-02  0.1474366E+00
          2   -1    0    0  502    0  0.00000000000E+00  0.00000000000E+00  0.63306064539E+03  0.63306064539E+03  0.00000000000E+00 0. -1.
          1   -1    0    0  501    0 -0.00000000000E+00 -0.00000000000E+00 -0.18376899514E+03  0.18376899514E+03  0.00000000000E+00 0. -1.
         25    2    1    2    0    0 -0.72910486349E+02  0.72738314264E+02  0.17264315635E+03  0.23672162960E+03  0.12499867641E+03 0.  0.
          2    1    1    2  501    0 -0.69790875732E+01 -0.19753867183E+02 -0.14560753683E+03  0.14710702809E+03  0.00000000000E+00 0. -1.
          1    1    1    2  502    0  0.79889573923E+02 -0.52984447081E+02  0.42225603073E+03  0.43300098284E+03  0.00000000000E+00 0. -1.
         22    1    3    3    0    0 -0.59325525548E+00 -0.21035748073E+01 -0.18742484919E+02  0.18869491771E+02  0.00000000000E+00 0. -1.
         22    1    3    3    0    0 -0.72317231094E+02  0.74841889071E+02  0.19138564127E+03  0.21785213783E+03  0.00000000000E+00 0. -1.
</event>
<event>
 7    1  0.6607887E-006  0.1642248E+03  0.7818608E-02  0.1336920E+00
          2   -1    0    0  502    0  0.00000000000E+00  0.00000000000E+00  0.17147651946E+03  0.17147651946E+03  0.00000000000E+00 0. -1.
          1   -1    0    0  501    0 -0.00000000000E+00 -0.00000000000E+00 -0.15559316588E+04  0.15559316588E+04  0.00000000000E+00 0. -1.
         25    2    1    2    0    0  0.37134872999E+02  0.13899781622E+03 -0.41328846206E+02  0.19502140432E+03  0.12500353158E+03 0.  0.
          2    1    1    2  501    0 -0.14032404070E+01  0.36349068733E+02 -0.13526917884E+04  0.13531808077E+04  0.00000000000E+00 0. -1.
          1    1    1    2  502    0 -0.35731632592E+02 -0.17534688496E+03  0.95654952893E+01  0.17920596623E+03  0.00000000000E+00 0. -1.
         22    1    3    3    0    0 -0.45847274625E+02  0.55855784509E+02 -0.24784580837E+02  0.76394480828E+02  0.00000000000E+00 0.  1.
         22    1    3    3    0    0  0.82982147624E+02  0.83142031714E+02 -0.16544265369E+02  0.11862692350E+03  0.00000000000E+00 0.  1.
</event>
<event>
 7    1  0.6607887E-006  0.8639468E+02  0.7818608E-02  0.1331257E+00
          2   -1    0    0  502    0  0.00000000000E+00  0.00000000000E+00  0.13076221181E+04  0.13076221181E+04  0.00000000000E+00 0. -1.
          1   -1    0    0  501    0 -0.00000000000E+00 -0.00000000000E+00 -0.68325765314E+02  0.68325765314E+02  0.00000000000E+00 0. -1.
         25    2    1    2    0    0 -0.30421090672E+02  0.32866341316E+02  0.10305878104E+03  0.16808283727E+03  0.12500035475E+03 0.  0.
          2    1    1    2  501    0  0.68422957263E+02 -0.94790923128E+02  0.64211387423E+02  0.13337961787E+03  0.00000000000E+00 0. -1.
          1    1    1    2  502    0 -0.38001866591E+02  0.61924581812E+02  0.10720261844E+04  0.10744854283E+04  0.00000000000E+00 0. -1.
         22    1    3    3    0    0 -0.69734708193E+02  0.53202065765E+02  0.77031446888E+02  0.11673574062E+03  0.00000000000E+00 0. -1.
         22    1    3    3    0    0  0.39313617520E+02 -0.20335724450E+02  0.26027334151E+02  0.51347096650E+02  0.00000000000E+00 0. -1.
</event>
<event>
 7    1  0.6607887E-006  0.9080475E+02  0.7818608E-02  0.1343506E+00
          2   -1    0    0  502    0  0.00000000000E+00  0.00000000000E+00  0.96488676444E+02  0.96488676444E+02  0.00000000000E+00 0. -1.
          1   -1    0    0  501    0 -0.00000000000E+00 -0.00000000000E+00 -0.11947415170E+04  0.11947415170E+04  0.00000000000E+00 0. -1.
         25    2    1    2    0    0 -0.29828194462E+02  0.11853342116E+03 -0.80386253232E+02  0.19242315347E+03  0.12499930866E+03 0.  0.
          2    1    1    2  501    0 -0.26253922352E+02 -0.56322758900E+02 -0.10130040168E+04  0.10149082025E+04  0.00000000000E+00 0. -1.
          1    1    1    2  502    0  0.56082116814E+02 -0.62210662260E+02 -0.48625705302E+01  0.83898837402E+02  0.00000000000E+00 0. -1.
         22    1    3    3    0    0  0.25417963550E+02  0.56984424934E+02  0.16985467013E+02  0.64666866676E+02  0.00000000000E+00 0. -1.
         22    1    3    3    0    0 -0.55246158012E+02  0.61548996227E+02 -0.97371720244E+02  0.12775628679E+03  0.00000000000E+00 0. -1.
</event>
<event>
 7    1  0.6607887E-006  0.9444917E+02  0.7818608E-02  0.1382000E+00
          2   -1    0    0  502    0  0.00000000000E+00  0.00000000000E+00  0.75384941003E+03  0.75384941003E+03  0.00000000000E+00 0. -1.
          1   -1    0    0  501    0 -0.00000000000E+00 -0.00000000000E+00 -0.11083956129E+04  0.11083956129E+04  0.00000000000E+00 0. -1.
         25    2    1    2    0    0 -0.12271749356E+03 -0.35892769551E+02  0.42428144156E+03  0.46041367094E+03  0.12497252739E+03 0.  0.
          2    1    1    2  501    0  0.81166773676E+02  0.48030409491E+02 -0.10867733936E+04  0.10908580909E+04  0.00000000000E+00 0. -1.
          1    1    1    2  502    0  0.41550719885E+02 -0.12137639940E+02  0.30794574923E+03  0.31097326106E+03  0.00000000000E+00 0. -1.
         22    1    3    3    0    0 -0.14357002680E+03 -0.48695621538E+02  0.38881132452E+03  0.41732225225E+03  0.00000000000E+00 0.  1.
         22    1    3    3    0    0  0.20852533238E+02  0.12802851987E+02  0.35470117041E+02  0.43091418685E+02  0.00000000000E+00 0.  1.
</event>
<event>
 7    1  0.6607887E-006  0.8176864E+02  0.7818608E-02  0.1379139E+00
          2   -1    0    0  502    0  0.00000000000E+00  0.00000000000E+00  0.13480332012E+03  0.13480332012E+03  0.00000000000E+00 0. -1.
          1   -1    0    0  501    0 -0.00000000000E+00 -0.00000000000E+00 -0.11104618254E+04  0.11104618254E+04  0.00000000000E+00 0. -1.
         25    2    1    2    0    0  0.15175089759E+02 -0.62621079594E+02 -0.23596247292E+03  0.27469162993E+03  0.12500207985E+03 0.  0.
          2    1    1    2  501    0  0.50104251727E+02  0.10435576229E+02 -0.83912580294E+03  0.84068510779E+03  0.00000000000E+00 0. -1.
          1    1    1    2  502    0 -0.65279341486E+02  0.52185503365E+02  0.99429770625E+02  0.12988840777E+03  0.00000000000E+00 0. -1.
         22    1    3    3    0    0 -0.78998889396E+01 -0.91327431070E+02 -0.10862907165E+03  0.14213860531E+03  0.00000000000E+00 0.  1.
         22    1    3    3    0    0  0.23074978699E+02  0.28706351476E+02 -0.12733340127E+03  0.13255302462E+03  0.00000000000E+00 0.  1.
</event>
<event>
 7    1  0.6607887E-006  0.6825425E+02  0.7818608E-02  0.1431879E+00
          2   -1    0    0  502    0  0.00000000000E+00  0.00000000000E+00  0.73853605334E+03  0.73853605334E+03  0.00000000000E+00 0. -1.
          1   -1    0    0  501    0 -0.00000000000E+00 -0.00000000000E+00 -0.22091387426E+03  0.22091387426E+03  0.00000000000E+00 0. -1.
         25    2    1    2    0    0  0.96720511550E+02  0.30547728046E+02  0.14870186116E+03  0.21914516426E+03  0.12499735382E+03 0.  0.
          2    1    1    2  501    0 -0.67204540557E+02 -0.27975123656E+01 -0.17882841439E+03  0.19105988103E+03  0.00000000000E+00 0. -1.
          1    1    1    2  502    0 -0.29515970993E+02 -0.27750215680E+02  0.54774873230E+03  0.54924488231E+03  0.00000000000E+00 0. -1.
         22    1    3    3    0    0  0.82563226629E+02  0.60465974642E+02  0.15472139277E+03  0.18550344973E+03  0.00000000000E+00 0.  1.
         22    1    3    3    0    0  0.14157284921E+02 -0.29918246596E+02 -0.60195316073E+01  0.33641714529E+02  0.00000000000E+00 0.  1.
</event>
<event>
 7    1  0.6607887E-006  0.7672467E+02  0.7818608E-02  0.1395956E+00
          2   -1    0    0  502    0  0.00000000000E+00  0.00000000000E+00  0.23426038787E+03  0.23426038787E+03  0.00000000000E+00 0. -1.
          1   -1    0    0  501    0 -0.00000000000E+00 -0.00000000000E+00 -0.68368839001E+03  0.68368839001E+03  0.00000000000E+00 0. -1.
         25    2    1    2    0    0  0.42960703727E+02  0.27588996220E+01  0.18233966833E+02  0.13346087388E+03  0.12500437480E+03 0.  0.
          2    1    1    2  501    0 -0.68426864342E+02  0.37487326212E+02 -0.61999408614E+03  0.62488415106E+03  0.00000000000E+00 0. -1.
          1    1    1    2  502    0  0.25466160615E+02 -0.40246225834E+02  0.15233211718E+03  0.15960375294E+03  0.00000000000E+00 0. -1.
         22    1    3    3    0    0  0.34307621231E+02  0.61694903654E+02  0.21528177576E+02  0.73802008381E+02  0.00000000000E+00 0. -1.
         22    1    3    3    0    0  0.86530824961E+01 -0.58936004032E+02 -0.32942107428E+01  0.59658865497E+02  0.00000000000E+00 0. -1.
</event>
<event>
 7    1  0.6607887E-006  0.5311671E+02  0.7818608E-02  0.1507121E+00
          2   -1    0    0  502    0  0.00000000000E+00  0.00000000000E+00  0.23858557761E+03  0.23858557761E+03  0.00000000000E+00 0. -1.
          1   -1    0    0  501    0 -0.00000000000E+00 -0.00000000000E+00 -0.61885685236E+03  0.61885685236E+03  0.00000000000E+00 0. -1.
         25    2    1    2    0    0  0.59968661202E+02 -0.49271127960E+02  0.58564868838E+02  0.15835936103E+03  0.12499583588E+03 0.  0.
          2    1    1    2  501    0 -0.28997364534E+02  0.89475937475E+01 -0.56356891759E+03  0.56438535723E+03  0.00000000000E+00 0. -1.
          1    1    1    2  502    0 -0.30971296668E+02  0.40323534212E+02  0.12473277400E+03  0.13469771171E+03  0.00000000000E+00 0. -1.
         22    1    3    3    0    0  0.46555776654E+02 -0.89911704527E+02  0.25869359101E+02  0.10450252959E+03  0.00000000000E+00 0. -1.
         22    1    3    3    0    0  0.13412884548E+02  0.40640576567E+02  0.32695509737E+02  0.53856831438E+02  0.00000000000E+00 0. -1.
</event>
<event>
 7    1  0.6607887E-006  0.1089316E+03  0.7818608E-02  0.1424914E+00
          2   -1    0    0  502    0  0.00000000000E+00  0.00000000000E+00  0.91081608283E+03  0.91081608283E+03  0.00000000000E+00 0. -1.
          1   -1    0    0  501    0 -0.00000000000E+00 -0.00000000000E+00 -0.10283916174E+03  0.10283916174E+03  0.00000000000E+00 0. -1.
         25    2    1    2    0    0 -0.20358618424E+02  0.12845865268E+03  0.70774156804E+03  0.73037008309E+03  0.12500492928E+03 0.  0.
          2    1    1    2  501    0  0.31227659933E+01 -0.10798361359E+03 -0.58129010105E+02  0.12267515758E+03  0.00000000000E+00 0. -1.
          1    1    1    2  502    0  0.17235852430E+02 -0.20475039097E+02  0.15836436315E+03  0.16061000390E+03  0.00000000000E+00 0. -1.
         22    1    3    3    0    0 -0.26412306040E+02  0.39669601852E+02  0.52449696122E+03  0.52665771574E+03  0.00000000000E+00 0. -1.
         22    1    3    3    0    0  0.60536876162E+01  0.88789050831E+02  0.18324460683E+03  0.20371236735E+03  0.00000000000E+00 0. -1.
</event>
<event>
 7    1  0.6607887E-006  0.7575517E+02  0.7818608E-02  0.1350894E+00
          2   -1    0    0  502    0  0.00000000000E+00  0.00000000000E+00  0.36192966433E+03  0.36192966433E+03  0.00000000000E+00 0. -1.
          1   -1    0    0  501    0 -0.00000000000E+00 -0.00000000000E+00 -0.12313892082E+03  0.12313892082E+03  0.00000000000E+00 0. -1.
         25    2    1    2    0    0 -0.41824699270E+02 -0.66139664714E+00  0.12656828498E+02  0.13241868175E+03  0.12499907622E+03 0.  0.
          2    1    1    2  501    0  0.81316487866E+02 -0.57034601095E+02 -0.16016818616E+02  0.10060743213E+03  0.00000000000E+00 0. -1.
          1    1    1    2  502    0 -0.39491788596E+02  0.57695997743E+02  0.24215073363E+03  0.25204247126E+03  0.00000000000E+00 0. -1.
         22    1    3    3    0    0  0.32665535687E+02  0.37023249589E+00  0.41253259952E+02  0.52621343108E+02  0.00000000000E+00 0. -1.
         22    1    3    3    0    0 -0.74490234958E+02 -0.10316291430E+01 -0.28596431454E+02  0.79797338644E+02  0.00000000000E+00 0. -1.
</event>
<event>
 7    1  0.6607887E-006  0.9400230E+02  0.7818608E-02  0.1393547E+00
          2   -1    0    0  502    0  0.00000000000E+00  0.00000000000E+00  0.24392155958E+03  0.24392155958E+03  0.00000000000E+00 0. -1.
          1   -1    0    0  501    0 -0.00000000000E+00 -0.00000000000E+00 -0.49240392331E+03  0.49240392331E+03  0.00000000000E+00 0. -1.
         25    2    1    2    0    0 -0.49984623801E+02  0.12278677372E+03 -0.34392395727E+03  0.38920789538E+03  0.12499617203E+03 0.  0.
          2    1    1    2  501    0  0.14080243223E+02 -0.37041201974E+02 -0.11253672330E+03  0.11930975645E+03  0.00000000000E+00 0. -1.
          1    1    1    2  502    0  0.35904380577E+02 -0.85745571743E+02  0.20797831684E+03  0.22780783106E+03  0.00000000000E+00 0. -1.
         22    1    3    3    0    0 -0.13498370188E+02 -0.94772591082E+01  0.24268736252E+01  0.16670757437E+02  0.00000000000E+00 0. -1.
         22    1    3    3    0    0 -0.36486253612E+02  0.13226403283E+03 -0.34635083090E+03  0.37253713794E+03  0.00000000000E+00 0. -1.
</event>
<event>
 7    1  0.6607887E-006  0.7137860E+02  0.7818608E-02  0.1385184E+00
          2   -1    0    0  502    0  0.00000000000E+00  0.00000000000E+00  0.15292078401E+03  0.15292078401E+03  0.00000000000E+00 0. -1.
          1   -1    0    0  501    0 -0.00000000000E+00 -0.00000000000E+00 -0.88933388399E+03  0.88933388399E+03  0.00000000000E+00 0. -1.
         25    2    1    2    0    0 -0.62292013366E+02  0.33331999022E+02 -0.12033956505E+03  0.18735142669E+03  0.12501051587E+03 0.  0.
          2    1    1    2  501    0 -0.72027401474E+01 -0.55351196467E+02 -0.72318597808E+03  0.72533688263E+03  0.00000000000E+00 0. -1.
          1    1    1    2  502    0  0.69494753513E+02  0.22019197445E+02  0.10711244315E+03  0.12956635868E+03  0.00000000000E+00 0. -1.
         22    1    3    3    0    0  0.24347751106E+02 -0.24740934539E+02 -0.52466729088E+02  0.62910130241E+02  0.00000000000E+00 0.  1.
         22    1    3    3    0    0 -0.86639764472E+02  0.58072933562E+02 -0.67872835966E+02  0.12444129645E+03  0.00000000000E+00 0.  1.
</event>
<event>
 7    1  0.6607887E-006  0.7948162E+02  0.7818608E-02  0.1429834E+00
          2   -1    0    0  502    0  0.00000000000E+00  0.00000000000E+00  0.67209538244E+03  0.67209538244E+03  0.00000000000E+00 0. -1.
          1   -1    0    0  501    0 -0.00000000000E+00 -0.00000000000E+00 -0.45355765341E+03  0.45355765341E+03  0.00000000000E+00 0. -1.
         25    2    1    2    0    0 -0.23117777432E+02 -0.10874455214E+03 -0.23383879647E+02  0.16891117997E+03  0.12499748653E+03 0.  0.
          2    1    1    2  501    0  0.68460364039E+01  0.77381851392E+02 -0.35265826503E+03  0.36111310006E+03  0.00000000000E+00 0. -1.
          1    1    1    2  502    0  0.16271741028E+02  0.31362700748E+02  0.59457987370E+03  0.59562875583E+03  0.00000000000E+00 0. -1.
         22    1    3    3    0    0 -0.20849417952E+02 -0.13717837147E+03 -0.19969498174E+02  0.14018339661E+03  0.00000000000E+00 0. -1.
         22    1    3    3    0    0 -0.22683594804E+01  0.28433819325E+02 -0.34143814727E+01  0.28727783364E+02  0.00000000000E+00 0. -1.
</event>
<event>
 7    1  0.6607887E-006  0.1017688E+03  0.7818608E-02  0.1324417E+00
          2   -1    0    0  502    0  0.00000000000E+00  0.00000000000E+00  0.81376879603E+03  0.81376879603E+03  0.00000000000E+00 0. -1.
          1   -1    0    0  501    0 -0.00000000000E+00 -0.00000000000E+00 -0.66463404628E+03  0.66463404628E+03  0.00000000000E+00 0. -1.
         25    2    1    2    0    0 -0.16170621495E+03 -0.30609671707E+01 -0.18161914225E+03  0.27343971004E+03  0.12500197087E+03 0.  0.
          2    1    1    2  501    0  0.62995123207E+02 -0.18005318251E+02 -0.43130303578E+03  0.43625094350E+03  0.00000000000E+00 0. -1.
          1    1    1    2  502    0  0.98711091739E+02  0.21066285422E+02  0.76205692777E+03  0.76871218878E+03  0.00000000000E+00 0. -1.
         22    1    3    3    0    0 -0.16939831650E+03  0.10162250207E+02 -0.11478505948E+03  0.20487720918E+03  0.00000000000E+00 0. -1.
         22    1    3    3    0    0  0.76921015540E+01 -0.13223217378E+02 -0.66834082766E+02  0.68562500854E+02  0.00000000000E+00 0. -1.
</event>
<event>
 7    1  0.6607887E-006  0.9883466E+02  0.7818608E-02  0.1302003E+00
          2   -1    0    0  502    0  0.00000000000E+00  0.00000000000E+00  0.76475937196E+03  0.76475937196E+03  0.00000000000E+00 0. -1.
          1   -1    0    0  501    0 -0.00000000000E+00 -0.00000000000E+00 -0.10719907963E+04  0.10719907963E+04  0.00000000000E+00 0. -1.
         25    2    1    2    0    0  0.25277168910E+02 -0.53760298961E+02 -0.32792891253E+03  0.35593654633E+03  0.12499739330E+03 0.  0.
          2    1    1    2  501    0 -0.76303346779E+02 -0.31622564507E+02 -0.72440628302E+03  0.72909989041E+03  0.00000000000E+00 0. -1.
          1    1    1    2  502    0  0.51026177869E+02  0.85382863468E+02  0.74510377123E+03  0.75171373149E+03  0.00000000000E+00 0. -1.
         22    1    3    3    0    0  0.17956208535E+02 -0.55224413343E+02 -0.33824983367E+03  0.34319835552E+03  0.00000000000E+00 0.  1.
         22    1    3    3    0    0  0.73209603753E+01  0.14641143819E+01  0.10320921147E+02  0.12738190808E+02  0.00000000000E+00 0.  1.
</event>
<event>
 7    1  0.6607887E-006  0.5016786E+02  0.7818608E-02  0.1451674E+00
          2   -1    0    0  502    0  0.00000000000E+00  0.00000000000E+00  0.17634993607E+04  0.17634993607E+04  0.00000000000E+00 0. -1.
          1   -1    0    0  501    0 -0.00000000000E+00 -0.00000000000E+00 -0.93084869172E+02  0.93084869172E+02  0.00000000000E+00 0. -1.
         25    2    1    2    0    0  0.33086695335E+02  0.37570572887E+01  0.11135034217E+04  0.11209928044E+04  0.12500460968E+03 0.  0.
          2    1    1    2  501    0 -0.62004252746E+00  0.47552682098E+02 -0.81467167823E+02  0.94332080760E+02  0.00000000000E+00 0. -1.
          1    1    1    2  502    0 -0.32466652808E+02 -0.51309739386E+02  0.63837823765E+03  0.64125934473E+03  0.00000000000E+00 0. -1.
         22    1    3    3    0    0 -0.34767481388E+02  0.76016441479E+01  0.11996487387E+03  0.12513246469E+03  0.00000000000E+00 0. -1.
         22    1    3    3    0    0  0.67854176723E+02 -0.38445868592E+01  0.99353854782E+03  0.99586033969E+03  0.00000000000E+00 0. -1.
</event>
<event>
 7    1  0.6607887E-006  0.5618963E+02  0.7818608E-02  0.1491852E+00
          2   -1    0    0  502    0  0.00000000000E+00  0.00000000000E+00  0.27609375509E+04  0.27609375509E+04  0.00000000000E+00 0. -1.
          1   -1    0    0  501    0 -0.00000000000E+00 -0.00000000000E+00 -0.92791236845E+02  0.92791236845E+02  0.00000000000E+00 0. -1.
         25    2    1    2    0    0 -0.12381456147E+02 -0.62216232026E+02  0.60554798689E+03  0.62156037299E+03  0.12499909142E+03 0.  0.
          2    1    1    2  501    0  0.30563617012E+02  0.90048057629E+01 -0.81409812134E+02  0.87422987386E+02  0.00000000000E+00 0. -1.
          1    1    1    2  502    0 -0.18182160865E+02  0.53211426263E+02  0.21440081393E+04  0.21447454273E+04  0.00000000000E+00 0. -1.
         22    1    3    3    0    0  0.24144113050E+02 -0.43569011340E+02  0.55134855453E+03  0.55359409817E+03  0.00000000000E+00 0. -1.
         22    1    3    3    0    0 -0.36525569197E+02 -0.18647220686E+02  0.54199432363E+02  0.67966274821E+02  0.00000000000E+00 0. -1.
</event>
<event>
 7    1  0.6607887E-006  0.5344284E+02  0.7818608E-02  0.1451157E+00
          2   -1    0    0  502    0  0.00000000000E+00  0.00000000000E+00  0.14488827067E+04  0.14488827067E+04  0.00000000000E+00 0. -1.
          1   -1    0    0  501    0 -0.00000000000E+00 -0.00000000000E+00 -0.17481137077E+03  0.17481137077E+03  0.00000000000E+00 0. -1.
         25    2    1    2    0    0  0.89065100377E+02 -0.36245842594E+02  0.98014885002E+02  0.18568546110E+03  0.12500327825E+03 0.  0.
          2    1    1    2  501    0 -0.37412077822E+02  0.24667120333E+02 -0.12658972760E+03  0.13428733941E+03  0.00000000000E+00 0. -1.
          1    1    1    2  502    0 -0.51653022555E+02  0.11578722260E+02  0.13026461785E+04  0.13037212770E+04  0.00000000000E+00 0. -1.
         22    1    3    3    0    0 -0.25302945685E+02  0.11752038268E+02  0.48848785418E+00  0.27903191290E+02  0.00000000000E+00 0. -1.
         22    1    3    3    0    0  0.11436804606E+03 -0.47997880861E+02  0.97526397147E+02  0.15778226981E+03  0.00000000000E+00 0. -1.
</event>
<event>
 7    1  0.6607887E-006  0.1018118E+03  0.7818608E-02  0.1469045E+00
          2   -1    0    0  502    0  0.00000000000E+00  0.00000000000E+00  0.14146844337E+04  0.14146844337E+04  0.00000000000E+00 0. -1.
          1   -1    0    0  501    0 -0.00000000000E+00 -0.00000000000E+00 -0.28010267616E+02  0.28010267616E+02  0.00000000000E+00 0. -1.
         25    2    1    2    0    0  0.53628789343E+02  0.96142779030E+02  0.44878649865E+03  0.47869740467E+03  0.12498961103E+03 0.  0.
          2    1    1    2  501    0 -0.33193846783E+02 -0.93123234180E+02  0.17628267462E+03  0.20211222026E+03  0.00000000000E+00 0. -1.
          1    1    1    2  502    0 -0.20434942560E+02 -0.30195448501E+01  0.76160499277E+03  0.76188507634E+03  0.00000000000E+00 0. -1.
         22    1    3    3    0    0  0.57314990075E+02  0.12419146649E+03  0.39348318298E+03  0.41657837644E+03  0.00000000000E+00 0. -1.
         22    1    3    3    0    0 -0.36862007315E+01 -0.28048687457E+02  0.55303315669E+02  0.62119028227E+02  0.00000000000E+00 0. -1.
</event>
<event>
 7    1  0.6607887E-006  0.1462158E+03  0.7818608E-02  0.1243178E+00
          2   -1    0    0  502    0  0.00000000000E+00  0.00000000000E+00  0.17466053241E+04  0.17466053241E+04  0.00000000000E+00 0. -1.
          1   -1    0    0  501    0 -0.00000000000E+00 -0.00000000000E+00 -0.24658596700E+03  0.24658596700E+03  0.00000000000E+00 0. -1.
         25    2    1    2    0    0  0.81521968084E+02 -0.15135216123E+03  0.28132372775E+03  0.35259577123E+03  0.12500972005E+03 0.  0.
          2    1    1    2  501    0  0.16706927091E+02  0.14547646877E+03 -0.18360443378E+03  0.23484699803E+03  0.00000000000E+00 0. -1.
          1    1    1    2  502    0 -0.98228895175E+02  0.58756924605E+01  0.14023000631E+04  0.14057485218E+04  0.00000000000E+00 0. -1.
         22    1    3    3    0    0 -0.29413733012E+02 -0.40257242743E+02  0.36635663316E+02  0.61870712858E+02  0.00000000000E+00 0. -1.
         22    1    3    3    0    0  0.11093570110E+03 -0.11109491849E+03  0.24468806443E+03  0.29072505838E+03  0.00000000000E+00 0. -1.
</event>
<event>
 7    1  0.6607887E-006  0.1159458E+03  0.7818608E-02  0.1293262E+00
          2   -1    0    0  502    0  0.00000000000E+00  0.00000000000E+00  0.24729497767E+04  0.24729497767E+04  0.00000000000E+00 0. -1.
          1   -1    0    0  501    0 -0.00000000000E+00 -0.00000000000E+00 -0.73654018573E+02  0.73654018573E+02  0.00000000000E+00 0. -1.
         25    2    1    2    0    0  0.35466907718E+02 -0.13036935526E+03  0.29679648928E+03  0.34923804340E+03  0.12499993828E+03 0.  0.
          2    1    1    2  501    0  0.52903588372E+02  0.55033053508E+02 -0.14061459177E+02  0.77621847925E+02  0.00000000000E+00 0. -1.
          1    1    1    2  502    0 -0.88370496091E+02  0.75336301757E+02  0.21165607280E+04  0.21197439040E+04  0.00000000000E+00 0. -1.
         22    1    3    3    0    0  0.35891924236E+02 -0.15499090153E+03  0.26390454073E+03  0.30814934107E+03  0.00000000000E+00 0.  1.
         22    1    3    3    0    0 -0.42501651800E+00  0.24621546264E+02  0.32891948550E+02  0.41088702326E+02  0.00000000000E+00 0.  1.
</event>
<event>
 7    1  0.6607887E-006  0.1434661E+03  0.7818608E-02  0.1227095E+00
          2   -1    0    0  502    0  0.00000000000E+00  0.00000000000E+00  0.47006847069E+03  0.47006847069E+03  0.00000000000E+00 0. -1.
          1   -1    0    0  501    0 -0.00000000000E+00 -0.00000000000E+00 -0.64244193711E+03  0.64244193711E+03  0.00000000000E+00 0. -1.
         25    2    1    2    0    0 -0.33919283648E+02  0.13942873650E+02  0.17073520976E+03  0.21475133373E+03  0.12499080750E+03 0.  0.
          2    1    1    2  501    0  0.14754686847E+03  0.18758506852E+02 -0.59829782107E+03  0.61650810431E+03  0.00000000000E+00 0. -1.
          1    1    1    2  502    0 -0.11362758482E+03 -0.32701380502E+02  0.25518914490E+03  0.28125096976E+03  0.00000000000E+00 0. -1.
         22    1    3    3    0    0 -0.68574999838E+01  0.59494133766E+02  0.14281056746E+03  0.15485940539E+03  0.00000000000E+00 0.  1.
         22    1    3    3    0    0 -0.27061783664E+02 -0.45551260116E+02  0.27924642302E+02  0.59891928346E+02  0.00000000000E+00 0.  1.
</event>
<event>
 7    1  0.6607887E-006  0.9101820E+02  0.7818608E-02  0.1325469E+00
          2   -1    0    0  502    0  0.00000000000E+00  0.00000000000E+00  0.58803288193E+03  0.58803288193E+03  0.00000000000E+00 0. -1.
          1   -1    0    0  501    0 -0.00000000000E+00 -0.00000000000E+00 -0.10535404562E+04  0.10535404562E+04  0.00000000000E+00 0. -1.
         25    2    1    2    0    0  0.64526251858E+02  0.20017976345E+02  0.12739694749E+03  0.19083741249E+03  0.12499831687E+03 0.  0.
          2    1    1    2  501    0  0.20968649085E+02 -0.69481068245E+02 -0.10148206331E+04  0.10174125124E+04  0.00000000000E+00 0. -1.
          1    1    1    2  502    0 -0.85494900943E+02  0.49463091900E+02  0.42191611127E+03  0.43332341328E+03  0.00000000000E+00 0. -1.
         22    1    3    3    0    0 -0.26466311333E+02  0.35699236616E+02  0.67368861141E+02  0.80706038076E+02  0.00000000000E+00 0. -1.
         22    1    3    3    0    0  0.90992563191E+02 -0.15681260271E+02  0.60028086349E+02  0.11013137441E+03  0.00000000000E+00 0. -1.
</event>
<event>
 7    1  0.6607887E-006  0.9432251E+02  0.7818608E-02  0.1323129E+00
          2   -1    0    0  502    0  0.00000000000E+00  0.00000000000E+00  0.11142418591E+04  0.11142418591E+04  0.00000000000E+00 0. -1.
          1   -1    0    0  501    0 -0.00000000000E+00 -0.00000000000E+00 -0.31774157999E+03  0.31774157999E+03  0.00000000000E+00 0. -1.
         25    2    1    2    0    0  0.81310590044E+01 -0.64411304983E+02  0.62617179121E+02  0.15416062053E+03  0.12501862050E+03 0.  0.
          2    1    1    2  501    0  0.70994637095E+02  0.85128046455E+01 -0.26488553461E+03  0.27436663935E+03  0.00000000000E+00 0. -1.
          1    1    1    2  502    0 -0.79125696099E+02  0.55898500338E+02  0.99876863465E+03  0.10034561793E+04  0.00000000000E+00 0. -1.
         22    1    3    3    0    0 -0.36657311307E+01 -0.43058371381E+02  0.10033262264E+03  0.10924328857E+03  0.00000000000E+00 0. -1.
         22    1    3    3    0    0  0.11796790135E+02 -0.21352933603E+02 -0.37715443520E+02  0.44917331965E+02  0.00000000000E+00 0. -1.
</event>
<event>
 7    1  0.6607887E-006  0.2880342E+02  0.7818608E-02  0.1619173E+00
          2   -1    0    0  502    0  0.00000000000E+00  0.00000000000E+00  0.79095953645E+03  0.79095953645E+03  0.00000000000E+00 0. -1.
          1   -1    0    0  501    0 -0.00000000000E+00 -0.00000000000E+00 -0.60250096715E+03  0.60250096715E+03  0.00000000000E+00 0. -1.
         25    2    1    2    0    0  0.45760329930E+02  0.72369181587E+01  0.20904330708E+03  0.24793728782E+03  0.12500965432E+03 0.  0.
          2    1    1    2  501    0 -0.21112240602E+02 -0.19571449693E+02 -0.58236055143E+03  0.58307167673E+03  0.00000000000E+00 0. -1.
          1    1    1    2  502    0 -0.24648089327E+02  0.12334531535E+02  0.56177581365E+03  0.56245153905E+03  0.00000000000E+00 0. -1.
         22    1    3    3    0    0  0.44863234605E+02 -0.54579715210E+02  0.12529282751E+03  0.14384000750E+03  0.00000000000E+00 0.  1.
         22    1    3    3    0    0  0.89709532461E+00  0.61816633369E+02  0.83750479572E+02  0.10409728032E+03  0.00000000000E+00 0.  1.
</event>
<event>
 7    1  0.6607887E-006  0.1226323E+03  0.7818608E-02  0.1347296E+00
          2   -1    0    0  502    0  0.00000000000E+00  0.00000000000E+00  0.85837325810E+03  0.85837325810E+03  0.00000000000E+00 0. -1.
          1   -1    0    0  501    0 -0.00000000000E+00 -0.00000000000E+00 -0.54461272561E+03  0.54461272561E+03  0.00000000000E+00 0. -1.
         25    2    1    2    0    0 -0.28066904009E+02  0.78302039325E+02  0.34037530776E+02  0.15396175784E+03  0.12500683546E+03 0.  0.
          2    1    1    2  501    0 -0.27947306459E+02  0.34679779048E+02 -0.47840801641E+03  0.48047681440E+03  0.00000000000E+00 0. -1.
          1    1    1    2  502    0  0.56014210468E+02 -0.11298181837E+03  0.75813101812E+03  0.76854741148E+03  0.00000000000E+00 0. -1.
         22    1    3    3    0    0 -0.48562944486E+02 -0.14240883775E+02 -0.62057480906E+01  0.50986994981E+02  0.00000000000E+00 0.  1.
         22    1    3    3    0    0  0.20496040477E+02  0.92542923101E+02  0.40243278867E+02  0.10297476286E+03  0.00000000000E+00 0.  1.
</event>
<event>
 7    1  0.6607887E-006  0.6494311E+02  0.7818608E-02  0.1464328E+00
          2   -1    0    0  502    0  0.00000000000E+00  0.00000000000E+00  0.10930823937E+04  0.10930823937E+04  0.00000000000E+00 0. -1.
          1   -1    0    0  501    0 -0.00000000000E+00 -0.00000000000E+00 -0.25594619395E+03  0.25594619395E+03  0.00000000000E+00 0. -1.
         25    2    1    2    0    0  0.57488465087E+02  0.74460709897E+02  0.51118260354E+02  0.16458323318E+03  0.12500097266E+03 0.  0.
          2    1    1    2  501    0 -0.29172096145E+02 -0.56556247700E+02 -0.19383810724E+03  0.20401674482E+03  0.00000000000E+00 0. -1.
          1    1    1    2  502    0 -0.28316368942E+02 -0.17904462197E+02  0.97985604662E+03  0.98042860964E+03  0.00000000000E+00 0. -1.
         22    1    3    3    0    0 -0.27474587513E+02  0.45265881485E+02 -0.12615037539E+02  0.54433373565E+02  0.00000000000E+00 0.  1.
         22    1    3    3    0    0  0.84963052600E+02  0.29194828412E+02  0.63733297894E+02  0.11014985962E+03  0.00000000000E+00 0.  1.
</event>
<event>
 7    1  0.6607887E-006  0.1035067E+03  0.7818608E-02  0.1285402E+00
          2   -1    0    0  502    0  0.00000000000E+00  0.00000000000E+00  0.24365075125E+04  0.24365075125E+04  0.00000000000E+00 0. -1.
          1   -1    0    0  501    0 -0.00000000000E+00 -0.00000000000E+00 -0.88822940799E+03  0.88822940799E+03  0.00000000000E+00 0. -1.
         25    2    1    2    0    0 -0.22272448880E+02  0.12612700239E+02  0.20639057267E+03  0.24264598949E+03  0.12499946216E+03 0.  0.
          2    1    1    2  501    0  0.11875802777E+02 -0.10407432154E+03 -0.86598654589E+03  0.87229880016E+03  0.00000000000E+00 0. -1.
          1    1    1    2  502    0  0.10396646103E+02  0.91461621304E+02  0.22078740777E+04  0.22097921308E+04  0.00000000000E+00 0. -1.
         22    1    3    3    0    0  0.47446761916E+02  0.23200467710E+02  0.58570418683E+02  0.78866665094E+02  0.00000000000E+00 0. -1.
         22    1    3    3    0    0 -0.69719210796E+02 -0.10587767472E+02  0.14782015399E+03  0.16377932439E+03  0.00000000000E+00 0. -1.
</event>
<event>
 7    1  0.6607887E-006  0.7329972E+02  0.7818608E-02  0.1459115E+00
          2   -1    0    0  502    0  0.00000000000E+00  0.00000000000E+00  0.88008394427E+03  0.88008394427E+03  0.00000000000E+00 0. -1.
          1   -1    0    0  501    0 -0.00000000000E+00 -0.00000000000E+00 -0.42072026649E+02  0.42072026649E+02  0.00000000000E+00 0. -1.
         25    2    1    2    0    0 -0.37549550452E+02 -0.50311847150E+02  0.40276587987E+03  0.42636469933E+03  0.12500100857E+03 0.  0.
          2    1    1    2  501    0 -0.28880160553E+02  0.10776226649E+02 -0.18203912162E+02  0.35799066362E+02  0.00000000000E+00 0. -1.
          1    1    1    2  502    0  0.66429711006E+02  0.39535620501E+02  0.45344994992E+03  0.45999220523E+03  0.00000000000E+00 0. -1.
         22    1    3    3    0    0  0.37903300368E+02 -0.22031218255E+02  0.60336418332E+02  0.74582291019E+02  0.00000000000E+00 0. -1.
         22    1    3    3    0    0 -0.75452850820E+02 -0.28280628896E+02  0.34242946154E+03  0.35178240831E+03  0.00000000000E+00 0. -1.
</event>
<event>
 7    1  0.6607887E-006  0.8224063E+02  0.7818608E-02  0.1475304E+00
          2   -1    0    0  502    0  0.00000000000E+00  0.00000000000E+00  0.22197244465E+03  0.22197244465E+03  0.00000000000E+00 0. -1.
          1   -1    0    0  501    0 -0.00000000000E+00 -0.00000000000E+00 -0.17135191251E+04  0.17135191251E+04  0.00000000000E+00 0. -1.
         25    2    1    2    0    0  0.76203231806E+00 -0.61333170833E+02 -0.86846672548E+03  0.87955775087E+03  0.12500018124E+03 0.  0.
          2    1    1    2  501    0  0.14525387429E+02 -0.19673756314E+02 -0.83147055957E+03  0.83183011187E+03  0.00000000000E+00 0. -1.
          1    1    1    2  502    0 -0.15287419747E+02  0.81006927147E+02  0.20839060456E+03  0.22410370706E+03  0.00000000000E+00 0. -1.
         22    1    3    3    0    0 -0.18539758948E+02 -0.67850811952E+02 -0.84717341956E+03  0.85008838255E+03  0.00000000000E+00 0. -1.
         22    1    3    3    0    0  0.19301791266E+02  0.65176411192E+01 -0.21293305917E+02  0.29469368312E+02  0.00000000000E+00 0. -1.
</event>
<event>
 7    1  0.6607887E-006  0.1118779E+03  0.7818608E-02  0.1313804E+00
          2   -1    0    0  502    0  0.00000000000E+00  0.00000000000E+00  0.82480550461E+03  0.82480550461E+03  0.00000000000E+00 0. -1.
          1   -1    0    0  501    0 -0.00000000000E+00 -0.00000000000E+00 -0.17669824978E+03  0.17669824978E+03  0.00000000000E+00 0. -1.
         25    2    1    2    0    0  0.83471335435E+02 -0.12168550330E+03  0.29042989645E+03  0.34892537600E+03  0.12499827086E+03 0.  0.
          2    1    1    2  501    0 -0.94427282325E+02  0.57074135036E+02 -0.12427705109E+03  0.16618891048E+03  0.00000000000E+00 0. -1.
          1    1    1    2  502    0  0.10955946890E+02  0.64611368264E+02  0.48195440947E+03  0.48638946791E+03  0.00000000000E+00 0. -1.
         22    1    3    3    0    0  0.47095365282E+02 -0.43946530508E+02  0.23551741601E+02  0.68585388438E+02  0.00000000000E+00 0. -1.
         22    1    3    3    0    0  0.36375970154E+02 -0.77738972791E+02  0.26687815484E+03  0.28033998757E+03  0.00000000000E+00 0. -1.
</event>
<event>
 7    1  0.6607887E-006  0.1021730E+03  0.7818608E-02  0.1325839E+00
          2   -1    0    0  502    0  0.00000000000E+00  0.00000000000E+00  0.89645899553E+03  0.89645899553E+03  0.00000000000E+00 0. -1.
          1   -1    0    0  501    0 -0.00000000000E+00 -0.00000000000E+00 -0.41903075144E+03  0.41903075144E+03  0.00000000000E+00 0. -1.
         25    2    1    2    0    0 -0.13188743089E+03  0.63531176109E+02 -0.14868975704E+03  0.24323951962E+03  0.12500526106E+03 0.  0.
          2    1    1    2  501    0  0.93287723312E+02 -0.11929623530E+02 -0.21186088228E+03  0.23179721456E+03  0.00000000000E+00 0. -1.
          1    1    1    2  502    0  0.38599707575E+02 -0.51601552579E+02  0.83797888341E+03  0.84045301278E+03  0.00000000000E+00 0. -1.
         22    1    3    3    0    0 -0.77867115504E+02 -0.28776183155E+02 -0.45702780998E+02  0.94763392641E+02  0.00000000000E+00 0. -1.
         22    1    3    3    0    0 -0.54020315383E+02  0.92307359264E+02 -0.10298697604E+03  0.14847612698E+03  0.00000000000E+00 0. -1.
</event>
<event>
 7    1  0.6607887E-006  0.1136941E+03  0.7818608E-02  0.1293552E+00
          2   -1    0    0  502    0  0.00000000000E+00  0.00000000000E+00  0.53950585940E+02  0.53950585940E+02  0.00000000000E+00 0. -1.
          1   -1    0    0  501    0 -0.00000000000E+00 -0.00000000000E+00 -0.18466258014E+04  0.18466258014E+04  0.00000000000E+00 0. -1.
         25    2    1    2    0    0  0.33792143201E+02  0.47077205299E+02 -0.15999113838E+03  0.21114138738E+03  0.12500139560E+03 0.  0.
          2    1    1    2  501    0 -0.10608758220E+03  0.40887297326E+02 -0.15355999198E+04  0.15398030588E+04  0.00000000000E+00 0. -1.
          1    1    1    2  502    0  0.72295438999E+02 -0.87964502625E+02 -0.97084157268E+02  0.14963194116E+03  0.00000000000E+00 0. -1.
         22    1    3    3    0    0  0.66727556454E+02  0.44048653859E+02 -0.15909328992E+03  0.17805483872E+03  0.00000000000E+00 0. -1.
         22    1    3    3    0    0 -0.32935413254E+02  0.30285514396E+01 -0.89784846674E+00  0.33086548655E+02  0.00000000000E+00 0. -1.
</event>
<event>
 7    1  0.6607887E-006  0.4892688E+02  0.7818608E-02  0.1532714E+00
          2   -1    0    0  502    0  0.00000000000E+00  0.00000000000E+00  0.28142140784E+03  0.28142140784E+03  0.00000000000E+00 0. -1.
          1   -1    0    0  501    0 -0.00000000000E+00 -0.00000000000E+00 -0.31302011546E+03  0.31302011546E+03  0.00000000000E+00 0. -1.
         25    2    1    2    0    0  0.47390498241E+02 -0.41082666510E+02  0.90584890029E+02  0.16662524928E+03  0.12499882634E+03 0.  0.
          2    1    1    2  501    0 -0.12178593512E+01  0.27735783872E+02 -0.27049265449E+03  0.27191364993E+03  0.00000000000E+00 0. -1.
          1    1    1    2  502    0 -0.46172638890E+02  0.13346882638E+02  0.14830905683E+03  0.15590262408E+03  0.00000000000E+00 0. -1.
         22    1    3    3    0    0 -0.31257564620E+01 -0.76669924074E+02  0.61460209102E+02  0.98312791202E+02  0.00000000000E+00 0.  1.
         22    1    3    3    0    0  0.50516254703E+02  0.35587257564E+02  0.29124680927E+02  0.68312458082E+02  0.00000000000E+00 0.  1.
</event>
<event>
 7    1  0.6607887E-006  0.1470989E+03  0.7818608E-02  0.1287132E+00
          2   -1    0    0  502    0  0.00000000000E+00  0.00000000000E+00  0.28523674556E+03  0.28523674556E+03  0.00000000000E+00 0. -1.
          1   -1    0    0  501    0 -0.00000000000E+00 -0.00000000000E+00 -0.15103985378E+04  0.15103985378E+04  0.00000000000E+00 0. -1.
         25    2    1    2    0    0 -0.10502010948E+03  0.15008498084E+03 -0.12242969531E+03  0.25332970385E+03  0.12502873145E+03 0.  0.
          2    1    1    2  501    0 -0.91145459761E+01 -0.63069640257E+02 -0.12982237232E+04  0.12997867864E+04  0.00000000000E+00 0. -1.
          1    1    1    2  502    0  0.11413465545E+03 -0.87015340588E+02  0.19549162630E+03  0.24251879314E+03  0.00000000000E+00 0. -1.
         22    1    3    3    0    0  0.21492615319E+02  0.38407603648E+02 -0.57743827644E+02  0.72604587749E+02  0.00000000000E+00 0.  1.
         22    1    3    3    0    0 -0.12651272480E+03  0.11167737720E+03 -0.64685867664E+02  0.18072511610E+03  0.00000000000E+00 0.  1.
</event>
<event>
 7    1  0.6607887E-006  0.7335644E+02  0.7818608E-02  0.1359797E+00
          2   -1    0    0  502    0  0.00000000000E+00  0.00000000000E+00  0.26095752096E+03  0.26095752096E+03  0.00000000000E+00 0. -1.
          1   -1    0    0  501    0 -0.00000000000E+00 -0.00000000000E+00 -0.16505326094E+04  0.16505326094E+04  0.00000000000E+00 0. -1.
         25    2    1    2    0    0 -0.45306217902E+02 -0.53275893768E+02 -0.92866867765E+03  0.93964964370E+03  0.12499986333E+03 0.  0.
          2    1    1    2  501    0 -0.15087606979E+02  0.82201724844E+02 -0.70949004216E+03  0.71439546428E+03  0.00000000000E+00 0. -1.
          1    1    1    2  502    0  0.60393824881E+02 -0.28925831076E+02  0.24858363134E+03  0.25744502240E+03  0.00000000000E+00 0. -1.
         22    1    3    3    0    0  0.39928265307E+02  0.45297948422E+01 -0.27325302813E+03  0.27619196729E+03  0.00000000000E+00 0. -1.
         22    1    3    3    0    0 -0.85234483210E+02 -0.57805688610E+02 -0.65541564952E+03  0.66345767642E+03  0.00000000000E+00 0. -1.
</event>
<event>
 7    1  0.6607887E-006  0.2797559E+03  0.7818608E-02  0.1144379E+00
          2   -1    0    0  502    0  0.00000000000E+00  0.00000000000E+00  0.85499676885E+03  0.85499676885E+03  0.00000000000E+00 0. -1.
          1   -1    0    0  501    0 -0.00000000000E+00 -0.00000000000E+00 -0.87505017012E+03  0.87505017012E+03  0.00000000000E+00 0. -1.
         25    2    1    2    0    0  0.10512144696E+03  0.17796736046E+03  0.33440902022E+02  0.24385738399E+03  0.12500091918E+03 0.  0.
          2    1    1    2  501    0  0.15221548460E+03 -0.76214385353E+01 -0.72834650803E+03  0.74412114325E+03  0.00000000000E+00 0. -1.
          1    1    1    2  502    0 -0.25733693156E+03 -0.17034592193E+03  0.67485220474E+03  0.74206841174E+03  0.00000000000E+00 0. -1.
         22    1    3    3    0    0 -0.11591086445E+02 -0.13200465015E+02  0.29009494825E+01  0.17805085495E+02  0.00000000000E+00 0. -1.
         22    1    3    3    0    0  0.11671253340E+03  0.19116782548E+03  0.30539952540E+02  0.22605229849E+03  0.00000000000E+00 0. -1.
</event>
<event>
 7    1  0.6607887E-006  0.1410381E+03  0.7818608E-02  0.1367260E+00
          2   -1    0    0  502    0  0.00000000000E+00  0.00000000000E+00  0.13193175610E+04  0.13193175610E+04  0.00000000000E+00 0. -1.
          1   -1    0    0  501    0 -0.00000000000E+00 -0.00000000000E+00 -0.55971007900E+03  0.55971007900E+03  0.00000000000E+00 0. -1.
         25    2    1    2    0    0 -0.57580496741E+01 -0.12314683592E+03  0.38777179583E+03  0.42566244949E+03  0.12499302756E+03 0.  0.
          2    1    1    2  501    0  0.23471199534E+02 -0.22800874353E+02 -0.53433986421E+03  0.53534088912E+03  0.00000000000E+00 0. -1.
          1    1    1    2  502    0 -0.17713149860E+02  0.14594771027E+03  0.90617555041E+03  0.91802430141E+03  0.00000000000E+00 0. -1.
         22    1    3    3    0    0  0.13365549803E+02 -0.11233175458E+03  0.15518441174E+03  0.19203974239E+03  0.00000000000E+00 0. -1.
         22    1    3    3    0    0 -0.19123599477E+02 -0.10815081337E+02  0.23258738408E+03  0.23362270710E+03  0.00000000000E+00 0. -1.
</event>
<event>
 7    1  0.6607887E-006  0.5402032E+02  0.7818608E-02  0.1563299E+00
          2   -1    0    0  502    0  0.00000000000E+00  0.00000000000E+00  0.25167239949E+04  0.25167239949E+04  0.00000000000E+00 0. -1.
          1   -1    0    0  501    0 -0.00000000000E+00 -0.00000000000E+00 -0.11142753891E+02  0.11142753891E+02  0.00000000000E+00 0. -1.
         25    2    1    2    0    0 -0.32956490362E+02 -0.15235306215E+02  0.10294752813E+04  0.10376720825E+04  0.12500300445E+03 0.  0.
          2    1    1    2  501    0 -0.15422670278E+02 -0.13730382422E+02  0.98908002586E+01  0.22895634730E+02  0.00000000000E+00 0. -1.
          1    1    1    2  502    0  0.48379160640E+02  0.28965688637E+02  0.14662151594E+04  0.14672990316E+04  0.00000000000E+00 0. -1.
         22    1    3    3    0    0 -0.73879358563E+02  0.49830292452E+01  0.81703092714E+03  0.82037950127E+03  0.00000000000E+00 0.  1.
         22    1    3    3    0    0  0.40922868200E+02 -0.20218335461E+02  0.21244435418E+03  0.21729258122E+03  0.00000000000E+00 0.  1.
</event>
<event>
 7    1  0.6607887E-006  0.1147855E+03  0.7818608E-02  0.1282215E+00
          2   -1    0    0  502    0  0.00000000000E+00  0.00000000000E+00  0.21057743821E+04  0.21057743821E+04  0.00000000000E+00 0. -1.
          1   -1    0    0  501    0 -0.00000000000E+00 -0.00000000000E+00 -0.12834169776E+03  0.12834169776E+03  0.00000000000E+00 0. -1.
         25    2    1    2    0    0 -0.13221769434E+03 -0.13757347673E+03  0.27246318195E+03  0.35534442074E+03  0.12500196654E+03 0.  0.
          2    1    1    2  501    0  0.74629141609E+02  0.41816194187E+02 -0.63648947635E+02  0.10662687939E+03  0.00000000000E+00 0. -1.
          1    1    1    2  502    0  0.57588552733E+02  0.95757282543E+02  0.17686184501E+04  0.17721447798E+04  0.00000000000E+00 0. -1.
         22    1    3    3    0    0 -0.10298206528E+03 -0.60184246285E+02  0.74099996361E+02  0.14042171745E+03  0.00000000000E+00 0.  1.
         22    1    3    3    0    0 -0.29235629063E+02 -0.77389230445E+02  0.19836318559E+03  0.21492270329E+03  0.00000000000E+00 0.  1.
</event>
<event>
 7    1  0.6607887E-006  0.1493846E+03  0.7818608E-02  0.1320383E+00
          2   -1    0    0  502    0  0.00000000000E+00  0.00000000000E+00  0.15932939063E+04  0.15932939063E+04  0.00000000000E+00 0. -1.
          1   -1    0    0  501    0 -0.00000000000E+00 -0.00000000000E+00 -0.11128811796E+04  0.11128811796E+04  0.00000000000E+00 0. -1.
         25    2    1    2    0    0  0.12253029758E+03  0.13404696452E+01 -0.26858683164E+02  0.17708968641E+03  0.12499558988E+03 0.  0.
          2    1    1    2  501    0 -0.14602327980E+03 -0.41198147493E+02 -0.10048582584E+04  0.10162481021E+04  0.00000000000E+00 0. -1.
          1    1    1    2  502    0  0.23492982225E+02  0.39857677848E+02  0.15121296683E+04  0.15128372974E+04  0.00000000000E+00 0. -1.
         22    1    3    3    0    0 -0.25730939154E+02  0.62958323830E+01 -0.71824800943E+01  0.27446434294E+02  0.00000000000E+00 0. -1.
         22    1    3    3    0    0  0.14826123673E+03 -0.49553627378E+01 -0.19676203070E+02  0.14964325212E+03  0.00000000000E+00 0. -1.
</event>
<event>
 7    1  0.6607887E-006  0.2367737E+03  0.7818608E-02  0.1357432E+00
          2   -1    0    0  502    0  0.00000000000E+00  0.00000000000E+00  0.15718265653E+04  0.15718265653E+04  0.00000000000E+00 0. -1.
          1   -1    0    0  501    0 -0.00000000000E+00 -0.00000000000E+00 -0.14822742616E+03  0.14822742616E+03  0.00000000000E+00 0. -1.
         25    2    1    2    0    0  0.15748549487E+03 -0.20175196947E+03  0.10543079186E+04  0.10921057422E+04  0.12499690688E+03 0.  0.
          2    1    1    2  501    0 -0.14597825465E+03  0.18398994089E+03 -0.22175033488E+02  0.23591032468E+03  0.00000000000E+00 0. -1.
          1    1    1    2  502    0 -0.11507240214E+02  0.17762028586E+02  0.39146625401E+03  0.39203792452E+03  0.00000000000E+00 0. -1.
         22    1    3    3    0    0  0.16717795185E+03 -0.13093828913E+03  0.74708757462E+03  0.77668085292E+03  0.00000000000E+00 0.  1.
         22    1    3    3    0    0 -0.96924569796E+01 -0.70813680340E+02  0.30722034396E+03  0.31542488930E+03  0.00000000000E+00 0.  1.
</event>
<event>
 7    1  0.6607887E-006  0.1348656E+03  0.7818608E-02  0.1345393E+00
          2   -1    0    0  502    0  0.00000000000E+00  0.00000000000E+00  0.16177067137E+03  0.16177067137E+03  0.00000000000E+00 0. -1.
          1   -1    0    0  501    0 -0.00000000000E+00 -0.00000000000E+00 -0.86371747537E+03  0.86371747537E+03  0.00000000000E+00 0. -1.
         25    2    1    2    0    0 -0.90829848535E+02 -0.84331602557E+02 -0.14525229794E+03  0.22822085421E+03  0.12499859064E+03 0.  0.
          2    1    1    2  501    0 -0.33462004264E+02  0.23977511225E+02 -0.63641693620E+03  0.63774692744E+03  0.00000000000E+00 0. -1.
          1    1    1    2  502    0  0.12429185280E+03  0.60354091332E+02  0.79722430145E+02  0.15952036510E+03  0.00000000000E+00 0. -1.
         22    1    3    3    0    0  0.15683171860E+02 -0.53556343024E+02 -0.16253196607E+02  0.58124092747E+02  0.00000000000E+00 0. -1.
         22    1    3    3    0    0 -0.10651302040E+03 -0.30775259533E+02 -0.12899910134E+03  0.17009676146E+03  0.00000000000E+00 0. -1.
</event>
<event>
 7    1  0.6607887E-006  0.7169980E+02  0.7818608E-02  0.1405882E+00
          2   -1    0    0  502    0  0.00000000000E+00  0.00000000000E+00  0.27112664608E+03  0.27112664608E+03  0.00000000000E+00 0. -1.
          1   -1    0    0  501    0 -0.00000000000E+00 -0.00000000000E+00 -0.26718976998E+03  0.26718976998E+03  0.00000000000E+00 0. -1.
         25    2    1    2    0    0  0.10307552630E+03  0.25910864948E+02 -0.36008246185E+02  0.16797910737E+03  0.12499779868E+03 0.  0.
          2    1    1    2  501    0 -0.57369519802E+02 -0.37355063732E+02 -0.15517696123E+03  0.16960705140E+03  0.00000000000E+00 0. -1.
          1    1    1    2  502    0 -0.45706006500E+02  0.11444198784E+02  0.19512208351E+03  0.20073025729E+03  0.00000000000E+00 0. -1.
         22    1    3    3    0    0  0.12185820381E+03  0.87184416976E+01  0.20516595696E+01  0.12218691570E+03  0.00000000000E+00 0. -1.
         22    1    3    3    0    0 -0.18782677512E+02  0.17192423251E+02 -0.38059905754E+02  0.45792191668E+02  0.00000000000E+00 0. -1.
</event>
<event>
 7    1  0.6607887E-006  0.7660928E+02  0.7818608E-02  0.1461289E+00
          2   -1    0    0  502    0  0.00000000000E+00  0.00000000000E+00  0.50709468739E+03  0.50709468739E+03  0.00000000000E+00 0. -1.
          1   -1    0    0  501    0 -0.00000000000E+00 -0.00000000000E+00 -0.12470079217E+04  0.12470079217E+04  0.00000000000E+00 0. -1.
         25    2    1    2    0    0  0.37693619444E+02 -0.41412944644E+02  0.23514102566E+03  0.27212529363E+03  0.12500013022E+03 0.  0.
          2    1    1    2  501    0  0.23938199998E+02 -0.16425642760E+02 -0.12212922623E+04  0.12216372740E+04  0.00000000000E+00 0. -1.
          1    1    1    2  502    0 -0.61631819442E+02  0.57838587404E+02  0.24623800239E+03  0.26034004145E+03  0.00000000000E+00 0. -1.
         22    1    3    3    0    0 -0.38266594862E+02 -0.47165725501E+02  0.10045740987E+03  0.11739092444E+03  0.00000000000E+00 0. -1.
         22    1    3    3    0    0  0.75960214306E+02  0.57527808572E+01  0.13468361579E+03  0.15473436918E+03  0.00000000000E+00 0. -1.
</event>
<event>
 7    1  0.6607887E-006  0.1133932E+03  0.7818608E-02  0.1395016E+00
          2   -1    0    0  502    0  0.00000000000E+00  0.00000000000E+00  0.13628533852E+04  0.13628533852E+04  0.00000000000E+00 0. -1.
          1   -1    0    0  501    0 -0.00000000000E+00 -0.00000000000E+00 -0.11837960797E+04  0.11837960797E+04  0.00000000000E+00 0. -1.
         25    2    1    2    0    0 -0.21322798562E+02 -0.82151436702E+02  0.14988224588E+03  0.21281987848E+03  0.12499637098E+03 0.  0.
          2    1    1    2  501    0 -0.18114018134E+02 -0.26944861125E+02 -0.11492499553E+04  0.11497084861E+04  0.00000000000E+00 0. -1.
          1    1    1    2  502    0  0.39436816696E+02  0.10909629783E+03  0.11784250149E+04  0.11841211004E+04  0.00000000000E+00 0. -1.
         22    1    3    3    0    0  0.18718096502E+02  0.36335800145E+01  0.10735800735E+03  0.10903812078E+03  0.00000000000E+00 0.  1.
         22    1    3    3    0    0 -0.40040895064E+02 -0.85785016716E+02  0.42524238526E+02  0.10378175771E+03  0.00000000000E+00 0.  1.
</event>
<event>
 7    1  0.6607887E-006  0.1522583E+03  0.7818608E-02  0.1251697E+00
          2   -1    0    0  502    0  0.00000000000E+00  0.00000000000E+00  0.85256610138E+03  0.85256610138E+03  0.00000000000E+00 0. -1.
          1   -1    0    0  501    0 -0.00000000000E+00 -0.00000000000E+00 -0.29530158053E+04  0.29530158053E+04  0.00000000000E+00 0. -1.
         25    2    1    2    0    0  0.15267196643E+03  0.72841621563E+02 -0.18427067683E+03  0.27963110202E+03  0.12499295864E+03 0.  0.
          2    1    1    2  501    0 -0.15188313965E+03  0.13913468483E+02 -0.27165816918E+04  0.27208598201E+04  0.00000000000E+00 0. -1.
          1    1    1    2  502    0 -0.78882677851E+00 -0.86755090046E+02  0.80040266463E+03  0.80509098458E+03  0.00000000000E+00 0. -1.
         22    1    3    3    0    0 -0.13683634169E+02  0.31963898877E+02 -0.54816772362E+02  0.64913875309E+02  0.00000000000E+00 0.  1.
         22    1    3    3    0    0  0.16635560060E+03  0.40877722686E+02 -0.12945390447E+03  0.21471722671E+03  0.00000000000E+00 0.  1.
</event>
<event>
 7    1  0.6607887E-006  0.8680863E+02  0.7818608E-02  0.1442375E+00
          2   -1    0    0  502    0  0.00000000000E+00  0.00000000000E+00  0.29319835295E+02  0.29319835295E+02  0.00000000000E+00 0. -1.
          1   -1    0    0  501    0 -0.00000000000E+00 -0.00000000000E+00 -0.14586924597E+04  0.14586924597E+04  0.00000000000E+00 0. -1.
         25    2    1    2    0    0 -0.34308440946E+02 -0.63481407495E+02 -0.88199152794E+03  0.89372314691E+03  0.12500019899E+03 0.  0.
          2    1    1    2  501    0 -0.29372828653E+02  0.20032115526E+01 -0.48525648618E+03  0.48614877692E+03  0.00000000000E+00 0. -1.
          1    1    1    2  502    0  0.63681269599E+02  0.61478195942E+02 -0.62124610300E+02  0.10814037118E+03  0.00000000000E+00 0. -1.
         22    1    3    3    0    0 -0.10271946393E+02 -0.97638282302E+02 -0.50744586912E+03  0.51685593461E+03  0.00000000000E+00 0. -1.
         22    1    3    3    0    0 -0.24036494554E+02  0.34156874807E+02 -0.37454565882E+03  0.37686721230E+03  0.00000000000E+00 0. -1.
</event>
<event>
 7    1  0.6607887E-006  0.1040810E+03  0.7818608E-02  0.1310011E+00
          2   -1    0    0  502    0  0.00000000000E+00  0.00000000000E+00  0.20198837699E+03  0.20198837699E+03  0.00000000000E+00 0. -1.
          1   -1    0    0  501    0 -0.00000000000E+00 -0.00000000000E+00 -0.40422790872E+03  0.40422790872E+03  0.00000000000E+00 0. -1.
         25    2    1    2    0    0  0.68022458806E+02 -0.11548507934E+02  0.24761434377E+01  0.14276615160E+03  0.12496247364E+03 0.  0.
          2    1    1    2  501    0 -0.71558755720E+02  0.84365128977E+02 -0.31352856630E+03  0.33247299499E+03  0.00000000000E+00 0. -1.
          1    1    1    2  502    0  0.35362969137E+01 -0.72816621043E+02  0.10881289113E+03  0.13097713912E+03  0.00000000000E+00 0. -1.
         22    1    3    3    0    0  0.10061621595E+03  0.58863640212E+01 -0.14966647221E+02  0.10189343807E+03  0.00000000000E+00 0. -1.
         22    1    3    3    0    0 -0.32593757144E+02 -0.17434871955E+02  0.17442790659E+02  0.40872713524E+02  0.00000000000E+00 0. -1.
</event>
<event>
 7    1  0.6607887E-006  0.5606479E+02  0.7818608E-02  0.1441234E+00
          2   -1    0    0  502    0  0.00000000000E+00  0.00000000000E+00  0.13288891048E+04  0.13288891048E+04  0.00000000000E+00 0. -1.
          1   -1    0    0  501    0 -0.00000000000E+00 -0.00000000000E+00 -0.32168629339E+02  0.32168629339E+02  0.00000000000E+00 0. -1.
         25    2    1    2    0    0 -0.47439432288E+02  0.81504201895E+02  0.25143224350E+03  0.29620564988E+03  0.12500471706E+03 0.  0.
          2    1    1    2  501    0  0.36754916260E+02 -0.27617504355E+02  0.49526319064E+02  0.67575932817E+02  0.00000000000E+00 0. -1.
          1    1    1    2  502    0  0.10684516028E+02 -0.53886697541E+02  0.99576191291E+03  0.99727615146E+03  0.00000000000E+00 0. -1.
         22    1    3    3    0    0 -0.40934580761E+02  0.71616378609E+02  0.26538474563E+03  0.27790935357E+03  0.00000000000E+00 0.  1.
         22    1    3    3    0    0 -0.65048515277E+01  0.98878232863E+01 -0.13952502136E+02  0.18296296308E+02  0.00000000000E+00 0.  1.
</event>
<event>
 7    1  0.6607887E-006  0.9611748E+02  0.7818608E-02  0.1320458E+00
          2   -1    0    0  502    0  0.00000000000E+00  0.00000000000E+00  0.20512501989E+04  0.20512501989E+04  0.00000000000E+00 0. -1.
          1   -1    0    0  501    0 -0.00000000000E+00 -0.00000000000E+00 -0.24766785914E+03  0.24766785914E+03  0.00000000000E+00 0. -1.
         25    2    1    2    0    0  0.40917655353E+02 -0.19574209050E+02 -0.77208285953E+01  0.13320077285E+03  0.12500172204E+03 0.  0.
          2    1    1    2  501    0 -0.73111778319E+02  0.83816373691E+02 -0.15903531444E+03  0.19406892556E+03  0.00000000000E+00 0. -1.
          1    1    1    2  502    0  0.32194122966E+02 -0.64242164641E+02  0.19703384828E+04  0.19716483596E+04  0.00000000000E+00 0. -1.
         22    1    3    3    0    0  0.67466784342E+02 -0.41142911285E+02 -0.37848447802E+02  0.87618554767E+02  0.00000000000E+00 0.  1.
         22    1    3    3    0    0 -0.26549128989E+02  0.21568702235E+02  0.30127619207E+02  0.45582218082E+02  0.00000000000E+00 0.  1.
</event>
<event>
 7    1  0.6607887E-006  0.4762758E+02  0.7818608E-02  0.1526125E+00
          2   -1    0    0  502    0  0.00000000000E+00  0.00000000000E+00  0.82865135409E+02  0.82865135409E+02  0.00000000000E+00 0. -1.
          1   -1    0    0  501    0 -0.00000000000E+00 -0.00000000000E+00 -0.11243648678E+04  0.11243648678E+04  0.00000000000E+00 0. -1.
         25    2    1    2    0    0  0.38047993344E+02  0.56126213567E+02 -0.51123072114E+03  0.53063907322E+03  0.12499269635E+03 0.  0.
          2    1    1    2  501    0 -0.28139165016E+02 -0.97727194431E+01 -0.59534061677E+03  0.59608537025E+03  0.00000000000E+00 0. -1.
          1    1    1    2  502    0 -0.99088283281E+01 -0.46353494124E+02  0.65071605546E+02  0.80505559713E+02  0.00000000000E+00 0. -1.
         22    1    3    3    0    0  0.19979691815E+02 -0.39741282818E+02 -0.17214532872E+03  0.17779924591E+03  0.00000000000E+00 0.  1.
         22    1    3    3    0    0  0.18068301529E+02  0.95867496384E+02 -0.33908539242E+03  0.35283982731E+03  0.00000000000E+00 0.  1.
</event>
<event>
 7    1  0.6607887E-006  0.6432553E+02  0.7818608E-02  0.1448314E+00
          2   -1    0    0  502    0  0.00000000000E+00  0.00000000000E+00  0.99044333581E+03  0.99044333581E+03  0.00000000000E+00 0. -1.
          1   -1    0    0  501    0 -0.00000000000E+00 -0.00000000000E+00 -0.70204725858E+03  0.70204725858E+03  0.00000000000E+00 0. -1.
         25    2    1    2    0    0  0.47864133623E+02 -0.48229776461E+02 -0.16853288585E+03  0.22055749316E+03  0.12500075021E+03 0.  0.
          2    1    1    2  501    0  0.15104988670E+02  0.34889741945E+02 -0.50571375237E+03  0.50714086220E+03  0.00000000000E+00 0. -1.
          1    1    1    2  502    0 -0.62969122293E+02  0.13340034516E+02  0.96264271545E+03  0.96479223903E+03  0.00000000000E+00 0. -1.
         22    1    3    3    0    0  0.33619409105E+02  0.13464538008E+02 -0.15039417607E+03  0.15469313704E+03  0.00000000000E+00 0.  1.
         22    1    3    3    0    0  0.14244724518E+02 -0.61694314469E+02 -0.18138709775E+02  0.65864356117E+02  0.00000000000E+00 0.  1.
</event>
<event>
 7    1  0.6607887E-006  0.8287464E+02  0.7818608E-02  0.1334938E+00
          2   -1    0    0  502    0  0.00000000000E+00  0.00000000000E+00  0.11480696822E+04  0.11480696822E+04  0.00000000000E+00 0. -1.
          1   -1    0    0  501    0 -0.00000000000E+00 -0.00000000000E+00 -0.16025476418E+04  0.16025476418E+04  0.00000000000E+00 0. -1.
         25    2    1    2    0    0 -0.77265975000E+02  0.13256647745E+03  0.15955333834E+03  0.25421616575E+03  0.12499875726E+03 0.  0.
          2    1    1    2  501    0  0.33293908153E+02 -0.65347236425E+02 -0.15526352771E+04  0.15543664463E+04  0.00000000000E+00 0. -1.
          1    1    1    2  502    0  0.43972066848E+02 -0.67219241029E+02  0.93860397915E+03  0.94203471204E+03  0.00000000000E+00 0. -1.
         22    1    3    3    0    0 -0.96721420587E+02  0.12034730720E+03  0.85095589519E+02  0.17629454588E+03  0.00000000000E+00 0. -1.
         22    1    3    3    0    0  0.19455445587E+02  0.12219170258E+02  0.74457748817E+02  0.77921619873E+02  0.00000000000E+00 0. -1.
</event>
<event>
 7    1  0.6607887E-006  0.9310785E+02  0.7818608E-02  0.1330227E+00
          2   -1    0    0  502    0  0.00000000000E+00  0.00000000000E+00  0.34881870185E+04  0.34881870185E+04  0.00000000000E+00 0. -1.
          1   -1    0    0  501    0 -0.00000000000E+00 -0.00000000000E+00 -0.28417004887E+03  0.28417004887E+03  0.00000000000E+00 0. -1.
         25    2    1    2    0    0  0.13580196204E+03 -0.58771580860E+02  0.10291214111E+03  0.21934477479E+03  0.12499979931E+03 0.  0.
          2    1    1    2  501    0 -0.67779885373E+02  0.59815045959E+02 -0.21654942443E+03  0.23466061835E+03  0.00000000000E+00 0. -1.
          1    1    1    2  502    0 -0.68022076669E+02 -0.10434650991E+01  0.33176542529E+04  0.33183516742E+04  0.00000000000E+00 0. -1.
         22    1    3    3    0    0  0.16257677824E+02  0.37057596777E+02  0.20092355525E+02  0.45180530294E+02  0.00000000000E+00 0. -1.
         22    1    3    3    0    0  0.11954428422E+03 -0.95829177637E+02  0.82819785585E+02  0.17416424449E+03  0.00000000000E+00 0. -1.
</event>
<event>
 7    1  0.6607887E-006  0.4870037E+02  0.7818608E-02  0.1482030E+00
          2   -1    0    0  502    0  0.00000000000E+00  0.00000000000E+00  0.23782936139E+04  0.23782936139E+04  0.00000000000E+00 0. -1.
          1   -1    0    0  501    0 -0.00000000000E+00 -0.00000000000E+00 -0.93355881992E+02  0.93355881992E+02  0.00000000000E+00 0. -1.
         25    2    1    2    0    0 -0.80357303852E+01  0.83508123644E+02  0.71634280794E+03  0.73199045912E+03  0.12499933633E+03 0.  0.
          2    1    1    2  501    0 -0.71023035716E+01 -0.38731586372E+02 -0.80643301520E+02  0.89743638098E+02  0.00000000000E+00 0. -1.
          1    1    1    2  502    0  0.15138033957E+02 -0.44776537272E+02  0.16492382255E+04  0.16499153987E+04  0.00000000000E+00 0. -1.
         22    1    3    3    0    0 -0.25806750280E+02 -0.26721497373E+02  0.13473618688E+03  0.13976361056E+03  0.00000000000E+00 0. -1.
         22    1    3    3    0    0  0.17771019895E+02  0.11022962102E+03  0.58160662107E+03  0.59222684857E+03  0.00000000000E+00 0. -1.
</event>
<event>
 7    1  0.6607887E-006  0.2495310E+02  0.7818608E-02  0.1685998E+00
          2   -1    0    0  502    0  0.00000000000E+00  0.00000000000E+00  0.11158971059E+03  0.11158971059E+03  0.00000000000E+00 0. -1.
          1   -1    0    0  501    0 -0.00000000000E+00 -0.00000000000E+00 -0.68566623749E+03  0.68566623749E+03  0.00000000000E+00 0. -1.
         25    2    1    2    0    0 -0.14113265517E+01  0.70635222590E+01 -0.15302316769E+03  0.19771818996E+03  0.12499803039E+03 0.  0.
          2    1    1    2  501    0  0.22988704833E+02 -0.10428756500E+02 -0.50864184879E+03  0.50926787632E+03  0.00000000000E+00 0. -1.
          1    1    1    2  502    0 -0.21577378281E+02  0.33652342413E+01  0.87588489575E+02  0.90269881804E+02  0.00000000000E+00 0. -1.
         22    1    3    3    0    0 -0.20387113692E+02 -0.51553178098E+02 -0.10803838864E+03  0.12143170095E+03  0.00000000000E+00 0. -1.
         22    1    3    3    0    0  0.18975787140E+02  0.58616700357E+02 -0.44984779049E+02  0.76286489003E+02  0.00000000000E+00 0. -1.
</event>
<event>
 7    1  0.6607887E-006  0.4943047E+02  0.7818608E-02  0.1464216E+00
          2   -1    0    0  502    0  0.00000000000E+00  0.00000000000E+00  0.65496492950E+02  0.65496492950E+02  0.00000000000E+00 0. -1.
          1   -1    0    0  501    0 -0.00000000000E+00 -0.00000000000E+00 -0.28787729282E+04  0.28787729282E+04  0.00000000000E+00 0. -1.
         25    2    1    2    0    0  0.69173204845E+02  0.95123437364E+01 -0.15919205585E+03  0.21410792477E+03  0.12499870340E+03 0.  0.
          2    1    1    2  501    0 -0.33906821263E+02 -0.35909511313E+02 -0.26790648837E+04  0.26795200721E+04  0.00000000000E+00 0. -1.
          1    1    1    2  502    0 -0.35266383582E+02  0.26397167577E+02  0.24980504262E+02  0.50641424350E+02  0.00000000000E+00 0. -1.
         22    1    3    3    0    0  0.52739610550E+01 -0.24395934016E+02  0.12415423509E+02  0.27876854246E+02  0.00000000000E+00 0.  1.
         22    1    3    3    0    0  0.63899243790E+02  0.33908277753E+02 -0.17160747936E+03  0.18623107053E+03  0.00000000000E+00 0.  1.
</event>
<event>
 7    1  0.6607887E-006  0.1288692E+03  0.7818608E-02  0.1349355E+00
          2   -1    0    0  502    0  0.00000000000E+00  0.00000000000E+00  0.12776126537E+03  0.12776126537E+03  0.00000000000E+00 0. -1.
          1   -1    0    0  501    0 -0.00000000000E+00 -0.00000000000E+00 -0.31990310237E+04  0.31990310237E+04  0.00000000000E+00 0. -1.
         25    2    1    2    0    0 -0.14854163770E+03  0.39125546194E+01 -0.10946947675E+02  0.19448581301E+03  0.12499987834E+03 0.  0.
          2    1    1    2  501    0  0.12500256053E+03  0.30440274864E+02 -0.30824604576E+04  0.30851441981E+04  0.00000000000E+00 0. -1.
          1    1    1    2  502    0  0.23539077178E+02 -0.34352829483E+02  0.22137646948E+02  0.47162277938E+02  0.00000000000E+00 0. -1.
         22    1    3    3    0    0 -0.56108662640E+02  0.63006948139E+02 -0.78562359182E+01  0.84733570560E+02  0.00000000000E+00 0. -1.
         22    1    3    3    0    0 -0.92432975064E+02 -0.59094393519E+02 -0.30907117571E+01  0.10975224245E+03  0.00000000000E+00 0. -1.
</event>
<event>
 7    1  0.6607887E-006  0.6079909E+02  0.7818608E-02  0.1413253E+00
          2   -1    0    0  502    0  0.00000000000E+00  0.00000000000E+00  0.23408632639E+04  0.23408632639E+04  0.00000000000E+00 0. -1.
          1   -1    0    0  501    0 -0.00000000000E+00 -0.00000000000E+00 -0.47494499747E+03  0.47494499747E+03  0.00000000000E+00 0. -1.
         25    2    1    2    0    0  0.42273789820E+02  0.33418348681E+02  0.91786409072E+03  0.92790324309E+03  0.12500432058E+03 0.  0.
          2    1    1    2  501    0  0.20521457665E+02 -0.48276553816E+02 -0.46772429137E+03  0.47065674181E+03  0.00000000000E+00 0. -1.
          1    1    1    2  502    0 -0.62795247485E+02  0.14858205135E+02  0.14157784670E+04  0.14172482764E+04  0.00000000000E+00 0. -1.
         22    1    3    3    0    0  0.25185142590E+02 -0.46089561233E+02  0.28082292960E+03  0.28569224150E+03  0.00000000000E+00 0.  1.
         22    1    3    3    0    0  0.17088647230E+02  0.79507909914E+02  0.63704116112E+03  0.64221100159E+03  0.00000000000E+00 0.  1.
</event>
<event>
 7    1  0.6607887E-006  0.5423731E+02  0.7818608E-02  0.1465392E+00
          2   -1    0    0  502    0  0.00000000000E+00  0.00000000000E+00  0.18425793169E+03  0.18425793169E+03  0.00000000000E+00 0. -1.
          1   -1    0    0  501    0 -0.00000000000E+00 -0.00000000000E+00 -0.54754268348E+03  0.54754268348E+03  0.00000000000E+00 0. -1.
         25    2    1    2    0    0  0.70731031651E+02 -0.14024503742E+02 -0.16972879673E+03  0.22278468659E+03  0.12500234635E+03 0.  0.
          2    1    1    2  501    0 -0.20518851076E+02  0.34112533723E+02 -0.34547337656E+03  0.34775931637E+03  0.00000000000E+00 0. -1.
          1    1    1    2  502    0 -0.50212180575E+02 -0.20088029981E+02  0.15191742150E+03  0.16125661221E+03  0.00000000000E+00 0. -1.
         22    1    3    3    0    0 -0.21322945855E+02  0.27929339967E+02 -0.80726284524E+02  0.88042314054E+02  0.00000000000E+00 0. -1.
         22    1    3    3    0    0  0.92053977506E+02 -0.41953843709E+02 -0.89002512207E+02  0.13474237253E+03  0.00000000000E+00 0. -1.
</event>
<event>
 7    1  0.6607887E-006  0.6482742E+02  0.7818608E-02  0.1379079E+00
          2   -1    0    0  502    0  0.00000000000E+00  0.00000000000E+00  0.30555872570E+04  0.30555872570E+04  0.00000000000E+00 0. -1.
          1   -1    0    0  501    0 -0.00000000000E+00 -0.00000000000E+00 -0.10669931547E+03  0.10669931547E+03  0.00000000000E+00 0. -1.
         25    2    1    2    0    0  0.40835055513E+01 -0.17180403153E+02  0.22999271372E+03  0.26236097879E+03  0.12499917422E+03 0.  0.
          2    1    1    2  501    0  0.61941778165E+02  0.19126156679E+02 -0.78467664578E+02  0.10178294619E+03  0.00000000000E+00 0. -1.
          1    1    1    2  502    0 -0.66025283716E+02 -0.19457535258E+01  0.27973628924E+04  0.27981426475E+04  0.00000000000E+00 0. -1.
         22    1    3    3    0    0  0.14673585895E+02  0.23012733195E+02  0.21714829207E+03  0.21885675855E+03  0.00000000000E+00 0. -1.
         22    1    3    3    0    0 -0.10590080344E+02 -0.40193136348E+02  0.12844421649E+02  0.43504220240E+02  0.00000000000E+00 0. -1.
</event>
<event>
 7    1  0.6607887E-006  0.8833913E+02  0.7818608E-02  0.1321444E+00
          2   -1    0    0  502    0  0.00000000000E+00  0.00000000000E+00  0.37751116136E+04  0.37751116136E+04  0.00000000000E+00 0. -1.
          1   -1    0    0  501    0 -0.00000000000E+00 -0.00000000000E+00 -0.10462702952E+03  0.10462702952E+03  0.00000000000E+00 0. -1.
         25    2    1    2    0    0  0.10316972953E+02 -0.57854523449E+01  0.15634587134E+04  0.15684874514E+04  0.12493928669E+03 0.  0.
          2    1    1    2  501    0 -0.74862718044E+02  0.48682905793E+02 -0.81771168661E+02  0.12108251688E+03  0.00000000000E+00 0. -1.
          1    1    1    2  502    0  0.64545745091E+02 -0.42897453448E+02  0.21887970394E+04  0.21901686749E+04  0.00000000000E+00 0. -1.
         22    1    3    3    0    0  0.34421017426E+02  0.27718478067E+02  0.13682297917E+04  0.13689433455E+04  0.00000000000E+00 0. -1.
         22    1    3    3    0    0 -0.24104044473E+02 -0.33503930412E+02  0.19522892169E+03  0.19954410585E+03  0.00000000000E+00 0. -1.
</event>
<event>
 7    1  0.6607887E-006  0.1272967E+03  0.7818608E-02  0.1377814E+00
          2   -1    0    0  502    0  0.00000000000E+00  0.00000000000E+00  0.28438316648E+03  0.28438316648E+03  0.00000000000E+00 0. -1.
          1   -1    0    0  501    0 -0.00000000000E+00 -0.00000000000E+00 -0.10277984916E+03  0.10277984916E+03  0.00000000000E+00 0. -1.
         25    2    1    2    0    0  0.10774555794E+03  0.45104601642E+02  0.67253995861E+02  0.18382486490E+03  0.12499980261E+03 0.  0.
          2    1    1    2  501    0  0.25120707940E+02 -0.21757486719E+02  0.23141851456E+02  0.40496709552E+02  0.00000000000E+00 0. -1.
          1    1    1    2  502    0 -0.13286626588E+03 -0.23347114924E+02  0.91207470000E+02  0.16284144119E+03  0.00000000000E+00 0. -1.
         22    1    3    3    0    0  0.69807036526E+02 -0.33265692301E+02  0.57182245339E+02  0.96173997603E+02  0.00000000000E+00 0. -1.
         22    1    3    3    0    0  0.37938521415E+02  0.78370293943E+02  0.10071750522E+02  0.87650867300E+02  0.00000000000E+00 0. -1.
</event>
<event>
 7    1  0.6607887E-006  0.8158150E+02  0.7818608E-02  0.1387260E+00
          2   -1    0    0  502    0  0.00000000000E+00  0.00000000000E+00  0.14240178507E+03  0.14240178507E+03  0.00000000000E+00 0. -1.
          1   -1    0    0  501    0 -0.00000000000E+00 -0.00000000000E+00 -0.17759027129E+04  0.17759027129E+04  0.00000000000E+00 0. -1.
         25    2    1    2    0    0 -0.14554560065E+02 -0.76875757083E+02 -0.34181124847E+03  0.37226574967E+03  0.12500056619E+03 0.  0.
          2    1    1    2  501    0  0.47991835154E+02  0.17730274262E+01 -0.14051251720E+04  0.14059456280E+04  0.00000000000E+00 0. -1.
          1    1    1    2  502    0 -0.33437275088E+02  0.75102729657E+02  0.11343549264E+03  0.14009312031E+03  0.00000000000E+00 0. -1.
         22    1    3    3    0    0 -0.62032863936E+02 -0.82141979491E+01 -0.17238151083E+03  0.18338738924E+03  0.00000000000E+00 0. -1.
         22    1    3    3    0    0  0.47478303870E+02 -0.68661559134E+02 -0.16942973763E+03  0.18887836042E+03  0.00000000000E+00 0. -1.
</event>
<event>
 7    1  0.6607887E-006  0.8990580E+02  0.7818608E-02  0.1351852E+00
          2   -1    0    0  502    0  0.00000000000E+00  0.00000000000E+00  0.15703806494E+03  0.15703806494E+03  0.00000000000E+00 0. -1.
          1   -1    0    0  501    0 -0.00000000000E+00 -0.00000000000E+00 -0.72351263747E+03  0.72351263747E+03  0.00000000000E+00 0. -1.
         25    2    1    2    0    0  0.66518370809E+02  0.84576431834E+02 -0.83549506736E+02  0.18488833366E+03  0.12500123748E+03 0.  0.
          2    1    1    2  501    0 -0.84938390193E+02 -0.29121239394E+02 -0.57752852760E+03  0.58446708796E+03  0.00000000000E+00 0. -1.
          1    1    1    2  502    0  0.18420019384E+02 -0.55455192440E+02  0.94603461812E+02  0.11119528079E+03  0.00000000000E+00 0. -1.
         22    1    3    3    0    0  0.10043156481E+02  0.75672173258E+02 -0.99615941659E+02  0.12550091087E+03  0.00000000000E+00 0. -1.
         22    1    3    3    0    0  0.56475214329E+02  0.89042585767E+01  0.16066434922E+02  0.59387422788E+02  0.00000000000E+00 0. -1.
</event>
<event>
 7    1  0.6607887E-006  0.6079220E+02  0.7818608E-02  0.1511679E+00
          2   -1    0    0  502    0  0.00000000000E+00  0.00000000000E+00  0.14015788847E+04  0.14015788847E+04  0.00000000000E+00 0. -1.
          1   -1    0    0  501    0 -0.00000000000E+00 -0.00000000000E+00 -0.11767050751E+04  0.11767050751E+04  0.00000000000E+00 0. -1.
         25    2    1    2    0    0 -0.22591326075E+02  0.41595424650E+02  0.40916409479E+03  0.43044405080E+03  0.12500510808E+03 0.  0.
          2    1    1    2  501    0  0.47956746285E+02 -0.37414419985E+02 -0.11651033586E+04  0.11666899865E+04  0.00000000000E+00 0. -1.
          1    1    1    2  502    0 -0.25365420210E+02 -0.41810046648E+01  0.98081307348E+03  0.98114992251E+03  0.00000000000E+00 0. -1.
         22    1    3    3    0    0  0.24236021069E+02  0.51227297101E+02  0.81239665685E+02  0.99053036128E+02  0.00000000000E+00 0.  1.
         22    1    3    3    0    0 -0.46827347144E+02 -0.96318724510E+01  0.32792442910E+03  0.33139101468E+03  0.00000000000E+00 0.  1.
</event>
<event>
 7    1  0.6607887E-006  0.8643089E+02  0.7818608E-02  0.1465842E+00
          2   -1    0    0  502    0  0.00000000000E+00  0.00000000000E+00  0.27447545696E+04  0.27447545696E+04  0.00000000000E+00 0. -1.
          1   -1    0    0  501    0 -0.00000000000E+00 -0.00000000000E+00 -0.18185886773E+04  0.18185886773E+04  0.00000000000E+00 0. -1.
         25    2    1    2    0    0  0.59039412760E+02  0.48034161356E+02 -0.83806201660E+02  0.16864537747E+03  0.12499940396E+03 0.  0.
          2    1    1    2  501    0  0.20527418265E+02 -0.14093038108E+02 -0.16915789799E+04  0.16917622273E+04  0.00000000000E+00 0. -1.
          1    1    1    2  502    0 -0.79566831024E+02 -0.33941123248E+02  0.27015510739E+04  0.27029356421E+04  0.00000000000E+00 0. -1.
         22    1    3    3    0    0  0.58386090542E+02 -0.27428531677E+02 -0.14355386440E+02  0.66085830846E+02  0.00000000000E+00 0. -1.
         22    1    3    3    0    0  0.65332221733E+00  0.75462693033E+02 -0.69450815220E+02  0.10255954663E+03  0.00000000000E+00 0. -1.
</event>
<event>
 7    1  0.6607887E-006  0.1002211E+03  0.7818608E-02  0.1386835E+00
          2   -1    0    0  502    0  0.00000000000E+00  0.00000000000E+00  0.90919212179E+03  0.90919212179E+03  0.00000000000E+00 0. -1.
          1   -1    0    0  501    0 -0.00000000000E+00 -0.00000000000E+00 -0.93554423897E+03  0.93554423897E+03  0.00000000000E+00 0. -1.
         25    2    1    2    0    0  0.11275110666E+03 -0.13020026876E+02  0.19258909650E+03  0.25612148126E+03  0.12500127967E+03 0.  0.
          2    1    1    2  501    0 -0.89611734028E+02  0.44695622405E+02 -0.90043839784E+03  0.90598966320E+03  0.00000000000E+00 0. -1.
          1    1    1    2  502    0 -0.23139372628E+02 -0.31675595530E+02  0.68149718415E+03  0.68262521629E+03  0.00000000000E+00 0. -1.
         22    1    3    3    0    0 -0.96677503537E+01  0.35714687397E+02  0.45520184092E+02  0.58660817012E+02  0.00000000000E+00 0.  1.
         22    1    3    3    0    0  0.12241885701E+03 -0.48734714273E+02  0.14706891241E+03  0.19746066425E+03  0.00000000000E+00 0.  1.
</event>
<event>
 7    1  0.6607887E-006  0.1137493E+03  0.7818608E-02  0.1282387E+00
          2   -1    0    0  502    0  0.00000000000E+00  0.00000000000E+00  0.80305844444E+02  0.80305844444E+02  0.00000000000E+00 0. -1.
          1   -1    0    0  501    0 -0.00000000000E+00 -0.00000000000E+00 -0.20192955051E+04  0.20192955051E+04  0.00000000000E+00 0. -1.
         25    2    1    2    0    0 -0.26280451066E+00  0.61073407099E+02 -0.15126329516E+03  0.20551232998E+03  0.12499881277E+03 0.  0.
          2    1    1    2  501    0 -0.36177752863E+02  0.78223621459E+02 -0.17403903003E+04  0.17425229302E+04  0.00000000000E+00 0. -1.
          1    1    1    2  502    0  0.36440557374E+02 -0.13929702856E+03 -0.47336065194E+02  0.15156608940E+03  0.00000000000E+00 0. -1.
         22    1    3    3    0    0 -0.25351104629E+02  0.85875230995E+02 -0.60307895195E+02  0.10795497222E+03  0.00000000000E+00 0. -1.
         22    1    3    3    0    0  0.25088300118E+02 -0.24801823896E+02 -0.90955399963E+02  0.97557357763E+02  0.00000000000E+00 0. -1.
</event>
<event>
 7    1  0.6607887E-006  0.1116147E+03  0.7818608E-02  0.1328737E+00
          2   -1    0    0  502    0  0.00000000000E+00  0.00000000000E+00  0.39079075609E+03  0.39079075609E+03  0.00000000000E+00 0. -1.
          1   -1    0    0  501    0 -0.00000000000E+00 -0.00000000000E+00 -0.19780381219E+04  0.19780381219E+04  0.00000000000E+00 0. -1.
         25    2    1    2    0    0 -0.70533846527E+02  0.48391640446E+01 -0.10620967601E+04  0.10717617393E+04  0.12500102769E+03 0.  0.
          2    1    1    2  501    0 -0.26522397312E+02  0.51016712586E+02 -0.90205170142E+03  0.90388241191E+03  0.00000000000E+00 0. -1.
          1    1    1    2  502    0  0.97056243839E+02 -0.55855876630E+02  0.37690109573E+03  0.39318472680E+03  0.00000000000E+00 0. -1.
         22    1    3    3    0    0 -0.56552326505E+02 -0.44447472512E+02 -0.32395424685E+03  0.33184348344E+03  0.00000000000E+00 0. -1.
         22    1    3    3    0    0 -0.13981520022E+02  0.49286636556E+02 -0.73814251323E+03  0.73991825581E+03  0.00000000000E+00 0. -1.
</event>
<event>
 7    1  0.6607887E-006  0.1262781E+03  0.7818608E-02  0.1295135E+00
          2   -1    0    0  502    0  0.00000000000E+00  0.00000000000E+00  0.13051840424E+03  0.13051840424E+03  0.00000000000E+00 0. -1.
          1   -1    0    0  501    0 -0.00000000000E+00 -0.00000000000E+00 -0.82058436019E+03  0.82058436019E+03  0.00000000000E+00 0. -1.
         25    2    1    2    0    0 -0.11089948939E+03  0.67096063433E+02 -0.17240823519E+03  0.24929860279E+03  0.12499846127E+03 0.  0.
          2    1    1    2  501    0  0.50552371718E+02  0.46787382341E+02 -0.56146783763E+03  0.56567723493E+03  0.00000000000E+00 0. -1.
          1    1    1    2  502    0  0.60347117670E+02 -0.11388344577E+03  0.43810116860E+02  0.13612692670E+03  0.00000000000E+00 0. -1.
         22    1    3    3    0    0 -0.10499814458E+03 -0.70746698430E+01 -0.10939702064E+03  0.15179713253E+03  0.00000000000E+00 0.  1.
         22    1    3    3    0    0 -0.59013448034E+01  0.74170733276E+02 -0.63011214546E+02  0.97501470265E+02  0.00000000000E+00 0.  1.
</event>
<event>
 7    1  0.6607887E-006  0.1112101E+03  0.7818608E-02  0.1396357E+00
          2   -1    0    0  502    0  0.00000000000E+00  0.00000000000E+00  0.43962330675E+03  0.43962330675E+03  0.00000000000E+00 0. -1.
          1   -1    0    0  501    0 -0.00000000000E+00 -0.00000000000E+00 -0.22757978048E+03  0.22757978048E+03  0.00000000000E+00 0. -1.
         25    2    1    2    0    0 -0.96394099484E+02  0.65296252432E+01  0.26916525245E+03  0.31210920755E+03  0.12501106306E+03 0.  0.
          2    1    1    2  501    0  0.10554747033E+03 -0.37977641027E+02 -0.18868773457E+03  0.21951225681E+03  0.00000000000E+00 0. -1.
          1    1    1    2  502    0 -0.91533708501E+01  0.31448015784E+02  0.13156600839E+03  0.13558162287E+03  0.00000000000E+00 0. -1.
         22    1    3    3    0    0  0.90837095980E+01 -0.36157869675E+02  0.32289781795E+02  0.49320739328E+02  0.00000000000E+00 0.  1.
         22    1    3    3    0    0 -0.10547780908E+03  0.42687494918E+02  0.23687547065E+03  0.26278846822E+03  0.00000000000E+00 0.  1.
</event>
<event>
 7    1  0.6607887E-006  0.6349499E+02  0.7818608E-02  0.1385681E+00
          2   -1    0    0  502    0  0.00000000000E+00  0.00000000000E+00  0.12362913816E+03  0.12362913816E+03  0.00000000000E+00 0. -1.
          1   -1    0    0  501    0 -0.00000000000E+00 -0.00000000000E+00 -0.11270193606E+04  0.11270193606E+04  0.00000000000E+00 0. -1.
         25    2    1    2    0    0  0.29048219351E+02 -0.16843489921E+02 -0.22547419158E+03  0.25998234878E+03  0.12499883364E+03 0.  0.
          2    1    1    2  501    0  0.86650550229E+01  0.66678277142E+02 -0.87370720975E+03  0.87629068475E+03  0.00000000000E+00 0. -1.
          1    1    1    2  502    0 -0.37713274374E+02 -0.49834787221E+02  0.95791178917E+02  0.11437546520E+03  0.00000000000E+00 0. -1.
         22    1    3    3    0    0  0.26418158355E+02  0.27803895099E+02 -0.96172688474E+01  0.39540707298E+02  0.00000000000E+00 0.  1.
         22    1    3    3    0    0  0.26300609961E+01 -0.44647385020E+02 -0.21585692273E+03  0.22044164148E+03  0.00000000000E+00 0.  1.
</event>
<event>
 7    1  0.6607887E-006  0.1477652E+03  0.7818608E-02  0.1266242E+00
          2   -1    0    0  502    0  0.00000000000E+00  0.00000000000E+00  0.10989798190E+04  0.10989798190E+04  0.00000000000E+00 0. -1.
          1   -1    0    0  501    0 -0.00000000000E+00 -0.00000000000E+00 -0.85796214871E+02  0.85796214871E+02  0.00000000000E+00 0. -1.
         25    2    1    2    0    0  0.56523273810E+02  0.90198423606E+02  0.34369988571E+03  0.38090009108E+03  0.12499852738E+03 0.  0.
          2    1    1    2  501    0 -0.10712320238E+02  0.76726966737E+02 -0.30161888395E+02  0.83135556419E+02  0.00000000000E+00 0. -1.
          1    1    1    2  502    0 -0.45810953572E+02 -0.16692539034E+03  0.69964560676E+03  0.72074038632E+03  0.00000000000E+00 0. -1.
         22    1    3    3    0    0  0.95887206758E+02  0.52980028664E+02  0.21628011354E+03  0.24244242074E+03  0.00000000000E+00 0. -1.
         22    1    3    3    0    0 -0.39363932948E+02  0.37218394942E+02  0.12741977217E+03  0.13845767035E+03  0.00000000000E+00 0. -1.
</event>
<event>
 7    1  0.6607887E-006  0.1633898E+03  0.7818608E-02  0.1296127E+00
          2   -1    0    0  502    0  0.00000000000E+00  0.00000000000E+00  0.10426503686E+04  0.10426503686E+04  0.00000000000E+00 0. -1.
          1   -1    0    0  501    0 -0.00000000000E+00 -0.00000000000E+00 -0.66204711708E+03  0.66204711708E+03  0.00000000000E+00 0. -1.
         25    2    1    2    0    0 -0.72042321880E+02 -0.90912832382E+02  0.59741697188E+03  0.62127862656E+03  0.12499941719E+03 0.  0.
          2    1    1    2  501    0  0.12063959450E+03  0.11142226817E+03 -0.63807444094E+03  0.65886859523E+03  0.00000000000E+00 0. -1.
          1    1    1    2  502    0 -0.48597272617E+02 -0.20509435788E+02  0.42126072061E+03  0.42455026392E+03  0.00000000000E+00 0. -1.
         22    1    3    3    0    0 -0.41847188644E+02 -0.40394362951E+02  0.71916105220E+02  0.92492258842E+02  0.00000000000E+00 0. -1.
         22    1    3    3    0    0 -0.30195133237E+02 -0.50518469431E+02  0.52550086666E+03  0.52878636772E+03  0.00000000000E+00 0. -1.
</event>
<event>
 7    1  0.6607887E-006  0.2309833E+03  0.7818608E-02  0.1310757E+00
          2   -1    0    0  502    0  0.00000000000E+00  0.00000000000E+00  0.14762845839E+04  0.14762845839E+04  0.00000000000E+00 0. -1.
          1   -1    0    0  501    0 -0.00000000000E+00 -0.00000000000E+00 -0.26197426173E+03  0.26197426173E+03  0.00000000000E+00 0. -1.
         25    2    1    2    0    0 -0.86255474696E+01 -0.22732548053E+03  0.43763953187E+03  0.50882693966E+03  0.12500088199E+03 0.  0.
          2    1    1    2  501    0 -0.32570949652E+02 -0.19318219882E+01 -0.21159046276E+03  0.21409138850E+03  0.00000000000E+00 0. -1.
          1    1    1    2  502    0  0.41196497121E+02  0.22925730252E+03  0.98826125304E+03  0.10153405175E+04  0.00000000000E+00 0. -1.
         22    1    3    3    0    0 -0.15643368131E+02 -0.15156443002E+02 -0.69541086086E+00  0.21792575048E+02  0.00000000000E+00 0.  1.
         22    1    3    3    0    0  0.70178206612E+01 -0.21216903753E+03  0.43833494273E+03  0.48703436461E+03  0.00000000000E+00 0.  1.
</event>
<event>
 7    1  0.6607887E-006  0.1242913E+03  0.7818608E-02  0.1319840E+00
          2   -1    0    0  502    0  0.00000000000E+00  0.00000000000E+00  0.23452145463E+03  0.23452145463E+03  0.00000000000E+00 0. -1.
          1   -1    0    0  501    0 -0.00000000000E+00 -0.00000000000E+00 -0.39470255904E+03  0.39470255904E+03  0.00000000000E+00 0. -1.
         25    2    1    2    0    0  0.88220914028E+02  0.29257979051E+02 -0.41479693751E+02  0.16119758262E+03  0.12500054655E+03 0.  0.
          2    1    1    2  501    0 -0.10505504709E+03 -0.82539055653E+02 -0.27299125564E+03  0.30393006479E+03  0.00000000000E+00 0. -1.
          1    1    1    2  502    0  0.16834133063E+02  0.53281076602E+02  0.15428984498E+03  0.16409636627E+03  0.00000000000E+00 0. -1.
         22    1    3    3    0    0  0.11797891280E+03  0.91939289095E+01 -0.22008402904E+02  0.12036578415E+03  0.00000000000E+00 0. -1.
         22    1    3    3    0    0 -0.29757998773E+02  0.20064050142E+02 -0.19471290847E+02  0.40831798470E+02  0.00000000000E+00 0. -1.
</event>
<event>
 7    1  0.6607887E-006  0.1125269E+03  0.7818608E-02  0.1301097E+00
          2   -1    0    0  502    0  0.00000000000E+00  0.00000000000E+00  0.67965756696E+03  0.67965756696E+03  0.00000000000E+00 0. -1.
          1   -1    0    0  501    0 -0.00000000000E+00 -0.00000000000E+00 -0.95084708309E+03  0.95084708309E+03  0.00000000000E+00 0. -1.
         25    2    1    2    0    0  0.88245314953E+02  0.14217788186E+03 -0.36450762587E+02  0.21202782117E+03  0.12500141261E+03 0.  0.
          2    1    1    2  501    0 -0.18212638028E+01 -0.73130271071E+02 -0.81979618471E+03  0.82305354505E+03  0.00000000000E+00 0. -1.
          1    1    1    2  502    0 -0.86424051151E+02 -0.69047610785E+02  0.58505743116E+03  0.59542328383E+03  0.00000000000E+00 0. -1.
         22    1    3    3    0    0  0.67190082694E+02  0.65278909565E+02  0.39728137573E+02  0.10175543308E+03  0.00000000000E+00 0.  1.
         22    1    3    3    0    0  0.21055232260E+02  0.76898972291E+02 -0.76178900160E+02  0.11027238809E+03  0.00000000000E+00 0.  1.
</event>
<event>
 7    1  0.6607887E-006  0.5830126E+02  0.7818608E-02  0.1465464E+00
          2   -1    0    0  502    0  0.00000000000E+00  0.00000000000E+00  0.18773621026E+04  0.18773621026E+04  0.00000000000E+00 0. -1.
          1   -1    0    0  501    0 -0.00000000000E+00 -0.00000000000E+00 -0.37066463522E+03  0.37066463522E+03  0.00000000000E+00 0. -1.
         25    2    1    2    0    0 -0.18189552655E+02  0.19623309293E+02  0.21115951670E+03  0.24683840742E+03  0.12499969517E+03 0.  0.
          2    1    1    2  501    0 -0.36944304775E+02  0.22728106564E+01 -0.35131889509E+03  0.35326337678E+03  0.00000000000E+00 0. -1.
          1    1    1    2  502    0  0.55133857430E+02 -0.21896119950E+02  0.16468568457E+04  0.16479249536E+04  0.00000000000E+00 0. -1.
         22    1    3    3    0    0 -0.15091391244E+02  0.70364086321E+02  0.88528799520E+02  0.11408857558E+03  0.00000000000E+00 0. -1.
         22    1    3    3    0    0 -0.30981614108E+01 -0.50740777028E+02  0.12263071718E+03  0.13274983184E+03  0.00000000000E+00 0. -1.
</event>
<event>
 7    1  0.6607887E-006  0.5325890E+02  0.7818608E-02  0.1456615E+00
          2   -1    0    0  502    0  0.00000000000E+00  0.00000000000E+00  0.14379571355E+04  0.14379571355E+04  0.00000000000E+00 0. -1.
          1   -1    0    0  501    0 -0.00000000000E+00 -0.00000000000E+00 -0.59401217084E+02  0.59401217084E+02  0.00000000000E+00 0. -1.
         25    2    1    2    0    0 -0.77221495080E+02  0.11734870448E+02  0.65143633844E+03  0.66790341910E+03  0.12499923084E+03 0.  0.
          2    1    1    2  501    0  0.48740419513E+02  0.20752576532E+02 -0.36680359473E+02  0.64434049214E+02  0.00000000000E+00 0. -1.
          1    1    1    2  502    0  0.28481075567E+02 -0.32487446980E+02  0.76379993940E+03  0.76502088422E+03  0.00000000000E+00 0. -1.
         22    1    3    3    0    0 -0.32872321030E+02 -0.54800466147E+02  0.36331432520E+03  0.36889155517E+03  0.00000000000E+00 0.  1.
         22    1    3    3    0    0 -0.44349174051E+02  0.66535336595E+02  0.28812201324E+03  0.29901186393E+03  0.00000000000E+00 0.  1.
</event>
<event>
 7    1  0.6607887E-006  0.9867281E+02  0.7818608E-02  0.1299687E+00
          2   -1    0    0  502    0  0.00000000000E+00  0.00000000000E+00  0.15083783327E+04  0.15083783327E+04  0.00000000000E+00 0. -1.
          1   -1    0    0  501    0 -0.00000000000E+00 -0.00000000000E+00 -0.22883889309E+03  0.22883889309E+03  0.00000000000E+00 0. -1.
         25    2    1    2    0    0 -0.91425681044E+01  0.10178456887E+03  0.66461768243E+03  0.68395171201E+03  0.12501838086E+03 0.  0.
          2    1    1    2  501    0  0.80996502452E+02 -0.57289843571E+02 -0.20566221902E+03  0.22834077148E+03  0.00000000000E+00 0. -1.
          1    1    1    2  502    0 -0.71853934348E+02 -0.44494725302E+02  0.82058397618E+03  0.82492474228E+03  0.00000000000E+00 0. -1.
         22    1    3    3    0    0 -0.35765063311E+02  0.79458816481E+02  0.20151622385E+03  0.21954870017E+03  0.00000000000E+00 0.  1.
         22    1    3    3    0    0  0.26622495207E+02  0.22325752392E+02  0.46310145858E+03  0.46440301184E+03  0.00000000000E+00 0.  1.
</event>
<event>
 7    1  0.6607887E-006  0.4878067E+02  0.7818608E-02  0.1503472E+00
          2   -1    0    0  502    0  0.00000000000E+00  0.00000000000E+00  0.25458533954E+04  0.25458533954E+04  0.00000000000E+00 0. -1.
          1   -1    0    0  501    0 -0.00000000000E+00 -0.00000000000E+00 -0.15776670908E+03  0.15776670908E+03  0.00000000000E+00 0. -1.
         25    2    1    2    0    0  0.79661443026E+01  0.18331298870E+00  0.20584355229E+04  0.20622426348E+04  0.12499755993E+03 0.  0.
          2    1    1    2  501    0  0.48000722830E+02 -0.86881502190E+01 -0.15034191328E+03  0.15805772438E+03  0.00000000000E+00 0. -1.
          1    1    1    2  502    0 -0.55966867133E+02  0.85048372303E+01  0.47999307668E+03  0.48331974523E+03  0.00000000000E+00 0. -1.
         22    1    3    3    0    0  0.40133692263E+02  0.10508389060E+02  0.24465858820E+03  0.24815109163E+03  0.00000000000E+00 0. -1.
         22    1    3    3    0    0 -0.32167547960E+02 -0.10325076072E+02  0.18137769347E+04  0.18140915432E+04  0.00000000000E+00 0. -1.
</event>
<event>
 7    1  0.6607887E-006  0.1988506E+03  0.7818608E-02  0.1261408E+00
          2   -1    0    0  502    0  0.00000000000E+00  0.00000000000E+00  0.23614094039E+04  0.23614094039E+04  0.00000000000E+00 0. -1.
          1   -1    0    0  501    0 -0.00000000000E+00 -0.00000000000E+00 -0.33369016981E+03  0.33369016981E+03  0.00000000000E+00 0. -1.
         25    2    1    2    0    0  0.16967424489E+03 -0.57838678877E+02  0.35915658569E+03  0.42041971218E+03  0.12499847676E+03 0.  0.
          2    1    1    2  501    0 -0.20105967846E+03  0.62899293309E+01 -0.26915682774E+03  0.33602076637E+03  0.00000000000E+00 0. -1.
          1    1    1    2  502    0  0.31385433576E+02  0.51548749546E+02  0.19377194761E+04  0.19386590951E+04  0.00000000000E+00 0. -1.
         22    1    3    3    0    0  0.13650740377E+03 -0.75437316744E-01  0.15946726633E+03  0.20991447307E+03  0.00000000000E+00 0.  1.
         22    1    3    3    0    0  0.33166841122E+02 -0.57763241560E+02  0.19968931936E+03  0.21050523911E+03  0.00000000000E+00 0.  1.
</event>
<event>
 7    1  0.6607887E-006  0.6649273E+02  0.7818608E-02  0.1473645E+00
          2   -1    0    0  502    0  0.00000000000E+00  0.00000000000E+00  0.39290181083E+03  0.39290181083E+03  0.00000000000E+00 0. -1.
          1   -1    0    0  501    0 -0.00000000000E+00 -0.00000000000E+00 -0.15195365462E+03  0.15195365462E+03  0.00000000000E+00 0. -1.
         25    2    1    2    0    0 -0.29788479315E+01  0.52321588994E+02 -0.45796688070E+01  0.13561607583E+03  0.12499729776E+03 0.  0.
          2    1    1    2  501    0 -0.29890398623E+02  0.65791355205E+01 -0.75360577676E+02  0.81338414182E+02  0.00000000000E+00 0. -1.
          1    1    1    2  502    0  0.32869246555E+02 -0.58900724514E+02  0.32088840269E+03  0.32790097545E+03  0.00000000000E+00 0. -1.
         22    1    3    3    0    0 -0.44544530229E+02  0.35219943361E+02  0.42195061492E+02  0.70746609798E+02  0.00000000000E+00 0. -1.
         22    1    3    3    0    0  0.41565682298E+02  0.17101645633E+02 -0.46774730299E+02  0.64869466028E+02  0.00000000000E+00 0. -1.
</event>
<event>
 7    1  0.6607887E-006  0.2275558E+03  0.7818608E-02  0.1365168E+00
          2   -1    0    0  502    0  0.00000000000E+00  0.00000000000E+00  0.94538970706E+03  0.94538970706E+03  0.00000000000E+00 0. -1.
          1   -1    0    0  501    0 -0.00000000000E+00 -0.00000000000E+00 -0.21436305852E+04  0.21436305852E+04  0.00000000000E+00 0. -1.
         25    2    1    2    0    0  0.23712505514E+03 -0.53758125886E+02 -0.47429722949E+03  0.54744982778E+03  0.12500089667E+03 0.  0.
          2    1    1    2  501    0 -0.21681931145E+03  0.57444522301E+02 -0.16249350330E+04  0.16403427533E+04  0.00000000000E+00 0. -1.
          1    1    1    2  502    0 -0.20305743691E+02 -0.36863964152E+01  0.90099138432E+03  0.90122771116E+03  0.00000000000E+00 0. -1.
         22    1    3    3    0    0  0.12959709239E+03 -0.92133030941E+02 -0.26535872331E+03  0.30935279824E+03  0.00000000000E+00 0. -1.
         22    1    3    3    0    0  0.10752796275E+03  0.38374905055E+02 -0.20893850618E+03  0.23809702954E+03  0.00000000000E+00 0. -1.
</event>
<event>
 7    1  0.6607887E-006  0.9755914E+02  0.7818608E-02  0.1375219E+00
          2   -1    0    0  502    0  0.00000000000E+00  0.00000000000E+00  0.14200364316E+04  0.14200364316E+04  0.00000000000E+00 0. -1.
          1   -1    0    0  501    0 -0.00000000000E+00 -0.00000000000E+00 -0.30074837573E+03  0.30074837573E+03  0.00000000000E+00 0. -1.
         25    2    1    2    0    0  0.41632836654E+02  0.98252912874E+02 -0.13845476259E+03  0.21489048745E+03  0.12498508846E+03 0.  0.
          2    1    1    2  501    0 -0.44289125433E+02 -0.72623715368E+00 -0.11833949613E+03  0.12635778724E+03  0.00000000000E+00 0. -1.
          1    1    1    2  502    0  0.26562887794E+01 -0.97526675721E+02  0.13760823146E+04  0.13795365326E+04  0.00000000000E+00 0. -1.
         22    1    3    3    0    0  0.46710304191E+02  0.33567903720E+02  0.47053358627E+01  0.57713056264E+02  0.00000000000E+00 0. -1.
         22    1    3    3    0    0 -0.50774675368E+01  0.64685009154E+02 -0.14316009845E+03  0.15717743119E+03  0.00000000000E+00 0. -1.
</event>
<event>
 7    1  0.6607887E-006  0.1316997E+03  0.7818608E-02  0.1282028E+00
          2   -1    0    0  502    0  0.00000000000E+00  0.00000000000E+00  0.96988534991E+03  0.96988534991E+03  0.00000000000E+00 0. -1.
          1   -1    0    0  501    0 -0.00000000000E+00 -0.00000000000E+00 -0.19537530575E+03  0.19537530575E+03  0.00000000000E+00 0. -1.
         25    2    1    2    0    0  0.10663058814E+02 -0.14625771454E+03  0.22838270316E+03  0.29881386518E+03  0.12500418807E+03 0.  0.
          2    1    1    2  501    0 -0.75155140815E+02  0.10858013366E+03 -0.13053140812E+03  0.18567818698E+03  0.00000000000E+00 0. -1.
          1    1    1    2  502    0  0.64492082001E+02  0.37677580880E+02  0.67665874912E+03  0.68076860349E+03  0.00000000000E+00 0. -1.
         22    1    3    3    0    0 -0.10251481256E+02 -0.15049478305E+03  0.23243637543E+03  0.27709283862E+03  0.00000000000E+00 0.  1.
         22    1    3    3    0    0  0.20914540070E+02  0.42370685102E+01 -0.40536722687E+01  0.21721026559E+02  0.00000000000E+00 0.  1.
</event>
<event>
 7    1  0.6607887E-006  0.8540775E+02  0.7818608E-02  0.1445090E+00
          2   -1    0    0  502    0  0.00000000000E+00  0.00000000000E+00  0.11782587619E+04  0.11782587619E+04  0.00000000000E+00 0. -1.
          1   -1    0    0  501    0 -0.00000000000E+00 -0.00000000000E+00 -0.97962060989E+03  0.97962060989E+03  0.00000000000E+00 0. -1.
         25    2    1    2    0    0  0.46701682133E+02 -0.58953461147E+02 -0.86801791137E+02  0.16975278969E+03  0.12499960387E+03 0.  0.
          2    1    1    2  501    0 -0.72941848992E+02  0.45858833056E+02 -0.84897338636E+03  0.85333425846E+03  0.00000000000E+00 0. -1.
          1    1    1    2  502    0  0.26240166859E+02  0.13094628091E+02  0.11344133295E+04  0.11347923237E+04  0.00000000000E+00 0. -1.
         22    1    3    3    0    0 -0.38208055085E+02 -0.31014352464E+02 -0.65871396788E+01  0.49650135361E+02  0.00000000000E+00 0.  1.
         22    1    3    3    0    0  0.84909737218E+02 -0.27939108683E+02 -0.80214651459E+02  0.12010265433E+03  0.00000000000E+00 0.  1.
</event>
<event>
 7    1  0.6607887E-006  0.6355026E+02  0.7818608E-02  0.1393221E+00
          2   -1    0    0  502    0  0.00000000000E+00  0.00000000000E+00  0.13698596434E+04  0.13698596434E+04  0.00000000000E+00 0. -1.
          1   -1    0    0  501    0 -0.00000000000E+00 -0.00000000000E+00 -0.17905510793E+03  0.17905510793E+03  0.00000000000E+00 0. -1.
         25    2    1    2    0    0 -0.21082034867E+01 -0.57250275389E+01  0.43512969511E+03  0.45277276009E+03  0.12501240037E+03 0.  0.
          2    1    1    2  501    0 -0.28330730866E+01  0.64285645516E+02 -0.16318025818E+03  0.17540942729E+03  0.00000000000E+00 0. -1.
          1    1    1    2  502    0  0.49412765733E+01 -0.58560617977E+02  0.91885509850E+03  0.92073256390E+03  0.00000000000E+00 0. -1.
         22    1    3    3    0    0  0.52647557746E+02 -0.33683061064E+02  0.25033629396E+03  0.25802049146E+03  0.00000000000E+00 0.  1.
         22    1    3    3    0    0 -0.54755761233E+02  0.27958033525E+02  0.18479340115E+03  0.19475226863E+03  0.00000000000E+00 0.  1.
</event>
<event>
 7    1  0.6607887E-006  0.1609650E+03  0.7818608E-02  0.1235070E+00
          2   -1    0    0  502    0  0.00000000000E+00  0.00000000000E+00  0.10475506885E+04  0.10475506885E+04  0.00000000000E+00 0. -1.
          1   -1    0    0  501    0 -0.00000000000E+00 -0.00000000000E+00 -0.11026087941E+04  0.11026087941E+04  0.00000000000E+00 0. -1.
         25    2    1    2    0    0  0.61066572098E+02  0.73242066326E+02  0.66684877095E+03  0.68513240979E+03  0.12500243646E+03 0.  0.
          2    1    1    2  501    0 -0.15460888955E+03 -0.47312434484E+02 -0.10810104908E+04  0.10930352494E+04  0.00000000000E+00 0. -1.
          1    1    1    2  502    0  0.93542317449E+02 -0.25929631842E+02  0.35910361425E+03  0.37199182347E+03  0.00000000000E+00 0. -1.
         22    1    3    3    0    0  0.17537129701E+02  0.22596002463E+02  0.54847244610E+03  0.54921776589E+03  0.00000000000E+00 0. -1.
         22    1    3    3    0    0  0.43529442397E+02  0.50646063863E+02  0.11837632486E+03  0.13591464390E+03  0.00000000000E+00 0. -1.
</event>
<event>
 7    1  0.6607887E-006  0.2302529E+03  0.7818608E-02  0.1263087E+00
          2   -1    0    0  502    0  0.00000000000E+00  0.00000000000E+00  0.20838432443E+04  0.20838432443E+04  0.00000000000E+00 0. -1.
          1   -1    0    0  501    0 -0.00000000000E+00 -0.00000000000E+00 -0.32798625184E+03  0.32798625184E+03  0.00000000000E+00 0. -1.
         25    2    1    2    0    0 -0.17667248676E+03 -0.77955635263E+02  0.77959885792E+02  0.24288380244E+03  0.12499819617E+03 0.  0.
          2    1    1    2  501    0  0.22281897564E+03  0.10029821113E+03 -0.18428750614E+03  0.30605540672E+03  0.00000000000E+00 0. -1.
          1    1    1    2  502    0 -0.46146488878E+02 -0.22342575865E+02  0.18621846128E+04  0.18628902869E+04  0.00000000000E+00 0. -1.
         22    1    3    3    0    0 -0.13672086931E+03 -0.11192950857E+03  0.68955684257E+02  0.18967260578E+03  0.00000000000E+00 0. -1.
         22    1    3    3    0    0 -0.39951617455E+02  0.33973873303E+02  0.90042015355E+01  0.53211196658E+02  0.00000000000E+00 0. -1.
</event>
<event>
 7    1  0.6607887E-006  0.1048991E+03  0.7818608E-02  0.1352322E+00
          2   -1    0    0  502    0  0.00000000000E+00  0.00000000000E+00  0.60375904364E+03  0.60375904364E+03  0.00000000000E+00 0. -1.
          1   -1    0    0  501    0 -0.00000000000E+00 -0.00000000000E+00 -0.45908465779E+03  0.45908465779E+03  0.00000000000E+00 0. -1.
         25    2    1    2    0    0 -0.88952087780E+02 -0.79972095993E+02  0.17089393029E+03  0.24318196746E+03  0.12499889531E+03 0.  0.
          2    1    1    2  501    0 -0.10078951138E+02  0.48853610880E+02 -0.41462970022E+03  0.41761950248E+03  0.00000000000E+00 0. -1.
          1    1    1    2  502    0  0.99031038918E+02  0.31118485113E+02  0.38841015578E+03  0.40204223149E+03  0.00000000000E+00 0. -1.
         22    1    3    3    0    0 -0.43855621464E+02  0.29835081802E+02  0.66815503477E+02  0.85309783407E+02  0.00000000000E+00 0.  1.
         22    1    3    3    0    0 -0.45096466316E+02 -0.10980717780E+03  0.10407842681E+03  0.15787218405E+03  0.00000000000E+00 0.  1.
</event>
<event>
 7    1  0.6607887E-006  0.1132443E+03  0.7818608E-02  0.1363202E+00
          2   -1    0    0  502    0  0.00000000000E+00  0.00000000000E+00  0.52610838532E+02  0.52610838532E+02  0.00000000000E+00 0. -1.
          1   -1    0    0  501    0 -0.00000000000E+00 -0.00000000000E+00 -0.15492014215E+04  0.15492014215E+04  0.00000000000E+00 0. -1.
         25    2    1    2    0    0 -0.98243998691E+02  0.41394535248E+02 -0.31556688173E+03  0.35577290742E+03  0.12500605578E+03 0.  0.
          2    1    1    2  501    0 -0.18820056000E+02 -0.37721957109E+02 -0.11063173578E+04  0.11071202450E+04  0.00000000000E+00 0. -1.
          1    1    1    2  502    0  0.11706405469E+03 -0.36725781393E+01 -0.74706343438E+02  0.13891910769E+03  0.00000000000E+00 0. -1.
         22    1    3    3    0    0  0.16561909367E+02  0.29102487194E+02 -0.21353279707E+02  0.39714155624E+02  0.00000000000E+00 0.  1.
         22    1    3    3    0    0 -0.11480590806E+03  0.12292048055E+02 -0.29421360202E+03  0.31605875179E+03  0.00000000000E+00 0.  1.
</event>
<event>
 7    1  0.6607887E-006  0.9179792E+02  0.7818608E-02  0.1307999E+00
          2   -1    0    0  502    0  0.00000000000E+00  0.00000000000E+00  0.46723616330E+04  0.46723616330E+04  0.00000000000E+00 0. -1.
          1   -1    0    0  501    0 -0.00000000000E+00 -0.00000000000E+00 -0.36396830030E+03  0.36396830030E+03  0.00000000000E+00 0. -1.
         25    2    1    2    0    0 -0.21232249600E+02 -0.20583467399E+02  0.50527947335E+02  0.13803264933E+03  0.12500180505E+03 0.  0.
          2    1    1    2  501    0  0.50586992667E+02 -0.67287823061E+02 -0.31420581032E+03  0.32528754387E+03  0.00000000000E+00 0. -1.
          1    1    1    2  502    0 -0.29354743067E+02  0.87871290460E+02  0.45720711957E+04  0.45730097401E+04  0.00000000000E+00 0. -1.
         22    1    3    3    0    0 -0.14388502291E+02 -0.26585070061E+02  0.91342911710E+02  0.96214980475E+02  0.00000000000E+00 0. -1.
         22    1    3    3    0    0 -0.68437473089E+01  0.60016026624E+01 -0.40814964375E+02  0.41817668857E+02  0.00000000000E+00 0. -1.
</event>
<event>
 7    1  0.6607887E-006  0.1346626E+03  0.7818608E-02  0.1335992E+00
          2   -1    0    0  502    0  0.00000000000E+00  0.00000000000E+00  0.22237882493E+04  0.22237882493E+04  0.00000000000E+00 0. -1.
          1   -1    0    0  501    0 -0.00000000000E+00 -0.00000000000E+00 -0.13779331392E+04  0.13779331392E+04  0.00000000000E+00 0. -1.
         25    2    1    2    0    0 -0.10398492306E+03 -0.61599238920E+02  0.14703984300E+04  0.14806448058E+04  0.12502066854E+03 0.  0.
          2    1    1    2  501    0  0.86901608981E+02  0.10292954332E+03 -0.13688325416E+04  0.13754449852E+04  0.00000000000E+00 0. -1.
          1    1    1    2  502    0  0.17083314076E+02 -0.41330304405E+02  0.74428922164E+03  0.74563159746E+03  0.00000000000E+00 0. -1.
         22    1    3    3    0    0 -0.70519298907E+02 -0.12365187741E+02  0.12587231389E+04  0.12607576332E+04  0.00000000000E+00 0.  1.
         22    1    3    3    0    0 -0.33465624150E+02 -0.49234051178E+02  0.21167529109E+03  0.21988717256E+03  0.00000000000E+00 0.  1.
</event>
<event>
 7    1  0.6607887E-006  0.2163955E+03  0.7818608E-02  0.1171316E+00
          2   -1    0    0  502    0  0.00000000000E+00  0.00000000000E+00  0.22339923040E+04  0.22339923040E+04  0.00000000000E+00 0. -1.
          1   -1    0    0  501    0 -0.00000000000E+00 -0.00000000000E+00 -0.17878909476E+03  0.17878909476E+03  0.00000000000E+00 0. -1.
         25    2    1    2    0    0 -0.75152171243E+02 -0.66876799824E+02  0.89533576341E+02  0.18374453730E+03  0.12500175398E+03 0.  0.
          2    1    1    2  501    0 -0.33496313350E+02 -0.13987032149E+03 -0.83696083661E+02  0.16640536127E+03  0.00000000000E+00 0. -1.
          1    1    1    2  502    0  0.10864848459E+03  0.20674712131E+03  0.20493657165E+04  0.20626315002E+04  0.00000000000E+00 0. -1.
         22    1    3    3    0    0 -0.69075741432E+02  0.11070264054E+02  0.77897697771E+02  0.10469985730E+03  0.00000000000E+00 0. -1.
         22    1    3    3    0    0 -0.60764298101E+01 -0.77947063877E+02  0.11635878570E+02  0.79044680001E+02  0.00000000000E+00 0. -1.
</event>
<event>
 7    1  0.6607887E-006  0.1427555E+03  0.7818608E-02  0.1210201E+00
          2   -1    0    0  502    0  0.00000000000E+00  0.00000000000E+00  0.17561799407E+04  0.17561799407E+04  0.00000000000E+00 0. -1.
          1   -1    0    0  501    0 -0.00000000000E+00 -0.00000000000E+00 -0.26720228110E+03  0.26720228110E+03  0.00000000000E+00 0. -1.
         25    2    1    2    0    0 -0.35253480771E+01  0.70536310509E+01  0.52792738540E+03  0.54258076487E+03  0.12499752141E+03 0.  0.
          2    1    1    2  501    0 -0.24917160165E+02 -0.14612084979E+03 -0.23419161134E+03  0.27716038396E+03  0.00000000000E+00 0. -1.
          1    1    1    2  502    0  0.28442508242E+02  0.13906721874E+03  0.11952418855E+04  0.12036410730E+04  0.00000000000E+00 0. -1.
         22    1    3    3    0    0  0.55576135604E+02 -0.21153088881E+02  0.23277922288E+03  0.24025471197E+03  0.00000000000E+00 0. -1.
         22    1    3    3    0    0 -0.59101483681E+02  0.28206719932E+02  0.29514816252E+03  0.30232605290E+03  0.00000000000E+00 0. -1.
</event>
<event>
 7    1  0.6607887E-006  0.1674895E+03  0.7818608E-02  0.1298520E+00
          2   -1    0    0  502    0  0.00000000000E+00  0.00000000000E+00  0.43280353396E+03  0.43280353396E+03  0.00000000000E+00 0. -1.
          1   -1    0    0  501    0 -0.00000000000E+00 -0.00000000000E+00 -0.14602526855E+04  0.14602526855E+04  0.00000000000E+00 0. -1.
         25    2    1    2    0    0 -0.20774359979E+02  0.20745577988E+03 -0.16822394004E+03  0.29562009382E+03  0.12498988451E+03 0.  0.
          2    1    1    2  501    0  0.37087069939E+02 -0.15984364876E+03 -0.12211012585E+04  0.12320769969E+04  0.00000000000E+00 0. -1.
          1    1    1    2  502    0 -0.16312709959E+02 -0.47612131127E+02  0.36187604701E+03  0.36535912872E+03  0.00000000000E+00 0. -1.
         22    1    3    3    0    0  0.18001504666E+02 -0.10563252477E+02 -0.21601734477E+02  0.30037832904E+02  0.00000000000E+00 0.  1.
         22    1    3    3    0    0 -0.38775864646E+02  0.21801903236E+03 -0.14662220556E+03  0.26558226092E+03  0.00000000000E+00 0.  1.
</event>
<event>
 7    1  0.6607887E-006  0.8390536E+02  0.7818608E-02  0.1377093E+00
          2   -1    0    0  502    0  0.00000000000E+00  0.00000000000E+00  0.95595276158E+02  0.95595276158E+02  0.00000000000E+00 0. -1.
          1   -1    0    0  501    0 -0.00000000000E+00 -0.00000000000E+00 -0.66533944657E+03  0.66533944657E+03  0.00000000000E+00 0. -1.
         25    2    1    2    0    0 -0.75566076165E+02 -0.11306841027E+01 -0.27778431057E+02  0.14869323529E+03  0.12500610656E+03 0.  0.
          2    1    1    2  501    0 -0.51542367893E+01 -0.50455286735E+02 -0.50811588610E+03  0.51064082860E+03  0.00000000000E+00 0. -1.
          1    1    1    2  502    0  0.80720312954E+02  0.51585970838E+02 -0.33849853247E+02  0.10160065883E+03  0.00000000000E+00 0. -1.
         22    1    3    3    0    0 -0.68690674778E+02 -0.43342297692E+02 -0.54913764536E+02  0.98043281800E+02  0.00000000000E+00 0.  1.
         22    1    3    3    0    0 -0.68754013865E+01  0.42211613589E+02  0.27135333478E+02  0.50649953495E+02  0.00000000000E+00 0.  1.
</event>
<event>
 7    1  0.6607887E-006  0.8352319E+02  0.7818608E-02  0.1365398E+00
          2   -1    0    0  502    0  0.00000000000E+00  0.00000000000E+00  0.24141397682E+03  0.24141397682E+03  0.00000000000E+00 0. -1.
          1   -1    0    0  501    0 -0.00000000000E+00 -0.00000000000E+00 -0.68452076251E+03  0.68452076251E+03  0.00000000000E+00 0. -1.
         25    2    1    2    0    0  0.11966776214E+03  0.57828715806E+02 -0.47119000294E+03  0.50527943317E+03  0.12499101188E+03 0.  0.
          2    1    1    2  501    0 -0.38669561308E+02 -0.40669359119E+02 -0.18432614085E+03  0.19267967704E+03  0.00000000000E+00 0. -1.
          1    1    1    2  502    0 -0.80998200833E+02 -0.17159356687E+02  0.21240935811E+03  0.22797562912E+03  0.00000000000E+00 0. -1.
         22    1    3    3    0    0  0.80767715370E+02 -0.17314419393E+02 -0.33425877313E+03  0.34431401420E+03  0.00000000000E+00 0. -1.
         22    1    3    3    0    0  0.38900046771E+02  0.75143135199E+02 -0.13693122981E+03  0.16096541897E+03  0.00000000000E+00 0. -1.
</event>
<event>
 7    1  0.6607887E-006  0.3959468E+02  0.7818608E-02  0.1590223E+00
          2   -1    0    0  502    0  0.00000000000E+00  0.00000000000E+00  0.34499121478E+03  0.34499121478E+03  0.00000000000E+00 0. -1.
          1   -1    0    0  501    0 -0.00000000000E+00 -0.00000000000E+00 -0.64040003231E+02  0.64040003231E+02  0.00000000000E+00 0. -1.
         25    2    1    2    0    0 -0.41446974460E+01 -0.42464560265E+02  0.17971095855E+03  0.22303262028E+03  0.12500841447E+03 0.  0.
          2    1    1    2  501    0  0.22771838108E+02  0.70572502953E+01 -0.35926085977E+02  0.43116644653E+02  0.00000000000E+00 0. -1.
          1    1    1    2  502    0 -0.18627140662E+02  0.35407309970E+02  0.13716633897E+03  0.14288195308E+03  0.00000000000E+00 0. -1.
         22    1    3    3    0    0  0.56404227441E+02  0.22749348037E+01  0.68999253115E+02  0.89148803312E+02  0.00000000000E+00 0. -1.
         22    1    3    3    0    0 -0.60548924887E+02 -0.44739495069E+02  0.11071170544E+03  0.13388381696E+03  0.00000000000E+00 0. -1.
</event>
<event>
 7    1  0.6607887E-006  0.3524643E+02  0.7818608E-02  0.1606480E+00
          2   -1    0    0  502    0  0.00000000000E+00  0.00000000000E+00  0.22907467938E+03  0.22907467938E+03  0.00000000000E+00 0. -1.
          1   -1    0    0  501    0 -0.00000000000E+00 -0.00000000000E+00 -0.10272222867E+03  0.10272222867E+03  0.00000000000E+00 0. -1.
         25    2    1    2    0    0  0.36135685705E+02 -0.14410507163E+02  0.58377330544E+01  0.13104869737E+03  0.12500492573E+03 0.  0.
          2    1    1    2  501    0 -0.34302026010E+02 -0.98010924946E+01 -0.31023320364E+02  0.47277233515E+02  0.00000000000E+00 0. -1.
          1    1    1    2  502    0 -0.18336596955E+01  0.24211599658E+02  0.15153803802E+03  0.15347097717E+03  0.00000000000E+00 0. -1.
         22    1    3    3    0    0  0.24055582026E+02 -0.66014565654E+02 -0.18608335673E+02  0.72683313502E+02  0.00000000000E+00 0. -1.
         22    1    3    3    0    0  0.12080103680E+02  0.51604058490E+02  0.24446068727E+02  0.58365383866E+02  0.00000000000E+00 0. -1.
</event>
<event>
 7    1  0.6607887E-006  0.1637782E+03  0.7818608E-02  0.1366055E+00
          2   -1    0    0  502    0  0.00000000000E+00  0.00000000000E+00  0.47313846377E+03  0.47313846377E+03  0.00000000000E+00 0. -1.
          1   -1    0    0  501    0 -0.00000000000E+00 -0.00000000000E+00 -0.33032656126E+03  0.33032656126E+03  0.00000000000E+00 0. -1.
         25    2    1    2    0    0  0.15288063121E+03 -0.33874688841E+02  0.15188333059E+03  0.25142381110E+03  0.12500161891E+03 0.  0.
          2    1    1    2  501    0 -0.16469447823E+03  0.79791297978E+01 -0.25543918413E+03  0.30403472575E+03  0.00000000000E+00 0. -1.
          1    1    1    2  502    0  0.11813847022E+02  0.25895559044E+02  0.24636775605E+03  0.24800648819E+03  0.00000000000E+00 0. -1.
         22    1    3    3    0    0 -0.44660341224E+01  0.22698445826E+02  0.51349340577E+02  0.56319798307E+02  0.00000000000E+00 0. -1.
         22    1    3    3    0    0  0.15734666533E+03 -0.56573134667E+02  0.10053399001E+03  0.19510401279E+03  0.00000000000E+00 0. -1.
</event>
<event>
 7    1  0.6607887E-006  0.1446585E+03  0.7818608E-02  0.1367423E+00
          2   -1    0    0  502    0  0.00000000000E+00  0.00000000000E+00  0.12470580219E+04  0.12470580219E+04  0.00000000000E+00 0. -1.
          1   -1    0    0  501    0 -0.00000000000E+00 -0.00000000000E+00 -0.11148753159E+03  0.11148753159E+03  0.00000000000E+00 0. -1.
         25    2    1    2    0    0 -0.20356266969E+02 -0.16587356982E+03  0.73035309154E+03  0.75958518408E+03  0.12500237910E+03 0.  0.
          2    1    1    2  501    0 -0.19684880164E+01  0.14314264165E+03 -0.43106821864E+02  0.14950548115E+03  0.00000000000E+00 0. -1.
          1    1    1    2  502    0  0.22324754986E+02  0.22730928171E+02  0.44832422065E+03  0.44945488828E+03  0.00000000000E+00 0. -1.
         22    1    3    3    0    0 -0.35982751743E+02  0.45759378284E+01  0.16235223010E+03  0.16635487444E+03  0.00000000000E+00 0. -1.
         22    1    3    3    0    0  0.15626484774E+02 -0.17044950765E+03  0.56800086144E+03  0.59323030964E+03  0.00000000000E+00 0. -1.
</event>
<event>
 7    1  0.6607887E-006  0.8768186E+02  0.7818608E-02  0.1351602E+00
          2   -1    0    0  502    0  0.00000000000E+00  0.00000000000E+00  0.65173851675E+02  0.65173851675E+02  0.00000000000E+00 0. -1.
          1   -1    0    0  501    0 -0.00000000000E+00 -0.00000000000E+00 -0.14948448292E+04  0.14948448292E+04  0.00000000000E+00 0. -1.
         25    2    1    2    0    0  0.84976265675E+02  0.86034362086E+02 -0.16923954110E+03  0.24266528032E+03  0.12498615449E+03 0.  0.
          2    1    1    2  501    0 -0.24999323466E+02 -0.83192947520E+02 -0.12539557081E+04  0.12569609980E+04  0.00000000000E+00 0. -1.
          1    1    1    2  502    0 -0.59976942209E+02 -0.28414145666E+01 -0.64757283979E+01  0.60392402599E+02  0.00000000000E+00 0. -1.
         22    1    3    3    0    0  0.53041221308E+02 -0.58216653519E+01 -0.74217779971E+01  0.53873423262E+02  0.00000000000E+00 0. -1.
         22    1    3    3    0    0  0.31935044366E+02  0.91856027438E+02 -0.16181776310E+03  0.18879185706E+03  0.00000000000E+00 0. -1.
</event>
<event>
 7    1  0.6607887E-006  0.1482991E+03  0.7818608E-02  0.1308319E+00
          2   -1    0    0  502    0  0.00000000000E+00  0.00000000000E+00  0.89224208022E+03  0.89224208022E+03  0.00000000000E+00 0. -1.
          1   -1    0    0  501    0 -0.00000000000E+00 -0.00000000000E+00 -0.28822384710E+03  0.28822384710E+03  0.00000000000E+00 0. -1.
         25    2    1    2    0    0  0.31339605772E+02  0.13520017598E+03  0.13697719955E+03  0.23161911619E+03  0.12499361309E+03 0.  0.
          2    1    1    2  501    0  0.18658619317E+02 -0.14933427648E+03 -0.21631592375E+03  0.26351745497E+03  0.00000000000E+00 0. -1.
          1    1    1    2  502    0 -0.49998225089E+02  0.14134100499E+02  0.68335695731E+03  0.68532935616E+03  0.00000000000E+00 0. -1.
         22    1    3    3    0    0  0.33063932943E+02  0.15121675441E+02 -0.13775904458E+02  0.38880126973E+02  0.00000000000E+00 0.  1.
         22    1    3    3    0    0 -0.17243271715E+01  0.12007850054E+03  0.15075310401E+03  0.19273898922E+03  0.00000000000E+00 0.  1.
</event>
<event>
 7    1  0.6607887E-006  0.9311840E+02  0.7818608E-02  0.1479595E+00
          2   -1    0    0  502    0  0.00000000000E+00  0.00000000000E+00  0.34965277236E+03  0.34965277236E+03  0.00000000000E+00 0. -1.
          1   -1    0    0  501    0 -0.00000000000E+00 -0.00000000000E+00 -0.11933860121E+04  0.11933860121E+04  0.00000000000E+00 0. -1.
         25    2    1    2    0    0  0.86700910707E+02  0.32397722568E+02 -0.37817985530E+03  0.40890355727E+03  0.12496181758E+03 0.  0.
          2    1    1    2  501    0 -0.89559164514E+01  0.18940370704E+02 -0.79321203329E+03  0.79348867404E+03  0.00000000000E+00 0. -1.
          1    1    1    2  502    0 -0.77744994256E+02 -0.51338093272E+02  0.32765864889E+03  0.34064655311E+03  0.00000000000E+00 0. -1.
         22    1    3    3    0    0 -0.20951277627E+02 -0.23893861264E+02 -0.10987207299E+03  0.11437545656E+03  0.00000000000E+00 0. -1.
         22    1    3    3    0    0  0.10765218833E+03  0.56291583832E+02 -0.26830778230E+03  0.29452810071E+03  0.00000000000E+00 0. -1.
</event>
<event>
 7    1  0.6607887E-006  0.5833165E+02  0.7818608E-02  0.1425441E+00
          2   -1    0    0  502    0  0.00000000000E+00  0.00000000000E+00  0.47961899659E+03  0.47961899659E+03  0.00000000000E+00 0. -1.
          1   -1    0    0  501    0 -0.00000000000E+00 -0.00000000000E+00 -0.52426353298E+03  0.52426353298E+03  0.00000000000E+00 0. -1.
         25    2    1    2    0    0  0.78063987325E+02  0.56516730429E+01  0.10461971781E+03  0.18082572420E+03  0.12500691842E+03 0.  0.
          2    1    1    2  501    0 -0.35974281759E+02  0.34407256072E+02 -0.48236465083E+03  0.48492645276E+03  0.00000000000E+00 0. -1.
          1    1    1    2  502    0 -0.42089705566E+02 -0.40058929115E+02  0.33310039663E+03  0.33813035261E+03  0.00000000000E+00 0. -1.
         22    1    3    3    0    0  0.11227439756E+03  0.56312714768E+01  0.71609953476E+02  0.13328629713E+03  0.00000000000E+00 0. -1.
         22    1    3    3    0    0 -0.34210410237E+02  0.20401566143E-01  0.33009764333E+02  0.47539427070E+02  0.00000000000E+00 0. -1.
</event>
<event>
 7    1  0.6607887E-006  0.6398295E+02  0.7818608E-02  0.1456156E+00
          2   -1    0    0  502    0  0.00000000000E+00  0.00000000000E+00  0.57948460112E+03  0.57948460112E+03  0.00000000000E+00 0. -1.
          1   -1    0    0  501    0 -0.00000000000E+00 -0.00000000000E+00 -0.20692502910E+03  0.20692502910E+03  0.00000000000E+00 0. -1.
         25    2    1    2    0    0 -0.62200208831E+02 -0.52217756249E+02 -0.92204634917E+02  0.17527763969E+03  0.12499998492E+03 0.  0.
          2    1    1    2  501    0  0.26180084959E+02  0.54359834650E+02 -0.60022421976E+02  0.85106284206E+02  0.00000000000E+00 0. -1.
          1    1    1    2  502    0  0.36020123872E+02 -0.21420784011E+01  0.52478662891E+03  0.52602570632E+03  0.00000000000E+00 0. -1.
         22    1    3    3    0    0 -0.97308045585E+02 -0.24040504608E+02 -0.44443511476E+02  0.10964500586E+03  0.00000000000E+00 0.  1.
         22    1    3    3    0    0  0.35107836754E+02 -0.28177251640E+02 -0.47761123441E+02  0.65632633833E+02  0.00000000000E+00 0.  1.
</event>
<event>
 7    1  0.6607887E-006  0.6179518E+02  0.7818608E-02  0.1533387E+00
          2   -1    0    0  502    0  0.00000000000E+00  0.00000000000E+00  0.17152497572E+03  0.17152497572E+03  0.00000000000E+00 0. -1.
          1   -1    0    0  501    0 -0.00000000000E+00 -0.00000000000E+00 -0.47764552357E+03  0.47764552357E+03  0.00000000000E+00 0. -1.
         25    2    1    2    0    0 -0.19811114968E+02  0.43887527229E+02 -0.14141809757E+03  0.19478943987E+03  0.12500100896E+03 0.  0.
          2    1    1    2  501    0  0.12316507647E+02  0.18089421307E+02 -0.30240096523E+03  0.30319179952E+03  0.00000000000E+00 0. -1.
          1    1    1    2  502    0  0.74946073209E+01 -0.61976948535E+02  0.13769851495E+03  0.15118925990E+03  0.00000000000E+00 0. -1.
         22    1    3    3    0    0 -0.60538132045E+02 -0.10553532610E+02 -0.92415911330E+02  0.11098172439E+03  0.00000000000E+00 0. -1.
         22    1    3    3    0    0  0.40727017077E+02  0.54441059839E+02 -0.49002186241E+02  0.83807715473E+02  0.00000000000E+00 0. -1.
</event>
<event>
 7    1  0.6607887E-006  0.1162957E+03  0.7818608E-02  0.1251436E+00
          2   -1    0    0  502    0  0.00000000000E+00  0.00000000000E+00  0.11097651232E+04  0.11097651232E+04  0.00000000000E+00 0. -1.
          1   -1    0    0  501    0 -0.00000000000E+00 -0.00000000000E+00 -0.51022922960E+03  0.51022922960E+03  0.00000000000E+00 0. -1.
         25    2    1    2    0    0 -0.31150766250E+02  0.47560820124E+02 -0.65700731365E+02  0.15223648539E+03  0.12500783788E+03 0.  0.
          2    1    1    2  501    0  0.10365688068E+03  0.47165835365E+02 -0.38975053715E+03  0.40604783726E+03  0.00000000000E+00 0. -1.
          1    1    1    2  502    0 -0.72506114425E+02 -0.94726655489E+02  0.10549871621E+04  0.10617100302E+04  0.00000000000E+00 0. -1.
         22    1    3    3    0    0 -0.65381273230E+02 -0.11758769599E+02 -0.18166148715E+02  0.68869358287E+02  0.00000000000E+00 0. -1.
         22    1    3    3    0    0  0.34230506980E+02  0.59319589723E+02 -0.47534582650E+02  0.83367127099E+02  0.00000000000E+00 0. -1.
</event>
<event>
 7    1  0.6607887E-006  0.6953719E+02  0.7818608E-02  0.1393295E+00
          2   -1    0    0  502    0  0.00000000000E+00  0.00000000000E+00  0.23104227674E+04  0.23104227674E+04  0.00000000000E+00 0. -1.
          1   -1    0    0  501    0 -0.00000000000E+00 -0.00000000000E+00 -0.24695373680E+02  0.24695373680E+02  0.00000000000E+00 0. -1.
         25    2    1    2    0    0  0.80963352328E+02  0.67380364897E+00  0.11011309303E+04  0.11111570919E+04  0.12500095506E+03 0.  0.
          2    1    1    2  501    0 -0.27169207653E+02 -0.46293232379E+02  0.20079242666E+02  0.57309730366E+02  0.00000000000E+00 0. -1.
          1    1    1    2  502    0 -0.53794144676E+02  0.45619428730E+02  0.11645172208E+04  0.11666513188E+04  0.00000000000E+00 0. -1.
         22    1    3    3    0    0  0.10600277979E+03  0.23700362308E+02  0.67637958976E+03  0.68504572544E+03  0.00000000000E+00 0.  1.
         22    1    3    3    0    0 -0.25039427458E+02 -0.23026558659E+02  0.42475134057E+03  0.42611136648E+03  0.00000000000E+00 0.  1.
</event>
<event>
 7    1  0.6607887E-006  0.6539665E+02  0.7818608E-02  0.1510208E+00
          2   -1    0    0  502    0  0.00000000000E+00  0.00000000000E+00  0.19432818017E+04  0.19432818017E+04  0.00000000000E+00 0. -1.
          1   -1    0    0  501    0 -0.00000000000E+00 -0.00000000000E+00 -0.51360117521E+03  0.51360117521E+03  0.00000000000E+00 0. -1.
         25    2    1    2    0    0 -0.16922365877E+02 -0.82738573451E+02  0.51833269650E+03  0.53983879736E+03  0.12500041949E+03 0.  0.
          2    1    1    2  501    0  0.20678819054E+00  0.65326522561E+02 -0.50062283223E+03  0.50486712852E+03  0.00000000000E+00 0. -1.
          1    1    1    2  502    0  0.16715577686E+02  0.17412050890E+02  0.14119707622E+04  0.14121770510E+04  0.00000000000E+00 0. -1.
         22    1    3    3    0    0  0.16294199452E+02 -0.10766006065E+03  0.39303409594E+03  0.40783819115E+03  0.00000000000E+00 0. -1.
         22    1    3    3    0    0 -0.33216565329E+02  0.24921487198E+02  0.12529860056E+03  0.13200060621E+03  0.00000000000E+00 0. -1.
</event>
<event>
 7    1  0.6607887E-006  0.1374874E+03  0.7818608E-02  0.1239152E+00
          2   -1    0    0  502    0  0.00000000000E+00  0.00000000000E+00  0.67430437534E+03  0.67430437534E+03  0.00000000000E+00 0. -1.
          1   -1    0    0  501    0 -0.00000000000E+00 -0.00000000000E+00 -0.15757665746E+04  0.15757665746E+04  0.00000000000E+00 0. -1.
         25    2    1    2    0    0  0.29000105074E+02  0.23054320216E+03  0.19600858840E+03  0.32868763404E+03  0.12500007955E+03 0.  0.
          2    1    1    2  501    0 -0.55332042075E+02 -0.12476096530E+03 -0.14990608730E+04  0.15052609190E+04  0.00000000000E+00 0. -1.
          1    1    1    2  502    0  0.26331937001E+02 -0.10578223686E+03  0.40159008534E+03  0.41612239688E+03  0.00000000000E+00 0. -1.
         22    1    3    3    0    0  0.26830088982E+02  0.15736868641E+03  0.53308096665E+02  0.16830481368E+03  0.00000000000E+00 0.  1.
         22    1    3    3    0    0  0.21700160918E+01  0.73174515745E+02  0.14270049173E+03  0.16038282036E+03  0.00000000000E+00 0.  1.
</event>
<event>
 7    1  0.6607887E-006  0.1583338E+03  0.7818608E-02  0.1199742E+00
          2   -1    0    0  502    0  0.00000000000E+00  0.00000000000E+00  0.23720674689E+04  0.23720674689E+04  0.00000000000E+00 0. -1.
          1   -1    0    0  501    0 -0.00000000000E+00 -0.00000000000E+00 -0.78031801534E+02  0.78031801534E+02  0.00000000000E+00 0. -1.
         25    2    1    2    0    0  0.15680769869E+03  0.88526418365E+02  0.96781790908E+03  0.99233147115E+03  0.12499864950E+03 0.  0.
          2    1    1    2  501    0  0.16405951311E+01 -0.14322769288E+03  0.24518912012E+02  0.14532047553E+03  0.00000000000E+00 0. -1.
          1    1    1    2  502    0 -0.15844829382E+03  0.54701274519E+02  0.13016988463E+04  0.13124473238E+04  0.00000000000E+00 0. -1.
         22    1    3    3    0    0  0.61741492952E+02  0.57091895819E+01  0.60623094744E+03  0.60939360715E+03  0.00000000000E+00 0. -1.
         22    1    3    3    0    0  0.95066205741E+02  0.82817228784E+02  0.36158696164E+03  0.38293786400E+03  0.00000000000E+00 0. -1.
</event>
<event>
 7    1  0.6607887E-006  0.3117151E+02  0.7818608E-02  0.1595249E+00
          2   -1    0    0  502    0  0.00000000000E+00  0.00000000000E+00  0.52524768206E+03  0.52524768206E+03  0.00000000000E+00 0. -1.
          1   -1    0    0  501    0 -0.00000000000E+00 -0.00000000000E+00 -0.84532415988E+03  0.84532415988E+03  0.00000000000E+00 0. -1.
         25    2    1    2    0    0 -0.52797809550E+01  0.23234273413E+02 -0.16581085873E+03  0.20901099952E+03  0.12499859799E+03 0.  0.
          2    1    1    2  501    0  0.30459335736E+02 -0.81109128722E+01 -0.65710688285E+03  0.65786245791E+03  0.00000000000E+00 0. -1.
          1    1    1    2  502    0 -0.25179554781E+02 -0.15123360541E+02  0.50284126376E+03  0.50369838451E+03  0.00000000000E+00 0. -1.
         22    1    3    3    0    0  0.29982198306E+02 -0.40836641597E+02 -0.44856477903E+02  0.67665849009E+02  0.00000000000E+00 0. -1.
         22    1    3    3    0    0 -0.35261979261E+02  0.64070915010E+02 -0.12095438082E+03  0.14134515051E+03  0.00000000000E+00 0. -1.
</event>
<event>
 7    1  0.6607887E-006  0.2312876E+03  0.7818608E-02  0.1209835E+00
          2   -1    0    0  502    0  0.00000000000E+00  0.00000000000E+00  0.14559584597E+04  0.14559584597E+04  0.00000000000E+00 0. -1.
          1   -1    0    0  501    0 -0.00000000000E+00 -0.00000000000E+00 -0.11111449992E+04  0.11111449992E+04  0.00000000000E+00 0. -1.
         25    2    1    2    0    0  0.85247007887E+02 -0.15112708701E+03 -0.19335904876E+03  0.28830546800E+03  0.12500348938E+03 0.  0.
          2    1    1    2  501    0 -0.15909994992E+03  0.19889541945E+03 -0.85025660558E+03  0.88758575770E+03  0.00000000000E+00 0. -1.
          1    1    1    2  502    0  0.73852942037E+02 -0.47768332443E+02  0.13884291149E+04  0.13912122332E+04  0.00000000000E+00 0. -1.
         22    1    3    3    0    0 -0.17042470525E+02 -0.83451363243E+02 -0.11367021484E+03  0.14204046455E+03  0.00000000000E+00 0.  1.
         22    1    3    3    0    0  0.10228947841E+03 -0.67675723762E+02 -0.79688833924E+02  0.14626500345E+03  0.00000000000E+00 0.  1.
</event>
<event>
 7    1  0.6607887E-006  0.1727728E+03  0.7818608E-02  0.1382191E+00
          2   -1    0    0  502    0  0.00000000000E+00  0.00000000000E+00  0.58796256968E+03  0.58796256968E+03  0.00000000000E+00 0. -1.
          1   -1    0    0  501    0 -0.00000000000E+00 -0.00000000000E+00 -0.21158817675E+04  0.21158817675E+04  0.00000000000E+00 0. -1.
         25    2    1    2    0    0  0.15142334657E+03 -0.57469420095E+01 -0.85154336721E+03  0.87390666874E+03  0.12499880878E+03 0.  0.
          2    1    1    2  501    0  0.21632511160E+02  0.95009269196E+01 -0.12400547671E+04  0.12402798307E+04  0.00000000000E+00 0. -1.
          1    1    1    2  502    0 -0.17305585772E+03 -0.37539849101E+01  0.56367893641E+03  0.58965783777E+03  0.00000000000E+00 0. -1.
         22    1    3    3    0    0  0.45353274319E+02  0.25670895070E+02 -0.87100522699E+02  0.10150081477E+03  0.00000000000E+00 0.  1.
         22    1    3    3    0    0  0.10607007225E+03 -0.31417837079E+02 -0.76444284452E+03  0.77240585397E+03  0.00000000000E+00 0.  1.
</event>
<event>
 7    1  0.6607887E-006  0.3174447E+02  0.7818608E-02  0.1614824E+00
          2   -1    0    0  502    0  0.00000000000E+00  0.00000000000E+00  0.14643454025E+03  0.14643454025E+03  0.00000000000E+00 0. -1.
          1   -1    0    0  501    0 -0.00000000000E+00 -0.00000000000E+00 -0.80634860906E+03  0.80634860906E+03  0.00000000000E+00 0. -1.
         25    2    1    2    0    0 -0.24806468904E+02 -0.14805947027E+02 -0.43230998044E+03  0.45094568681E+03  0.12500206518E+03 0.  0.
          2    1    1    2  501    0  0.31117194171E+02 -0.10062919629E+02 -0.36277851539E+03  0.36424963055E+03  0.00000000000E+00 0. -1.
          1    1    1    2  502    0 -0.63107252672E+01  0.24868866656E+02  0.13517442702E+03  0.13758783196E+03  0.00000000000E+00 0. -1.
         22    1    3    3    0    0 -0.61937880404E+02  0.10860584733E+02 -0.12084545992E+03  0.13622730458E+03  0.00000000000E+00 0. -1.
         22    1    3    3    0    0  0.37131411500E+02 -0.25666531760E+02 -0.31146452052E+03  0.31471838224E+03  0.00000000000E+00 0. -1.
</event>
<event>
 7    1  0.6607887E-006  0.1031918E+03  0.7818608E-02  0.1461999E+00
          2   -1    0    0  502    0  0.00000000000E+00  0.00000000000E+00  0.90545465634E+03  0.90545465634E+03  0.00000000000E+00 0. -1.
          1   -1    0    0  501    0 -0.00000000000E+00 -0.00000000000E+00 -0.10439477058E+04  0.10439477058E+04  0.00000000000E+00 0. -1.
         25    2    1    2    0    0  0.11019092395E+01  0.83094750352E+02 -0.26132718132E+03  0.30136814087E+03  0.12499963557E+03 0.  0.
          2    1    1    2  501    0  0.79372353545E+01  0.19919306414E+02 -0.75942889179E+03  0.75973154480E+03  0.00000000000E+00 0. -1.
          1    1    1    2  502    0 -0.90391445941E+01 -0.10301405677E+03  0.88226302368E+03  0.88830267645E+03  0.00000000000E+00 0. -1.
         22    1    3    3    0    0  0.40190048093E+02  0.49971517030E+02 -0.23533734435E+03  0.24391813816E+03  0.00000000000E+00 0. -1.
         22    1    3    3    0    0 -0.39088138853E+02  0.33123233322E+02 -0.25989836971E+02  0.57450002702E+02  0.00000000000E+00 0. -1.
</event>
<event>
 7    1  0.6607887E-006  0.1165436E+03  0.7818608E-02  0.1290475E+00
          2   -1    0    0  502    0  0.00000000000E+00  0.00000000000E+00  0.65720436712E+03  0.65720436712E+03  0.00000000000E+00 0. -1.
          1   -1    0    0  501    0 -0.00000000000E+00 -0.00000000000E+00 -0.50854139991E+03  0.50854139991E+03  0.00000000000E+00 0. -1.
         25    2    1    2    0    0  0.34441354507E+02 -0.15762129767E+03 -0.12410798921E+03  0.23886877968E+03  0.12499928216E+03 0.  0.
          2    1    1    2  501    0 -0.68632664562E+02  0.87571810738E+02 -0.31494191685E+03  0.33401747809E+03  0.00000000000E+00 0. -1.
          1    1    1    2  502    0  0.34191310055E+02  0.70049486932E+02  0.58771287328E+03  0.59285950926E+03  0.00000000000E+00 0. -1.
         22    1    3    3    0    0 -0.17687535440E+02 -0.12901285621E+03 -0.40694673104E+02  0.13643028402E+03  0.00000000000E+00 0.  1.
         22    1    3    3    0    0  0.52128889947E+02 -0.28608441457E+02 -0.83413316105E+02  0.10243849566E+03  0.00000000000E+00 0.  1.
</event>
<event>
 7    1  0.6607887E-006  0.1447513E+03  0.7818608E-02  0.1271072E+00
          2   -1    0    0  502    0  0.00000000000E+00  0.00000000000E+00  0.98643868785E+02  0.98643868785E+02  0.00000000000E+00 0. -1.
          1   -1    0    0  501    0 -0.00000000000E+00 -0.00000000000E+00 -0.87117374594E+03  0.87117374594E+03  0.00000000000E+00 0. -1.
         25    2    1    2    0    0  0.87895440100E+02 -0.12293110446E+03 -0.12559362548E+03  0.23290712994E+03  0.12503722478E+03 0.  0.
          2    1    1    2  501    0 -0.71411778956E+02 -0.24406525075E+02 -0.55996295887E+03  0.56502551796E+03  0.00000000000E+00 0. -1.
          1    1    1    2  502    0 -0.16483661144E+02  0.14733762953E+03 -0.86973292795E+02  0.17188496682E+03  0.00000000000E+00 0. -1.
         22    1    3    3    0    0  0.48723907442E+02  0.15606346118E+02 -0.22831028948E+02  0.56025289632E+02  0.00000000000E+00 0.  1.
         22    1    3    3    0    0  0.39171532658E+02 -0.13853745057E+03 -0.10276259654E+03  0.17688184030E+03  0.00000000000E+00 0.  1.
</event>
<event>
 7    1  0.6607887E-006  0.1750216E+03  0.7818608E-02  0.1283467E+00
          2   -1    0    0  502    0  0.00000000000E+00  0.00000000000E+00  0.35698031276E+03  0.35698031276E+03  0.00000000000E+00 0. -1.
          1   -1    0    0  501    0 -0.00000000000E+00 -0.00000000000E+00 -0.64432436730E+03  0.64432436730E+03  0.00000000000E+00 0. -1.
         25    2    1    2    0    0  0.52877449088E+02 -0.21888212732E+03 -0.29339137092E+03  0.39039499279E+03  0.12499737430E+03 0.  0.
          2    1    1    2  501    0 -0.24556012669E+02  0.49707764136E+02 -0.27561079449E+03  0.28113194342E+03  0.00000000000E+00 0. -1.
          1    1    1    2  502    0 -0.28321436419E+02  0.16917436318E+03  0.28165811087E+03  0.32977774385E+03  0.00000000000E+00 0. -1.
         22    1    3    3    0    0 -0.57150737445E+01 -0.48052782933E+02 -0.15640822695E+03  0.16372313665E+03  0.00000000000E+00 0. -1.
         22    1    3    3    0    0  0.58592522832E+02 -0.17082934439E+03 -0.13698314397E+03  0.22667185614E+03  0.00000000000E+00 0. -1.
</event>
<event>
 7    1  0.6607887E-006  0.8308888E+02  0.7818608E-02  0.1445682E+00
          2   -1    0    0  502    0  0.00000000000E+00  0.00000000000E+00  0.17318641111E+04  0.17318641111E+04  0.00000000000E+00 0. -1.
          1   -1    0    0  501    0 -0.00000000000E+00 -0.00000000000E+00 -0.14583352302E+04  0.14583352302E+04  0.00000000000E+00 0. -1.
         25    2    1    2    0    0  0.26924613657E+02 -0.48678563816E+02  0.73875704136E+02  0.15548889178E+03  0.12499855363E+03 0.  0.
          2    1    1    2  501    0 -0.27623446416E+02  0.78682778131E+02 -0.14161627283E+04  0.14186158421E+04  0.00000000000E+00 0. -1.
          1    1    1    2  502    0  0.69883275892E+00 -0.30004214315E+02  0.16158159050E+04  0.16160946075E+04  0.00000000000E+00 0. -1.
         22    1    3    3    0    0  0.13590772561E+02  0.20525397480E+02  0.80995059131E+02  0.84653414840E+02  0.00000000000E+00 0. -1.
         22    1    3    3    0    0  0.13333841096E+02 -0.69203961296E+02 -0.71193549948E+01  0.70835476938E+02  0.00000000000E+00 0. -1.
</event>
<event>
 7    1  0.6607887E-006  0.1141937E+03  0.7818608E-02  0.1322424E+00
          2   -1    0    0  502    0  0.00000000000E+00  0.00000000000E+00  0.46863006739E+03  0.46863006739E+03  0.00000000000E+00 0. -1.
          1   -1    0    0  501    0 -0.00000000000E+00 -0.00000000000E+00 -0.10293317591E+04  0.10293317591E+04  0.00000000000E+00 0. -1.
         25    2    1    2    0    0 -0.56341366804E+02 -0.55493496042E+02 -0.67090268324E+02  0.16242021596E+03  0.12500137892E+03 0.  0.
          2    1    1    2  501    0 -0.55695294882E+02  0.20741876644E+02 -0.90541167703E+03  0.90736017999E+03  0.00000000000E+00 0. -1.
          1    1    1    2  502    0  0.11203666169E+03  0.34751619398E+02  0.41180025362E+03  0.42818143058E+03  0.00000000000E+00 0. -1.
         22    1    3    3    0    0 -0.54485324055E+02  0.25458540504E+02 -0.53140721731E+02  0.80254122187E+02  0.00000000000E+00 0. -1.
         22    1    3    3    0    0 -0.18560427485E+01 -0.80952036546E+02 -0.13949546593E+02  0.82166093772E+02  0.00000000000E+00 0. -1.
</event>
<event>
 7    1  0.6607887E-006  0.1494320E+03  0.7818608E-02  0.1268689E+00
          2   -1    0    0  502    0  0.00000000000E+00  0.00000000000E+00  0.36674408367E+04  0.36674408367E+04  0.00000000000E+00 0. -1.
          1   -1    0    0  501    0 -0.00000000000E+00 -0.00000000000E+00 -0.22824360729E+02  0.22824360729E+02  0.00000000000E+00 0. -1.
         25    2    1    2    0    0 -0.11411175854E+02 -0.10570304050E+03  0.61023067824E+03  0.63190974775E+03  0.12500040374E+03 0.  0.
          2    1    1    2  501    0 -0.66891339717E+02 -0.33493366953E+02  0.13313994329E+03  0.15271706341E+03  0.00000000000E+00 0. -1.
          1    1    1    2  502    0  0.78302515571E+02  0.13919640746E+03  0.29012458545E+04  0.29056383863E+04  0.00000000000E+00 0. -1.
         22    1    3    3    0    0 -0.47549262060E+02  0.90174185119E+00  0.25066417651E+03  0.25513579687E+03  0.00000000000E+00 0.  1.
         22    1    3    3    0    0  0.36138086206E+02 -0.10660478235E+03  0.35956650173E+03  0.37677395088E+03  0.00000000000E+00 0.  1.
</event>
<event>
 7    1  0.6607887E-006  0.1554651E+03  0.7818608E-02  0.1222377E+00
          2   -1    0    0  502    0  0.00000000000E+00  0.00000000000E+00  0.14836033722E+04  0.14836033722E+04  0.00000000000E+00 0. -1.
          1   -1    0    0  501    0 -0.00000000000E+00 -0.00000000000E+00 -0.92629229492E+02  0.92629229492E+02  0.00000000000E+00 0. -1.
         25    2    1    2    0    0 -0.12117495285E+03  0.14874572174E+03  0.53541785973E+03  0.58232747013E+03  0.12499735605E+03 0.  0.
          2    1    1    2  501    0 -0.27381047083E+02 -0.11129069399E+03 -0.98596570823E+01  0.11503283508E+03  0.00000000000E+00 0. -1.
          1    1    1    2  502    0  0.14855599993E+03 -0.37455027747E+02  0.86541594009E+03  0.87887229652E+03  0.00000000000E+00 0. -1.
         22    1    3    3    0    0 -0.11535313274E+03  0.15941611335E+03  0.39415739782E+03  0.44054499961E+03  0.00000000000E+00 0.  1.
         22    1    3    3    0    0 -0.58218201066E+01 -0.10670391615E+02  0.14126046191E+03  0.14178247052E+03  0.00000000000E+00 0.  1.
</event>
<event>
 7    1  0.6607887E-006  0.7892105E+02  0.7818608E-02  0.1467716E+00
          2   -1    0    0  502    0  0.00000000000E+00  0.00000000000E+00  0.81158875456E+02  0.81158875456E+02  0.00000000000E+00 0. -1.
          1   -1    0    0  501    0 -0.00000000000E+00 -0.00000000000E+00 -0.21100104961E+04  0.21100104961E+04  0.00000000000E+00 0. -1.
         25    2    1    2    0    0 -0.44103253609E+02  0.39479563458E+02 -0.95404096325E+02  0.16802120951E+03  0.12500180934E+03 0.  0.
          2    1    1    2  501    0  0.43565719923E+02 -0.66378020501E+02 -0.19733918049E+04  0.19749884124E+04  0.00000000000E+00 0. -1.
          1    1    1    2  502    0  0.53753368663E+00  0.26898457044E+02  0.39944280577E+02  0.48159749632E+02  0.00000000000E+00 0. -1.
         22    1    3    3    0    0 -0.42024843133E+01 -0.17136585242E+02 -0.97146263422E+02  0.98735606166E+02  0.00000000000E+00 0. -1.
         22    1    3    3    0    0 -0.39900769296E+02  0.56616148700E+02  0.17421670965E+01  0.69285603340E+02  0.00000000000E+00 0. -1.
</event>
<event>
 7    1  0.6607887E-006  0.1394582E+03  0.7818608E-02  0.1332364E+00
          2   -1    0    0  502    0  0.00000000000E+00  0.00000000000E+00  0.83909090382E+03  0.83909090382E+03  0.00000000000E+00 0. -1.
          1   -1    0    0  501    0 -0.00000000000E+00 -0.00000000000E+00 -0.11707361673E+03  0.11707361673E+03  0.00000000000E+00 0. -1.
         25    2    1    2    0    0  0.60577489787E+01  0.14739211005E+03  0.41704680420E+03  0.45968874360E+03  0.12499829467E+03 0.  0.
          2    1    1    2  501    0  0.40675937242E+02 -0.18232236150E+02 -0.77878535048E+02  0.89733006897E+02  0.00000000000E+00 0. -1.
          1    1    1    2  502    0 -0.46733686221E+02 -0.12915987390E+03  0.38284901794E+03  0.40674277005E+03  0.00000000000E+00 0. -1.
         22    1    3    3    0    0 -0.55843009329E+01 -0.18180641994E+02  0.10030584312E+03  0.10209300821E+03  0.00000000000E+00 0. -1.
         22    1    3    3    0    0  0.11642049912E+02  0.16557275204E+03  0.31674096108E+03  0.35759573539E+03  0.00000000000E+00 0. -1.
</event>
<event>
 7    1  0.6607887E-006  0.4474245E+02  0.7818608E-02  0.1476028E+00
          2   -1    0    0  502    0  0.00000000000E+00  0.00000000000E+00  0.66061308897E+03  0.66061308897E+03  0.00000000000E+00 0. -1.
          1   -1    0    0  501    0 -0.00000000000E+00 -0.00000000000E+00 -0.38454593770E+03  0.38454593770E+03  0.00000000000E+00 0. -1.
         25    2    1    2    0    0  0.30812326907E+02 -0.37211123638E+02 -0.95350164023E+02  0.16447228288E+03  0.12500164336E+03 0.  0.
          2    1    1    2  501    0 -0.45463414598E+02 -0.50645443271E+01 -0.25177168935E+03  0.25589364047E+03  0.00000000000E+00 0. -1.
          1    1    1    2  502    0  0.14651087691E+02  0.42275667965E+02  0.62318900463E+03  0.62479310333E+03  0.00000000000E+00 0. -1.
         22    1    3    3    0    0  0.46714988057E+02 -0.61953247481E+02 -0.10756052666E+03  0.13262639963E+03  0.00000000000E+00 0.  1.
         22    1    3    3    0    0 -0.15902661150E+02  0.24742123843E+02  0.12210362641E+02  0.31845883246E+02  0.00000000000E+00 0.  1.
</event>
<event>
 7    1  0.6607887E-006  0.7687135E+02  0.7818608E-02  0.1364954E+00
          2   -1    0    0  502    0  0.00000000000E+00  0.00000000000E+00  0.39534164079E+03  0.39534164079E+03  0.00000000000E+00 0. -1.
          1   -1    0    0  501    0 -0.00000000000E+00 -0.00000000000E+00 -0.10760777108E+04  0.10760777108E+04  0.00000000000E+00 0. -1.
         25    2    1    2    0    0  0.47031898535E+02  0.26173076764E+02 -0.91462908158E+02  0.16397921023E+03  0.12500675339E+03 0.  0.
          2    1    1    2  501    0 -0.13806681024E+02 -0.77569847291E+02 -0.94409599909E+03  0.94737793997E+03  0.00000000000E+00 0. -1.
          1    1    1    2  502    0 -0.33225217511E+02  0.51396770528E+02  0.35482283719E+03  0.36006220142E+03  0.00000000000E+00 0. -1.
         22    1    3    3    0    0  0.65560792222E+02  0.60874318365E+02 -0.37043528236E+02  0.96830383131E+02  0.00000000000E+00 0.  1.
         22    1    3    3    0    0 -0.18528893687E+02 -0.34701241602E+02 -0.54419379922E+02  0.67148827101E+02  0.00000000000E+00 0.  1.
</event>
<event>
 7    1  0.6607887E-006  0.5665033E+02  0.7818608E-02  0.1426550E+00
          2   -1    0    0  502    0  0.00000000000E+00  0.00000000000E+00  0.73979483629E+03  0.73979483629E+03  0.00000000000E+00 0. -1.
          1   -1    0    0  501    0 -0.00000000000E+00 -0.00000000000E+00 -0.39388508451E+03  0.39388508451E+03  0.00000000000E+00 0. -1.
         25    2    1    2    0    0  0.17200691058E+02 -0.52041130140E+02  0.35581752561E+02  0.14105031501E+03  0.12499994900E+03 0.  0.
          2    1    1    2  501    0 -0.54544244805E+02  0.17564162882E+02 -0.33774254662E+03  0.34256912041E+03  0.00000000000E+00 0. -1.
          1    1    1    2  502    0  0.37343553747E+02  0.34476967258E+02  0.64807054584E+03  0.65006048539E+03  0.00000000000E+00 0. -1.
         22    1    3    3    0    0  0.37680888805E+02 -0.12284950434E+02  0.72786025133E+02  0.82876865547E+02  0.00000000000E+00 0.  1.
         22    1    3    3    0    0 -0.20480197746E+02 -0.39756179707E+02 -0.37204272572E+02  0.58173449461E+02  0.00000000000E+00 0.  1.
</event>
<event>
 7    1  0.6607887E-006  0.5065467E+02  0.7818608E-02  0.1499422E+00
          2   -1    0    0  502    0  0.00000000000E+00  0.00000000000E+00  0.76395591236E+03  0.76395591236E+03  0.00000000000E+00 0. -1.
          1   -1    0    0  501    0 -0.00000000000E+00 -0.00000000000E+00 -0.23899341710E+03  0.23899341710E+03  0.00000000000E+00 0. -1.
         25    2    1    2    0    0  0.40609245641E+02  0.72362052908E+02  0.16724281504E+03  0.22467808991E+03  0.12499882948E+03 0.  0.
          2    1    1    2  501    0 -0.16025844708E+02 -0.29466112287E+02 -0.20785281626E+03  0.21054185498E+03  0.00000000000E+00 0. -1.
          1    1    1    2  502    0 -0.24583400933E+02 -0.42895940621E+02  0.56557249648E+03  0.56772938457E+03  0.00000000000E+00 0. -1.
         22    1    3    3    0    0 -0.21571448353E+02  0.56664276971E+01 -0.10696209322E+02  0.24735494350E+02  0.00000000000E+00 0. -1.
         22    1    3    3    0    0  0.62180693994E+02  0.66695625211E+02  0.17793902437E+03  0.19994259556E+03  0.00000000000E+00 0. -1.
</event>
<event>
 7    1  0.6607887E-006  0.8572202E+02  0.7818608E-02  0.1339659E+00
          2   -1    0    0  502    0  0.00000000000E+00  0.00000000000E+00  0.27788803580E+03  0.27788803580E+03  0.00000000000E+00 0. -1.
          1   -1    0    0  501    0 -0.00000000000E+00 -0.00000000000E+00 -0.18226806294E+04  0.18226806294E+04  0.00000000000E+00 0. -1.
         25    2    1    2    0    0 -0.58547268723E+02 -0.38115523226E+02 -0.53907052683E+02  0.15301112238E+03  0.12500342978E+03 0.  0.
          2    1    1    2  501    0  0.10209197853E+02  0.86015043820E+02 -0.17130325587E+04  0.17152210828E+04  0.00000000000E+00 0. -1.
          1    1    1    2  502    0  0.48338070869E+02 -0.47899520594E+02  0.22214701779E+03  0.23233646008E+03  0.00000000000E+00 0. -1.
         22    1    3    3    0    0 -0.53215318924E+02 -0.52559118518E+02  0.20076225843E+02  0.77442791477E+02  0.00000000000E+00 0.  1.
         22    1    3    3    0    0 -0.53319497985E+01  0.14443595292E+02 -0.73983278526E+02  0.75568330900E+02  0.00000000000E+00 0.  1.
</event>
<event>
 7    1  0.6607887E-006  0.7227595E+02  0.7818608E-02  0.1400551E+00
          2   -1    0    0  502    0  0.00000000000E+00  0.00000000000E+00  0.22245162753E+04  0.22245162753E+04  0.00000000000E+00 0. -1.
          1   -1    0    0  501    0 -0.00000000000E+00 -0.00000000000E+00 -0.64539747290E+03  0.64539747290E+03  0.00000000000E+00 0. -1.
         25    2    1    2    0    0 -0.94880443351E+02 -0.23907137171E+02  0.13558650739E+04  0.13651259506E+04  0.12499965052E+03 0.  0.
          2    1    1    2  501    0  0.53093609641E+02  0.49009371006E+02 -0.63803870242E+03  0.64211699528E+03  0.00000000000E+00 0. -1.
          1    1    1    2  502    0  0.41786833710E+02 -0.25102233835E+02  0.86129243095E+03  0.86267080235E+03  0.00000000000E+00 0. -1.
         22    1    3    3    0    0 -0.52277808521E+01 -0.46350464024E+02  0.82185282615E+03  0.82317541452E+03  0.00000000000E+00 0.  1.
         22    1    3    3    0    0 -0.89652662499E+02  0.22443326852E+02  0.53401224774E+03  0.54195053607E+03  0.00000000000E+00 0.  1.
</event>
<event>
 7    1  0.6607887E-006  0.1072386E+03  0.7818608E-02  0.1285547E+00
          2   -1    0    0  502    0  0.00000000000E+00  0.00000000000E+00  0.10645735058E+04  0.10645735058E+04  0.00000000000E+00 0. -1.
          1   -1    0    0  501    0 -0.00000000000E+00 -0.00000000000E+00 -0.13773220577E+03  0.13773220577E+03  0.00000000000E+00 0. -1.
         25    2    1    2    0    0 -0.17895082630E+03 -0.55251788957E+02  0.35421382877E+03  0.41972369767E+03  0.12499754987E+03 0.  0.
          2    1    1    2  501    0  0.90596649011E+02  0.47140996434E+02 -0.76384822737E+02  0.12753300554E+03  0.00000000000E+00 0. -1.
          1    1    1    2  502    0  0.88354177288E+02  0.81107925232E+01  0.64901229399E+03  0.65504900836E+03  0.00000000000E+00 0. -1.
         22    1    3    3    0    0 -0.19428148840E+03 -0.64161975663E+02  0.30372477123E+03  0.36621140413E+03  0.00000000000E+00 0.  1.
         22    1    3    3    0    0  0.15330662106E+02  0.89101867064E+01  0.50489057549E+02  0.53512293540E+02  0.00000000000E+00 0.  1.
</event>
<event>
 7    1  0.6607887E-006  0.6186577E+02  0.7818608E-02  0.1517382E+00
          2   -1    0    0  502    0  0.00000000000E+00  0.00000000000E+00  0.19384503316E+03  0.19384503316E+03  0.00000000000E+00 0. -1.
          1   -1    0    0  501    0 -0.00000000000E+00 -0.00000000000E+00 -0.10373045866E+04  0.10373045866E+04  0.00000000000E+00 0. -1.
         25    2    1    2    0    0  0.36946877896E+02 -0.16857667973E+02 -0.12129313274E+02  0.13198808007E+03  0.12499792112E+03 0.  0.
          2    1    1    2  501    0  0.17886706556E+02 -0.16462790200E+02 -0.95739697451E+03  0.95770555211E+03  0.00000000000E+00 0. -1.
          1    1    1    2  502    0 -0.54833584452E+02  0.33320458173E+02  0.12606673434E+03  0.14145598759E+03  0.00000000000E+00 0. -1.
         22    1    3    3    0    0  0.50288074310E+02  0.40121091553E+02 -0.29743271204E+02  0.70874922132E+02  0.00000000000E+00 0.  1.
         22    1    3    3    0    0 -0.13341196414E+02 -0.56978759526E+02  0.17613957930E+02  0.61113157935E+02  0.00000000000E+00 0.  1.
</event>
<event>
 7    1  0.6607887E-006  0.8331654E+02  0.7818608E-02  0.1385024E+00
          2   -1    0    0  502    0  0.00000000000E+00  0.00000000000E+00  0.12546280279E+04  0.12546280279E+04  0.00000000000E+00 0. -1.
          1   -1    0    0  501    0 -0.00000000000E+00 -0.00000000000E+00 -0.10914889154E+04  0.10914889154E+04  0.00000000000E+00 0. -1.
         25    2    1    2    0    0 -0.12052447952E+03  0.37029212615E+02  0.66716980458E+02  0.18963179481E+03  0.12494698624E+03 0.  0.
          2    1    1    2  501    0  0.82400111029E+02 -0.80595833805E+01 -0.10278573790E+04  0.10311864655E+04  0.00000000000E+00 0. -1.
          1    1    1    2  502    0  0.38124368494E+02 -0.28969629235E+02  0.11242795111E+04  0.11252986830E+04  0.00000000000E+00 0. -1.
         22    1    3    3    0    0 -0.14549764717E+02 -0.27881461569E+02 -0.20736669968E+02  0.37670691976E+02  0.00000000000E+00 0.  1.
         22    1    3    3    0    0 -0.10597471481E+03  0.64910674184E+02  0.87453650427E+02  0.15196110283E+03  0.00000000000E+00 0.  1.
</event>
<event>
 7    1  0.6607887E-006  0.6338949E+02  0.7818608E-02  0.1528204E+00
          2   -1    0    0  502    0  0.00000000000E+00  0.00000000000E+00  0.34107372436E+03  0.34107372436E+03  0.00000000000E+00 0. -1.
          1   -1    0    0  501    0 -0.00000000000E+00 -0.00000000000E+00 -0.32074997806E+03  0.32074997806E+03  0.00000000000E+00 0. -1.
         25    2    1    2    0    0  0.14031722748E+02  0.69789367793E+02 -0.48206526761E+02  0.15171133280E+03  0.12500005671E+03 0.  0.
          2    1    1    2  501    0  0.68410952321E+01 -0.62603399271E+02 -0.21586394170E+03  0.22486268590E+03  0.00000000000E+00 0. -1.
          1    1    1    2  502    0 -0.20872817980E+02 -0.71859685221E+01  0.28439421476E+03  0.28524968372E+03  0.00000000000E+00 0. -1.
         22    1    3    3    0    0  0.22810144238E+02  0.78067467073E+01 -0.78533667697E+02  0.82150988650E+02  0.00000000000E+00 0. -1.
         22    1    3    3    0    0 -0.87784214899E+01  0.61982621086E+02  0.30327140936E+02  0.69560344147E+02  0.00000000000E+00 0. -1.
</event>
<event>
 7    1  0.6607887E-006  0.2341619E+03  0.7818608E-02  0.1154427E+00
          2   -1    0    0  502    0  0.00000000000E+00  0.00000000000E+00  0.15459665370E+03  0.15459665370E+03  0.00000000000E+00 0. -1.
          1   -1    0    0  501    0 -0.00000000000E+00 -0.00000000000E+00 -0.13721386160E+04  0.13721386160E+04  0.00000000000E+00 0. -1.
         25    2    1    2    0    0 -0.28417883388E+03  0.34672762133E+02 -0.52162603371E+03  0.60801142191E+03  0.12499744026E+03 0.  0.
          2    1    1    2  501    0  0.11051062861E+03  0.11794238436E+03 -0.66631762833E+03  0.68563998344E+03  0.00000000000E+00 0. -1.
          1    1    1    2  502    0  0.17366820527E+03 -0.15261514650E+03 -0.29598300315E+02  0.23308386440E+03  0.00000000000E+00 0. -1.
         22    1    3    3    0    0 -0.24145443308E+03  0.75413513211E+02 -0.41058380111E+03  0.48225148933E+03  0.00000000000E+00 0. -1.
         22    1    3    3    0    0 -0.42724400805E+02 -0.40740751078E+02 -0.11104223260E+03  0.12575993258E+03  0.00000000000E+00 0. -1.
</event>
<event>
 7    1  0.6607887E-006  0.1750217E+03  0.7818608E-02  0.1302559E+00
          2   -1    0    0  502    0  0.00000000000E+00  0.00000000000E+00  0.36071599361E+03  0.36071599361E+03  0.00000000000E+00 0. -1.
          1   -1    0    0  501    0 -0.00000000000E+00 -0.00000000000E+00 -0.18318933112E+04  0.18318933112E+04  0.00000000000E+00 0. -1.
         25    2    1    2    0    0 -0.12258391451E+03 -0.12313374149E+03 -0.12338247096E+03  0.24705563883E+03  0.12499808058E+03 0.  0.
          2    1    1    2  501    0  0.35572842418E+02 -0.29798230096E+02 -0.16204172984E+04  0.16210816089E+04  0.00000000000E+00 0. -1.
          1    1    1    2  502    0  0.87011072095E+02  0.15293197158E+03  0.27262245181E+03  0.32447205708E+03  0.00000000000E+00 0. -1.
         22    1    3    3    0    0 -0.46913671902E+02 -0.91347955956E+01  0.17279358731E+02  0.50822370469E+02  0.00000000000E+00 0.  1.
         22    1    3    3    0    0 -0.75670242611E+02 -0.11399894589E+03 -0.14066182969E+03  0.19623326836E+03  0.00000000000E+00 0.  1.
</event>
<event>
 7    1  0.6607887E-006  0.9824242E+02  0.7818608E-02  0.1385565E+00
          2   -1    0    0  502    0  0.00000000000E+00  0.00000000000E+00  0.16232275288E+03  0.16232275288E+03  0.00000000000E+00 0. -1.
          1   -1    0    0  501    0 -0.00000000000E+00 -0.00000000000E+00 -0.55301152547E+03  0.55301152547E+03  0.00000000000E+00 0. -1.
         25    2    1    2    0    0 -0.78990576813E+02  0.46775257749E+01 -0.27584570488E+03  0.31300135221E+03  0.12497040896E+03 0.  0.
          2    1    1    2  501    0  0.10664889053E+03 -0.34166613959E+02 -0.24320742089E+03  0.26775211098E+03  0.00000000000E+00 0. -1.
          1    1    1    2  502    0 -0.27658313715E+02  0.29489088184E+02  0.12836435318E+03  0.13458081516E+03  0.00000000000E+00 0. -1.
         22    1    3    3    0    0 -0.32311599620E+02  0.60002119412E+02 -0.18296703100E+03  0.19524658316E+03  0.00000000000E+00 0.  1.
         22    1    3    3    0    0 -0.46678977193E+02 -0.55324593637E+02 -0.92878673878E+02  0.11775476905E+03  0.00000000000E+00 0.  1.
</event>
<event>
 7    1  0.6607887E-006  0.1199765E+03  0.7818608E-02  0.1353518E+00
          2   -1    0    0  502    0  0.00000000000E+00  0.00000000000E+00  0.17788204052E+04  0.17788204052E+04  0.00000000000E+00 0. -1.
          1   -1    0    0  501    0 -0.00000000000E+00 -0.00000000000E+00 -0.18871051418E+03  0.18871051418E+03  0.00000000000E+00 0. -1.
         25    2    1    2    0    0 -0.24556795482E+01  0.14074594205E+03  0.12788602308E+03  0.22759596484E+03  0.12501854962E+03 0.  0.
          2    1    1    2  501    0  0.35023752412E+02 -0.11240464503E+03 -0.11355000014E+03  0.16356977102E+03  0.00000000000E+00 0. -1.
          1    1    1    2  502    0 -0.32568072864E+02 -0.28341297016E+02  0.15757738681E+04  0.15763651835E+04  0.00000000000E+00 0. -1.
         22    1    3    3    0    0  0.36380398009E+02  0.14457919674E+03  0.10507102220E+03  0.18239132983E+03  0.00000000000E+00 0.  1.
         22    1    3    3    0    0 -0.38836077558E+02 -0.38332546949E+01  0.22815000876E+02  0.45204635012E+02  0.00000000000E+00 0.  1.
</event>
<event>
 7    1  0.6607887E-006  0.5038392E+03  0.7818608E-02  0.1274430E+00
          2   -1    0    0  502    0  0.00000000000E+00  0.00000000000E+00  0.16960526229E+04  0.16960526229E+04  0.00000000000E+00 0. -1.
          1   -1    0    0  501    0 -0.00000000000E+00 -0.00000000000E+00 -0.66630489067E+03  0.66630489067E+03  0.00000000000E+00 0. -1.
         25    2    1    2    0    0 -0.51741371077E+03 -0.49278606848E+01  0.10658961296E+04  0.11914281638E+04  0.12500111346E+03 0.  0.
          2    1    1    2  501    0  0.50250022155E+03 -0.98452718059E+01 -0.49862522700E+03  0.70797635486E+03  0.00000000000E+00 0. -1.
          1    1    1    2  502    0  0.14913489220E+02  0.14773132491E+02  0.46247682963E+03  0.46295299496E+03  0.00000000000E+00 0. -1.
         22    1    3    3    0    0 -0.31097925129E+03 -0.61633700522E+01  0.77172511568E+03  0.83204911877E+03  0.00000000000E+00 0.  1.
         22    1    3    3    0    0 -0.20643445948E+03  0.12355093675E+01  0.29417101396E+03  0.35937904502E+03  0.00000000000E+00 0.  1.
</event>
<event>
 7    1  0.6607887E-006  0.4237896E+02  0.7818608E-02  0.1509804E+00
          2   -1    0    0  502    0  0.00000000000E+00  0.00000000000E+00  0.18161938048E+02  0.18161938048E+02  0.00000000000E+00 0. -1.
          1   -1    0    0  501    0 -0.00000000000E+00 -0.00000000000E+00 -0.26661552368E+04  0.26661552368E+04  0.00000000000E+00 0. -1.
         25    2    1    2    0    0  0.25176193173E+02  0.30657523369E+02 -0.20886303470E+04  0.20927435585E+04  0.12500060310E+03 0.  0.
          2    1    1    2  501    0  0.16212080333E+02 -0.39767269236E+02 -0.54520281787E+03  0.54689156134E+03  0.00000000000E+00 0. -1.
          1    1    1    2  502    0 -0.41388273505E+02  0.91097458671E+01 -0.14160133964E+02  0.44682055094E+02  0.00000000000E+00 0. -1.
         22    1    3    3    0    0  0.54597238426E+02  0.38614243414E+02 -0.58586198862E+03  0.58966616653E+03  0.00000000000E+00 0.  1.
         22    1    3    3    0    0 -0.29421045253E+02 -0.79567200452E+01 -0.15027683583E+04  0.15030773919E+04  0.00000000000E+00 0.  1.
</event>
<event>
 7    1  0.6607887E-006  0.1297139E+03  0.7818608E-02  0.1306709E+00
          2   -1    0    0  502    0  0.00000000000E+00  0.00000000000E+00  0.14857631951E+03  0.14857631951E+03  0.00000000000E+00 0. -1.
          1   -1    0    0  501    0 -0.00000000000E+00 -0.00000000000E+00 -0.76983803112E+03  0.76983803112E+03  0.00000000000E+00 0. -1.
         25    2    1    2    0    0  0.12579166780E+03 -0.52859521154E+02 -0.21906101148E+03  0.28675994029E+03  0.12500345571E+03 0.  0.
          2    1    1    2  501    0 -0.86221685008E+02  0.98333333328E+02 -0.49997230571E+03  0.51679389498E+03  0.00000000000E+00 0. -1.
          1    1    1    2  502    0 -0.39569982789E+02 -0.45473812174E+02  0.97771605578E+02  0.11486051536E+03  0.00000000000E+00 0. -1.
         22    1    3    3    0    0  0.13172050341E+03 -0.69799912452E+01 -0.19268132560E+03  0.23350611241E+03  0.00000000000E+00 0.  1.
         22    1    3    3    0    0 -0.59288356168E+01 -0.45879529909E+02 -0.26379685880E+02  0.53253827877E+02  0.00000000000E+00 0.  1.
</event>
<event>
 7    1  0.8675256E-006  0.4784566E+02  0.7818608E-02  0.1496483E+00
          2   -1    0    0  502    0  0.00000000000E+00  0.00000000000E+00  0.11933103332E+04  0.11933103332E+04  0.00000000000E+00 0. -1.
          1   -1    0    0  501    0 -0.00000000000E+00 -0.00000000000E+00 -0.83290127487E+03  0.83290127487E+03  0.00000000000E+00 0. -1.
         25    2    1    2    0    0 -0.37074522882E+02 -0.17242999518E+02 -0.38922757835E+03  0.41084719374E+03  0.12500187027E+03 0.  0.
          2    1    1    2  501    0  0.16919133026E+02  0.47358583183E+02 -0.43112430293E+03  0.43404752855E+03  0.00000000000E+00 0. -1.
          1    1    1    2  502    0  0.20155389856E+02 -0.30115583665E+02  0.11807609396E+04  0.11813168858E+04  0.00000000000E+00 0. -1.
         22    1    3    3    0    0 -0.62529478746E+02  0.24052554272E+02 -0.12137761840E+03  0.13863977542E+03  0.00000000000E+00 0.  1.
         22    1    3    3    0    0  0.25454955864E+02 -0.41295553790E+02 -0.26784995995E+03  0.27220741832E+03  0.00000000000E+00 0.  1.
</event>
<event>
 7    1  0.6607887E-006  0.2316947E+03  0.7818608E-02  0.1217785E+00
          2   -1    0    0  502    0  0.00000000000E+00  0.00000000000E+00  0.21960784111E+04  0.21960784111E+04  0.00000000000E+00 0. -1.
          1   -1    0    0  501    0 -0.00000000000E+00 -0.00000000000E+00 -0.33441285158E+04  0.33441285158E+04  0.00000000000E+00 0. -1.
         25    2    1    2    0    0  0.17681548332E+03 -0.12907961487E+03  0.49674039213E+03  0.55704732222E+03  0.12500175956E+03 0.  0.
          2    1    1    2  501    0 -0.43238942159E+02 -0.68138164174E+02 -0.33049822010E+04  0.33059672964E+04  0.00000000000E+00 0. -1.
          1    1    1    2  502    0 -0.13357654116E+03  0.19721777904E+03  0.16601917041E+04  0.16771923083E+04  0.00000000000E+00 0. -1.
         22    1    3    3    0    0 -0.16507653057E+02 -0.19450925423E+02  0.25710958760E+02  0.36220084340E+02  0.00000000000E+00 0. -1.
         22    1    3    3    0    0  0.19332313638E+03 -0.10962868944E+03  0.47102943337E+03  0.52082723788E+03  0.00000000000E+00 0. -1.
</event>
<event>
 7    1  0.6607887E-006  0.5729217E+02  0.7818608E-02  0.1517169E+00
          2   -1    0    0  502    0  0.00000000000E+00  0.00000000000E+00  0.12146002194E+04  0.12146002194E+04  0.00000000000E+00 0. -1.
          1   -1    0    0  501    0 -0.00000000000E+00 -0.00000000000E+00 -0.48614299100E+02  0.48614299100E+02  0.00000000000E+00 0. -1.
         25    2    1    2    0    0  0.54653920069E+02  0.30132588250E+02  0.10517584893E+04  0.10609975613E+04  0.12499952532E+03 0.  0.
          2    1    1    2  501    0 -0.33866546026E+02 -0.46223917356E+02 -0.23550685874E+02  0.61953436390E+02  0.00000000000E+00 0. -1.
          1    1    1    2  502    0 -0.20787374043E+02  0.16091329106E+02  0.13777811683E+03  0.14026352081E+03  0.00000000000E+00 0. -1.
         22    1    3    3    0    0  0.44914221355E+02  0.52919471023E+02  0.26784350315E+03  0.27669098264E+03  0.00000000000E+00 0.  1.
         22    1    3    3    0    0  0.97396987138E+01 -0.22786882774E+02  0.78391498619E+03  0.78430657866E+03  0.00000000000E+00 0.  1.
</event>
<event>
 7    1  0.6607887E-006  0.5791766E+02  0.7818608E-02  0.1512421E+00
          2   -1    0    0  502    0  0.00000000000E+00  0.00000000000E+00  0.17149445452E+04  0.17149445452E+04  0.00000000000E+00 0. -1.
          1   -1    0    0  501    0 -0.00000000000E+00 -0.00000000000E+00 -0.17616976872E+03  0.17616976872E+03  0.00000000000E+00 0. -1.
         25    2    1    2    0    0  0.65621313495E+02 -0.39102920441E+02 -0.20424761291E+02  0.14791203098E+03  0.12500241143E+03 0.  0.
          2    1    1    2  501    0 -0.53695676769E+02  0.15048085638E+02 -0.83431515656E+02  0.10035182305E+03  0.00000000000E+00 0. -1.
          1    1    1    2  502    0 -0.11925636726E+02  0.24054834803E+02  0.16426310534E+04  0.16428504598E+04  0.00000000000E+00 0. -1.
         22    1    3    3    0    0  0.14445586902E+02  0.42996802746E+02  0.10095397331E+02  0.46468452466E+02  0.00000000000E+00 0.  1.
         22    1    3    3    0    0  0.51175726592E+02 -0.82099723186E+02 -0.30520158623E+02  0.10144357851E+03  0.00000000000E+00 0.  1.
</event>
<event>
 7    1  0.6607887E-006  0.6026205E+02  0.7818608E-02  0.1427440E+00
          2   -1    0    0  502    0  0.00000000000E+00  0.00000000000E+00  0.29606112201E+04  0.29606112201E+04  0.00000000000E+00 0. -1.
          1   -1    0    0  501    0 -0.00000000000E+00 -0.00000000000E+00 -0.25876283074E+03  0.25876283074E+03  0.00000000000E+00 0. -1.
         25    2    1    2    0    0 -0.47536145072E+02 -0.52899123999E+02  0.51116303238E+03  0.53100767267E+03  0.12499400126E+03 0.  0.
          2    1    1    2  501    0  0.46845119830E+02 -0.75919200775E+01 -0.24619911082E+03  0.25073114021E+03  0.00000000000E+00 0. -1.
          1    1    1    2  502    0  0.69102524162E+00  0.60491044076E+02  0.24368844678E+04  0.24376352380E+04  0.00000000000E+00 0. -1.
         22    1    3    3    0    0  0.27189126181E+02  0.17053550704E+01  0.28020988344E+02  0.39081102929E+02  0.00000000000E+00 0.  1.
         22    1    3    3    0    0 -0.74725271253E+02 -0.54604479069E+02  0.48314204404E+03  0.49192656974E+03  0.00000000000E+00 0.  1.
</event>
<event>
 7    1  0.6607887E-006  0.5774005E+02  0.7818608E-02  0.1466000E+00
          2   -1    0    0  502    0  0.00000000000E+00  0.00000000000E+00  0.71663681416E+02  0.71663681416E+02  0.00000000000E+00 0. -1.
          1   -1    0    0  501    0 -0.00000000000E+00 -0.00000000000E+00 -0.11195703313E+04  0.11195703313E+04  0.00000000000E+00 0. -1.
         25    2    1    2    0    0 -0.63075018471E+02  0.17976157529E+01 -0.69342170544E+03  0.70741693010E+03  0.12499344802E+03 0.  0.
          2    1    1    2  501    0  0.15045957997E+02 -0.34053909992E+02 -0.40518399802E+03  0.40689079848E+03  0.00000000000E+00 0. -1.
          1    1    1    2  502    0  0.48029060474E+02  0.32256294239E+02  0.50699053529E+02  0.76926284174E+02  0.00000000000E+00 0. -1.
         22    1    3    3    0    0 -0.61437835502E+02 -0.49589276583E+02 -0.53673155043E+03  0.54250756788E+03  0.00000000000E+00 0.  1.
         22    1    3    3    0    0 -0.16371829687E+01  0.51386892335E+02 -0.15669015500E+03  0.16490936222E+03  0.00000000000E+00 0.  1.
</event>
<event>
 7    1  0.6607887E-006  0.4841747E+02  0.7818608E-02  0.1503456E+00
          2   -1    0    0  502    0  0.00000000000E+00  0.00000000000E+00  0.79227380699E+03  0.79227380699E+03  0.00000000000E+00 0. -1.
          1   -1    0    0  501    0 -0.00000000000E+00 -0.00000000000E+00 -0.14210929199E+03  0.14210929199E+03  0.00000000000E+00 0. -1.
         25    2    1    2    0    0  0.48166060116E+02  0.14020505331E+02  0.28369954041E+03  0.31404919667E+03  0.12499969911E+03 0.  0.
          2    1    1    2  501    0 -0.26711878220E+02 -0.40570408352E+02 -0.12166946859E+03  0.13100741223E+03  0.00000000000E+00 0. -1.
          1    1    1    2  502    0 -0.21454181896E+02  0.26549903021E+02  0.48813444318E+03  0.48932649008E+03  0.00000000000E+00 0. -1.
         22    1    3    3    0    0  0.71638868158E+02  0.29089869532E+02  0.27370889656E+03  0.28442030166E+03  0.00000000000E+00 0. -1.
         22    1    3    3    0    0 -0.23472808042E+02 -0.15069364201E+02  0.99906438576E+01  0.29628895009E+02  0.00000000000E+00 0. -1.
</event>
<event>
 7    1  0.6607887E-006  0.4020232E+02  0.7818608E-02  0.1550092E+00
          2   -1    0    0  502    0  0.00000000000E+00  0.00000000000E+00  0.23611669677E+03  0.23611669677E+03  0.00000000000E+00 0. -1.
          1   -1    0    0  501    0 -0.00000000000E+00 -0.00000000000E+00 -0.50562333429E+03  0.50562333429E+03  0.00000000000E+00 0. -1.
         25    2    1    2    0    0  0.31813392060E+02  0.60798123702E+02 -0.59676852782E+02  0.15457938983E+03  0.12499982897E+03 0.  0.
          2    1    1    2  501    0 -0.79510652326E+01 -0.29113843387E+02 -0.39582962902E+03  0.39697850133E+03  0.00000000000E+00 0. -1.
          1    1    1    2  502    0 -0.23862326827E+02 -0.31684280315E+02  0.18599984429E+03  0.19018213990E+03  0.00000000000E+00 0. -1.
         22    1    3    3    0    0  0.49531215649E+02 -0.16100301958E+02 -0.54670184228E+02  0.75507549890E+02  0.00000000000E+00 0. -1.
         22    1    3    3    0    0 -0.17717823589E+02  0.76898425660E+02 -0.50066685541E+01  0.79071839942E+02  0.00000000000E+00 0. -1.
</event>
<event>
 7    1  0.6607887E-006  0.1047159E+03  0.7818608E-02  0.1387303E+00
          2   -1    0    0  502    0  0.00000000000E+00  0.00000000000E+00  0.34913184173E+03  0.34913184173E+03  0.00000000000E+00 0. -1.
          1   -1    0    0  501    0 -0.00000000000E+00 -0.00000000000E+00 -0.30718465900E+03  0.30718465900E+03  0.00000000000E+00 0. -1.
         25    2    1    2    0    0  0.65123718227E+02  0.83293676059E+02 -0.41823410163E+02  0.16897534722E+03  0.12499814072E+03 0.  0.
          2    1    1    2  501    0 -0.32028759502E+02 -0.10071836405E+03 -0.18656989589E+03  0.21442564292E+03  0.00000000000E+00 0. -1.
          1    1    1    2  502    0 -0.33094958725E+02  0.17424687989E+02  0.27034048878E+03  0.27291551059E+03  0.00000000000E+00 0. -1.
         22    1    3    3    0    0  0.25362196434E+02 -0.30440258814E+02 -0.26157909515E+02  0.47477221852E+02  0.00000000000E+00 0.  1.
         22    1    3    3    0    0  0.39761521792E+02  0.11373393487E+03 -0.15665500648E+02  0.12149812537E+03  0.00000000000E+00 0.  1.
</event>
<event>
 7    1  0.6607887E-006  0.5562025E+02  0.7818608E-02  0.1507725E+00
          2   -1    0    0  502    0  0.00000000000E+00  0.00000000000E+00  0.15829553181E+04  0.15829553181E+04  0.00000000000E+00 0. -1.
          1   -1    0    0  501    0 -0.00000000000E+00 -0.00000000000E+00 -0.34828443146E+02  0.34828443146E+02  0.00000000000E+00 0. -1.
         25    2    1    2    0    0  0.47637749403E+02 -0.50035938698E+02  0.61537773801E+03  0.63173362498E+03  0.12499864867E+03 0.  0.
          2    1    1    2  501    0  0.28638644278E+01  0.28719303162E+02 -0.17808174521E+02  0.33913583906E+02  0.00000000000E+00 0. -1.
          1    1    1    2  502    0 -0.50501613831E+02  0.21316635536E+02  0.95055731146E+03  0.95213655235E+03  0.00000000000E+00 0. -1.
         22    1    3    3    0    0  0.12654503931E+02 -0.62016642227E+02  0.56856852792E+03  0.57208073846E+03  0.00000000000E+00 0.  1.
         22    1    3    3    0    0  0.34983245472E+02  0.11980703529E+02  0.46809210090E+02  0.59652886519E+02  0.00000000000E+00 0.  1.
</event>
<event>
 7    1  0.6607887E-006  0.8023552E+02  0.7818608E-02  0.1441894E+00
          2   -1    0    0  502    0  0.00000000000E+00  0.00000000000E+00  0.24314241757E+04  0.24314241757E+04  0.00000000000E+00 0. -1.
          1   -1    0    0  501    0 -0.00000000000E+00 -0.00000000000E+00 -0.78539473131E+02  0.78539473131E+02  0.00000000000E+00 0. -1.
         25    2    1    2    0    0  0.10166679280E+03  0.43239250104E+02  0.15222421979E+04  0.15313563144E+04  0.12500033187E+03 0.  0.
          2    1    1    2  501    0 -0.70107517916E+02 -0.38148319123E+02 -0.52081980802E+02  0.95304202660E+02  0.00000000000E+00 0. -1.
          1    1    1    2  502    0 -0.31559274880E+02 -0.50909309812E+01  0.88272448544E+03  0.88330313178E+03  0.00000000000E+00 0. -1.
         22    1    3    3    0    0  0.72393174358E+02  0.35328817748E+02  0.36788675423E+03  0.37660265665E+03  0.00000000000E+00 0.  1.
         22    1    3    3    0    0  0.29273618438E+02  0.79104323563E+01  0.11543554437E+04  0.11547536577E+04  0.00000000000E+00 0.  1.
</event>
<event>
 7    1  0.6607887E-006  0.1572441E+03  0.7818608E-02  0.1197500E+00
          2   -1    0    0  502    0  0.00000000000E+00  0.00000000000E+00  0.22573276787E+04  0.22573276787E+04  0.00000000000E+00 0. -1.
          1   -1    0    0  501    0 -0.00000000000E+00 -0.00000000000E+00 -0.54431503142E+02  0.54431503142E+02  0.00000000000E+00 0. -1.
         25    2    1    2    0    0 -0.35253385921E+01 -0.61858798083E+02  0.27343253864E+03  0.30696827620E+03  0.12500092198E+03 0.  0.
          2    1    1    2  501    0 -0.15625214730E+03 -0.17634245766E+02  0.15303467798E+03  0.21942040203E+03  0.00000000000E+00 0. -1.
          1    1    1    2  502    0  0.15977748589E+03  0.79493043849E+02  0.17764289589E+04  0.17853705036E+04  0.00000000000E+00 0. -1.
         22    1    3    3    0    0 -0.18613824069E+02  0.22351289733E+02  0.17124057686E+03  0.17369337858E+03  0.00000000000E+00 0. -1.
         22    1    3    3    0    0  0.15088485477E+02 -0.84210087817E+02  0.10219196178E+03  0.13327489762E+03  0.00000000000E+00 0. -1.
</event>
<event>
 7    1  0.6607887E-006  0.6222292E+02  0.7818608E-02  0.1412315E+00
          2   -1    0    0  502    0  0.00000000000E+00  0.00000000000E+00  0.41264687838E+03  0.41264687838E+03  0.00000000000E+00 0. -1.
          1   -1    0    0  501    0 -0.00000000000E+00 -0.00000000000E+00 -0.39303515667E+03  0.39303515667E+03  0.00000000000E+00 0. -1.
         25    2    1    2    0    0 -0.55242409241E+02  0.28523539762E+02  0.67642150547E+02  0.15513122462E+03  0.12499968089E+03 0.  0.
          2    1    1    2  501    0  0.39498272502E+02  0.33252412773E+02 -0.34396952935E+03  0.34782304928E+03  0.00000000000E+00 0. -1.
          1    1    1    2  502    0  0.15744136739E+02 -0.61775952535E+02  0.29593910052E+03  0.30272776115E+03  0.00000000000E+00 0. -1.
         22    1    3    3    0    0 -0.20110243748E+02  0.73569268500E+02  0.15586109435E+02  0.77844627166E+02  0.00000000000E+00 0. -1.
         22    1    3    3    0    0 -0.35132165493E+02 -0.45045728738E+02  0.52056041113E+02  0.77286597454E+02  0.00000000000E+00 0. -1.
</event>
<event>
 7    1  0.6607887E-006  0.1061940E+03  0.7818608E-02  0.1353900E+00
          2   -1    0    0  502    0  0.00000000000E+00  0.00000000000E+00  0.23582032797E+03  0.23582032797E+03  0.00000000000E+00 0. -1.
          1   -1    0    0  501    0 -0.00000000000E+00 -0.00000000000E+00 -0.90705518484E+03  0.90705518484E+03  0.00000000000E+00 0. -1.
         25    2    1    2    0    0  0.91408460518E+02 -0.71453958428E+02 -0.17340928524E+03  0.24322319867E+03  0.12500227732E+03 0.  0.
          2    1    1    2  501    0  0.11970183634E+02  0.47121891488E+02 -0.68378035689E+03  0.68550662610E+03  0.00000000000E+00 0. -1.
          1    1    1    2  502    0 -0.10337864415E+03  0.24332066940E+02  0.18595478526E+03  0.21414568805E+03  0.00000000000E+00 0. -1.
         22    1    3    3    0    0  0.77076996727E+02 -0.56383958559E+02 -0.32634959624E+02  0.10092103248E+03  0.00000000000E+00 0.  1.
         22    1    3    3    0    0  0.14331463791E+02 -0.15069999869E+02 -0.14077432562E+03  0.14230216619E+03  0.00000000000E+00 0.  1.
</event>
<event>
 7    1  0.6607887E-006  0.6986682E+02  0.7818608E-02  0.1422443E+00
          2   -1    0    0  502    0  0.00000000000E+00  0.00000000000E+00  0.80350755678E+03  0.80350755678E+03  0.00000000000E+00 0. -1.
          1   -1    0    0  501    0 -0.00000000000E+00 -0.00000000000E+00 -0.11672750842E+03  0.11672750842E+03  0.00000000000E+00 0. -1.
         25    2    1    2    0    0 -0.54997813332E+02  0.92971826342E+02  0.29914461145E+03  0.34173375425E+03  0.12500376104E+03 0.  0.
          2    1    1    2  501    0  0.25103358979E+02 -0.34324136758E+02 -0.88315284563E+02  0.98019969821E+02  0.00000000000E+00 0. -1.
          1    1    1    2  502    0  0.29894454353E+02 -0.58647689584E+02  0.47595072147E+03  0.48048134112E+03  0.00000000000E+00 0. -1.
         22    1    3    3    0    0  0.18806297867E+01  0.85597165433E+02  0.87358789707E+02  0.12231913030E+03  0.00000000000E+00 0.  1.
         22    1    3    3    0    0 -0.56878443119E+02  0.73746609095E+01  0.21178582174E+03  0.21941462395E+03  0.00000000000E+00 0.  1.
</event>
<event>
 7    1  0.6607887E-006  0.1402313E+03  0.7818608E-02  0.1402675E+00
          2   -1    0    0  502    0  0.00000000000E+00  0.00000000000E+00  0.25920687937E+04  0.25920687937E+04  0.00000000000E+00 0. -1.
          1   -1    0    0  501    0 -0.00000000000E+00 -0.00000000000E+00 -0.54407981803E+03  0.54407981803E+03  0.00000000000E+00 0. -1.
         25    2    1    2    0    0  0.10989941442E+03 -0.49702040796E+02  0.82575312229E+03  0.84382557026E+03  0.12500079965E+03 0.  0.
          2    1    1    2  501    0 -0.13369479690E+03  0.43054556016E+02 -0.52573685425E+03  0.54417573763E+03  0.00000000000E+00 0. -1.
          1    1    1    2  502    0  0.23795382474E+02  0.66474847803E+01  0.17479727076E+04  0.17481473038E+04  0.00000000000E+00 0. -1.
         22    1    3    3    0    0 -0.15184397164E+02  0.42660303601E+00  0.13049771960E+02  0.20026094367E+02  0.00000000000E+00 0. -1.
         22    1    3    3    0    0  0.12508381159E+03 -0.50128643832E+02  0.81270335033E+03  0.82379947590E+03  0.00000000000E+00 0. -1.
</event>
<event>
 7    1  0.6607887E-006  0.1074615E+03  0.7818608E-02  0.1381595E+00
          2   -1    0    0  502    0  0.00000000000E+00  0.00000000000E+00  0.27730377016E+04  0.27730377016E+04  0.00000000000E+00 0. -1.
          1   -1    0    0  501    0 -0.00000000000E+00 -0.00000000000E+00 -0.80490033325E+02  0.80490033325E+02  0.00000000000E+00 0. -1.
         25    2    1    2    0    0  0.29736609243E+02 -0.13987640121E+03  0.15277764160E+04  0.15395375078E+04  0.12500114829E+03 0.  0.
          2    1    1    2  501    0 -0.31733125372E+02  0.10175730259E+03 -0.36080830701E+02  0.11253162321E+03  0.00000000000E+00 0. -1.
          1    1    1    2  502    0  0.19965161289E+01  0.38119098621E+02  0.12008520829E+04  0.12014586039E+04  0.00000000000E+00 0. -1.
         22    1    3    3    0    0 -0.70415080267E+00 -0.35063008901E+02  0.99894994763E+03  0.99956535969E+03  0.00000000000E+00 0.  1.
         22    1    3    3    0    0  0.30440760046E+02 -0.10481339231E+03  0.52882646839E+03  0.53997214812E+03  0.00000000000E+00 0.  1.
</event>
<event>
 7    1  0.6607887E-006  0.5018079E+02  0.7818608E-02  0.1468451E+00
          2   -1    0    0  502    0  0.00000000000E+00  0.00000000000E+00  0.18794638300E+04  0.18794638300E+04  0.00000000000E+00 0. -1.
          1   -1    0    0  501    0 -0.00000000000E+00 -0.00000000000E+00 -0.41807128088E+03  0.41807128088E+03  0.00000000000E+00 0. -1.
         25    2    1    2    0    0 -0.17991934693E+02  0.86840309110E+02  0.91079484230E+02  0.17828449447E+03  0.12499975808E+03 0.  0.
          2    1    1    2  501    0  0.20070088212E+02 -0.36996396277E+02 -0.37292810550E+03  0.37529576822E+03  0.00000000000E+00 0. -1.
          1    1    1    2  502    0 -0.20781535198E+01 -0.49843912833E+02  0.17432411704E+04  0.17439548482E+04  0.00000000000E+00 0. -1.
         22    1    3    3    0    0 -0.69347983553E+02  0.70971097186E+02  0.53838477587E+02  0.11289207735E+03  0.00000000000E+00 0.  1.
         22    1    3    3    0    0  0.51356048861E+02  0.15869211923E+02  0.37241006643E+02  0.65392417125E+02  0.00000000000E+00 0.  1.
</event>
<event>
 7    1  0.6607887E-006  0.6153351E+02  0.7818608E-02  0.1446913E+00
          2   -1    0    0  502    0  0.00000000000E+00  0.00000000000E+00  0.25138440180E+04  0.25138440180E+04  0.00000000000E+00 0. -1.
          1   -1    0    0  501    0 -0.00000000000E+00 -0.00000000000E+00 -0.99524350592E+01  0.99524350592E+01  0.00000000000E+00 0. -1.
         25    2    1    2    0    0 -0.54585613996E+02 -0.10506076612E+02  0.88603786848E+03  0.89653734432E+03  0.12500455388E+03 0.  0.
          2    1    1    2  501    0  0.13219192126E+02 -0.37920031323E+02  0.95838601750E+02  0.10391204647E+03  0.00000000000E+00 0. -1.
          1    1    1    2  502    0  0.41366421869E+02  0.48426107935E+02  0.15220151127E+04  0.15233470622E+04  0.00000000000E+00 0. -1.
         22    1    3    3    0    0 -0.39971248946E+02 -0.63505280662E+02  0.64273703602E+03  0.64710240216E+03  0.00000000000E+00 0. -1.
         22    1    3    3    0    0 -0.14614365050E+02  0.52999204051E+02  0.24330083246E+03  0.24943494216E+03  0.00000000000E+00 0. -1.
</event>
<event>
 7    1  0.6607887E-006  0.8022458E+02  0.7818608E-02  0.1403741E+00
          2   -1    0    0  502    0  0.00000000000E+00  0.00000000000E+00  0.14950422259E+03  0.14950422259E+03  0.00000000000E+00 0. -1.
          1   -1    0    0  501    0 -0.00000000000E+00 -0.00000000000E+00 -0.94928554757E+03  0.94928554757E+03  0.00000000000E+00 0. -1.
         25    2    1    2    0    0 -0.31162542077E+02 -0.26907961961E+02 -0.59207737993E+02  0.14430843572E+03  0.12499690370E+03 0.  0.
          2    1    1    2  501    0  0.72240319126E+02  0.39016608567E+02 -0.84116019930E+03  0.84515764230E+03  0.00000000000E+00 0. -1.
          1    1    1    2  502    0 -0.41077777049E+02 -0.12108646606E+02  0.10058661231E+03  0.10932369215E+03  0.00000000000E+00 0. -1.
         22    1    3    3    0    0  0.42751513190E+02  0.16128365372E+02 -0.25892330155E+02  0.52518842432E+02  0.00000000000E+00 0.  1.
         22    1    3    3    0    0 -0.73914055267E+02 -0.43036327333E+02 -0.33315407839E+02  0.91789593287E+02  0.00000000000E+00 0.  1.
</event>
