<event>
 7    1  0.6017574E-006  0.1320185E+03  0.7818608E-02  0.1243834E+00
          2   -1    0    0  502    0  0.00000000000E+00  0.00000000000E+00  0.12986648235E+04  0.12986648235E+04  0.00000000000E+00 0. -1.
          1   -1    0    0  501    0 -0.00000000000E+00 -0.00000000000E+00 -0.28686897412E+04  0.28686897412E+04  0.00000000000E+00 0. -1.
         25    2    1    2    0    0  0.17330318015E+03 -0.12437658619E+03  0.13835876078E+03  0.28332259541E+03  0.12500007576E+03 0.  0.
          2    1    1    2  501    0 -0.12905233151E+03  0.25565776225E+02 -0.27919611813E+04  0.27950590962E+04  0.00000000000E+00 0. -1.
          1    1    1    2  502    0 -0.44250848644E+02  0.98810809968E+02  0.10835775028E+04  0.10889728731E+04  0.00000000000E+00 0. -1.
         22    1    3    3    0    0 -0.91849563218E+01 -0.15561583554E+02  0.50088133694E+02  0.53247980640E+02  0.00000000000E+00 0. -1.
         22    1    3    3    0    0  0.18248813647E+03 -0.10881500264E+03  0.88270627086E+02  0.23007461477E+03  0.00000000000E+00 0. -1.
</event>
<event>
 7    1  0.6017574E-006  0.9839619E+02  0.7818608E-02  0.1324335E+00
          2   -1    0    0  502    0  0.00000000000E+00  0.00000000000E+00  0.40339059573E+04  0.40339059573E+04  0.00000000000E+00 0. -1.
          1   -1    0    0  501    0 -0.00000000000E+00 -0.00000000000E+00 -0.76708641987E+03  0.76708641987E+03  0.00000000000E+00 0. -1.
         25    2    1    2    0    0 -0.16377152865E+03 -0.21460432541E+02  0.16500216976E+03  0.26481934918E+03  0.12498763105E+03 0.  0.
          2    1    1    2  501    0  0.96657169142E+02  0.11752227226E+02 -0.71357027471E+03  0.72018279633E+03  0.00000000000E+00 0. -1.
          1    1    1    2  502    0  0.67114359505E+02  0.97082053146E+01  0.38153876424E+04  0.38159902317E+04  0.00000000000E+00 0. -1.
         22    1    3    3    0    0 -0.98927624594E+02  0.43121018077E+02  0.53142451861E+02  0.12029221628E+03  0.00000000000E+00 0. -1.
         22    1    3    3    0    0 -0.64843904053E+02 -0.64581450618E+02  0.11185971789E+03  0.14452713290E+03  0.00000000000E+00 0. -1.
</event>
<event>
 7    1  0.6017574E-006  0.4167961E+02  0.7818608E-02  0.1587646E+00
          2   -1    0    0  502    0  0.00000000000E+00  0.00000000000E+00  0.14543966391E+03  0.14543966391E+03  0.00000000000E+00 0. -1.
          1   -1    0    0  501    0 -0.00000000000E+00 -0.00000000000E+00 -0.27226094687E+03  0.27226094687E+03  0.00000000000E+00 0. -1.
         25    2    1    2    0    0 -0.18712888114E+02  0.60878800509E+02 -0.12900535450E+03  0.19057391017E+03  0.12497853101E+03 0.  0.
          2    1    1    2  501    0  0.30487476305E+01 -0.22803911940E+02 -0.10751869737E+03  0.10995264229E+03  0.00000000000E+00 0. -1.
          1    1    1    2  502    0  0.15664140484E+02 -0.38074888568E+02  0.10970276891E+03  0.11717405832E+03  0.00000000000E+00 0. -1.
         22    1    3    3    0    0 -0.67273548545E+02  0.55919437212E+02 -0.60119436622E+02  0.10614641045E+03  0.00000000000E+00 0. -1.
         22    1    3    3    0    0  0.48560660430E+02  0.49593632963E+01 -0.68885917880E+02  0.84427499714E+02  0.00000000000E+00 0. -1.
</event>
<event>
 7    1  0.6017574E-006  0.9548003E+02  0.7818608E-02  0.1400418E+00
          2   -1    0    0  502    0  0.00000000000E+00  0.00000000000E+00  0.92413159610E+03  0.92413159610E+03  0.00000000000E+00 0. -1.
          1   -1    0    0  501    0 -0.00000000000E+00 -0.00000000000E+00 -0.12594633594E+04  0.12594633594E+04  0.00000000000E+00 0. -1.
         25    2    1    2    0    0  0.64579691531E+02  0.13537572013E+02  0.16751179829E+03  0.21917733513E+03  0.12499879701E+03 0.  0.
          2    1    1    2  501    0  0.34904592947E+02 -0.12089856782E+02 -0.12299655315E+04  0.12305200949E+04  0.00000000000E+00 0. -1.
          1    1    1    2  502    0 -0.99484284479E+02 -0.14477152307E+01  0.72712196993E+03  0.73389752547E+03  0.00000000000E+00 0. -1.
         22    1    3    3    0    0  0.18675326535E+02 -0.25625936515E+01  0.16944762276E+03  0.17049290767E+03  0.00000000000E+00 0. -1.
         22    1    3    3    0    0  0.45904364996E+02  0.16100165664E+02 -0.19358244724E+01  0.48684427454E+02  0.00000000000E+00 0. -1.
</event>
<event>
 7    1  0.6017574E-006  0.3494291E+02  0.7818608E-02  0.1573347E+00
          2   -1    0    0  502    0  0.00000000000E+00  0.00000000000E+00  0.15593461843E+02  0.15593461843E+02  0.00000000000E+00 0. -1.
          1   -1    0    0  501    0 -0.00000000000E+00 -0.00000000000E+00 -0.14953600828E+04  0.14953600828E+04  0.00000000000E+00 0. -1.
         25    2    1    2    0    0 -0.23404941227E+01  0.38270451472E+02 -0.57785100317E+03  0.59246704283E+03  0.12504123165E+03 0.  0.
          2    1    1    2  501    0  0.27095843679E+02 -0.12815425950E+02 -0.87067885051E+03  0.87119462843E+03  0.00000000000E+00 0. -1.
          1    1    1    2  502    0 -0.24755349556E+02 -0.25455025522E+02 -0.31236767236E+02  0.47291873332E+02  0.00000000000E+00 0. -1.
         22    1    3    3    0    0 -0.44192857002E+02  0.63494293864E+02 -0.27398096270E+03  0.28469299585E+03  0.00000000000E+00 0. -1.
         22    1    3    3    0    0  0.41852362880E+02 -0.25223842392E+02 -0.30387004047E+03  0.30777404699E+03  0.00000000000E+00 0. -1.
</event>
<event>
 7    1  0.6017574E-006  0.1016248E+03  0.7818608E-02  0.1293249E+00
          2   -1    0    0  502    0  0.00000000000E+00  0.00000000000E+00  0.26935658784E+03  0.26935658784E+03  0.00000000000E+00 0. -1.
          1   -1    0    0  501    0 -0.00000000000E+00 -0.00000000000E+00 -0.13681287466E+04  0.13681287466E+04  0.00000000000E+00 0. -1.
         25    2    1    2    0    0 -0.10062312891E+03 -0.17064120994E+01 -0.44129927531E+03  0.46956496102E+03  0.12497310236E+03 0.  0.
          2    1    1    2  501    0  0.69822757003E+02  0.83184875332E+02 -0.90191076506E+03  0.90842609441E+03  0.00000000000E+00 0. -1.
          1    1    1    2  502    0  0.30800371905E+02 -0.81478463233E+02  0.24443788160E+03  0.25949427902E+03  0.00000000000E+00 0. -1.
         22    1    3    3    0    0 -0.38424322597E+02  0.65981029572E+01 -0.37948257380E+03  0.38147999600E+03  0.00000000000E+00 0. -1.
         22    1    3    3    0    0 -0.62198806311E+02 -0.83045150566E+01 -0.61816701506E+02  0.88084965017E+02  0.00000000000E+00 0. -1.
</event>
<event>
 7    1  0.6017574E-006  0.8098210E+02  0.7818608E-02  0.1429781E+00
          2   -1    0    0  502    0  0.00000000000E+00  0.00000000000E+00  0.72197116326E+01  0.72197116326E+01  0.00000000000E+00 0. -1.
          1   -1    0    0  501    0 -0.00000000000E+00 -0.00000000000E+00 -0.29562343655E+04  0.29562343655E+04  0.00000000000E+00 0. -1.
         25    2    1    2    0    0 -0.94617410298E+01 -0.96570355152E+02 -0.17027747765E+04  0.17101118202E+04  0.12500055988E+03 0.  0.
          2    1    1    2  501    0 -0.17321201384E+02  0.74520544335E+02 -0.11141148150E+04  0.11167386250E+04  0.00000000000E+00 0. -1.
          1    1    1    2  502    0  0.26782942414E+02  0.22049810817E+02 -0.13212506236E+03  0.13660363196E+03  0.00000000000E+00 0. -1.
         22    1    3    3    0    0  0.31046777521E+02  0.15924344311E+02 -0.56372608943E+03  0.56480491414E+03  0.00000000000E+00 0.  1.
         22    1    3    3    0    0 -0.40508518551E+02 -0.11249469946E+03 -0.11390486871E+04  0.11453069060E+04  0.00000000000E+00 0.  1.
</event>
<event>
 7    1  0.6017574E-006  0.9026857E+02  0.7818608E-02  0.1325174E+00
          2   -1    0    0  502    0  0.00000000000E+00  0.00000000000E+00  0.27419072434E+04  0.27419072434E+04  0.00000000000E+00 0. -1.
          1   -1    0    0  501    0 -0.00000000000E+00 -0.00000000000E+00 -0.37920417857E+03  0.37920417857E+03  0.00000000000E+00 0. -1.
         25    2    1    2    0    0  0.57524930063E+02 -0.11602646493E+03  0.32057635357E+03  0.36764777416E+03  0.12499771693E+03 0.  0.
          2    1    1    2  501    0  0.19733998197E+02  0.70666729259E+02 -0.35103747401E+03  0.35862309668E+03  0.00000000000E+00 0. -1.
          1    1    1    2  502    0 -0.77258928259E+02  0.45359735674E+02  0.23931641853E+04  0.23948405511E+04  0.00000000000E+00 0. -1.
         22    1    3    3    0    0  0.85898884360E+02 -0.87883521734E+02  0.29658151491E+03  0.32103384044E+03  0.00000000000E+00 0. -1.
         22    1    3    3    0    0 -0.28373954298E+02 -0.28142943199E+02  0.23994838662E+02  0.46613933720E+02  0.00000000000E+00 0. -1.
</event>
<event>
 7    1  0.6017574E-006  0.5309776E+02  0.7818608E-02  0.1477656E+00
          2   -1    0    0  502    0  0.00000000000E+00  0.00000000000E+00  0.13098363052E+04  0.13098363052E+04  0.00000000000E+00 0. -1.
          1   -1    0    0  501    0 -0.00000000000E+00 -0.00000000000E+00 -0.19758201559E+03  0.19758201559E+03  0.00000000000E+00 0. -1.
         25    2    1    2    0    0 -0.24688441767E+02  0.45504981956E+02  0.54972659027E+02  0.14603811240E+03  0.12499965798E+03 0.  0.
          2    1    1    2  501    0  0.50431906949E+02 -0.18582502604E+02 -0.14700271231E+03  0.15651991588E+03  0.00000000000E+00 0. -1.
          1    1    1    2  502    0 -0.25743465182E+02 -0.26922479353E+02  0.12042843429E+04  0.12048602925E+04  0.00000000000E+00 0. -1.
         22    1    3    3    0    0 -0.47763365330E+02  0.72778672915E+02  0.65332142573E+02  0.10884099941E+03  0.00000000000E+00 0.  1.
         22    1    3    3    0    0  0.23074923562E+02 -0.27273690959E+02 -0.10359483546E+02  0.37197112996E+02  0.00000000000E+00 0.  1.
</event>
<event>
 7    1  0.6017574E-006  0.5848677E+02  0.7818608E-02  0.1461771E+00
          2   -1    0    0  502    0  0.00000000000E+00  0.00000000000E+00  0.47287205741E+03  0.47287205741E+03  0.00000000000E+00 0. -1.
          1   -1    0    0  501    0 -0.00000000000E+00 -0.00000000000E+00 -0.39497071093E+03  0.39497071093E+03  0.00000000000E+00 0. -1.
         25    2    1    2    0    0 -0.18593341084E+02 -0.58143999489E+02  0.12209595845E+03  0.18509051200E+03  0.12499855021E+03 0.  0.
          2    1    1    2  501    0 -0.29588110951E+02  0.23675819812E+02 -0.35972160444E+03  0.36171208641E+03  0.00000000000E+00 0. -1.
          1    1    1    2  502    0  0.48181452035E+02  0.34468179677E+02  0.31552699247E+03  0.32104016993E+03  0.00000000000E+00 0. -1.
         22    1    3    3    0    0  0.39082150389E+01 -0.89897206519E+02  0.49444654521E+02  0.10267207870E+03  0.00000000000E+00 0. -1.
         22    1    3    3    0    0 -0.22501556123E+02  0.31753207030E+02  0.72651303926E+02  0.82418433295E+02  0.00000000000E+00 0. -1.
</event>
<event>
 7    1  0.6017574E-006  0.7861879E+02  0.7818608E-02  0.1436677E+00
          2   -1    0    0  502    0  0.00000000000E+00  0.00000000000E+00  0.35120794352E+03  0.35120794352E+03  0.00000000000E+00 0. -1.
          1   -1    0    0  501    0 -0.00000000000E+00 -0.00000000000E+00 -0.14562609329E+03  0.14562609329E+03  0.00000000000E+00 0. -1.
         25    2    1    2    0    0  0.39819041473E+02 -0.30303478783E+02  0.57557397557E+02  0.14644003449E+03  0.12501189063E+03 0.  0.
          2    1    1    2  501    0  0.31591911844E+02 -0.12357743020E+02 -0.91101721102E+02  0.97212583004E+02  0.00000000000E+00 0. -1.
          1    1    1    2  502    0 -0.71410953317E+02  0.42661221803E+02  0.23912617377E+03  0.25318141931E+03  0.00000000000E+00 0. -1.
         22    1    3    3    0    0 -0.24587322938E+02 -0.38345612737E+02  0.66826910607E+02  0.80874955621E+02  0.00000000000E+00 0. -1.
         22    1    3    3    0    0  0.64406364411E+02  0.80421339546E+01 -0.92695130500E+01  0.65565078871E+02  0.00000000000E+00 0. -1.
</event>
<event>
 7    1  0.6017574E-006  0.5624202E+02  0.7818608E-02  0.1503798E+00
          2   -1    0    0  502    0  0.00000000000E+00  0.00000000000E+00  0.18711360676E+04  0.18711360676E+04  0.00000000000E+00 0. -1.
          1   -1    0    0  501    0 -0.00000000000E+00 -0.00000000000E+00 -0.25316125448E+03  0.25316125448E+03  0.00000000000E+00 0. -1.
         25    2    1    2    0    0  0.18686656616E+02  0.27686049564E+02  0.32891050941E+02  0.13349853585E+03  0.12499731744E+03 0.  0.
          2    1    1    2  501    0 -0.47667380681E+02 -0.32114810257E+02 -0.19866338214E+03  0.20681073381E+03  0.00000000000E+00 0. -1.
          1    1    1    2  502    0  0.28980724065E+02  0.44287606937E+01  0.17837471443E+04  0.17839880524E+04  0.00000000000E+00 0. -1.
         22    1    3    3    0    0 -0.24579614040E+02 -0.35953872859E+02  0.35964490282E+02  0.56482589895E+02  0.00000000000E+00 0. -1.
         22    1    3    3    0    0  0.43266270657E+02  0.63639922423E+02 -0.30734393408E+01  0.77015945959E+02  0.00000000000E+00 0. -1.
</event>
<event>
 7    1  0.6017574E-006  0.1089359E+03  0.7818608E-02  0.1438941E+00
          2   -1    0    0  502    0  0.00000000000E+00  0.00000000000E+00  0.24336075253E+03  0.24336075253E+03  0.00000000000E+00 0. -1.
          1   -1    0    0  501    0 -0.00000000000E+00 -0.00000000000E+00 -0.21749235800E+03  0.21749235800E+03  0.00000000000E+00 0. -1.
         25    2    1    2    0    0 -0.89119959551E+02  0.69483878680E+02 -0.97984524057E+02  0.19493069025E+03  0.12500652167E+03 0.  0.
          2    1    1    2  501    0 -0.88959545091E+01 -0.22365843506E+02 -0.53055180023E+02  0.58259944127E+02  0.00000000000E+00 0. -1.
          1    1    1    2  502    0  0.98015914060E+02 -0.47118035174E+02  0.17690809861E+03  0.20766247615E+03  0.00000000000E+00 0. -1.
         22    1    3    3    0    0 -0.97652365643E+02  0.63599853973E+02 -0.12203569515E+03  0.16874133113E+03  0.00000000000E+00 0. -1.
         22    1    3    3    0    0  0.85324060919E+01  0.58840247070E+01  0.24051171091E+02  0.26189359124E+02  0.00000000000E+00 0. -1.
</event>
<event>
 7    1  0.6017574E-006  0.1155450E+03  0.7818608E-02  0.1418202E+00
          2   -1    0    0  502    0  0.00000000000E+00  0.00000000000E+00  0.56860207376E+03  0.56860207376E+03  0.00000000000E+00 0. -1.
          1   -1    0    0  501    0 -0.00000000000E+00 -0.00000000000E+00 -0.11305397647E+04  0.11305397647E+04  0.00000000000E+00 0. -1.
         25    2    1    2    0    0  0.10945794775E+03 -0.12732592971E+02 -0.19839484257E+03  0.25909205232E+03  0.12500006707E+03 0.  0.
          2    1    1    2  501    0 -0.10970007131E+03  0.39297010141E+02 -0.89770059025E+03  0.90523185450E+03  0.00000000000E+00 0. -1.
          1    1    1    2  502    0  0.24212355293E+00 -0.26564417170E+02  0.53415774185E+03  0.53481793169E+03  0.00000000000E+00 0. -1.
         22    1    3    3    0    0  0.46274326286E+02  0.52944577408E+02 -0.55374672059E+02  0.89503049422E+02  0.00000000000E+00 0.  1.
         22    1    3    3    0    0  0.63183621467E+02 -0.65677170379E+02 -0.14302017051E+03  0.16958900290E+03  0.00000000000E+00 0.  1.
</event>
<event>
 7    1  0.6017574E-006  0.1869265E+03  0.7818608E-02  0.1210200E+00
          2   -1    0    0  502    0  0.00000000000E+00  0.00000000000E+00  0.90244295154E+03  0.90244295154E+03  0.00000000000E+00 0. -1.
          1   -1    0    0  501    0 -0.00000000000E+00 -0.00000000000E+00 -0.10854168703E+04  0.10854168703E+04  0.00000000000E+00 0. -1.
         25    2    1    2    0    0 -0.46126367982E+02  0.15875799043E+03 -0.10552281370E+03  0.23258861969E+03  0.12502263975E+03 0.  0.
          2    1    1    2  501    0  0.14910571871E+03 -0.12489099109E+03 -0.90245440160E+03  0.92317615978E+03  0.00000000000E+00 0. -1.
          1    1    1    2  502    0 -0.10297935073E+03 -0.33866999338E+02  0.82500329652E+03  0.83209504240E+03  0.00000000000E+00 0. -1.
         22    1    3    3    0    0 -0.14336737079E+02  0.15625148217E+03 -0.43463998730E+02  0.16281642085E+03  0.00000000000E+00 0.  1.
         22    1    3    3    0    0 -0.31789630903E+02  0.25065082563E+01 -0.62058814968E+02  0.69772198846E+02  0.00000000000E+00 0.  1.
</event>
<event>
 7    1  0.6017574E-006  0.2271836E+03  0.7818608E-02  0.1238455E+00
          2   -1    0    0  502    0  0.00000000000E+00  0.00000000000E+00  0.88575203323E+03  0.88575203323E+03  0.00000000000E+00 0. -1.
          1   -1    0    0  501    0 -0.00000000000E+00 -0.00000000000E+00 -0.31019076756E+04  0.31019076756E+04  0.00000000000E+00 0. -1.
         25    2    1    2    0    0 -0.67733659698E+02 -0.15368212858E+03  0.60756128926E+03  0.64262041425E+03  0.12499692516E+03 0.  0.
          2    1    1    2  501    0  0.12184886750E+03  0.19222947797E+03 -0.30758705112E+04  0.30842792870E+04  0.00000000000E+00 0. -1.
          1    1    1    2  502    0 -0.54115207798E+02 -0.38547349385E+02  0.25215357956E+03  0.26076000756E+03  0.00000000000E+00 0. -1.
         22    1    3    3    0    0 -0.93642628644E+02 -0.13238440837E+03  0.56831116908E+03  0.59099251973E+03  0.00000000000E+00 0. -1.
         22    1    3    3    0    0  0.25908968946E+02 -0.21297720215E+02  0.39250120188E+02  0.51627894524E+02  0.00000000000E+00 0. -1.
</event>
<event>
 7    1  0.6017574E-006  0.8999265E+02  0.7818608E-02  0.1440932E+00
          2   -1    0    0  502    0  0.00000000000E+00  0.00000000000E+00  0.10801917950E+04  0.10801917950E+04  0.00000000000E+00 0. -1.
          1   -1    0    0  501    0 -0.00000000000E+00 -0.00000000000E+00 -0.11073193427E+03  0.11073193427E+03  0.00000000000E+00 0. -1.
         25    2    1    2    0    0 -0.59740739832E+02 -0.21006702737E+02  0.54990731081E+02  0.15052995378E+03  0.12500019570E+03 0.  0.
          2    1    1    2  501    0 -0.23201092655E+02 -0.16904599012E+02 -0.57440923926E+02  0.64214608226E+02  0.00000000000E+00 0. -1.
          1    1    1    2  502    0  0.82941832487E+02  0.37911301749E+02  0.97191005358E+03  0.97617916728E+03  0.00000000000E+00 0. -1.
         22    1    3    3    0    0  0.11458804866E+02  0.36717848614E+02 -0.80324433248E+01  0.39294080491E+02  0.00000000000E+00 0. -1.
         22    1    3    3    0    0 -0.71199544698E+02 -0.57724551351E+02  0.63023174406E+02  0.11123587329E+03  0.00000000000E+00 0. -1.
</event>
<event>
 7    1  0.6017574E-006  0.5430239E+02  0.7818608E-02  0.1491017E+00
          2   -1    0    0  502    0  0.00000000000E+00  0.00000000000E+00  0.12058168957E+04  0.12058168957E+04  0.00000000000E+00 0. -1.
          1   -1    0    0  501    0 -0.00000000000E+00 -0.00000000000E+00 -0.26879674618E+02  0.26879674618E+02  0.00000000000E+00 0. -1.
         25    2    1    2    0    0  0.53780149221E+02 -0.43590429007E+02  0.55712315562E+03  0.57515471908E+03  0.12499724161E+03 0.  0.
          2    1    1    2  501    0 -0.21134086753E+02  0.49417283176E+02  0.24090055363E+02  0.58898627037E+02  0.00000000000E+00 0. -1.
          1    1    1    2  502    0 -0.32646062467E+02 -0.58268541695E+01  0.59772401007E+03  0.59864322417E+03  0.00000000000E+00 0. -1.
         22    1    3    3    0    0  0.14566019027E+02 -0.59884253163E+02  0.50100187627E+03  0.50477834018E+03  0.00000000000E+00 0. -1.
         22    1    3    3    0    0  0.39214130193E+02  0.16293824156E+02  0.56121279346E+02  0.70376378905E+02  0.00000000000E+00 0. -1.
</event>
<event>
 7    1  0.6017574E-006  0.4241282E+02  0.7818608E-02  0.1551262E+00
          2   -1    0    0  502    0  0.00000000000E+00  0.00000000000E+00  0.36440977614E+02  0.36440977614E+02  0.00000000000E+00 0. -1.
          1   -1    0    0  501    0 -0.00000000000E+00 -0.00000000000E+00 -0.15057979633E+04  0.15057979633E+04  0.00000000000E+00 0. -1.
         25    2    1    2    0    0 -0.40404976385E+02 -0.15801075511E+02 -0.62840795384E+03  0.64218656467E+03  0.12499916513E+03 0.  0.
          2    1    1    2  501    0  0.41136421357E+02 -0.12582728828E+02 -0.86301900428E+03  0.86409046516E+03  0.00000000000E+00 0. -1.
          1    1    1    2  502    0 -0.73144497192E+00  0.28383804339E+02  0.22069972482E+02  0.35961911042E+02  0.00000000000E+00 0. -1.
         22    1    3    3    0    0 -0.55051390240E+02 -0.30736329838E+02 -0.14246551543E+03  0.15579409689E+03  0.00000000000E+00 0. -1.
         22    1    3    3    0    0  0.14646413855E+02  0.14935254328E+02 -0.48594243841E+03  0.48639246778E+03  0.00000000000E+00 0. -1.
</event>
<event>
 7    1  0.6017574E-006  0.7394855E+02  0.7818608E-02  0.1352281E+00
          2   -1    0    0  502    0  0.00000000000E+00  0.00000000000E+00  0.24794551854E+04  0.24794551854E+04  0.00000000000E+00 0. -1.
          1   -1    0    0  501    0 -0.00000000000E+00 -0.00000000000E+00 -0.43358780188E+02  0.43358780188E+02  0.00000000000E+00 0. -1.
         25    2    1    2    0    0 -0.11583278630E+03 -0.64283645241E+02  0.22602697318E+03  0.29027010402E+03  0.12497567466E+03 0.  0.
          2    1    1    2  501    0  0.43319586615E+02  0.55981344957E+02  0.10752358822E+03  0.12873157962E+03  0.00000000000E+00 0. -1.
          1    1    1    2  502    0  0.72513199689E+02  0.83023002839E+01  0.21025458438E+04  0.21038122819E+04  0.00000000000E+00 0. -1.
         22    1    3    3    0    0  0.15085432984E+02 -0.43828377167E+02  0.84608909819E+02  0.96473646942E+02  0.00000000000E+00 0.  1.
         22    1    3    3    0    0 -0.13091821929E+03 -0.20455268074E+02  0.14141806336E+03  0.19379645708E+03  0.00000000000E+00 0.  1.
</event>
<event>
 7    1  0.6017574E-006  0.1113693E+03  0.7818608E-02  0.1403065E+00
          2   -1    0    0  502    0  0.00000000000E+00  0.00000000000E+00  0.36991755536E+03  0.36991755536E+03  0.00000000000E+00 0. -1.
          1   -1    0    0  501    0 -0.00000000000E+00 -0.00000000000E+00 -0.45240807053E+04  0.45240807053E+04  0.00000000000E+00 0. -1.
         25    2    1    2    0    0  0.82343390308E+02  0.70490380350E+02 -0.21129620427E+04  0.21194302036E+04  0.12500586523E+03 0.  0.
          2    1    1    2  501    0 -0.10336258345E+03 -0.47686080491E+02 -0.24058806775E+04  0.24085721123E+04  0.00000000000E+00 0. -1.
          1    1    1    2  502    0  0.21019193144E+02 -0.22804299859E+02  0.36467957028E+03  0.36599594472E+03  0.00000000000E+00 0. -1.
         22    1    3    3    0    0  0.34740775524E+02  0.10134962388E+03 -0.15147551705E+04  0.15185393951E+04  0.00000000000E+00 0. -1.
         22    1    3    3    0    0  0.47602614784E+02 -0.30859243530E+02 -0.59820687216E+03  0.60089080851E+03  0.00000000000E+00 0. -1.
</event>
<event>
 7    1  0.6017574E-006  0.1403274E+03  0.7818608E-02  0.1280005E+00
          2   -1    0    0  502    0  0.00000000000E+00  0.00000000000E+00  0.14289257387E+04  0.14289257387E+04  0.00000000000E+00 0. -1.
          1   -1    0    0  501    0 -0.00000000000E+00 -0.00000000000E+00 -0.16858306430E+04  0.16858306430E+04  0.00000000000E+00 0. -1.
         25    2    1    2    0    0 -0.11725409803E+03 -0.15301400010E+03  0.32174682283E+01  0.22977630405E+03  0.12499996028E+03 0.  0.
          2    1    1    2  501    0  0.67537965042E+02  0.23346443416E+02 -0.15680616340E+04  0.15696890524E+04  0.00000000000E+00 0. -1.
          1    1    1    2  502    0  0.49716132986E+02  0.12966755668E+03  0.13079392616E+04  0.13152910252E+04  0.00000000000E+00 0. -1.
         22    1    3    3    0    0 -0.13269633500E+02  0.10058701194E+02  0.30211812382E+02  0.34496583169E+02  0.00000000000E+00 0.  1.
         22    1    3    3    0    0 -0.10398446453E+03 -0.16307270129E+03 -0.26994344154E+02  0.19527972088E+03  0.00000000000E+00 0.  1.
</event>
<event>
 7    1  0.6017574E-006  0.6192796E+02  0.7818608E-02  0.1417671E+00
          2   -1    0    0  502    0  0.00000000000E+00  0.00000000000E+00  0.82937639018E+03  0.82937639018E+03  0.00000000000E+00 0. -1.
          1   -1    0    0  501    0 -0.00000000000E+00 -0.00000000000E+00 -0.13405971639E+04  0.13405971639E+04  0.00000000000E+00 0. -1.
         25    2    1    2    0    0  0.15600932422E+02  0.21644891089E+01 -0.68827014048E+03  0.69970796246E+03  0.12500948904E+03 0.  0.
          2    1    1    2  501    0  0.40009814977E+02 -0.29600227385E+02 -0.64448020957E+03  0.64639902482E+03  0.00000000000E+00 0. -1.
          1    1    1    2  502    0 -0.55610747400E+02  0.27435738276E+02  0.82152957638E+03  0.82386656676E+03  0.00000000000E+00 0. -1.
         22    1    3    3    0    0 -0.22287950033E+02  0.10357238145E+02 -0.62516246060E+03  0.62564536860E+03  0.00000000000E+00 0. -1.
         22    1    3    3    0    0  0.37888882455E+02 -0.81927490361E+01 -0.63107679876E+02  0.74062593863E+02  0.00000000000E+00 0. -1.
</event>
<event>
 7    1  0.6017574E-006  0.3898252E+03  0.7818608E-02  0.1219529E+00
          2   -1    0    0  502    0  0.00000000000E+00  0.00000000000E+00  0.25105664369E+04  0.25105664369E+04  0.00000000000E+00 0. -1.
          1   -1    0    0  501    0 -0.00000000000E+00 -0.00000000000E+00 -0.47957582482E+03  0.47957582482E+03  0.00000000000E+00 0. -1.
         25    2    1    2    0    0  0.33470545152E+03 -0.14378263277E+03 -0.71984390137E+01  0.38519565418E+03  0.12499075850E+03 0.  0.
          2    1    1    2  501    0 -0.37170442905E+03  0.17291560697E+03 -0.13472208419E+03  0.43152523643E+03  0.00000000000E+00 0. -1.
          1    1    1    2  502    0  0.36998977529E+02 -0.29132974199E+02  0.21729111353E+04  0.21734213711E+04  0.00000000000E+00 0. -1.
         22    1    3    3    0    0  0.32692702547E+03 -0.10316532086E+03 -0.14843822026E+02  0.34313947960E+03  0.00000000000E+00 0.  1.
         22    1    3    3    0    0  0.77784260511E+01 -0.40617311908E+02  0.76453830119E+01  0.42056174575E+02  0.00000000000E+00 0.  1.
</event>
<event>
 7    1  0.6017574E-006  0.1285627E+03  0.7818608E-02  0.1285735E+00
          2   -1    0    0  502    0  0.00000000000E+00  0.00000000000E+00  0.48954340597E+03  0.48954340597E+03  0.00000000000E+00 0. -1.
          1   -1    0    0  501    0 -0.00000000000E+00 -0.00000000000E+00 -0.73580200012E+03  0.73580200012E+03  0.00000000000E+00 0. -1.
         25    2    1    2    0    0 -0.49710206178E+02  0.41003872239E+02  0.95717443632E+02  0.17011743054E+03  0.12500275605E+03 0.  0.
          2    1    1    2  501    0  0.12341326113E+03 -0.46086602766E+02 -0.68846232490E+03  0.70095305177E+03  0.00000000000E+00 0. -1.
          1    1    1    2  502    0 -0.73703054954E+02  0.50827305261E+01  0.34648628712E+03  0.35427492378E+03  0.00000000000E+00 0. -1.
         22    1    3    3    0    0 -0.51719687939E+02 -0.74317482838E+01 -0.10558682632E+02  0.53307061277E+02  0.00000000000E+00 0. -1.
         22    1    3    3    0    0  0.20094817609E+01  0.48435620523E+02  0.10627612626E+03  0.11681036926E+03  0.00000000000E+00 0. -1.
</event>
<event>
 7    1  0.6017574E-006  0.6202919E+02  0.7818608E-02  0.1433983E+00
          2   -1    0    0  502    0  0.00000000000E+00  0.00000000000E+00  0.79426075220E+02  0.79426075220E+02  0.00000000000E+00 0. -1.
          1   -1    0    0  501    0 -0.00000000000E+00 -0.00000000000E+00 -0.21239774604E+03  0.21239774604E+03  0.00000000000E+00 0. -1.
         25    2    1    2    0    0  0.24344380839E+02  0.93567165902E+01 -0.90857787743E+02  0.15671955979E+03  0.12500274319E+03 0.  0.
          2    1    1    2  501    0 -0.44118394462E+02  0.49436219137E+02 -0.24188771402E+02  0.70537005568E+02  0.00000000000E+00 0. -1.
          1    1    1    2  502    0  0.19774013624E+02 -0.58792935728E+02 -0.17925111677E+02  0.64567255903E+02  0.00000000000E+00 0. -1.
         22    1    3    3    0    0 -0.29912445766E+02  0.60880444870E+01 -0.97307375897E+02  0.10198305791E+03  0.00000000000E+00 0. -1.
         22    1    3    3    0    0  0.54256826605E+02  0.32686721032E+01  0.64495881534E+01  0.54736501879E+02  0.00000000000E+00 0. -1.
</event>
<event>
 7    1  0.6017574E-006  0.7602910E+02  0.7818608E-02  0.1345829E+00
          2   -1    0    0  502    0  0.00000000000E+00  0.00000000000E+00  0.52121253284E+03  0.52121253284E+03  0.00000000000E+00 0. -1.
          1   -1    0    0  501    0 -0.00000000000E+00 -0.00000000000E+00 -0.21773237509E+03  0.21773237509E+03  0.00000000000E+00 0. -1.
         25    2    1    2    0    0 -0.43773408954E+02  0.43140745285E+02 -0.41224133791E+02  0.14526381383E+03  0.12499964467E+03 0.  0.
          2    1    1    2  501    0 -0.30423379940E+02 -0.66082850175E+02 -0.11028097758E+03  0.13211517381E+03  0.00000000000E+00 0. -1.
          1    1    1    2  502    0  0.74196788893E+02  0.22942104890E+02  0.45498526912E+03  0.46156592029E+03  0.00000000000E+00 0. -1.
         22    1    3    3    0    0  0.33939262605E+02  0.85028219406E+01 -0.48575278540E+02  0.59864256551E+02  0.00000000000E+00 0. -1.
         22    1    3    3    0    0 -0.77712671558E+02  0.34637923344E+02  0.73511447492E+01  0.85399557279E+02  0.00000000000E+00 0. -1.
</event>
<event>
 7    1  0.6017574E-006  0.1414300E+03  0.7818608E-02  0.1293515E+00
          2   -1    0    0  502    0  0.00000000000E+00  0.00000000000E+00  0.45516234791E+03  0.45516234791E+03  0.00000000000E+00 0. -1.
          1   -1    0    0  501    0 -0.00000000000E+00 -0.00000000000E+00 -0.92606934376E+03  0.92606934376E+03  0.00000000000E+00 0. -1.
         25    2    1    2    0    0  0.14838037581E+03 -0.12122416127E+02  0.22381624175E+03  0.29644985838E+03  0.12500047826E+03 0.  0.
          2    1    1    2  501    0 -0.24824064117E+02 -0.57288170234E+02 -0.86272978349E+03  0.86498603915E+03  0.00000000000E+00 0. -1.
          1    1    1    2  502    0 -0.12355631169E+03  0.69410586361E+02  0.16800654589E+03  0.21979579414E+03  0.00000000000E+00 0. -1.
         22    1    3    3    0    0 -0.14463198633E+02 -0.22283980430E+02  0.58132471144E+02  0.63915132010E+02  0.00000000000E+00 0.  1.
         22    1    3    3    0    0  0.16284357444E+03  0.10161564303E+02  0.16568377061E+03  0.23253472637E+03  0.00000000000E+00 0.  1.
</event>
<event>
 7    1  0.6017574E-006  0.9679278E+02  0.7818608E-02  0.1332346E+00
          2   -1    0    0  502    0  0.00000000000E+00  0.00000000000E+00  0.18321415947E+04  0.18321415947E+04  0.00000000000E+00 0. -1.
          1   -1    0    0  501    0 -0.00000000000E+00 -0.00000000000E+00 -0.18534650651E+03  0.18534650651E+03  0.00000000000E+00 0. -1.
         25    2    1    2    0    0 -0.74030639900E+02  0.10298691800E+03 -0.10091734397E+03  0.20468780890E+03  0.12500379145E+03 0.  0.
          2    1    1    2  501    0  0.17368814092E+02 -0.72731034592E+02  0.11801974104E+02  0.75701820906E+02  0.00000000000E+00 0. -1.
          1    1    1    2  502    0  0.56661825808E+02 -0.30255883410E+02  0.17359104581E+04  0.17370984714E+04  0.00000000000E+00 0. -1.
         22    1    3    3    0    0 -0.34262378841E+02  0.10923792558E+03 -0.11477634660E+03  0.16211244470E+03  0.00000000000E+00 0. -1.
         22    1    3    3    0    0 -0.39768261059E+02 -0.62510075728E+01  0.13859002632E+02  0.42575364206E+02  0.00000000000E+00 0. -1.
</event>
<event>
 7    1  0.6017574E-006  0.6104550E+02  0.7818608E-02  0.1415560E+00
          2   -1    0    0  502    0  0.00000000000E+00  0.00000000000E+00  0.29183252447E+04  0.29183252447E+04  0.00000000000E+00 0. -1.
          1   -1    0    0  501    0 -0.00000000000E+00 -0.00000000000E+00 -0.34775217772E+03  0.34775217772E+03  0.00000000000E+00 0. -1.
         25    2    1    2    0    0 -0.25606643915E+02 -0.55181198149E+02  0.11903441501E+03  0.18301639618E+03  0.12500057788E+03 0.  0.
          2    1    1    2  501    0  0.51317204218E+02 -0.43755918986E+00 -0.31333434739E+03  0.31750914973E+03  0.00000000000E+00 0. -1.
          1    1    1    2  502    0 -0.25710560302E+02  0.55618757339E+02  0.27648729994E+04  0.27655518765E+04  0.00000000000E+00 0. -1.
         22    1    3    3    0    0 -0.46874385791E+02 -0.22709626410E+02 -0.56859036931E+01  0.52395273410E+02  0.00000000000E+00 0.  1.
         22    1    3    3    0    0  0.21267741876E+02 -0.32471571739E+02  0.12472031870E+03  0.13062112277E+03  0.00000000000E+00 0.  1.
</event>
<event>
 7    1  0.6017574E-006  0.9755767E+02  0.7818608E-02  0.1446240E+00
          2   -1    0    0  502    0  0.00000000000E+00  0.00000000000E+00  0.41045420714E+03  0.41045420714E+03  0.00000000000E+00 0. -1.
          1   -1    0    0  501    0 -0.00000000000E+00 -0.00000000000E+00 -0.30114091279E+03  0.30114091279E+03  0.00000000000E+00 0. -1.
         25    2    1    2    0    0 -0.51249639452E+02 -0.57263866017E+02 -0.13123058794E+03  0.19685544049E+03  0.12499968539E+03 0.  0.
          2    1    1    2  501    0 -0.21987711040E+01 -0.25360728042E+02 -0.12942643784E+03  0.13190604206E+03  0.00000000000E+00 0. -1.
          1    1    1    2  502    0  0.53448410556E+02  0.82624594059E+02  0.36997032012E+03  0.38283363738E+03  0.00000000000E+00 0. -1.
         22    1    3    3    0    0 -0.84782495718E+02 -0.70882943068E+02 -0.97122527338E+02  0.14712324260E+03  0.00000000000E+00 0. -1.
         22    1    3    3    0    0  0.33532856265E+02  0.13619077051E+02 -0.34108060599E+02  0.49732197889E+02  0.00000000000E+00 0. -1.
</event>
<event>
 7    1  0.6017574E-006  0.7557420E+02  0.7818608E-02  0.1411397E+00
          2   -1    0    0  502    0  0.00000000000E+00  0.00000000000E+00  0.21906956071E+03  0.21906956071E+03  0.00000000000E+00 0. -1.
          1   -1    0    0  501    0 -0.00000000000E+00 -0.00000000000E+00 -0.55328308778E+03  0.55328308778E+03  0.00000000000E+00 0. -1.
         25    2    1    2    0    0 -0.10743659614E+03  0.43105072298E+02 -0.78498128538E+02  0.18758417747E+03  0.12500079202E+03 0.  0.
          2    1    1    2  501    0  0.38535052182E+02 -0.18659577294E+02 -0.41095270083E+03  0.41317702307E+03  0.00000000000E+00 0. -1.
          1    1    1    2  502    0  0.68901543963E+02 -0.24445495004E+02  0.15523730230E+03  0.17159144796E+03  0.00000000000E+00 0. -1.
         22    1    3    3    0    0  0.24590553995E+02  0.10176640594E+02  0.61732356144E+01  0.27319740070E+02  0.00000000000E+00 0. -1.
         22    1    3    3    0    0 -0.13202715014E+03  0.32928431704E+02 -0.84671364153E+02  0.16026443740E+03  0.00000000000E+00 0. -1.
</event>
<event>
 7    1  0.6017574E-006  0.4431972E+02  0.7818608E-02  0.1500090E+00
          2   -1    0    0  502    0  0.00000000000E+00  0.00000000000E+00  0.27451585903E+03  0.27451585903E+03  0.00000000000E+00 0. -1.
          1   -1    0    0  501    0 -0.00000000000E+00 -0.00000000000E+00 -0.77104189491E+03  0.77104189491E+03  0.00000000000E+00 0. -1.
         25    2    1    2    0    0 -0.22541644363E+02 -0.59030089728E+02  0.57713307695E+02  0.15148459365E+03  0.12499631596E+03 0.  0.
          2    1    1    2  501    0 -0.14385400729E+02  0.35346013312E+02 -0.72081149250E+03  0.72182095296E+03  0.00000000000E+00 0. -1.
          1    1    1    2  502    0  0.36927045092E+02  0.23684076416E+02  0.16657214892E+03  0.17225220734E+03  0.00000000000E+00 0. -1.
         22    1    3    3    0    0 -0.20272060371E+02  0.36979117059E+02  0.29239778080E+02  0.51316431602E+02  0.00000000000E+00 0. -1.
         22    1    3    3    0    0 -0.22695839921E+01 -0.96009206787E+02  0.28473529615E+02  0.10016816205E+03  0.00000000000E+00 0. -1.
</event>
<event>
 7    1  0.6017574E-006  0.1093737E+03  0.7818608E-02  0.1267009E+00
          2   -1    0    0  502    0  0.00000000000E+00  0.00000000000E+00  0.27421348185E+04  0.27421348185E+04  0.00000000000E+00 0. -1.
          1   -1    0    0  501    0 -0.00000000000E+00 -0.00000000000E+00 -0.39239587829E+02  0.39239587829E+02  0.00000000000E+00 0. -1.
         25    2    1    2    0    0  0.49140498231E+02 -0.38175064118E+02  0.98807258558E+03  0.99789034620E+03  0.12500233833E+03 0.  0.
          2    1    1    2  501    0 -0.10770042391E+03 -0.47633096670E+02  0.73374944003E+02  0.13875220941E+03  0.00000000000E+00 0. -1.
          1    1    1    2  502    0  0.58559925676E+02  0.85808160789E+02  0.16414477011E+04  0.16447318507E+04  0.00000000000E+00 0. -1.
         22    1    3    3    0    0  0.68555879466E+01 -0.46103016913E+02  0.11972792551E+03  0.12848059543E+03  0.00000000000E+00 0.  1.
         22    1    3    3    0    0  0.42284910284E+02  0.79279527950E+01  0.86834466007E+03  0.86940975077E+03  0.00000000000E+00 0.  1.
</event>
<event>
 7    1  0.6017574E-006  0.7236937E+02  0.7818608E-02  0.1390822E+00
          2   -1    0    0  502    0  0.00000000000E+00  0.00000000000E+00  0.84435176714E+03  0.84435176714E+03  0.00000000000E+00 0. -1.
          1   -1    0    0  501    0 -0.00000000000E+00 -0.00000000000E+00 -0.72421463389E+03  0.72421463389E+03  0.00000000000E+00 0. -1.
         25    2    1    2    0    0  0.15723304965E+02  0.14144769357E+02 -0.25899029840E+03  0.28835468458E+03  0.12500061053E+03 0.  0.
          2    1    1    2  501    0  0.49375019550E+02  0.18158007571E+02 -0.44740664361E+03  0.45048896828E+03  0.00000000000E+00 0. -1.
          1    1    1    2  502    0 -0.65098324514E+02 -0.32302776927E+02  0.82653407527E+03  0.82972274817E+03  0.00000000000E+00 0. -1.
         22    1    3    3    0    0 -0.54888756448E+01 -0.24347224514E+02 -0.23860588609E+03  0.23990765718E+03  0.00000000000E+00 0. -1.
         22    1    3    3    0    0  0.21212180610E+02  0.38491993870E+02 -0.20384412314E+02  0.48447027398E+02  0.00000000000E+00 0. -1.
</event>
<event>
 7    1  0.6017574E-006  0.4347824E+02  0.7818608E-02  0.1575385E+00
          2   -1    0    0  502    0  0.00000000000E+00  0.00000000000E+00  0.20230799656E+03  0.20230799656E+03  0.00000000000E+00 0. -1.
          1   -1    0    0  501    0 -0.00000000000E+00 -0.00000000000E+00 -0.20013898089E+03  0.20013898089E+03  0.00000000000E+00 0. -1.
         25    2    1    2    0    0 -0.33310439643E+02  0.54418535242E+02 -0.11009132575E+03  0.17834751067E+03  0.12496708443E+03 0.  0.
          2    1    1    2  501    0  0.31918234151E+01 -0.23570826607E+02 -0.50449025421E+02  0.55775225410E+02  0.00000000000E+00 0. -1.
          1    1    1    2  502    0  0.30118616228E+02 -0.30847708635E+02  0.16270936684E+03  0.16832424136E+03  0.00000000000E+00 0. -1.
         22    1    3    3    0    0 -0.10887248334E+02 -0.38096302138E+02 -0.11402082342E+02  0.41229454212E+02  0.00000000000E+00 0. -1.
         22    1    3    3    0    0 -0.22423191309E+02  0.92514837380E+02 -0.98689243406E+02  0.13711805646E+03  0.00000000000E+00 0. -1.
</event>
<event>
 7    1  0.6017574E-006  0.1204323E+03  0.7818608E-02  0.1291362E+00
          2   -1    0    0  502    0  0.00000000000E+00  0.00000000000E+00  0.42629250619E+03  0.42629250619E+03  0.00000000000E+00 0. -1.
          1   -1    0    0  501    0 -0.00000000000E+00 -0.00000000000E+00 -0.22710410828E+04  0.22710410828E+04  0.00000000000E+00 0. -1.
         25    2    1    2    0    0 -0.63730718288E+01 -0.18887671917E+03 -0.49669356180E+03  0.54593451300E+03  0.12499986825E+03 0.  0.
          2    1    1    2  501    0 -0.56882445109E+01  0.11504740780E+03 -0.17443278421E+04  0.17481269642E+04  0.00000000000E+00 0. -1.
          1    1    1    2  502    0  0.12061316340E+02  0.73829311370E+02  0.39627282725E+03  0.40327211184E+03  0.00000000000E+00 0. -1.
         22    1    3    3    0    0  0.14305191242E+02  0.21440388037E+01 -0.14033967336E+03  0.14108316455E+03  0.00000000000E+00 0.  1.
         22    1    3    3    0    0 -0.20678263071E+02 -0.19102075797E+03 -0.35635388844E+03  0.40485134845E+03  0.00000000000E+00 0.  1.
</event>
<event>
 7    1  0.6017574E-006  0.1666870E+03  0.7818608E-02  0.1237945E+00
          2   -1    0    0  502    0  0.00000000000E+00  0.00000000000E+00  0.23922086532E+04  0.23922086532E+04  0.00000000000E+00 0. -1.
          1   -1    0    0  501    0 -0.00000000000E+00 -0.00000000000E+00 -0.16580791226E+03  0.16580791226E+03  0.00000000000E+00 0. -1.
         25    2    1    2    0    0  0.17739559906E+03 -0.59862389375E+01  0.53149934472E+03  0.57412745544E+03  0.12500299209E+03 0.  0.
          2    1    1    2  501    0 -0.34985373395E+02 -0.84033458415E+02 -0.12587283050E+03  0.15533694970E+03  0.00000000000E+00 0. -1.
          1    1    1    2  502    0 -0.14241022567E+03  0.90019697353E+02  0.18207742267E+04  0.18285521603E+04  0.00000000000E+00 0. -1.
         22    1    3    3    0    0  0.19699611353E+03 -0.58487392497E+01  0.47241022326E+03  0.51187214765E+03  0.00000000000E+00 0.  1.
         22    1    3    3    0    0 -0.19600514468E+02 -0.13749968775E+00  0.59089121457E+02  0.62255307791E+02  0.00000000000E+00 0.  1.
</event>
<event>
 7    1  0.6017574E-006  0.5609061E+02  0.7818608E-02  0.1485547E+00
          2   -1    0    0  502    0  0.00000000000E+00  0.00000000000E+00  0.24559348927E+04  0.24559348927E+04  0.00000000000E+00 0. -1.
          1   -1    0    0  501    0 -0.00000000000E+00 -0.00000000000E+00 -0.11887990840E+03  0.11887990840E+03  0.00000000000E+00 0. -1.
         25    2    1    2    0    0  0.52980780382E+02 -0.48512182525E+02  0.24537887082E+03  0.28459607060E+03  0.12499495273E+03 0.  0.
          2    1    1    2  501    0 -0.53744162914E+02  0.15166172550E+02 -0.91280465811E+02  0.10700734216E+03  0.00000000000E+00 0. -1.
          1    1    1    2  502    0  0.76338253184E+00  0.33346009976E+02  0.21829565793E+04  0.21832113884E+04  0.00000000000E+00 0. -1.
         22    1    3    3    0    0 -0.45556749121E+01 -0.23023589844E+02  0.21212741926E+03  0.21342184017E+03  0.00000000000E+00 0. -1.
         22    1    3    3    0    0  0.57536455294E+02 -0.25488592682E+02  0.33251451570E+02  0.71174230422E+02  0.00000000000E+00 0. -1.
</event>
<event>
 7    1  0.6017574E-006  0.1729671E+03  0.7818608E-02  0.1389308E+00
          2   -1    0    0  502    0  0.00000000000E+00  0.00000000000E+00  0.83033291510E+03  0.83033291510E+03  0.00000000000E+00 0. -1.
          1   -1    0    0  501    0 -0.00000000000E+00 -0.00000000000E+00 -0.82906158670E+03  0.82906158670E+03  0.00000000000E+00 0. -1.
         25    2    1    2    0    0  0.11040528047E+03  0.15597426278E+03  0.17748506730E+02  0.22903691630E+03  0.12500241171E+03 0.  0.
          2    1    1    2  501    0 -0.19407339279E+02 -0.10944627781E+02 -0.71287419294E+03  0.71322229680E+03  0.00000000000E+00 0. -1.
          1    1    1    2  502    0 -0.90997941187E+02 -0.14502963500E+03  0.69639701461E+03  0.71713528869E+03  0.00000000000E+00 0. -1.
         22    1    3    3    0    0  0.38499059885E+02  0.14978899532E+03 -0.23811568279E+00  0.15465761355E+03  0.00000000000E+00 0.  1.
         22    1    3    3    0    0  0.71906220580E+02  0.61852674586E+01  0.17986622413E+02  0.74379302749E+02  0.00000000000E+00 0.  1.
</event>
<event>
 7    1  0.6017574E-006  0.6297779E+02  0.7818608E-02  0.1438462E+00
          2   -1    0    0  502    0  0.00000000000E+00  0.00000000000E+00  0.19899542555E+04  0.19899542555E+04  0.00000000000E+00 0. -1.
          1   -1    0    0  501    0 -0.00000000000E+00 -0.00000000000E+00 -0.17801079233E+03  0.17801079233E+03  0.00000000000E+00 0. -1.
         25    2    1    2    0    0  0.81431508212E+02  0.48761920042E+02  0.16271584204E+03  0.22607987477E+03  0.12500739638E+03 0.  0.
          2    1    1    2  501    0 -0.41782827813E+02 -0.41990983659E+00 -0.14278947993E+03  0.14877774230E+03  0.00000000000E+00 0. -1.
          1    1    1    2  502    0 -0.39648680399E+02 -0.48342010205E+02  0.17920171011E+04  0.17931074308E+04  0.00000000000E+00 0. -1.
         22    1    3    3    0    0  0.10929092299E+03  0.62039395374E+02  0.13698780294E+03  0.18590064707E+03  0.00000000000E+00 0.  1.
         22    1    3    3    0    0 -0.27859414774E+02 -0.13277475332E+02  0.25728039100E+02  0.40179227702E+02  0.00000000000E+00 0.  1.
</event>
<event>
 7    1  0.6017574E-006  0.5832476E+02  0.7818608E-02  0.1431650E+00
          2   -1    0    0  502    0  0.00000000000E+00  0.00000000000E+00  0.89534578642E+03  0.89534578642E+03  0.00000000000E+00 0. -1.
          1   -1    0    0  501    0 -0.00000000000E+00 -0.00000000000E+00 -0.15298739427E+04  0.15298739427E+04  0.00000000000E+00 0. -1.
         25    2    1    2    0    0 -0.69824371964E+02 -0.41428363961E+02 -0.62416546828E+02  0.16159544101E+03  0.12500203589E+03 0.  0.
          2    1    1    2  501    0  0.23799282059E+02  0.53139230554E+02 -0.14166027377E+04  0.14177988222E+04  0.00000000000E+00 0. -1.
          1    1    1    2  502    0  0.46025089905E+02 -0.11710866593E+02  0.84449112821E+03  0.84582546599E+03  0.00000000000E+00 0. -1.
         22    1    3    3    0    0 -0.49482102555E+02 -0.16079160916E+02  0.32447674140E+02  0.61317774309E+02  0.00000000000E+00 0.  1.
         22    1    3    3    0    0 -0.20342269409E+02 -0.25349203045E+02 -0.94864220968E+02  0.10027766670E+03  0.00000000000E+00 0.  1.
</event>
<event>
 7    1  0.6017574E-006  0.8992826E+02  0.7818608E-02  0.1327459E+00
          2   -1    0    0  502    0  0.00000000000E+00  0.00000000000E+00  0.88084759927E+03  0.88084759927E+03  0.00000000000E+00 0. -1.
          1   -1    0    0  501    0 -0.00000000000E+00 -0.00000000000E+00 -0.21166959296E+04  0.21166959296E+04  0.00000000000E+00 0. -1.
         25    2    1    2    0    0  0.12471501456E+03  0.99949382086E+02  0.15913726330E+03  0.25785508883E+03  0.12498345663E+03 0.  0.
          2    1    1    2  501    0 -0.61440289687E+02 -0.65230170170E+02 -0.20644253571E+04  0.20663692650E+04  0.00000000000E+00 0. -1.
          1    1    1    2  502    0 -0.63274724877E+02 -0.34719211916E+02  0.66943976350E+03  0.67331917501E+03  0.00000000000E+00 0. -1.
         22    1    3    3    0    0  0.98520690649E+02  0.10007734556E+03  0.17715229954E+03  0.22606357250E+03  0.00000000000E+00 0. -1.
         22    1    3    3    0    0  0.26194323915E+02 -0.12796347075E+00 -0.18015036242E+02  0.31791516334E+02  0.00000000000E+00 0. -1.
</event>
<event>
 7    1  0.6017574E-006  0.8310773E+02  0.7818608E-02  0.1349998E+00
          2   -1    0    0  502    0  0.00000000000E+00  0.00000000000E+00  0.85842995626E+03  0.85842995626E+03  0.00000000000E+00 0. -1.
          1   -1    0    0  501    0 -0.00000000000E+00 -0.00000000000E+00 -0.74119160431E+02  0.74119160431E+02  0.00000000000E+00 0. -1.
         25    2    1    2    0    0  0.49852088266E+02 -0.19030290632E+02  0.11271407772E+03  0.17657078663E+03  0.12500158683E+03 0.  0.
          2    1    1    2  501    0 -0.95608894116E+02 -0.26031760144E+02  0.19828521123E+02  0.10105386396E+03  0.00000000000E+00 0. -1.
          1    1    1    2  502    0  0.45756805851E+02  0.45062050776E+02  0.65176819698E+03  0.65492446610E+03  0.00000000000E+00 0. -1.
         22    1    3    3    0    0  0.68528461924E+02 -0.59784070181E+02  0.71634152757E+02  0.11576587141E+03  0.00000000000E+00 0. -1.
         22    1    3    3    0    0 -0.18676373658E+02  0.40753779549E+02  0.41079924968E+02  0.60804915228E+02  0.00000000000E+00 0. -1.
</event>
<event>
 7    1  0.6017574E-006  0.1054078E+03  0.7818608E-02  0.1346667E+00
          2   -1    0    0  502    0  0.00000000000E+00  0.00000000000E+00  0.40533656039E+03  0.40533656039E+03  0.00000000000E+00 0. -1.
          1   -1    0    0  501    0 -0.00000000000E+00 -0.00000000000E+00 -0.15296733976E+03  0.15296733976E+03  0.00000000000E+00 0. -1.
         25    2    1    2    0    0  0.59560859829E+02  0.32299981076E+02 -0.11830590850E+02  0.14267245861E+03  0.12499873105E+03 0.  0.
          2    1    1    2  501    0  0.49588222851E+02 -0.15972480679E+02 -0.56273871312E+02  0.76686769244E+02  0.00000000000E+00 0. -1.
          1    1    1    2  502    0 -0.10914908268E+03 -0.16327500397E+02  0.32047368279E+03  0.33894467230E+03  0.00000000000E+00 0. -1.
         22    1    3    3    0    0  0.39851017510E+02  0.17486204544E+02 -0.68339064686E+02  0.81019125570E+02  0.00000000000E+00 0.  1.
         22    1    3    3    0    0  0.19709842319E+02  0.14813776532E+02  0.56508473836E+02  0.61653333038E+02  0.00000000000E+00 0.  1.
</event>
<event>
 7    1  0.6017574E-006  0.7699144E+02  0.7818608E-02  0.1479749E+00
          2   -1    0    0  502    0  0.00000000000E+00  0.00000000000E+00  0.29456642542E+03  0.29456642542E+03  0.00000000000E+00 0. -1.
          1   -1    0    0  501    0 -0.00000000000E+00 -0.00000000000E+00 -0.35938313417E+03  0.35938313417E+03  0.00000000000E+00 0. -1.
         25    2    1    2    0    0  0.47469612326E+02 -0.70852800433E+02 -0.86750229198E+02  0.17442588526E+03  0.12500121503E+03 0.  0.
          2    1    1    2  501    0 -0.25176535242E+02 -0.26157299256E+01 -0.22218211310E+03  0.22361930004E+03  0.00000000000E+00 0. -1.
          1    1    1    2  502    0 -0.22293077084E+02  0.73468530359E+02  0.24411563355E+03  0.25590437429E+03  0.00000000000E+00 0. -1.
         22    1    3    3    0    0  0.66684289831E+02  0.10621922268E+02 -0.41706730491E+02  0.79366687667E+02  0.00000000000E+00 0. -1.
         22    1    3    3    0    0 -0.19214677506E+02 -0.81474722701E+02 -0.45043498707E+02  0.95059197591E+02  0.00000000000E+00 0. -1.
</event>
<event>
 7    1  0.6017574E-006  0.2946275E+02  0.7818608E-02  0.1638395E+00
          2   -1    0    0  502    0  0.00000000000E+00  0.00000000000E+00  0.19142677228E+04  0.19142677228E+04  0.00000000000E+00 0. -1.
          1   -1    0    0  501    0 -0.00000000000E+00 -0.00000000000E+00 -0.32236127634E+03  0.32236127634E+03  0.00000000000E+00 0. -1.
         25    2    1    2    0    0  0.32433675190E+01  0.37911452753E+02  0.26200353148E+03  0.29277649015E+03  0.12499769995E+03 0.  0.
          2    1    1    2  501    0  0.16652119123E+02 -0.24305546765E+02 -0.30617888431E+03  0.30759317592E+03  0.00000000000E+00 0. -1.
          1    1    1    2  502    0 -0.19895486642E+02 -0.13605905988E+02  0.16360817993E+04  0.16362593331E+04  0.00000000000E+00 0. -1.
         22    1    3    3    0    0  0.33625083517E+02 -0.16917023179E+02  0.19676516266E+02  0.42473488285E+02  0.00000000000E+00 0.  1.
         22    1    3    3    0    0 -0.30381715998E+02  0.54828475932E+02  0.24232701521E+03  0.25030300186E+03  0.00000000000E+00 0.  1.
</event>
<event>
 7    1  0.6017574E-006  0.8418306E+02  0.7818608E-02  0.1399729E+00
          2   -1    0    0  502    0  0.00000000000E+00  0.00000000000E+00  0.20159972620E+04  0.20159972620E+04  0.00000000000E+00 0. -1.
          1   -1    0    0  501    0 -0.00000000000E+00 -0.00000000000E+00 -0.17306186226E+04  0.17306186226E+04  0.00000000000E+00 0. -1.
         25    2    1    2    0    0  0.55440993304E+02  0.42094431438E+02  0.93331592317E+03  0.94421816130E+03  0.12499471510E+03 0.  0.
          2    1    1    2  501    0  0.34231937441E+02 -0.24550209804E+02 -0.17229719806E+04  0.17234868680E+04  0.00000000000E+00 0. -1.
          1    1    1    2  502    0 -0.89672930745E+02 -0.17544221634E+02  0.10750346968E+04  0.10789108553E+04  0.00000000000E+00 0. -1.
         22    1    3    3    0    0 -0.54935976484E+01 -0.36574739282E+02  0.14482217595E+03  0.14947024391E+03  0.00000000000E+00 0. -1.
         22    1    3    3    0    0  0.60934590953E+02  0.78669170721E+02  0.78849374722E+03  0.79474791739E+03  0.00000000000E+00 0. -1.
</event>
<event>
 7    1  0.6017574E-006  0.2484695E+03  0.7818608E-02  0.1121562E+00
          2   -1    0    0  502    0  0.00000000000E+00  0.00000000000E+00  0.12304379161E+04  0.12304379161E+04  0.00000000000E+00 0. -1.
          1   -1    0    0  501    0 -0.00000000000E+00 -0.00000000000E+00 -0.88926800442E+03  0.88926800442E+03  0.00000000000E+00 0. -1.
         25    2    1    2    0    0 -0.24470131291E+03  0.38658823154E+02  0.18272140318E+02  0.27808441893E+03  0.12499534308E+03 0.  0.
          2    1    1    2  501    0  0.18934748963E+03  0.18123314671E+03 -0.72424274255E+03  0.77021131868E+03  0.00000000000E+00 0. -1.
          1    1    1    2  502    0  0.55353823280E+02 -0.21989196986E+03  0.10471405139E+04  0.10714101829E+04  0.00000000000E+00 0. -1.
         22    1    3    3    0    0 -0.21872138556E+02 -0.20145275560E+02 -0.30419486927E+02  0.42539014531E+02  0.00000000000E+00 0.  1.
         22    1    3    3    0    0 -0.22282917435E+03  0.58804098713E+02  0.48691627245E+02  0.23554540440E+03  0.00000000000E+00 0.  1.
</event>
<event>
 7    1  0.6017574E-006  0.5841623E+02  0.7818608E-02  0.1439721E+00
          2   -1    0    0  502    0  0.00000000000E+00  0.00000000000E+00  0.30291218159E+03  0.30291218159E+03  0.00000000000E+00 0. -1.
          1   -1    0    0  501    0 -0.00000000000E+00 -0.00000000000E+00 -0.15849545478E+04  0.15849545478E+04  0.00000000000E+00 0. -1.
         25    2    1    2    0    0 -0.22833598774E+02  0.75264245498E+01 -0.33339433182E+03  0.35686579315E+03  0.12499357396E+03 0.  0.
          2    1    1    2  501    0 -0.47395043359E+01  0.44373057546E+02 -0.12364524494E+04  0.12372574876E+04  0.00000000000E+00 0. -1.
          1    1    1    2  502    0  0.27573103110E+02 -0.51899482096E+02  0.28780441503E+03  0.29374344856E+03  0.00000000000E+00 0. -1.
         22    1    3    3    0    0 -0.61007400582E+02  0.18726717237E+02 -0.90515743899E+02  0.11075058807E+03  0.00000000000E+00 0.  1.
         22    1    3    3    0    0  0.38173801808E+02 -0.11200292687E+02 -0.24287858792E+03  0.24611520508E+03  0.00000000000E+00 0.  1.
</event>
<event>
 7    1  0.6017574E-006  0.3543097E+02  0.7818608E-02  0.1563108E+00
          2   -1    0    0  502    0  0.00000000000E+00  0.00000000000E+00  0.14750165087E+04  0.14750165087E+04  0.00000000000E+00 0. -1.
          1   -1    0    0  501    0 -0.00000000000E+00 -0.00000000000E+00 -0.23241055284E+04  0.23241055284E+04  0.00000000000E+00 0. -1.
         25    2    1    2    0    0 -0.25513891134E+02  0.24291316907E+02  0.45187146186E+03  0.47016343523E+03  0.12499924425E+03 0.  0.
          2    1    1    2  501    0  0.29385193300E+02  0.11405160106E+02 -0.23145343381E+04  0.23147489647E+04  0.00000000000E+00 0. -1.
          1    1    1    2  502    0 -0.38713021662E+01 -0.35696477013E+02  0.10135738566E+04  0.10142096372E+04  0.00000000000E+00 0. -1.
         22    1    3    3    0    0 -0.56018283965E+01  0.58528287788E+01  0.44076704489E+03  0.44084149527E+03  0.00000000000E+00 0. -1.
         22    1    3    3    0    0 -0.19912062738E+02  0.18438488129E+02  0.11104416970E+02  0.29321939963E+02  0.00000000000E+00 0. -1.
</event>
<event>
 7    1  0.6017574E-006  0.3546961E+02  0.7818608E-02  0.1557186E+00
          2   -1    0    0  502    0  0.00000000000E+00  0.00000000000E+00  0.30331116465E+03  0.30331116465E+03  0.00000000000E+00 0. -1.
          1   -1    0    0  501    0 -0.00000000000E+00 -0.00000000000E+00 -0.15818821583E+04  0.15818821583E+04  0.00000000000E+00 0. -1.
         25    2    1    2    0    0 -0.28633501439E+02  0.56952375807E+02 -0.33883967366E+02  0.14434786839E+03  0.12499893340E+03 0.  0.
          2    1    1    2  501    0  0.34077600559E+01 -0.32512554295E+02 -0.14913430220E+04  0.14917012731E+04  0.00000000000E+00 0. -1.
          1    1    1    2  502    0  0.25225741383E+02 -0.24439821512E+02  0.24665599572E+03  0.24914418141E+03  0.00000000000E+00 0. -1.
         22    1    3    3    0    0  0.16175067922E+02 -0.24230469913E+02  0.21618776458E+02  0.36278368073E+02  0.00000000000E+00 0. -1.
         22    1    3    3    0    0 -0.44808569361E+02  0.81182845721E+02 -0.55502743825E+02  0.10806950032E+03  0.00000000000E+00 0. -1.
</event>
<event>
 7    1  0.6017574E-006  0.5696922E+02  0.7818608E-02  0.1473583E+00
          2   -1    0    0  502    0  0.00000000000E+00  0.00000000000E+00  0.71373651605E+02  0.71373651605E+02  0.00000000000E+00 0. -1.
          1   -1    0    0  501    0 -0.00000000000E+00 -0.00000000000E+00 -0.17644259690E+04  0.17644259690E+04  0.00000000000E+00 0. -1.
         25    2    1    2    0    0 -0.20103997300E+02  0.31900994286E+02 -0.74244316635E+02  0.15019606672E+03  0.12499918305E+03 0.  0.
          2    1    1    2  501    0  0.17198113232E+02  0.31327831514E+02 -0.16218416280E+04  0.16222353326E+04  0.00000000000E+00 0. -1.
          1    1    1    2  502    0  0.29058840676E+01 -0.63228825800E+02  0.30336272078E+01  0.63368221281E+02  0.00000000000E+00 0. -1.
         22    1    3    3    0    0  0.47880921969E+02 -0.18256473695E+01 -0.62888813732E+01  0.48326656266E+02  0.00000000000E+00 0.  1.
         22    1    3    3    0    0 -0.67984919268E+02  0.33726641656E+02 -0.67955435262E+02  0.10186941046E+03  0.00000000000E+00 0.  1.
</event>
<event>
 7    1  0.6017574E-006  0.9440949E+02  0.7818608E-02  0.1358028E+00
          2   -1    0    0  502    0  0.00000000000E+00  0.00000000000E+00  0.15489964093E+04  0.15489964093E+04  0.00000000000E+00 0. -1.
          1   -1    0    0  501    0 -0.00000000000E+00 -0.00000000000E+00 -0.76716910612E+02  0.76716910612E+02  0.00000000000E+00 0. -1.
         25    2    1    2    0    0 -0.30999427557E+02  0.47466274965E+02  0.76519219379E+03  0.77740532821E+03  0.12500375645E+03 0.  0.
          2    1    1    2  501    0  0.83810713552E+02 -0.47435901230E+02 -0.36395713528E+02  0.10295167990E+03  0.00000000000E+00 0. -1.
          1    1    1    2  502    0 -0.52811285995E+02 -0.30373735412E-01  0.74348301843E+03  0.74535631181E+03  0.00000000000E+00 0. -1.
         22    1    3    3    0    0 -0.34121671664E+02 -0.38340001390E+02  0.27429653675E+03  0.27905704481E+03  0.00000000000E+00 0.  1.
         22    1    3    3    0    0  0.31222441075E+01  0.85806276355E+02  0.49089565703E+03  0.49834828340E+03  0.00000000000E+00 0.  1.
</event>
<event>
 7    1  0.6017574E-006  0.7747035E+02  0.7818608E-02  0.1494417E+00
          2   -1    0    0  502    0  0.00000000000E+00  0.00000000000E+00  0.15462166861E+04  0.15462166861E+04  0.00000000000E+00 0. -1.
          1   -1    0    0  501    0 -0.00000000000E+00 -0.00000000000E+00 -0.27826218935E+04  0.27826218935E+04  0.00000000000E+00 0. -1.
         25    2    1    2    0    0 -0.99907844027E+02 -0.20003524885E+01  0.25529121949E+03  0.30130407694E+03  0.12499984528E+03 0.  0.
          2    1    1    2  501    0  0.77312412312E+02  0.42041775968E+01 -0.27589706854E+04  0.27600569065E+04  0.00000000000E+00 0. -1.
          1    1    1    2  502    0  0.22595431715E+02 -0.22038251084E+01  0.12672742586E+04  0.12674775962E+04  0.00000000000E+00 0. -1.
         22    1    3    3    0    0 -0.61347918444E+02 -0.62916669137E+02  0.13602922599E+03  0.16194451110E+03  0.00000000000E+00 0.  1.
         22    1    3    3    0    0 -0.38559925583E+02  0.60916316648E+02  0.11926199351E+03  0.13935956584E+03  0.00000000000E+00 0.  1.
</event>
<event>
 7    1  0.6017574E-006  0.5829453E+02  0.7818608E-02  0.1502348E+00
          2   -1    0    0  502    0  0.00000000000E+00  0.00000000000E+00  0.18472672865E+03  0.18472672865E+03  0.00000000000E+00 0. -1.
          1   -1    0    0  501    0 -0.00000000000E+00 -0.00000000000E+00 -0.65844019639E+03  0.65844019639E+03  0.00000000000E+00 0. -1.
         25    2    1    2    0    0 -0.70081772117E+02 -0.24545438793E+02  0.14440029550E+03  0.20491437924E+03  0.12499809650E+03 0.  0.
          2    1    1    2  501    0  0.44580917492E+02  0.37420841928E+02 -0.60324739883E+03  0.60604884441E+03  0.00000000000E+00 0. -1.
          1    1    1    2  502    0  0.25500854625E+02 -0.12875403135E+02 -0.14866364405E+02  0.32203701389E+02  0.00000000000E+00 0. -1.
         22    1    3    3    0    0 -0.98851633120E+02 -0.60095304809E+01  0.13837677183E+03  0.17016430533E+03  0.00000000000E+00 0.  1.
         22    1    3    3    0    0  0.28769861003E+02 -0.18535908312E+02  0.60235236690E+01  0.34750073906E+02  0.00000000000E+00 0.  1.
</event>
<event>
 7    1  0.6017574E-006  0.5070732E+02  0.7818608E-02  0.1509705E+00
          2   -1    0    0  502    0  0.00000000000E+00  0.00000000000E+00  0.39152339518E+03  0.39152339518E+03  0.00000000000E+00 0. -1.
          1   -1    0    0  501    0 -0.00000000000E+00 -0.00000000000E+00 -0.20387965406E+04  0.20387965406E+04  0.00000000000E+00 0. -1.
         25    2    1    2    0    0  0.55188413075E+02  0.55230235573E+02  0.77459665157E+02  0.16649758686E+03  0.12500122737E+03 0.  0.
          2    1    1    2  501    0 -0.27884234900E+02 -0.14075558007E+02 -0.19918917495E+04  0.19921366403E+04  0.00000000000E+00 0. -1.
          1    1    1    2  502    0 -0.27304178175E+02 -0.41154677566E+02  0.26715893892E+03  0.27168570863E+03  0.00000000000E+00 0. -1.
         22    1    3    3    0    0 -0.13014151650E+02 -0.32123301322E+02  0.75731129827E+01  0.35477128847E+02  0.00000000000E+00 0. -1.
         22    1    3    3    0    0  0.68202564725E+02  0.87353536896E+02  0.69886552174E+02  0.13102045801E+03  0.00000000000E+00 0. -1.
</event>
<event>
 7    1  0.6017574E-006  0.9081160E+02  0.7818608E-02  0.1311695E+00
          2   -1    0    0  502    0  0.00000000000E+00  0.00000000000E+00  0.10924362471E+03  0.10924362471E+03  0.00000000000E+00 0. -1.
          1   -1    0    0  501    0 -0.00000000000E+00 -0.00000000000E+00 -0.11377896517E+04  0.11377896517E+04  0.00000000000E+00 0. -1.
         25    2    1    2    0    0 -0.12442758734E+03  0.10790447711E+03 -0.24128353657E+03  0.31775809201E+03  0.12500743717E+03 0.  0.
          2    1    1    2  501    0  0.53619051733E+02 -0.62422089883E+02 -0.83056435843E+03  0.83463086062E+03  0.00000000000E+00 0. -1.
          1    1    1    2  502    0  0.70808535605E+02 -0.45482387226E+02  0.43301867969E+02  0.94644323822E+02  0.00000000000E+00 0. -1.
         22    1    3    3    0    0 -0.11997508773E+03  0.10119055081E+03 -0.12353936762E+03  0.19973864072E+03  0.00000000000E+00 0. -1.
         22    1    3    3    0    0 -0.44524996119E+01  0.67139263034E+01 -0.11774416895E+03  0.11801945128E+03  0.00000000000E+00 0. -1.
</event>
<event>
 7    1  0.6017574E-006  0.4203462E+02  0.7818608E-02  0.1509182E+00
          2   -1    0    0  502    0  0.00000000000E+00  0.00000000000E+00  0.16180380485E+03  0.16180380485E+03  0.00000000000E+00 0. -1.
          1   -1    0    0  501    0 -0.00000000000E+00 -0.00000000000E+00 -0.24106403340E+04  0.24106403340E+04  0.00000000000E+00 0. -1.
         25    2    1    2    0    0  0.13017125420E+02  0.11861021638E+01 -0.68930649175E+03  0.70067162574E+03  0.12500574051E+03 0.  0.
          2    1    1    2  501    0 -0.28138818212E+02  0.33472420890E+02 -0.17130784699E+04  0.17136364959E+04  0.00000000000E+00 0. -1.
          1    1    1    2  502    0  0.15121692792E+02 -0.34658523053E+02  0.15354843250E+03  0.15813601721E+03  0.00000000000E+00 0. -1.
         22    1    3    3    0    0  0.32866028831E+01 -0.54999723352E+02 -0.18163878953E+03  0.18981154124E+03  0.00000000000E+00 0.  1.
         22    1    3    3    0    0  0.97305225368E+01  0.56185825515E+02 -0.50766770222E+03  0.51086008450E+03  0.00000000000E+00 0.  1.
</event>
<event>
 7    1  0.6017574E-006  0.7204344E+02  0.7818608E-02  0.1443661E+00
          2   -1    0    0  502    0  0.00000000000E+00  0.00000000000E+00  0.10180734686E+04  0.10180734686E+04  0.00000000000E+00 0. -1.
          1   -1    0    0  501    0 -0.00000000000E+00 -0.00000000000E+00 -0.54484646892E+02  0.54484646892E+02  0.00000000000E+00 0. -1.
         25    2    1    2    0    0 -0.24681509649E+02  0.35321717390E+02  0.10621474567E+03  0.16959687209E+03  0.12499890475E+03 0.  0.
          2    1    1    2  501    0 -0.33923424729E+02  0.91550954409E+01 -0.66920289364E+01  0.35768670218E+02  0.00000000000E+00 0. -1.
          1    1    1    2  502    0  0.58604934378E+02 -0.44476812831E+02  0.86406610495E+03  0.86719257315E+03  0.00000000000E+00 0. -1.
         22    1    3    3    0    0  0.18825571989E+02  0.41188418077E+02  0.11608004471E+03  0.12460122281E+03  0.00000000000E+00 0.  1.
         22    1    3    3    0    0 -0.43507081638E+02 -0.58667006872E+01 -0.98652990427E+01  0.44995649288E+02  0.00000000000E+00 0.  1.
</event>
<event>
 7    1  0.6017574E-006  0.1543645E+03  0.7818608E-02  0.1240764E+00
          2   -1    0    0  502    0  0.00000000000E+00  0.00000000000E+00  0.50310263209E+03  0.50310263209E+03  0.00000000000E+00 0. -1.
          1   -1    0    0  501    0 -0.00000000000E+00 -0.00000000000E+00 -0.37166419984E+03  0.37166419984E+03  0.00000000000E+00 0. -1.
         25    2    1    2    0    0  0.62647046922E+02 -0.83278328108E+02 -0.72796879354E+02  0.17828201707E+03  0.12500063818E+03 0.  0.
          2    1    1    2  501    0  0.90674627949E+02  0.30021868333E+02 -0.22130728851E+03  0.24103965790E+03  0.00000000000E+00 0. -1.
          1    1    1    2  502    0 -0.15332167487E+03  0.53256459775E+02  0.42554260011E+03  0.45544515697E+03  0.00000000000E+00 0. -1.
         22    1    3    3    0    0  0.79302559937E+02 -0.52349459632E+01 -0.54627345926E+02  0.96438828252E+02  0.00000000000E+00 0. -1.
         22    1    3    3    0    0 -0.16655513015E+02 -0.78043382145E+02 -0.18169533428E+02  0.81843188815E+02  0.00000000000E+00 0. -1.
</event>
<event>
 7    1  0.6017574E-006  0.9406136E+02  0.7818608E-02  0.1371764E+00
          2   -1    0    0  502    0  0.00000000000E+00  0.00000000000E+00  0.48677840773E+03  0.48677840773E+03  0.00000000000E+00 0. -1.
          1   -1    0    0  501    0 -0.00000000000E+00 -0.00000000000E+00 -0.10533511032E+04  0.10533511032E+04  0.00000000000E+00 0. -1.
         25    2    1    2    0    0 -0.91752756248E+00 -0.95564597887E+02 -0.39030955525E+03  0.42083371491E+03  0.12500412976E+03 0.  0.
          2    1    1    2  501    0  0.46698528776E+02  0.83800777665E+02 -0.64302740056E+03  0.65014426153E+03  0.00000000000E+00 0. -1.
          1    1    1    2  502    0 -0.45781001214E+02  0.11763820222E+02  0.46676426036E+03  0.46915153447E+03  0.00000000000E+00 0. -1.
         22    1    3    3    0    0 -0.41362809957E+02 -0.34828987917E+02 -0.52980476292E+02  0.75702518551E+02  0.00000000000E+00 0.  1.
         22    1    3    3    0    0  0.40445282395E+02 -0.60735609970E+02 -0.33732907896E+03  0.34513119636E+03  0.00000000000E+00 0.  1.
</event>
<event>
 7    1  0.6017574E-006  0.4459237E+02  0.7818608E-02  0.1525952E+00
          2   -1    0    0  502    0  0.00000000000E+00  0.00000000000E+00  0.11947714800E+04  0.11947714800E+04  0.00000000000E+00 0. -1.
          1   -1    0    0  501    0 -0.00000000000E+00 -0.00000000000E+00 -0.98277912618E+02  0.98277912618E+02  0.00000000000E+00 0. -1.
         25    2    1    2    0    0 -0.15517681197E+02  0.40816488634E+01  0.14598481693E+03  0.19285584599E+03  0.12499740906E+03 0.  0.
          2    1    1    2  501    0 -0.18060122173E+02  0.26236898318E+02 -0.70929956988E+02  0.77753467091E+02  0.00000000000E+00 0. -1.
          1    1    1    2  502    0  0.33577803369E+02 -0.30318547181E+02  0.10214387074E+04  0.10224400795E+04  0.00000000000E+00 0. -1.
         22    1    3    3    0    0 -0.58964933529E+01  0.62897292491E+02  0.96767688943E+02  0.11556307222E+03  0.00000000000E+00 0. -1.
         22    1    3    3    0    0 -0.96211878436E+01 -0.58815643627E+02  0.49217127989E+02  0.77292773778E+02  0.00000000000E+00 0. -1.
</event>
<event>
 7    1  0.6017574E-006  0.9830530E+02  0.7818608E-02  0.1320907E+00
          2   -1    0    0  502    0  0.00000000000E+00  0.00000000000E+00  0.25864697716E+03  0.25864697716E+03  0.00000000000E+00 0. -1.
          1   -1    0    0  501    0 -0.00000000000E+00 -0.00000000000E+00 -0.39782963791E+03  0.39782963791E+03  0.00000000000E+00 0. -1.
         25    2    1    2    0    0 -0.40283767674E+02  0.37838862219E+02 -0.86494879101E+02  0.16174384504E+03  0.12500058346E+03 0.  0.
          2    1    1    2  501    0  0.37113901271E+02 -0.10774455709E+03 -0.25572913808E+03  0.27997093298E+03  0.00000000000E+00 0. -1.
          1    1    1    2  502    0  0.31698664036E+01  0.69905694873E+02  0.20304135643E+03  0.21476183704E+03  0.00000000000E+00 0. -1.
         22    1    3    3    0    0  0.39375747824E+02 -0.14597637008E+01 -0.54668173263E+02  0.67388349102E+02  0.00000000000E+00 0. -1.
         22    1    3    3    0    0 -0.79659515498E+02  0.39298625920E+02 -0.31826705837E+02  0.94355495934E+02  0.00000000000E+00 0. -1.
</event>
<event>
 7    1  0.6017574E-006  0.3622979E+02  0.7818608E-02  0.1614178E+00
          2   -1    0    0  502    0  0.00000000000E+00  0.00000000000E+00  0.62445829896E+03  0.62445829896E+03  0.00000000000E+00 0. -1.
          1   -1    0    0  501    0 -0.00000000000E+00 -0.00000000000E+00 -0.75541766007E+03  0.75541766007E+03  0.00000000000E+00 0. -1.
         25    2    1    2    0    0  0.20567524579E+02 -0.54745958097E+02  0.53625745760E+02  0.14806027446E+03  0.12500392502E+03 0.  0.
          2    1    1    2  501    0 -0.71691596864E+01  0.21397590216E+02 -0.70740356830E+03  0.70776342245E+03  0.00000000000E+00 0. -1.
          1    1    1    2  502    0 -0.13398364893E+02  0.33348367882E+02  0.52281846143E+03  0.52405226212E+03  0.00000000000E+00 0. -1.
         22    1    3    3    0    0  0.71811845166E+02 -0.45438309483E+02  0.24761022569E+02  0.88513780359E+02  0.00000000000E+00 0. -1.
         22    1    3    3    0    0 -0.51244320587E+02 -0.93076486146E+01  0.28864723191E+02  0.59546494104E+02  0.00000000000E+00 0. -1.
</event>
<event>
 7    1  0.6017574E-006  0.2784284E+02  0.7818608E-02  0.1650941E+00
          2   -1    0    0  502    0  0.00000000000E+00  0.00000000000E+00  0.57344467050E+03  0.57344467050E+03  0.00000000000E+00 0. -1.
          1   -1    0    0  501    0 -0.00000000000E+00 -0.00000000000E+00 -0.45485980381E+03  0.45485980381E+03  0.00000000000E+00 0. -1.
         25    2    1    2    0    0 -0.48991841035E+02 -0.28225846383E+01  0.70338233363E+02  0.15159444088E+03  0.12500095984E+03 0.  0.
          2    1    1    2  501    0  0.26149428307E+02  0.93240053929E+01 -0.41346099063E+03  0.41439198889E+03  0.00000000000E+00 0. -1.
          1    1    1    2  502    0  0.22842412727E+02 -0.65014207546E+01  0.46170762396E+03  0.46231804455E+03  0.00000000000E+00 0. -1.
         22    1    3    3    0    0  0.53113356897E+00 -0.54797449023E+02  0.56065094725E+02  0.78398580146E+02  0.00000000000E+00 0. -1.
         22    1    3    3    0    0 -0.49522974604E+02  0.51974864385E+02  0.14273138638E+02  0.73195860730E+02  0.00000000000E+00 0. -1.
</event>
<event>
 7    1  0.6017574E-006  0.7847034E+02  0.7818608E-02  0.1376848E+00
          2   -1    0    0  502    0  0.00000000000E+00  0.00000000000E+00  0.24954528506E+03  0.24954528506E+03  0.00000000000E+00 0. -1.
          1   -1    0    0  501    0 -0.00000000000E+00 -0.00000000000E+00 -0.65823661410E+03  0.65823661410E+03  0.00000000000E+00 0. -1.
         25    2    1    2    0    0  0.22721253804E+02  0.67827572896E+02 -0.15211556347E+03  0.20947799643E+03  0.12500020529E+03 0.  0.
          2    1    1    2  501    0  0.31134362522E+02 -0.75062236263E+02 -0.47056136258E+03  0.47752663150E+03  0.00000000000E+00 0. -1.
          1    1    1    2  502    0 -0.53855616326E+02  0.72346633672E+01  0.21398559701E+03  0.22077727123E+03  0.00000000000E+00 0. -1.
         22    1    3    3    0    0  0.67388970201E+01  0.45403406505E+02 -0.17036679964E+03  0.17644185579E+03  0.00000000000E+00 0.  1.
         22    1    3    3    0    0  0.15982356784E+02  0.22424166391E+02  0.18251236173E+02  0.33036140643E+02  0.00000000000E+00 0.  1.
</event>
<event>
 7    1  0.6017574E-006  0.1242141E+03  0.7818608E-02  0.1324343E+00
          2   -1    0    0  502    0  0.00000000000E+00  0.00000000000E+00  0.15972259370E+04  0.15972259370E+04  0.00000000000E+00 0. -1.
          1   -1    0    0  501    0 -0.00000000000E+00 -0.00000000000E+00 -0.28454073161E+03  0.28454073161E+03  0.00000000000E+00 0. -1.
         25    2    1    2    0    0  0.50432067231E+02 -0.58648695675E+02  0.79066183977E+02  0.16689071302E+03  0.12497193979E+03 0.  0.
          2    1    1    2  501    0 -0.83439873942E+02  0.10102440556E+03 -0.22225963011E+03  0.25800675622E+03  0.00000000000E+00 0. -1.
          1    1    1    2  502    0  0.33007806711E+02 -0.42375709889E+02  0.14558786516E+04  0.14568691994E+04  0.00000000000E+00 0. -1.
         22    1    3    3    0    0  0.31529194046E+02  0.12100827493E+01  0.96676176362E+02  0.10169482511E+03  0.00000000000E+00 0. -1.
         22    1    3    3    0    0  0.18902873185E+02 -0.59858778424E+02 -0.17609992385E+02  0.65195887914E+02  0.00000000000E+00 0. -1.
</event>
<event>
 7    1  0.6017574E-006  0.1302314E+03  0.7818608E-02  0.1311329E+00
          2   -1    0    0  502    0  0.00000000000E+00  0.00000000000E+00  0.35834674097E+04  0.35834674097E+04  0.00000000000E+00 0. -1.
          1   -1    0    0  501    0 -0.00000000000E+00 -0.00000000000E+00 -0.10412083944E+02  0.10412083944E+02  0.00000000000E+00 0. -1.
         25    2    1    2    0    0 -0.42837180122E+02  0.88730378936E+02  0.20232161828E+04  0.20294642991E+04  0.12495405113E+03 0.  0.
          2    1    1    2  501    0  0.97209890866E+02 -0.10765462399E+03  0.85700991300E+03  0.86919806255E+03  0.00000000000E+00 0. -1.
          1    1    1    2  502    0 -0.54372710744E+02  0.18924245052E+02  0.69282922995E+03  0.69521713198E+03  0.00000000000E+00 0. -1.
         22    1    3    3    0    0 -0.46656874261E+02  0.11141395170E+03  0.19162290562E+04  0.19200322207E+04  0.00000000000E+00 0.  1.
         22    1    3    3    0    0  0.38196941385E+01 -0.22683572763E+02  0.10698712654E+03  0.10943207839E+03  0.00000000000E+00 0.  1.
</event>
<event>
 7    1  0.6017574E-006  0.1107019E+03  0.7818608E-02  0.1400841E+00
          2   -1    0    0  502    0  0.00000000000E+00  0.00000000000E+00  0.15533938952E+04  0.15533938952E+04  0.00000000000E+00 0. -1.
          1   -1    0    0  501    0 -0.00000000000E+00 -0.00000000000E+00 -0.10289963985E+04  0.10289963985E+04  0.00000000000E+00 0. -1.
         25    2    1    2    0    0 -0.98146315015E+02 -0.10224682829E+03  0.12106107557E+04  0.12252721588E+04  0.12500539289E+03 0.  0.
          2    1    1    2  501    0  0.80581544164E+02  0.75793925062E+02 -0.10179106234E+04  0.10239043615E+04  0.00000000000E+00 0. -1.
          1    1    1    2  502    0  0.17564770851E+02  0.26452903225E+02  0.33169736428E+03  0.33321377333E+03  0.00000000000E+00 0. -1.
         22    1    3    3    0    0 -0.61856767161E+02 -0.11141459155E+03  0.59348135973E+03  0.60700872745E+03  0.00000000000E+00 0.  1.
         22    1    3    3    0    0 -0.36289547854E+02  0.91677632583E+01  0.61712939602E+03  0.61826343139E+03  0.00000000000E+00 0.  1.
</event>
<event>
 7    1  0.6017574E-006  0.1293336E+03  0.7818608E-02  0.1229647E+00
          2   -1    0    0  502    0  0.00000000000E+00  0.00000000000E+00  0.14927727816E+03  0.14927727816E+03  0.00000000000E+00 0. -1.
          1   -1    0    0  501    0 -0.00000000000E+00 -0.00000000000E+00 -0.10937138711E+04  0.10937138711E+04  0.00000000000E+00 0. -1.
         25    2    1    2    0    0 -0.34441163166E+02  0.79776064378E+02 -0.20834965900E+03  0.25803926903E+03  0.12499707912E+03 0.  0.
          2    1    1    2  501    0 -0.85071824267E+02 -0.12487809519E+03 -0.81889533450E+03  0.83271923409E+03  0.00000000000E+00 0. -1.
          1    1    1    2  502    0  0.11951298743E+03  0.45102030817E+02  0.82808400560E+02  0.15223264615E+03  0.00000000000E+00 0. -1.
         22    1    3    3    0    0 -0.22686369751E+02 -0.26738406183E+02 -0.98597757816E+02  0.10464765446E+03  0.00000000000E+00 0. -1.
         22    1    3    3    0    0 -0.11754793415E+02  0.10651447056E+03 -0.10975190118E+03  0.15339161457E+03  0.00000000000E+00 0. -1.
</event>
<event>
 7    1  0.6017574E-006  0.9534565E+02  0.7818608E-02  0.1386758E+00
          2   -1    0    0  502    0  0.00000000000E+00  0.00000000000E+00  0.22136195071E+04  0.22136195071E+04  0.00000000000E+00 0. -1.
          1   -1    0    0  501    0 -0.00000000000E+00 -0.00000000000E+00 -0.17971633515E+02  0.17971633515E+02  0.00000000000E+00 0. -1.
         25    2    1    2    0    0 -0.76464668284E+02 -0.48932898562E+02  0.72480671248E+03  0.74108688306E+03  0.12499489483E+03 0.  0.
          2    1    1    2  501    0 -0.20408709682E+02  0.35857342430E+02  0.43998002779E+02  0.60316570571E+02  0.00000000000E+00 0. -1.
          1    1    1    2  502    0  0.96873377965E+02  0.13075556132E+02  0.14268431584E+04  0.14301876870E+04  0.00000000000E+00 0. -1.
         22    1    3    3    0    0 -0.10852195472E+03 -0.22741872156E+02  0.57882445390E+03  0.58934875569E+03  0.00000000000E+00 0.  1.
         22    1    3    3    0    0  0.32057286432E+02 -0.26191026406E+02  0.14598225858E+03  0.15173812737E+03  0.00000000000E+00 0.  1.
</event>
<event>
 7    1  0.6017574E-006  0.4074970E+02  0.7818608E-02  0.1545791E+00
          2   -1    0    0  502    0  0.00000000000E+00  0.00000000000E+00  0.89824372487E+03  0.89824372487E+03  0.00000000000E+00 0. -1.
          1   -1    0    0  501    0 -0.00000000000E+00 -0.00000000000E+00 -0.27064885698E+03  0.27064885698E+03  0.00000000000E+00 0. -1.
         25    2    1    2    0    0  0.70995640397E+02 -0.17868512169E+01  0.66514584732E+02  0.15840946136E+03  0.12500317465E+03 0.  0.
          2    1    1    2  501    0 -0.30601597973E+02  0.76199109719E+00 -0.22313631063E+03  0.22522622306E+03  0.00000000000E+00 0. -1.
          1    1    1    2  502    0 -0.40394042424E+02  0.10248601197E+01  0.78421659379E+03  0.78525689744E+03  0.00000000000E+00 0. -1.
         22    1    3    3    0    0  0.36902122059E+02 -0.62294159698E+02  0.21055810811E+02  0.75403422428E+02  0.00000000000E+00 0. -1.
         22    1    3    3    0    0  0.34093518339E+02  0.60507308481E+02  0.45458773921E+02  0.83006038930E+02  0.00000000000E+00 0. -1.
</event>
<event>
 7    1  0.6017574E-006  0.7168484E+02  0.7818608E-02  0.1389796E+00
          2   -1    0    0  502    0  0.00000000000E+00  0.00000000000E+00  0.99513071325E+03  0.99513071325E+03  0.00000000000E+00 0. -1.
          1   -1    0    0  501    0 -0.00000000000E+00 -0.00000000000E+00 -0.12586758368E+04  0.12586758368E+04  0.00000000000E+00 0. -1.
         25    2    1    2    0    0  0.78496964087E+02  0.14593683821E+01 -0.70308351542E+02  0.16349142330E+03  0.12498911180E+03 0.  0.
          2    1    1    2  501    0 -0.54870037421E+02  0.46596465688E+02 -0.11398838735E+04  0.11421546290E+04  0.00000000000E+00 0. -1.
          1    1    1    2  502    0 -0.23626926666E+02 -0.48055834070E+02  0.94664710142E+03  0.94816049775E+03  0.00000000000E+00 0. -1.
         22    1    3    3    0    0  0.74866488550E+02 -0.45906369634E+02 -0.12558660340E+02  0.88713616938E+02  0.00000000000E+00 0. -1.
         22    1    3    3    0    0  0.36304755372E+01  0.47365738016E+02 -0.57749691202E+02  0.74777806362E+02  0.00000000000E+00 0. -1.
</event>
<event>
 7    1  0.6017574E-006  0.8668974E+02  0.7818608E-02  0.1349399E+00
          2   -1    0    0  502    0  0.00000000000E+00  0.00000000000E+00  0.91532533979E+03  0.91532533979E+03  0.00000000000E+00 0. -1.
          1   -1    0    0  501    0 -0.00000000000E+00 -0.00000000000E+00 -0.43029259912E+02  0.43029259912E+02  0.00000000000E+00 0. -1.
         25    2    1    2    0    0 -0.15026916377E+02 -0.58273383112E+02  0.62248001302E+03  0.63775181058E+03  0.12499763958E+03 0.  0.
          2    1    1    2  501    0 -0.42755831726E+02  0.80422654326E+02  0.35875769289E+02  0.97892468032E+02  0.00000000000E+00 0. -1.
          1    1    1    2  502    0  0.57782748103E+02 -0.22149271214E+02  0.21394029757E+03  0.22271032108E+03  0.00000000000E+00 0. -1.
         22    1    3    3    0    0  0.51668677879E+02 -0.35046956983E+01  0.20450417867E+03  0.21095946117E+03  0.00000000000E+00 0. -1.
         22    1    3    3    0    0 -0.66695594256E+02 -0.54768687413E+02  0.41797583435E+03  0.42679234941E+03  0.00000000000E+00 0. -1.
</event>
<event>
 7    1  0.6017574E-006  0.5595404E+02  0.7818608E-02  0.1476866E+00
          2   -1    0    0  502    0  0.00000000000E+00  0.00000000000E+00  0.30793561754E+03  0.30793561754E+03  0.00000000000E+00 0. -1.
          1   -1    0    0  501    0 -0.00000000000E+00 -0.00000000000E+00 -0.21137089786E+03  0.21137089786E+03  0.00000000000E+00 0. -1.
         25    2    1    2    0    0  0.23475967898E+02 -0.57814406050E+02  0.16552073859E+02  0.14068711415E+03  0.12500106529E+03 0.  0.
          2    1    1    2  501    0  0.11953150643E+02  0.54923017506E+02 -0.14255226094E+03  0.15323368677E+03  0.00000000000E+00 0. -1.
          1    1    1    2  502    0 -0.35429118541E+02  0.28913885436E+01  0.22256490676E+03  0.22538571448E+03  0.00000000000E+00 0. -1.
         22    1    3    3    0    0  0.45159400324E+02 -0.20067426889E+02  0.60978230012E+02  0.78488327763E+02  0.00000000000E+00 0. -1.
         22    1    3    3    0    0 -0.21683432426E+02 -0.37746979161E+02 -0.44426156153E+02  0.62198786388E+02  0.00000000000E+00 0. -1.
</event>
<event>
 7    1  0.6017574E-006  0.1397248E+03  0.7818608E-02  0.1248454E+00
          2   -1    0    0  502    0  0.00000000000E+00  0.00000000000E+00  0.69453288310E+03  0.69453288310E+03  0.00000000000E+00 0. -1.
          1   -1    0    0  501    0 -0.00000000000E+00 -0.00000000000E+00 -0.59967448126E+03  0.59967448126E+03  0.00000000000E+00 0. -1.
         25    2    1    2    0    0  0.22189748556E+02  0.21740545306E+03  0.12197435340E+03  0.27974920610E+03  0.12499743785E+03 0.  0.
          2    1    1    2  501    0 -0.43319000009E+02 -0.87519935729E+02 -0.50727721281E+03  0.51659117835E+03  0.00000000000E+00 0. -1.
          1    1    1    2  502    0  0.21129251454E+02 -0.12988551733E+03  0.48016126125E+03  0.49786697991E+03  0.00000000000E+00 0. -1.
         22    1    3    3    0    0 -0.11753474135E+02  0.12331253454E+03  0.24558161988E+01  0.12389574796E+03  0.00000000000E+00 0. -1.
         22    1    3    3    0    0  0.33943222691E+02  0.94092918518E+02  0.11951853720E+03  0.15585345815E+03  0.00000000000E+00 0. -1.
</event>
<event>
 7    1  0.6017574E-006  0.4285879E+02  0.7818608E-02  0.1579748E+00
          2   -1    0    0  502    0  0.00000000000E+00  0.00000000000E+00  0.15080845972E+04  0.15080845972E+04  0.00000000000E+00 0. -1.
          1   -1    0    0  501    0 -0.00000000000E+00 -0.00000000000E+00 -0.31885365846E+03  0.31885365846E+03  0.00000000000E+00 0. -1.
         25    2    1    2    0    0 -0.31113068501E+02 -0.39646648772E+01  0.64241203359E+03  0.65521140833E+03  0.12500010847E+03 0.  0.
          2    1    1    2  501    0  0.38836241097E+02 -0.18215626914E+02 -0.31082018236E+03  0.31376623216E+03  0.00000000000E+00 0. -1.
          1    1    1    2  502    0 -0.77231725955E+01  0.22180291791E+02  0.85763908751E+03  0.85796061516E+03  0.00000000000E+00 0. -1.
         22    1    3    3    0    0  0.41864782269E+02  0.24880857060E+02  0.29962910328E+03  0.30356105905E+03  0.00000000000E+00 0. -1.
         22    1    3    3    0    0 -0.72977850771E+02 -0.28845521938E+02  0.34278293031E+03  0.35165034928E+03  0.00000000000E+00 0. -1.
</event>
<event>
 7    1  0.6017574E-006  0.1007496E+03  0.7818608E-02  0.1340306E+00
          2   -1    0    0  502    0  0.00000000000E+00  0.00000000000E+00  0.21026378572E+03  0.21026378572E+03  0.00000000000E+00 0. -1.
          1   -1    0    0  501    0 -0.00000000000E+00 -0.00000000000E+00 -0.81392108202E+03  0.81392108202E+03  0.00000000000E+00 0. -1.
         25    2    1    2    0    0  0.58635291330E+02  0.41394105322E+02 -0.29731450475E+03  0.33040565669E+03  0.12498165424E+03 0.  0.
          2    1    1    2  501    0 -0.20568135295E+02  0.53777852079E+02 -0.48467730984E+03  0.48808523870E+03  0.00000000000E+00 0. -1.
          1    1    1    2  502    0 -0.38067156035E+02 -0.95171957401E+02  0.17833451829E+03  0.20569397234E+03  0.00000000000E+00 0. -1.
         22    1    3    3    0    0  0.55730518574E+02  0.29790075791E+02 -0.30796968052E+03  0.31438616928E+03  0.00000000000E+00 0.  1.
         22    1    3    3    0    0  0.29047727563E+01  0.11604029531E+02  0.10655175773E+02  0.16019487410E+02  0.00000000000E+00 0.  1.
</event>
<event>
 7    1  0.6017574E-006  0.1778098E+03  0.7818608E-02  0.1259451E+00
          2   -1    0    0  502    0  0.00000000000E+00  0.00000000000E+00  0.56370983689E+03  0.56370983689E+03  0.00000000000E+00 0. -1.
          1   -1    0    0  501    0 -0.00000000000E+00 -0.00000000000E+00 -0.76238015591E+03  0.76238015591E+03  0.00000000000E+00 0. -1.
         25    2    1    2    0    0  0.13475499283E+03 -0.19374582192E+03  0.69468677700E+02  0.27594812403E+03  0.12500047347E+03 0.  0.
          2    1    1    2  501    0 -0.77222960058E+02  0.15601130735E+03 -0.64447359970E+03  0.66756957262E+03  0.00000000000E+00 0. -1.
          1    1    1    2  502    0 -0.57532032774E+02  0.37734514570E+02  0.37633460297E+03  0.38257229615E+03  0.00000000000E+00 0. -1.
         22    1    3    3    0    0  0.97472290769E+02 -0.35808345816E+02  0.15869708921E+02  0.10504728820E+03  0.00000000000E+00 0. -1.
         22    1    3    3    0    0  0.37282702063E+02 -0.15793747610E+03  0.53598968780E+02  0.17090083582E+03  0.00000000000E+00 0. -1.
</event>
<event>
 7    1  0.6017574E-006  0.7656164E+02  0.7818608E-02  0.1432691E+00
          2   -1    0    0  502    0  0.00000000000E+00  0.00000000000E+00  0.65121895847E+03  0.65121895847E+03  0.00000000000E+00 0. -1.
          1   -1    0    0  501    0 -0.00000000000E+00 -0.00000000000E+00 -0.13410140853E+03  0.13410140853E+03  0.00000000000E+00 0. -1.
         25    2    1    2    0    0  0.91420024876E+02  0.26644572072E+02  0.19677931583E+03  0.25182189234E+03  0.12499844861E+03 0.  0.
          2    1    1    2  501    0 -0.16668370083E+02 -0.31790895544E+02 -0.10014894240E+03  0.10638752871E+03  0.00000000000E+00 0. -1.
          1    1    1    2  502    0 -0.74751654792E+02  0.51463234723E+01  0.42048717652E+03  0.42711094596E+03  0.00000000000E+00 0. -1.
         22    1    3    3    0    0  0.43212172989E+02  0.63476103097E+02  0.46528687818E+02  0.89785446197E+02  0.00000000000E+00 0. -1.
         22    1    3    3    0    0  0.48207851887E+02 -0.36831531026E+02  0.15025062801E+03  0.16203644614E+03  0.00000000000E+00 0. -1.
</event>
<event>
 7    1  0.6017574E-006  0.1090347E+03  0.7818608E-02  0.1409511E+00
          2   -1    0    0  502    0  0.00000000000E+00  0.00000000000E+00  0.19166259165E+04  0.19166259165E+04  0.00000000000E+00 0. -1.
          1   -1    0    0  501    0 -0.00000000000E+00 -0.00000000000E+00 -0.89169042197E+02  0.89169042197E+02  0.00000000000E+00 0. -1.
         25    2    1    2    0    0 -0.11295726540E+03  0.66478136856E+01  0.44071431123E+03  0.47186729287E+03  0.12500440280E+03 0.  0.
          2    1    1    2  501    0  0.63981052881E+01 -0.29428141214E+02 -0.68386710662E+02  0.74724115530E+02  0.00000000000E+00 0. -1.
          1    1    1    2  502    0  0.10655916012E+03  0.22780327529E+02  0.14551292737E+04  0.14592035503E+04  0.00000000000E+00 0. -1.
         22    1    3    3    0    0 -0.80208507992E+02  0.36256463023E+02  0.40674980911E+03  0.41616504308E+03  0.00000000000E+00 0.  1.
         22    1    3    3    0    0 -0.32748757412E+02 -0.29608649338E+02  0.33964502116E+02  0.55702249790E+02  0.00000000000E+00 0.  1.
</event>
<event>
 7    1  0.6017574E-006  0.1180216E+03  0.7818608E-02  0.1442516E+00
          2   -1    0    0  502    0  0.00000000000E+00  0.00000000000E+00  0.21946666264E+04  0.21946666264E+04  0.00000000000E+00 0. -1.
          1   -1    0    0  501    0 -0.00000000000E+00 -0.00000000000E+00 -0.14385643492E+04  0.14385643492E+04  0.00000000000E+00 0. -1.
         25    2    1    2    0    0 -0.11057915035E+03  0.50663482153E+02 -0.74270521468E+02  0.18956566503E+03  0.12499797631E+03 0.  0.
          2    1    1    2  501    0  0.13715735818E+02  0.16727902934E+02 -0.13049276258E+04  0.13051069124E+04  0.00000000000E+00 0. -1.
          1    1    1    2  502    0  0.96863414533E+02 -0.67391385087E+02  0.21353004244E+04  0.21385583982E+04  0.00000000000E+00 0. -1.
         22    1    3    3    0    0 -0.95967104048E+02  0.88947451543E+02 -0.69918608756E+02  0.14835749407E+03  0.00000000000E+00 0. -1.
         22    1    3    3    0    0 -0.14612046303E+02 -0.38283969391E+02 -0.43519127119E+01  0.41208170958E+02  0.00000000000E+00 0. -1.
</event>
<event>
 7    1  0.6017574E-006  0.5526628E+02  0.7818608E-02  0.1456545E+00
          2   -1    0    0  502    0  0.00000000000E+00  0.00000000000E+00  0.24388150180E+04  0.24388150180E+04  0.00000000000E+00 0. -1.
          1   -1    0    0  501    0 -0.00000000000E+00 -0.00000000000E+00 -0.11523113500E+03  0.11523113500E+03  0.00000000000E+00 0. -1.
         25    2    1    2    0    0  0.26058719008E+02 -0.75797103378E+02  0.40607522821E+02  0.15394133252E+03  0.12499882092E+03 0.  0.
          2    1    1    2  501    0  0.84676516080E+01  0.52491074065E+02 -0.46271496209E+02  0.70484504267E+02  0.00000000000E+00 0. -1.
          1    1    1    2  502    0 -0.34526370616E+02  0.23306029313E+02  0.23292478564E+04  0.23296203162E+04  0.00000000000E+00 0. -1.
         22    1    3    3    0    0  0.76150742750E+02 -0.43410624943E+02  0.14575761767E+02  0.88858712631E+02  0.00000000000E+00 0.  1.
         22    1    3    3    0    0 -0.50092023742E+02 -0.32386478435E+02  0.26031761053E+02  0.65082619888E+02  0.00000000000E+00 0.  1.
</event>
<event>
 7    1  0.6017574E-006  0.1362886E+03  0.7818608E-02  0.1386304E+00
          2   -1    0    0  502    0  0.00000000000E+00  0.00000000000E+00  0.29333305852E+03  0.29333305852E+03  0.00000000000E+00 0. -1.
          1   -1    0    0  501    0 -0.00000000000E+00 -0.00000000000E+00 -0.11619393575E+04  0.11619393575E+04  0.00000000000E+00 0. -1.
         25    2    1    2    0    0 -0.84100927515E+02 -0.68157029458E+02 -0.71039393517E+03  0.72938519440E+03  0.12499948807E+03 0.  0.
          2    1    1    2  501    0 -0.19344481515E+02 -0.21565007693E+02 -0.42501234298E+03  0.42599853310E+03  0.00000000000E+00 0. -1.
          1    1    1    2  502    0  0.10344540903E+03  0.89722037151E+02  0.26679997918E+03  0.29988868850E+03  0.00000000000E+00 0. -1.
         22    1    3    3    0    0 -0.10116851409E+03 -0.31793395626E+02 -0.32410149698E+03  0.34100977786E+03  0.00000000000E+00 0.  1.
         22    1    3    3    0    0  0.17067586578E+02 -0.36363633832E+02 -0.38629243819E+03  0.38837541655E+03  0.00000000000E+00 0.  1.
</event>
<event>
 7    1  0.6017574E-006  0.8169803E+02  0.7818608E-02  0.1345885E+00
          2   -1    0    0  502    0  0.00000000000E+00  0.00000000000E+00  0.15125202167E+03  0.15125202167E+03  0.00000000000E+00 0. -1.
          1   -1    0    0  501    0 -0.00000000000E+00 -0.00000000000E+00 -0.11420188324E+04  0.11420188324E+04  0.00000000000E+00 0. -1.
         25    2    1    2    0    0 -0.18053508175E+02 -0.32646545858E+01 -0.20761858971E+03  0.24303761434E+03  0.12500086425E+03 0.  0.
          2    1    1    2  501    0 -0.61907781434E+02 -0.27323186869E+02 -0.90157007378E+03  0.90410603796E+03  0.00000000000E+00 0. -1.
          1    1    1    2  502    0  0.79961289609E+02  0.30587841455E+02  0.11842185277E+03  0.14612720176E+03  0.00000000000E+00 0. -1.
         22    1    3    3    0    0  0.49871895894E+02  0.11197225907E+02 -0.53486946090E+02  0.73982682231E+02  0.00000000000E+00 0.  1.
         22    1    3    3    0    0 -0.67925404069E+02 -0.14461880493E+02 -0.15413164362E+03  0.16905493211E+03  0.00000000000E+00 0.  1.
</event>
<event>
 7    1  0.6017574E-006  0.9005352E+02  0.7818608E-02  0.1442140E+00
          2   -1    0    0  502    0  0.00000000000E+00  0.00000000000E+00  0.94333120016E+03  0.94333120016E+03  0.00000000000E+00 0. -1.
          1   -1    0    0  501    0 -0.00000000000E+00 -0.00000000000E+00 -0.80814028155E+03  0.80814028155E+03  0.00000000000E+00 0. -1.
         25    2    1    2    0    0  0.48533580884E+02  0.10708104265E+03 -0.62835281578E+03  0.65136329588E+03  0.12500009582E+03 0.  0.
          2    1    1    2  501    0 -0.60652992403E+01 -0.27775245335E+02 -0.16489166768E+03  0.16732457733E+03  0.00000000000E+00 0. -1.
          1    1    1    2  502    0 -0.42468281643E+02 -0.79305797316E+02  0.92843540207E+03  0.93278360849E+03  0.00000000000E+00 0. -1.
         22    1    3    3    0    0  0.57265958471E+02  0.10771649493E+03 -0.63062628105E+03  0.64231747573E+03  0.00000000000E+00 0.  1.
         22    1    3    3    0    0 -0.87323775877E+01 -0.63545228187E+00  0.22734652654E+01  0.90458201535E+01  0.00000000000E+00 0.  1.
</event>
<event>
 7    1  0.6017574E-006  0.1726621E+03  0.7818608E-02  0.1254355E+00
          2   -1    0    0  502    0  0.00000000000E+00  0.00000000000E+00  0.41428133747E+03  0.41428133747E+03  0.00000000000E+00 0. -1.
          1   -1    0    0  501    0 -0.00000000000E+00 -0.00000000000E+00 -0.13548608751E+04  0.13548608751E+04  0.00000000000E+00 0. -1.
         25    2    1    2    0    0 -0.25329693059E+01 -0.12064328990E+03 -0.14424506526E+01  0.17374854390E+03  0.12500102605E+03 0.  0.
          2    1    1    2  501    0  0.34159721941E+02 -0.66220122034E+02 -0.12386861982E+04  0.12409252551E+04  0.00000000000E+00 0. -1.
          1    1    1    2  502    0 -0.31626752636E+02  0.18686341193E+03  0.29954911120E+03  0.35446841357E+03  0.00000000000E+00 0. -1.
         22    1    3    3    0    0  0.26469845493E+02  0.16375537129E+02 -0.11855843687E+02  0.33307235944E+02  0.00000000000E+00 0. -1.
         22    1    3    3    0    0 -0.29002814799E+02 -0.13701882702E+03  0.10413393035E+02  0.14044130795E+03  0.00000000000E+00 0. -1.
</event>
<event>
 7    1  0.6017574E-006  0.1165064E+03  0.7818608E-02  0.1370685E+00
          2   -1    0    0  502    0  0.00000000000E+00  0.00000000000E+00  0.21954015130E+03  0.21954015130E+03  0.00000000000E+00 0. -1.
          1   -1    0    0  501    0 -0.00000000000E+00 -0.00000000000E+00 -0.11367738671E+04  0.11367738671E+04  0.00000000000E+00 0. -1.
         25    2    1    2    0    0  0.11602155120E+03  0.40880635868E+02 -0.25312179994E+03  0.30794154974E+03  0.12500050289E+03 0.  0.
          2    1    1    2  501    0 -0.23811579001E+02  0.30258094769E+02 -0.83811080376E+03  0.83899479318E+03  0.00000000000E+00 0. -1.
          1    1    1    2  502    0 -0.92209972202E+02 -0.71138730636E+02  0.17399888794E+03  0.20937767545E+03  0.00000000000E+00 0. -1.
         22    1    3    3    0    0 -0.11178968497E+02  0.45868317320E+02 -0.82667985399E+02  0.95199094956E+02  0.00000000000E+00 0.  1.
         22    1    3    3    0    0  0.12720051970E+03 -0.49876814521E+01 -0.17045381454E+03  0.21274245479E+03  0.00000000000E+00 0.  1.
</event>
<event>
 7    1  0.6017574E-006  0.5597573E+02  0.7818608E-02  0.1525201E+00
          2   -1    0    0  502    0  0.00000000000E+00  0.00000000000E+00  0.30936563899E+04  0.30936563899E+04  0.00000000000E+00 0. -1.
          1   -1    0    0  501    0 -0.00000000000E+00 -0.00000000000E+00 -0.22868302012E+02  0.22868302012E+02  0.00000000000E+00 0. -1.
         25    2    1    2    0    0  0.36673929153E+02  0.70043748300E+01  0.35671657953E+03  0.37982360317E+03  0.12500085226E+03 0.  0.
          2    1    1    2  501    0  0.11305340071E+02  0.22858359958E+02  0.37325353624E+01  0.25772992731E+02  0.00000000000E+00 0. -1.
          1    1    1    2  502    0 -0.47979269224E+02 -0.29862734788E+02  0.27103389730E+04  0.27109280960E+04  0.00000000000E+00 0. -1.
         22    1    3    3    0    0  0.55645409058E+02  0.55347603272E+02  0.21931771083E+03  0.23293781793E+03  0.00000000000E+00 0. -1.
         22    1    3    3    0    0 -0.18971479905E+02 -0.48343228442E+02  0.13739886870E+03  0.14688578524E+03  0.00000000000E+00 0. -1.
</event>
<event>
 7    1  0.6017574E-006  0.9949590E+02  0.7818608E-02  0.1358320E+00
          2   -1    0    0  502    0  0.00000000000E+00  0.00000000000E+00  0.15995345514E+04  0.15995345514E+04  0.00000000000E+00 0. -1.
          1   -1    0    0  501    0 -0.00000000000E+00 -0.00000000000E+00 -0.88077320706E+03  0.88077320706E+03  0.00000000000E+00 0. -1.
         25    2    1    2    0    0 -0.49678094507E+02 -0.40204703460E+02  0.25832767093E+03  0.29401195361E+03  0.12500204816E+03 0.  0.
          2    1    1    2  501    0 -0.22605157044E+01 -0.49937481636E+02 -0.86015963477E+03  0.86161096748E+03  0.00000000000E+00 0. -1.
          1    1    1    2  502    0  0.51938610211E+02  0.90142185097E+02  0.13205933082E+04  0.13246848374E+04  0.00000000000E+00 0. -1.
         22    1    3    3    0    0 -0.67934770313E+02  0.17156207567E+02  0.19227794056E+03  0.20464670753E+03  0.00000000000E+00 0.  1.
         22    1    3    3    0    0  0.18256675806E+02 -0.57360911027E+02  0.66049730363E+02  0.89365246077E+02  0.00000000000E+00 0.  1.
</event>
<event>
 7    1  0.6017574E-006  0.7652057E+02  0.7818608E-02  0.1354058E+00
          2   -1    0    0  502    0  0.00000000000E+00  0.00000000000E+00  0.85323582888E+03  0.85323582888E+03  0.00000000000E+00 0. -1.
          1   -1    0    0  501    0 -0.00000000000E+00 -0.00000000000E+00 -0.10141015515E+03  0.10141015515E+03  0.00000000000E+00 0. -1.
         25    2    1    2    0    0 -0.34222958002E+02  0.48329935078E+02  0.48499285456E+03  0.50433102811E+03  0.12499889383E+03 0.  0.
          2    1    1    2  501    0 -0.49812638809E+02 -0.58086991158E+02 -0.69581517860E+02  0.10342623050E+03  0.00000000000E+00 0. -1.
          1    1    1    2  502    0  0.84035596811E+02  0.97570560796E+01  0.33641433703E+03  0.34688872543E+03  0.00000000000E+00 0. -1.
         22    1    3    3    0    0  0.37148738358E+02  0.18156399799E+02  0.63506317309E+02  0.75780841599E+02  0.00000000000E+00 0. -1.
         22    1    3    3    0    0 -0.71371696360E+02  0.30173535279E+02  0.42148653725E+03  0.42855018651E+03  0.00000000000E+00 0. -1.
</event>
<event>
 7    1  0.6017574E-006  0.2651948E+02  0.7818608E-02  0.1654551E+00
          2   -1    0    0  502    0  0.00000000000E+00  0.00000000000E+00  0.98003567809E+03  0.98003567809E+03  0.00000000000E+00 0. -1.
          1   -1    0    0  501    0 -0.00000000000E+00 -0.00000000000E+00 -0.13319112585E+03  0.13319112585E+03  0.00000000000E+00 0. -1.
         25    2    1    2    0    0 -0.20687874598E+02  0.39519405496E+02  0.38403880095E+02  0.13816501045E+03  0.12499976216E+03 0.  0.
          2    1    1    2  501    0  0.19989817714E+00 -0.26206758754E+02 -0.81077585236E+02  0.85208033608E+02  0.00000000000E+00 0. -1.
          1    1    1    2  502    0  0.20487976421E+02 -0.13312646742E+02  0.88951825739E+03  0.88985375988E+03  0.00000000000E+00 0. -1.
         22    1    3    3    0    0  0.35520187864E+02 -0.24193013426E+02  0.30778294551E+02  0.52861035367E+02  0.00000000000E+00 0. -1.
         22    1    3    3    0    0 -0.56208062462E+02  0.63712418922E+02  0.76255855439E+01  0.85303975087E+02  0.00000000000E+00 0. -1.
</event>
<event>
 7    1  0.6017574E-006  0.9329953E+02  0.7818608E-02  0.1443313E+00
          2   -1    0    0  502    0  0.00000000000E+00  0.00000000000E+00  0.27402550990E+03  0.27402550990E+03  0.00000000000E+00 0. -1.
          1   -1    0    0  501    0 -0.00000000000E+00 -0.00000000000E+00 -0.56767536580E+03  0.56767536580E+03  0.00000000000E+00 0. -1.
         25    2    1    2    0    0 -0.11088276432E+03  0.16283157062E+02 -0.47869513919E+02  0.17457505448E+03  0.12499932263E+03 0.  0.
          2    1    1    2  501    0  0.23914309621E+02  0.12964106554E+02 -0.44602851478E+03  0.44685724595E+03  0.00000000000E+00 0. -1.
          1    1    1    2  502    0  0.86968454697E+02 -0.29247263616E+02  0.20024817280E+03  0.22026857527E+03  0.00000000000E+00 0. -1.
         22    1    3    3    0    0 -0.95948065499E+02 -0.28741842170E+02 -0.70032585403E+02  0.12221574278E+03  0.00000000000E+00 0. -1.
         22    1    3    3    0    0 -0.14934698818E+02  0.45024999232E+02  0.22163071484E+02  0.52359311705E+02  0.00000000000E+00 0. -1.
</event>
<event>
 7    1  0.6017574E-006  0.9140664E+02  0.7818608E-02  0.1302332E+00
          2   -1    0    0  502    0  0.00000000000E+00  0.00000000000E+00  0.52126126463E+03  0.52126126463E+03  0.00000000000E+00 0. -1.
          1   -1    0    0  501    0 -0.00000000000E+00 -0.00000000000E+00 -0.15365197927E+03  0.15365197927E+03  0.00000000000E+00 0. -1.
         25    2    1    2    0    0 -0.28508272061E+02  0.16606888192E+02  0.20714475338E+02  0.13092808015E+03  0.12499824948E+03 0.  0.
          2    1    1    2  501    0  0.10593649612E+03 -0.60570706326E+02 -0.53911175868E+02  0.13340827021E+03  0.00000000000E+00 0. -1.
          1    1    1    2  502    0 -0.77428224064E+02  0.43963818134E+02  0.40080598589E+03  0.41057689355E+03  0.00000000000E+00 0. -1.
         22    1    3    3    0    0  0.41159020603E+02  0.37484175665E+02  0.16562873006E+02  0.58081470062E+02  0.00000000000E+00 0.  1.
         22    1    3    3    0    0 -0.69667292664E+02 -0.20877287472E+02  0.41516023317E+01  0.72846610088E+02  0.00000000000E+00 0.  1.
</event>
<event>
 7    1  0.6017574E-006  0.2509314E+02  0.7818608E-02  0.1686326E+00
          2   -1    0    0  502    0  0.00000000000E+00  0.00000000000E+00  0.54268012317E+02  0.54268012317E+02  0.00000000000E+00 0. -1.
          1   -1    0    0  501    0 -0.00000000000E+00 -0.00000000000E+00 -0.16694458731E+04  0.16694458731E+04  0.00000000000E+00 0. -1.
         25    2    1    2    0    0  0.44123803584E+02  0.15227999384E+02 -0.11547067049E+03  0.17646025762E+03  0.12500377901E+03 0.  0.
          2    1    1    2  501    0 -0.23417153082E+02 -0.88119217506E+01 -0.15184140132E+04  0.15186201396E+04  0.00000000000E+00 0. -1.
          1    1    1    2  502    0 -0.20706650502E+02 -0.64160776335E+01  0.18706822842E+02  0.28633488227E+02  0.00000000000E+00 0. -1.
         22    1    3    3    0    0 -0.12866970458E+02 -0.28651663829E+02 -0.97343426351E+02  0.10228499119E+03  0.00000000000E+00 0.  1.
         22    1    3    3    0    0  0.56990774041E+02  0.43879663213E+02 -0.18127244136E+02  0.74175266427E+02  0.00000000000E+00 0.  1.
</event>
<event>
 7    1  0.6017574E-006  0.7658705E+02  0.7818608E-02  0.1397726E+00
          2   -1    0    0  502    0  0.00000000000E+00  0.00000000000E+00  0.15981820511E+04  0.15981820511E+04  0.00000000000E+00 0. -1.
          1   -1    0    0  501    0 -0.00000000000E+00 -0.00000000000E+00 -0.16986699739E+04  0.16986699739E+04  0.00000000000E+00 0. -1.
         25    2    1    2    0    0 -0.44860890984E+02  0.14970849536E+02  0.68219659931E+02  0.15004422589E+03  0.12499088705E+03 0.  0.
          2    1    1    2  501    0 -0.29578722302E+02 -0.36583034223E+02 -0.16564147401E+04  0.16570826806E+04  0.00000000000E+00 0. -1.
          1    1    1    2  502    0  0.74439613286E+02  0.21612184687E+02  0.14877071573E+04  0.14897251185E+04  0.00000000000E+00 0. -1.
         22    1    3    3    0    0  0.13610495976E+02  0.32950023995E+02  0.80147813714E+02  0.87718992956E+02  0.00000000000E+00 0. -1.
         22    1    3    3    0    0 -0.58471386960E+02 -0.17979174460E+02 -0.11928153783E+02  0.62325232931E+02  0.00000000000E+00 0. -1.
</event>
<event>
 7    1  0.6017574E-006  0.1221638E+03  0.7818608E-02  0.1397515E+00
          2   -1    0    0  502    0  0.00000000000E+00  0.00000000000E+00  0.39107679186E+03  0.39107679186E+03  0.00000000000E+00 0. -1.
          1   -1    0    0  501    0 -0.00000000000E+00 -0.00000000000E+00 -0.18922870504E+04  0.18922870504E+04  0.00000000000E+00 0. -1.
         25    2    1    2    0    0 -0.92889795248E+02  0.54039435029E+02  0.10645123798E+03  0.19622512322E+03  0.12499463314E+03 0.  0.
          2    1    1    2  501    0  0.89586428432E+02 -0.83396931586E+02 -0.18444539243E+04  0.18485104964E+04  0.00000000000E+00 0. -1.
          1    1    1    2  502    0  0.33033668158E+01  0.29357496557E+02  0.23679242774E+03  0.23862822270E+03  0.00000000000E+00 0. -1.
         22    1    3    3    0    0 -0.87693155726E+02  0.91628358223E+02  0.84220092981E+02  0.15224608256E+03  0.00000000000E+00 0. -1.
         22    1    3    3    0    0 -0.51966395224E+01 -0.37588923194E+02  0.22231145003E+02  0.43979040660E+02  0.00000000000E+00 0. -1.
</event>
<event>
 7    1  0.6017574E-006  0.1176017E+03  0.7818608E-02  0.1348202E+00
          2   -1    0    0  502    0  0.00000000000E+00  0.00000000000E+00  0.47819498514E+03  0.47819498514E+03  0.00000000000E+00 0. -1.
          1   -1    0    0  501    0 -0.00000000000E+00 -0.00000000000E+00 -0.28650875102E+03  0.28650875102E+03  0.00000000000E+00 0. -1.
         25    2    1    2    0    0  0.47328035117E+02 -0.11975337541E+03  0.13822884562E+03  0.22652630916E+03  0.12500456452E+03 0.  0.
          2    1    1    2  501    0 -0.79261260122E+02  0.86524485281E+02 -0.22615953898E+03  0.25478809035E+03  0.00000000000E+00 0. -1.
          1    1    1    2  502    0  0.31933225005E+02  0.33228890125E+02  0.27961692748E+03  0.28338933666E+03  0.00000000000E+00 0. -1.
         22    1    3    3    0    0  0.77824263413E+01 -0.13082224857E+03  0.13009869778E+03  0.18466374318E+03  0.00000000000E+00 0.  1.
         22    1    3    3    0    0  0.39545608775E+02  0.11068873162E+02  0.81301478395E+01  0.41862565980E+02  0.00000000000E+00 0.  1.
</event>
<event>
 7    1  0.6017574E-006  0.1451105E+03  0.7818608E-02  0.1217723E+00
          2   -1    0    0  502    0  0.00000000000E+00  0.00000000000E+00  0.13250162997E+04  0.13250162997E+04  0.00000000000E+00 0. -1.
          1   -1    0    0  501    0 -0.00000000000E+00 -0.00000000000E+00 -0.35826116736E+03  0.35826116736E+03  0.00000000000E+00 0. -1.
         25    2    1    2    0    0 -0.95689988185E+02 -0.57502446993E+02  0.10116366393E+03  0.19576314727E+03  0.12500407066E+03 0.  0.
          2    1    1    2  501    0  0.14209850290E+03 -0.62791659024E+02 -0.28773891656E+03  0.32699917595E+03  0.00000000000E+00 0. -1.
          1    1    1    2  502    0 -0.46408514713E+02  0.12029410602E+03  0.11533303850E+04  0.11605151439E+04  0.00000000000E+00 0. -1.
         22    1    3    3    0    0  0.26137032718E+02 -0.26801949821E+02  0.54699887907E+01  0.37833976409E+02  0.00000000000E+00 0.  1.
         22    1    3    3    0    0 -0.12182702090E+03 -0.30700497172E+02  0.95693675136E+02  0.15792917086E+03  0.00000000000E+00 0.  1.
</event>
<event>
 7    1  0.6017574E-006  0.9838628E+02  0.7818608E-02  0.1338119E+00
          2   -1    0    0  502    0  0.00000000000E+00  0.00000000000E+00  0.36674424191E+03  0.36674424191E+03  0.00000000000E+00 0. -1.
          1   -1    0    0  501    0 -0.00000000000E+00 -0.00000000000E+00 -0.16680251197E+03  0.16680251197E+03  0.00000000000E+00 0. -1.
         25    2    1    2    0    0 -0.11484304085E+03 -0.23775660445E+02  0.13500094743E+03  0.21818359404E+03  0.12499847534E+03 0.  0.
          2    1    1    2  501    0  0.92525030857E+02 -0.32014945081E+02 -0.99920471764E+02  0.13989259709E+03  0.00000000000E+00 0. -1.
          1    1    1    2  502    0  0.22318009994E+02  0.55790605527E+02  0.16486125427E+03  0.17547056275E+03  0.00000000000E+00 0. -1.
         22    1    3    3    0    0 -0.20657638674E+02 -0.62931777134E+02  0.33262896628E+02  0.74118600236E+02  0.00000000000E+00 0. -1.
         22    1    3    3    0    0 -0.94185402176E+02  0.39156116689E+02  0.10173805080E+03  0.14406499380E+03  0.00000000000E+00 0. -1.
</event>
<event>
 7    1  0.6017574E-006  0.1930737E+03  0.7818608E-02  0.1170944E+00
          2   -1    0    0  502    0  0.00000000000E+00  0.00000000000E+00  0.49112055187E+03  0.49112055187E+03  0.00000000000E+00 0. -1.
          1   -1    0    0  501    0 -0.00000000000E+00 -0.00000000000E+00 -0.89266772530E+03  0.89266772530E+03  0.00000000000E+00 0. -1.
         25    2    1    2    0    0  0.60412755353E+02  0.72521509073E+02  0.14526496043E+01  0.15664082209E+03  0.12500066667E+03 0.  0.
          2    1    1    2  501    0 -0.21460577740E+03 -0.23219875550E+02 -0.78400470054E+03  0.81317782359E+03  0.00000000000E+00 0. -1.
          1    1    1    2  502    0  0.15419302205E+03 -0.49301633523E+02  0.38100487750E+03  0.41396963148E+03  0.00000000000E+00 0. -1.
         22    1    3    3    0    0 -0.21358678653E+02  0.70763744818E+02 -0.78071169569E+01  0.74328001518E+02  0.00000000000E+00 0. -1.
         22    1    3    3    0    0  0.81771434006E+02  0.17577642553E+01  0.92597665613E+01  0.82312820577E+02  0.00000000000E+00 0. -1.
</event>
<event>
 7    1  0.6017574E-006  0.1061377E+03  0.7818608E-02  0.1344960E+00
          2   -1    0    0  502    0  0.00000000000E+00  0.00000000000E+00  0.11781002908E+04  0.11781002908E+04  0.00000000000E+00 0. -1.
          1   -1    0    0  501    0 -0.00000000000E+00 -0.00000000000E+00 -0.51400026212E+03  0.51400026212E+03  0.00000000000E+00 0. -1.
         25    2    1    2    0    0  0.42403750055E+02  0.12382408237E+03  0.11280098247E+03  0.21325963953E+03  0.12500052326E+03 0.  0.
          2    1    1    2  501    0  0.67462357766E+01 -0.10536282320E+03 -0.45707031454E+03  0.46910564763E+03  0.00000000000E+00 0. -1.
          1    1    1    2  502    0 -0.49149985832E+02 -0.18461259174E+02  0.10083693608E+04  0.10097352658E+04  0.00000000000E+00 0. -1.
         22    1    3    3    0    0  0.54271914695E+02  0.14603826218E+03  0.97500504743E+02  0.18379054157E+03  0.00000000000E+00 0.  1.
         22    1    3    3    0    0 -0.11868164640E+02 -0.22214179807E+02  0.15300477722E+02  0.29469097967E+02  0.00000000000E+00 0.  1.
</event>
<event>
 7    1  0.6017574E-006  0.4662427E+02  0.7818608E-02  0.1561941E+00
          2   -1    0    0  502    0  0.00000000000E+00  0.00000000000E+00  0.82287213185E+03  0.82287213185E+03  0.00000000000E+00 0. -1.
          1   -1    0    0  501    0 -0.00000000000E+00 -0.00000000000E+00 -0.33006974055E+02  0.33006974055E+02  0.00000000000E+00 0. -1.
         25    2    1    2    0    0  0.40205003742E+02 -0.45208500231E+02  0.16797261303E+03  0.21794533337E+03  0.12500047516E+03 0.  0.
          2    1    1    2  501    0  0.98039125304E+00  0.24110852525E+02  0.13239447594E+02  0.27524123040E+02  0.00000000000E+00 0. -1.
          1    1    1    2  502    0 -0.41185394995E+02  0.21097647706E+02  0.60865309718E+03  0.61040964950E+03  0.00000000000E+00 0. -1.
         22    1    3    3    0    0  0.29888479983E+02  0.74665889752E+01  0.16087982520E+03  0.16380289784E+03  0.00000000000E+00 0. -1.
         22    1    3    3    0    0  0.10316523759E+02 -0.52675089207E+02  0.70927878310E+01  0.54142435525E+02  0.00000000000E+00 0. -1.
</event>
<event>
 7    1  0.6017574E-006  0.6993848E+02  0.7818608E-02  0.1423000E+00
          2   -1    0    0  502    0  0.00000000000E+00  0.00000000000E+00  0.15387955423E+04  0.15387955423E+04  0.00000000000E+00 0. -1.
          1   -1    0    0  501    0 -0.00000000000E+00 -0.00000000000E+00 -0.72536939415E+03  0.72536939415E+03  0.00000000000E+00 0. -1.
         25    2    1    2    0    0  0.23575202304E+02  0.18211639059E+02 -0.47807269356E+03  0.49504103549E+03  0.12499869011E+03 0.  0.
          2    1    1    2  501    0  0.41703623699E+02  0.70787929922E+01 -0.23613147000E+03  0.23989033466E+03  0.00000000000E+00 0. -1.
          1    1    1    2  502    0 -0.65278826003E+02 -0.25290432051E+02  0.15276303117E+04  0.15292335663E+04  0.00000000000E+00 0. -1.
         22    1    3    3    0    0  0.60186546538E+02 -0.27314067888E+02 -0.19181869143E+03  0.20288639449E+03  0.00000000000E+00 0.  1.
         22    1    3    3    0    0 -0.36611344234E+02  0.45525706946E+02 -0.28625400213E+03  0.29215464100E+03  0.00000000000E+00 0.  1.
</event>
<event>
 7    1  0.6017574E-006  0.6534515E+02  0.7818608E-02  0.1465797E+00
          2   -1    0    0  502    0  0.00000000000E+00  0.00000000000E+00  0.13299065000E+04  0.13299065000E+04  0.00000000000E+00 0. -1.
          1   -1    0    0  501    0 -0.00000000000E+00 -0.00000000000E+00 -0.38124981872E+02  0.38124981872E+02  0.00000000000E+00 0. -1.
         25    2    1    2    0    0  0.93603990491E+01  0.48544746545E+02  0.28525716217E+03  0.31534196114E+03  0.12499877757E+03 0.  0.
          2    1    1    2  501    0  0.32764129735E+02  0.34461927153E+01 -0.96385185760E+01  0.34325871903E+02  0.00000000000E+00 0. -1.
          1    1    1    2  502    0 -0.42124528784E+02 -0.51990939260E+02  0.10161628745E+04  0.10183636488E+04  0.00000000000E+00 0. -1.
         22    1    3    3    0    0 -0.29835722131E+02 -0.21797662253E+02  0.17471520182E+03  0.17857970249E+03  0.00000000000E+00 0. -1.
         22    1    3    3    0    0  0.39196121180E+02  0.70342408797E+02  0.11054196035E+03  0.13676225865E+03  0.00000000000E+00 0. -1.
</event>
<event>
 7    1  0.6017574E-006  0.6711511E+02  0.7818608E-02  0.1478720E+00
          2   -1    0    0  502    0  0.00000000000E+00  0.00000000000E+00  0.84324466275E+03  0.84324466275E+03  0.00000000000E+00 0. -1.
          1   -1    0    0  501    0 -0.00000000000E+00 -0.00000000000E+00 -0.62726945897E+03  0.62726945897E+03  0.00000000000E+00 0. -1.
         25    2    1    2    0    0  0.70658837183E+02 -0.46448738455E+02  0.19291211475E+03  0.24492823347E+03  0.12499839583E+03 0.  0.
          2    1    1    2  501    0 -0.64582595154E+02  0.17837929269E+02 -0.59905019897E+03  0.60278540477E+03  0.00000000000E+00 0. -1.
          1    1    1    2  502    0 -0.60762420286E+01  0.28610809185E+02  0.62211328799E+03  0.62280048348E+03  0.00000000000E+00 0. -1.
         22    1    3    3    0    0  0.81551234727E+01 -0.68366813116E+02  0.15253980403E+03  0.16735865376E+03  0.00000000000E+00 0. -1.
         22    1    3    3    0    0  0.62503713710E+02  0.21918074661E+02  0.40372310721E+02  0.77569579716E+02  0.00000000000E+00 0. -1.
</event>
<event>
 7    1  0.6017574E-006  0.1458894E+03  0.7818608E-02  0.1405033E+00
          2   -1    0    0  502    0  0.00000000000E+00  0.00000000000E+00  0.34194153088E+03  0.34194153088E+03  0.00000000000E+00 0. -1.
          1   -1    0    0  501    0 -0.00000000000E+00 -0.00000000000E+00 -0.23323349120E+04  0.23323349120E+04  0.00000000000E+00 0. -1.
         25    2    1    2    0    0 -0.37730768451E+02 -0.11904529271E+03 -0.15202243242E+03  0.23309175629E+03  0.12500221712E+03 0.  0.
          2    1    1    2  501    0  0.51349958902E+02  0.13796462645E+03 -0.21367907929E+04  0.21418557255E+04  0.00000000000E+00 0. -1.
          1    1    1    2  502    0 -0.13619190451E+02 -0.18919333735E+02  0.29841984417E+03  0.29932896107E+03  0.00000000000E+00 0. -1.
         22    1    3    3    0    0 -0.52951468157E+01 -0.26675350935E+00 -0.98819060570E+02  0.98961186680E+02  0.00000000000E+00 0.  1.
         22    1    3    3    0    0 -0.32435621635E+02 -0.11877853921E+03 -0.53203371851E+02  0.13413056961E+03  0.00000000000E+00 0.  1.
</event>
<event>
 7    1  0.6017574E-006  0.1192523E+03  0.7818608E-02  0.1383034E+00
          2   -1    0    0  502    0  0.00000000000E+00  0.00000000000E+00  0.25038954501E+04  0.25038954501E+04  0.00000000000E+00 0. -1.
          1   -1    0    0  501    0 -0.00000000000E+00 -0.00000000000E+00 -0.63943084057E+02  0.63943084057E+02  0.00000000000E+00 0. -1.
         25    2    1    2    0    0  0.36225331159E+02 -0.10567879128E+03  0.62620014812E+03  0.64825329432E+03  0.12500170620E+03 0.  0.
          2    1    1    2  501    0 -0.55696793738E+01  0.12037744191E+03  0.16060118391E+02  0.12157169594E+03  0.00000000000E+00 0. -1.
          1    1    1    2  502    0 -0.30655651785E+02 -0.14698650634E+02  0.17976920995E+04  0.17980135439E+04  0.00000000000E+00 0. -1.
         22    1    3    3    0    0 -0.89292024596E+01 -0.26662520080E+02  0.44104694232E+03  0.44194233330E+03  0.00000000000E+00 0.  1.
         22    1    3    3    0    0  0.45154533619E+02 -0.79016271199E+02  0.18515320580E+03  0.20631096102E+03  0.00000000000E+00 0.  1.
</event>
<event>
 7    1  0.6017574E-006  0.7871916E+02  0.7818608E-02  0.1342579E+00
          2   -1    0    0  502    0  0.00000000000E+00  0.00000000000E+00  0.91635205294E+03  0.91635205294E+03  0.00000000000E+00 0. -1.
          1   -1    0    0  501    0 -0.00000000000E+00 -0.00000000000E+00 -0.14880318313E+03  0.14880318313E+03  0.00000000000E+00 0. -1.
         25    2    1    2    0    0  0.34488465074E+02 -0.20960486870E+01  0.31043028079E+03  0.33643072381E+03  0.12499930019E+03 0.  0.
          2    1    1    2  501    0 -0.41310967063E+01 -0.78610687617E+02 -0.12092234631E+03  0.14428762943E+03  0.00000000000E+00 0. -1.
          1    1    1    2  502    0 -0.30357368368E+02  0.80706736304E+02  0.57804093533E+03  0.58443688283E+03  0.00000000000E+00 0. -1.
         22    1    3    3    0    0  0.33357145535E+02 -0.59527356378E+02  0.20908733386E+03  0.21994026120E+03  0.00000000000E+00 0.  1.
         22    1    3    3    0    0  0.11313195396E+01  0.57431307691E+02  0.10134294693E+03  0.11649046261E+03  0.00000000000E+00 0.  1.
</event>
<event>
 7    1  0.6017574E-006  0.6497949E+02  0.7818608E-02  0.1386887E+00
          2   -1    0    0  502    0  0.00000000000E+00  0.00000000000E+00  0.19718155985E+04  0.19718155985E+04  0.00000000000E+00 0. -1.
          1   -1    0    0  501    0 -0.00000000000E+00 -0.00000000000E+00 -0.16781626388E+04  0.16781626388E+04  0.00000000000E+00 0. -1.
         25    2    1    2    0    0 -0.25990503392E+02  0.16492647494E+02  0.72740830305E+03  0.73871226443E+03  0.12500182634E+03 0.  0.
          2    1    1    2  501    0 -0.11411800673E+02 -0.64016261147E+02 -0.16711398463E+04  0.16724044657E+04  0.00000000000E+00 0. -1.
          1    1    1    2  502    0  0.37402304065E+02  0.47523613653E+02  0.12373845029E+04  0.12388615073E+04  0.00000000000E+00 0. -1.
         22    1    3    3    0    0 -0.20655252570E+02 -0.53299526058E+02  0.27051679031E+03  0.27649016760E+03  0.00000000000E+00 0. -1.
         22    1    3    3    0    0 -0.53352508215E+01  0.69792173552E+02  0.45689151273E+03  0.46222209683E+03  0.00000000000E+00 0. -1.
</event>
<event>
 7    1  0.6017574E-006  0.9633331E+02  0.7818608E-02  0.1371020E+00
          2   -1    0    0  502    0  0.00000000000E+00  0.00000000000E+00  0.21177761908E+03  0.21177761908E+03  0.00000000000E+00 0. -1.
          1   -1    0    0  501    0 -0.00000000000E+00 -0.00000000000E+00 -0.96732569509E+03  0.96732569509E+03  0.00000000000E+00 0. -1.
         25    2    1    2    0    0 -0.58023782462E+02  0.89679402768E+02  0.53775974991E+02  0.17299369035E+03  0.12500322717E+03 0.  0.
          2    1    1    2  501    0  0.46194799643E+02  0.47477951131E+01 -0.88395304299E+03  0.88517200774E+03  0.00000000000E+00 0. -1.
          1    1    1    2  502    0  0.11828982819E+02 -0.94427197882E+02  0.74628991996E+02  0.12093761607E+03  0.00000000000E+00 0. -1.
         22    1    3    3    0    0  0.25160945692E+02  0.30410392724E+02 -0.22576346303E+02  0.45470392413E+02  0.00000000000E+00 0.  1.
         22    1    3    3    0    0 -0.83184728154E+02  0.59269010044E+02  0.76352321294E+02  0.12752329794E+03  0.00000000000E+00 0.  1.
</event>
<event>
 7    1  0.6017574E-006  0.9784908E+02  0.7818608E-02  0.1392579E+00
          2   -1    0    0  502    0  0.00000000000E+00  0.00000000000E+00  0.21475989257E+04  0.21475989257E+04  0.00000000000E+00 0. -1.
          1   -1    0    0  501    0 -0.00000000000E+00 -0.00000000000E+00 -0.77505932813E+03  0.77505932813E+03  0.00000000000E+00 0. -1.
         25    2    1    2    0    0 -0.44357402177E+02 -0.88589379844E+02 -0.30678567885E+03  0.34577315745E+03  0.12500386520E+03 0.  0.
          2    1    1    2  501    0  0.73946863557E+01  0.98867866658E+02 -0.44312873703E+03  0.45408436884E+03  0.00000000000E+00 0. -1.
          1    1    1    2  502    0  0.36962715821E+02 -0.10278486814E+02  0.21224540135E+04  0.21228007276E+04  0.00000000000E+00 0. -1.
         22    1    3    3    0    0  0.11491359225E+02  0.17544834744E+02 -0.57805164179E+01  0.21755158770E+02  0.00000000000E+00 0.  1.
         22    1    3    3    0    0 -0.55848761401E+02 -0.10613421459E+03 -0.30100516243E+03  0.32401799868E+03  0.00000000000E+00 0.  1.
</event>
<event>
 7    1  0.6017574E-006  0.1238447E+03  0.7818608E-02  0.1434905E+00
          2   -1    0    0  502    0  0.00000000000E+00  0.00000000000E+00  0.15289964155E+03  0.15289964155E+03  0.00000000000E+00 0. -1.
          1   -1    0    0  501    0 -0.00000000000E+00 -0.00000000000E+00 -0.55295270641E+03  0.55295270641E+03  0.00000000000E+00 0. -1.
         25    2    1    2    0    0 -0.38792139461E+02 -0.13650679711E+03 -0.12947570690E+03  0.22919073143E+03  0.12500198780E+03 0.  0.
          2    1    1    2  501    0  0.30018986605E+02  0.11652413566E+03 -0.36262203524E+03  0.38206511773E+03  0.00000000000E+00 0. -1.
          1    1    1    2  502    0  0.87731528561E+01  0.19982661456E+02  0.92044677282E+02  0.94596498803E+02  0.00000000000E+00 0. -1.
         22    1    3    3    0    0 -0.27444365081E+02  0.56647239178E+01  0.99518900805E+01  0.29737558540E+02  0.00000000000E+00 0. -1.
         22    1    3    3    0    0 -0.11347774380E+02 -0.14217152103E+03 -0.13942759698E+03  0.19945317289E+03  0.00000000000E+00 0. -1.
</event>
<event>
 7    1  0.6017574E-006  0.4579799E+02  0.7818608E-02  0.1487029E+00
          2   -1    0    0  502    0  0.00000000000E+00  0.00000000000E+00  0.61384750046E+03  0.61384750046E+03  0.00000000000E+00 0. -1.
          1   -1    0    0  501    0 -0.00000000000E+00 -0.00000000000E+00 -0.29648053040E+04  0.29648053040E+04  0.00000000000E+00 0. -1.
         25    2    1    2    0    0  0.41903255211E+02  0.75133709796E+02 -0.24763884200E+02  0.15375232598E+03  0.12500228253E+03 0.  0.
          2    1    1    2  501    0 -0.23902635750E+02 -0.38933041190E+02 -0.28746216181E+04  0.28749846200E+04  0.00000000000E+00 0. -1.
          1    1    1    2  502    0 -0.18000619461E+02 -0.36200668606E+02  0.54842769875E+03  0.54991585853E+03  0.00000000000E+00 0. -1.
         22    1    3    3    0    0 -0.14292609831E+02  0.49592047681E+02  0.39238503102E+02  0.64832939272E+02  0.00000000000E+00 0.  1.
         22    1    3    3    0    0  0.56195865042E+02  0.25541662115E+02 -0.64002387302E+02  0.88919386703E+02  0.00000000000E+00 0.  1.
</event>
<event>
 7    1  0.6017574E-006  0.6972489E+02  0.7818608E-02  0.1487296E+00
          2   -1    0    0  502    0  0.00000000000E+00  0.00000000000E+00  0.19024485181E+04  0.19024485181E+04  0.00000000000E+00 0. -1.
          1   -1    0    0  501    0 -0.00000000000E+00 -0.00000000000E+00 -0.41528167470E+03  0.41528167470E+03  0.00000000000E+00 0. -1.
         25    2    1    2    0    0  0.29492570889E+02  0.81788902951E+02 -0.25836655717E+03  0.29989364465E+03  0.12499473530E+03 0.  0.
          2    1    1    2  501    0 -0.31750382446E+02 -0.55379319274E+02 -0.12857031637E+03  0.14354540063E+03  0.00000000000E+00 0. -1.
          1    1    1    2  502    0  0.22578115571E+01 -0.26409583676E+02  0.18741037169E+04  0.18742911475E+04  0.00000000000E+00 0. -1.
         22    1    3    3    0    0 -0.28876732536E+02  0.83397321013E+02 -0.11403301584E+03  0.14419607323E+03  0.00000000000E+00 0.  1.
         22    1    3    3    0    0  0.58369303425E+02 -0.16084180623E+01 -0.14433354134E+03  0.15569757142E+03  0.00000000000E+00 0.  1.
</event>
<event>
 7    1  0.6017574E-006  0.4550775E+02  0.7818608E-02  0.1539868E+00
          2   -1    0    0  502    0  0.00000000000E+00  0.00000000000E+00  0.64812350526E+03  0.64812350526E+03  0.00000000000E+00 0. -1.
          1   -1    0    0  501    0 -0.00000000000E+00 -0.00000000000E+00 -0.35705946164E+03  0.35705946164E+03  0.00000000000E+00 0. -1.
         25    2    1    2    0    0 -0.32252069167E+02  0.88425098676E+01 -0.33821559751E+02  0.13374389245E+03  0.12500057967E+03 0.  0.
          2    1    1    2  501    0  0.52041768506E+01  0.28004285660E+02 -0.27165784157E+03  0.27314704164E+03  0.00000000000E+00 0. -1.
          1    1    1    2  502    0  0.27047892316E+02 -0.36846795527E+02  0.59654344494E+03  0.59829203281E+03  0.00000000000E+00 0. -1.
         22    1    3    3    0    0  0.45035760496E+02 -0.16641318387E+02 -0.13057240141E+02  0.49755851125E+02  0.00000000000E+00 0.  1.
         22    1    3    3    0    0 -0.77287829662E+02  0.25483828254E+02 -0.20764319610E+02  0.83988041323E+02  0.00000000000E+00 0.  1.
</event>
<event>
 7    1  0.6017574E-006  0.1205297E+03  0.7818608E-02  0.1420259E+00
          2   -1    0    0  502    0  0.00000000000E+00  0.00000000000E+00  0.34065575362E+04  0.34065575362E+04  0.00000000000E+00 0. -1.
          1   -1    0    0  501    0 -0.00000000000E+00 -0.00000000000E+00 -0.72771952366E+03  0.72771952366E+03  0.00000000000E+00 0. -1.
         25    2    1    2    0    0 -0.54631937407E+02  0.81445653240E+02  0.31374817196E+04  0.31415018502E+04  0.12499716479E+03 0.  0.
          2    1    1    2  501    0  0.76986501486E+02 -0.92786440892E+02 -0.72009828311E+03  0.73012175859E+03  0.00000000000E+00 0. -1.
          1    1    1    2  502    0 -0.22354564079E+02  0.11340787652E+02  0.26145457610E+03  0.26265345107E+03  0.00000000000E+00 0. -1.
         22    1    3    3    0    0 -0.12666406178E+02 -0.32225862133E+02  0.98898328425E+03  0.98958924840E+03  0.00000000000E+00 0.  1.
         22    1    3    3    0    0 -0.41965531229E+02  0.11367151537E+03  0.21484984353E+04  0.21519126018E+04  0.00000000000E+00 0.  1.
</event>
<event>
 7    1  0.6017574E-006  0.3813477E+02  0.7818608E-02  0.1544343E+00
          2   -1    0    0  502    0  0.00000000000E+00  0.00000000000E+00  0.37686482234E+03  0.37686482234E+03  0.00000000000E+00 0. -1.
          1   -1    0    0  501    0 -0.00000000000E+00 -0.00000000000E+00 -0.41217638518E+03  0.41217638518E+03  0.00000000000E+00 0. -1.
         25    2    1    2    0    0  0.64492394182E+02  0.12388252549E+02  0.56312513403E+02  0.15200896670E+03  0.12499155604E+03 0.  0.
          2    1    1    2  501    0 -0.32302462609E+02  0.68351033076E+01 -0.36228517653E+03  0.36378663645E+03  0.00000000000E+00 0. -1.
          1    1    1    2  502    0 -0.32189931572E+02 -0.19223355857E+02  0.27066110028E+03  0.27324560437E+03  0.00000000000E+00 0. -1.
         22    1    3    3    0    0  0.90722625691E+02  0.32029353502E+02  0.67338469680E+02  0.11743484916E+03  0.00000000000E+00 0. -1.
         22    1    3    3    0    0 -0.26230231509E+02 -0.19641100953E+02 -0.11025956276E+02  0.34574117537E+02  0.00000000000E+00 0. -1.
</event>
<event>
 7    1  0.6017574E-006  0.1120521E+03  0.7818608E-02  0.1265863E+00
          2   -1    0    0  502    0  0.00000000000E+00  0.00000000000E+00  0.19573327695E+04  0.19573327695E+04  0.00000000000E+00 0. -1.
          1   -1    0    0  501    0 -0.00000000000E+00 -0.00000000000E+00 -0.67060706696E+03  0.67060706696E+03  0.00000000000E+00 0. -1.
         25    2    1    2    0    0 -0.20489286991E+03  0.17873845707E+02  0.50367921345E+03  0.55822748101E+03  0.12499843200E+03 0.  0.
          2    1    1    2  501    0  0.10442922418E+03 -0.38400672001E+02 -0.63665906910E+03  0.64630862963E+03  0.00000000000E+00 0. -1.
          1    1    1    2  502    0  0.10046364573E+03  0.20526826295E+02  0.14197055582E+04  0.14234037258E+04  0.00000000000E+00 0. -1.
         22    1    3    3    0    0 -0.71288973014E+02 -0.40804214345E+02  0.27458473210E+03  0.28660753075E+03  0.00000000000E+00 0.  1.
         22    1    3    3    0    0 -0.13360389689E+03  0.58678060052E+02  0.22909448135E+03  0.27161995026E+03  0.00000000000E+00 0.  1.
</event>
<event>
 7    1  0.6017574E-006  0.5591582E+02  0.7818608E-02  0.1520074E+00
          2   -1    0    0  502    0  0.00000000000E+00  0.00000000000E+00  0.13678891098E+04  0.13678891098E+04  0.00000000000E+00 0. -1.
          1   -1    0    0  501    0 -0.00000000000E+00 -0.00000000000E+00 -0.46696828958E+03  0.46696828958E+03  0.00000000000E+00 0. -1.
         25    2    1    2    0    0 -0.48252894060E+02  0.53197669989E+02 -0.34522327027E+03  0.37411536364E+03  0.12499946038E+03 0.  0.
          2    1    1    2  501    0  0.41764402299E+02 -0.27591205238E+02 -0.10132471647E+03  0.11301432685E+03  0.00000000000E+00 0. -1.
          1    1    1    2  502    0  0.64884917608E+01 -0.25606464751E+02  0.13474688070E+04  0.13477277089E+04  0.00000000000E+00 0. -1.
         22    1    3    3    0    0 -0.26001976117E+01  0.89874565059E+01 -0.28933290496E+03  0.28948413652E+03  0.00000000000E+00 0. -1.
         22    1    3    3    0    0 -0.45652696448E+02  0.44210213483E+02 -0.55890365313E+02  0.84631227121E+02  0.00000000000E+00 0. -1.
</event>
<event>
 7    1  0.6017574E-006  0.6988448E+02  0.7818608E-02  0.1383036E+00
          2   -1    0    0  502    0  0.00000000000E+00  0.00000000000E+00  0.90268802192E+02  0.90268802192E+02  0.00000000000E+00 0. -1.
          1   -1    0    0  501    0 -0.00000000000E+00 -0.00000000000E+00 -0.52472039676E+03  0.52472039676E+03  0.00000000000E+00 0. -1.
         25    2    1    2    0    0  0.89756354488E+01  0.16540639186E+02 -0.10149041964E+03  0.16210979856E+03  0.12500050694E+03 0.  0.
          2    1    1    2  501    0 -0.23890708248E+02 -0.72602974668E+02 -0.37405677910E+03  0.38178584555E+03  0.00000000000E+00 0. -1.
          1    1    1    2  502    0  0.14915072799E+02  0.56062335483E+02  0.41095604179E+02  0.71093554836E+02  0.00000000000E+00 0. -1.
         22    1    3    3    0    0  0.44456356142E+02 -0.39782012630E+02 -0.52356733377E+02  0.79373822261E+02  0.00000000000E+00 0. -1.
         22    1    3    3    0    0 -0.35480720693E+02  0.56322651816E+02 -0.49133686263E+02  0.82735976300E+02  0.00000000000E+00 0. -1.
</event>
<event>
 7    1  0.6017574E-006  0.8362062E+02  0.7818608E-02  0.1481185E+00
          2   -1    0    0  502    0  0.00000000000E+00  0.00000000000E+00  0.19842668054E+03  0.19842668054E+03  0.00000000000E+00 0. -1.
          1   -1    0    0  501    0 -0.00000000000E+00 -0.00000000000E+00 -0.16533035574E+03  0.16533035574E+03  0.00000000000E+00 0. -1.
         25    2    1    2    0    0 -0.55595593995E+02  0.48654437104E+02  0.20102692956E+02  0.14658936054E+03  0.12500479206E+03 0.  0.
          2    1    1    2  501    0  0.49143201895E+02 -0.70804133072E+02 -0.82270420048E+02  0.11914991216E+03  0.00000000000E+00 0. -1.
          1    1    1    2  502    0  0.64523921008E+01  0.22149695968E+02  0.95264051891E+02  0.98017763584E+02  0.00000000000E+00 0. -1.
         22    1    3    3    0    0 -0.84298032335E+02 -0.39181861692E+01  0.36257398376E+01  0.84466895455E+02  0.00000000000E+00 0. -1.
         22    1    3    3    0    0  0.28702438339E+02  0.52572623273E+02  0.16476953119E+02  0.62122465087E+02  0.00000000000E+00 0. -1.
</event>
<event>
 7    1  0.6017574E-006  0.3110451E+02  0.7818608E-02  0.1626586E+00
          2   -1    0    0  502    0  0.00000000000E+00  0.00000000000E+00  0.51951721986E+03  0.51951721986E+03  0.00000000000E+00 0. -1.
          1   -1    0    0  501    0 -0.00000000000E+00 -0.00000000000E+00 -0.20701170851E+02  0.20701170851E+02  0.00000000000E+00 0. -1.
         25    2    1    2    0    0 -0.89310424241E+01  0.15924551308E+02  0.28869826134E+03  0.31513323874E+03  0.12501566784E+03 0.  0.
          2    1    1    2  501    0  0.32387702240E+02 -0.90574958810E+01  0.36016563423E+02  0.49276711830E+02  0.00000000000E+00 0. -1.
          1    1    1    2  502    0 -0.23456659816E+02 -0.68670554274E+01  0.17410122425E+03  0.17580844014E+03  0.00000000000E+00 0. -1.
         22    1    3    3    0    0  0.45957945700E+02  0.44066390598E+02  0.16626961130E+03  0.17804371147E+03  0.00000000000E+00 0.  1.
         22    1    3    3    0    0 -0.54888988124E+02 -0.28141839290E+02  0.12242865004E+03  0.13708952727E+03  0.00000000000E+00 0.  1.
</event>
<event>
 7    1  0.6017574E-006  0.8136289E+02  0.7818608E-02  0.1457043E+00
          2   -1    0    0  502    0  0.00000000000E+00  0.00000000000E+00  0.51997223173E+02  0.51997223173E+02  0.00000000000E+00 0. -1.
          1   -1    0    0  501    0 -0.00000000000E+00 -0.00000000000E+00 -0.99272339768E+03  0.99272339768E+03  0.00000000000E+00 0. -1.
         25    2    1    2    0    0  0.73501148642E+02  0.56712921990E+02 -0.85757632454E+03  0.87159709610E+03  0.12500228458E+03 0.  0.
          2    1    1    2  501    0 -0.58086242093E+02 -0.33107737056E+02 -0.11348179739E+03  0.13171276366E+03  0.00000000000E+00 0. -1.
          1    1    1    2  502    0 -0.15414906549E+02 -0.23605184934E+02  0.30331947419E+02  0.41410761089E+02  0.00000000000E+00 0. -1.
         22    1    3    3    0    0  0.22138077377E+02 -0.39636573845E+02 -0.30201599577E+03  0.30540925683E+03  0.00000000000E+00 0. -1.
         22    1    3    3    0    0  0.51363071265E+02  0.96349495836E+02 -0.55556032877E+03  0.56618783928E+03  0.00000000000E+00 0. -1.
</event>
<event>
 7    1  0.6017574E-006  0.7252689E+02  0.7818608E-02  0.1446273E+00
          2   -1    0    0  502    0  0.00000000000E+00  0.00000000000E+00  0.45828713121E+03  0.45828713121E+03  0.00000000000E+00 0. -1.
          1   -1    0    0  501    0 -0.00000000000E+00 -0.00000000000E+00 -0.29658343692E+04  0.29658343692E+04  0.00000000000E+00 0. -1.
         25    2    1    2    0    0 -0.39821165883E+02  0.56540369563E+02  0.25733308182E+03  0.29432505589E+03  0.12499753950E+03 0.  0.
          2    1    1    2  501    0  0.92539605398E+01 -0.71952638581E+02 -0.29452820930E+04  0.29461753894E+04  0.00000000000E+00 0. -1.
          1    1    1    2  502    0  0.30567205343E+02  0.15412269019E+02  0.18040177322E+03  0.18362105505E+03  0.00000000000E+00 0. -1.
         22    1    3    3    0    0 -0.10250462738E+02  0.78251391663E+02  0.24203735505E+03  0.25457893378E+03  0.00000000000E+00 0. -1.
         22    1    3    3    0    0 -0.29570703145E+02 -0.21711022100E+02  0.15295726768E+02  0.39746122106E+02  0.00000000000E+00 0. -1.
</event>
<event>
 7    1  0.6017574E-006  0.8733817E+02  0.7818608E-02  0.1445713E+00
          2   -1    0    0  502    0  0.00000000000E+00  0.00000000000E+00  0.37834885992E+03  0.37834885992E+03  0.00000000000E+00 0. -1.
          1   -1    0    0  501    0 -0.00000000000E+00 -0.00000000000E+00 -0.23219618151E+03  0.23219618151E+03  0.00000000000E+00 0. -1.
         25    2    1    2    0    0 -0.41589686136E+02 -0.52528731056E+02  0.14903720459E+03  0.20571816398E+03  0.12497561786E+03 0.  0.
          2    1    1    2  501    0 -0.16815900090E+02 -0.23066974639E+02 -0.19138473958E+03  0.19350188206E+03  0.00000000000E+00 0. -1.
          1    1    1    2  502    0  0.58405586226E+02  0.75595705695E+02  0.18850021340E+03  0.21132499539E+03  0.00000000000E+00 0. -1.
         22    1    3    3    0    0  0.80113968737E+00 -0.71802442016E+02  0.29862881597E+02  0.77769043980E+02  0.00000000000E+00 0. -1.
         22    1    3    3    0    0 -0.42390825824E+02  0.19273710960E+02  0.11917432299E+03  0.12794912000E+03  0.00000000000E+00 0. -1.
</event>
<event>
 7    1  0.6017574E-006  0.7709369E+02  0.7818608E-02  0.1389134E+00
          2   -1    0    0  502    0  0.00000000000E+00  0.00000000000E+00  0.27768494295E+04  0.27768494295E+04  0.00000000000E+00 0. -1.
          1   -1    0    0  501    0 -0.00000000000E+00 -0.00000000000E+00 -0.92817420995E+01  0.92817420995E+01  0.00000000000E+00 0. -1.
         25    2    1    2    0    0 -0.35276227767E+02 -0.12426824688E+02  0.13700325794E+04  0.13762301196E+04  0.12498494012E+03 0.  0.
          2    1    1    2  501    0  0.85010226514E+02  0.18121491707E+02  0.33196613546E+03  0.34315687691E+03  0.00000000000E+00 0. -1.
          1    1    1    2  502    0 -0.49733998747E+02 -0.56946670184E+01  0.10655689725E+04  0.10667441750E+04  0.00000000000E+00 0. -1.
         22    1    3    3    0    0 -0.24598394092E+02  0.24432279277E+01  0.47291037724E+02  0.53361902174E+02  0.00000000000E+00 0. -1.
         22    1    3    3    0    0 -0.10677833675E+02 -0.14870052616E+02  0.13227415417E+04  0.13228682175E+04  0.00000000000E+00 0. -1.
</event>
<event>
 7    1  0.6017574E-006  0.7446121E+02  0.7818608E-02  0.1348149E+00
          2   -1    0    0  502    0  0.00000000000E+00  0.00000000000E+00  0.11498603290E+04  0.11498603290E+04  0.00000000000E+00 0. -1.
          1   -1    0    0  501    0 -0.00000000000E+00 -0.00000000000E+00 -0.86228368255E+03  0.86228368255E+03  0.00000000000E+00 0. -1.
         25    2    1    2    0    0 -0.20886552635E+02  0.14552578342E+03  0.47883160987E+03  0.51625462073E+03  0.12500048437E+03 0.  0.
          2    1    1    2  501    0  0.11881199559E+02 -0.73265517714E+02 -0.83989823992E+03  0.84317142528E+03  0.00000000000E+00 0. -1.
          1    1    1    2  502    0  0.90053530763E+01 -0.72260265709E+02  0.64864327646E+03  0.65271796550E+03  0.00000000000E+00 0. -1.
         22    1    3    3    0    0 -0.30518211425E+01  0.61247660436E+02  0.38099165190E+03  0.38589535932E+03  0.00000000000E+00 0. -1.
         22    1    3    3    0    0 -0.17834731493E+02  0.84278122987E+02  0.97839957964E+02  0.13035926141E+03  0.00000000000E+00 0. -1.
</event>
<event>
 7    1  0.6017574E-006  0.1594390E+03  0.7818608E-02  0.1324223E+00
          2   -1    0    0  502    0  0.00000000000E+00  0.00000000000E+00  0.28001525381E+03  0.28001525381E+03  0.00000000000E+00 0. -1.
          1   -1    0    0  501    0 -0.00000000000E+00 -0.00000000000E+00 -0.16201957988E+04  0.16201957988E+04  0.00000000000E+00 0. -1.
         25    2    1    2    0    0 -0.10969775603E+03 -0.59119965306E+02 -0.14271272737E+02  0.17708758152E+03  0.12501029687E+03 0.  0.
          2    1    1    2  501    0  0.15144238625E+03  0.55614329554E+02 -0.15179842403E+04  0.15265332960E+04  0.00000000000E+00 0. -1.
          1    1    1    2  502    0 -0.41744630216E+02  0.35056357519E+01  0.19207496799E+03  0.19659017514E+03  0.00000000000E+00 0. -1.
         22    1    3    3    0    0 -0.22610364097E+02 -0.10642293127E+02  0.51795415622E+02  0.57508712792E+02  0.00000000000E+00 0.  1.
         22    1    3    3    0    0 -0.87087391937E+02 -0.48477672179E+02 -0.66066688359E+02  0.11957886872E+03  0.00000000000E+00 0.  1.
</event>
<event>
 7    1  0.6017574E-006  0.8611403E+02  0.7818608E-02  0.1370465E+00
          2   -1    0    0  502    0  0.00000000000E+00  0.00000000000E+00  0.12437151512E+04  0.12437151512E+04  0.00000000000E+00 0. -1.
          1   -1    0    0  501    0 -0.00000000000E+00 -0.00000000000E+00 -0.59690251386E+03  0.59690251386E+03  0.00000000000E+00 0. -1.
         25    2    1    2    0    0 -0.34470634262E+02  0.12592875455E+03  0.93850897948E+02  0.20366298386E+03  0.12499737638E+03 0.  0.
          2    1    1    2  501    0  0.32198990705E+02 -0.41070782516E+02 -0.53908919536E+03  0.54160940236E+03  0.00000000000E+00 0. -1.
          1    1    1    2  502    0  0.22716435567E+01 -0.84857972030E+02  0.10920509347E+04  0.10953452788E+04  0.00000000000E+00 0. -1.
         22    1    3    3    0    0 -0.43898780847E+02  0.82693433910E+02  0.12004736946E+03  0.15223888428E+03  0.00000000000E+00 0. -1.
         22    1    3    3    0    0  0.94281465850E+01  0.43235320636E+02 -0.26196471510E+02  0.51424099585E+02  0.00000000000E+00 0. -1.
</event>
<event>
 7    1  0.6017574E-006  0.5179860E+02  0.7818608E-02  0.1528613E+00
          2   -1    0    0  502    0  0.00000000000E+00  0.00000000000E+00  0.15344827314E+03  0.15344827314E+03  0.00000000000E+00 0. -1.
          1   -1    0    0  501    0 -0.00000000000E+00 -0.00000000000E+00 -0.10097285540E+04  0.10097285540E+04  0.00000000000E+00 0. -1.
         25    2    1    2    0    0 -0.18270759995E+02 -0.22511255330E+02 -0.19372646991E+03  0.23236970216E+03  0.12500062421E+03 0.  0.
          2    1    1    2  501    0  0.18801626581E+02  0.49447876451E+02 -0.79443888346E+03  0.79619830018E+03  0.00000000000E+00 0. -1.
          1    1    1    2  502    0 -0.53086658583E+00 -0.26936621120E+02  0.13188507249E+03  0.13460882483E+03  0.00000000000E+00 0. -1.
         22    1    3    3    0    0 -0.21641506345E+01  0.13712652098E+02 -0.19219612462E+03  0.19269683623E+03  0.00000000000E+00 0.  1.
         22    1    3    3    0    0 -0.16106609360E+02 -0.36223907429E+02 -0.15303452919E+01  0.39672865931E+02  0.00000000000E+00 0.  1.
</event>
<event>
 7    1  0.6017574E-006  0.1559054E+03  0.7818608E-02  0.1245239E+00
          2   -1    0    0  502    0  0.00000000000E+00  0.00000000000E+00  0.12915156492E+04  0.12915156492E+04  0.00000000000E+00 0. -1.
          1   -1    0    0  501    0 -0.00000000000E+00 -0.00000000000E+00 -0.51179156066E+03  0.51179156066E+03  0.00000000000E+00 0. -1.
         25    2    1    2    0    0 -0.80409670767E+02 -0.23765801369E+02  0.12938497445E+03  0.19848318477E+03  0.12499829822E+03 0.  0.
          2    1    1    2  501    0 -0.66349030987E+02 -0.61384546581E+02 -0.46649678789E+03  0.47517313643E+03  0.00000000000E+00 0. -1.
          1    1    1    2  502    0  0.14675870175E+03  0.85150347949E+02  0.11168359020E+04  0.11296508887E+04  0.00000000000E+00 0. -1.
         22    1    3    3    0    0  0.50357106241E+01  0.26062170168E+02 -0.93108390025E+01  0.28129820801E+02  0.00000000000E+00 0.  1.
         22    1    3    3    0    0 -0.85445381391E+02 -0.49827971537E+02  0.13869581345E+03  0.17035336397E+03  0.00000000000E+00 0.  1.
</event>
<event>
 7    1  0.6017574E-006  0.3923969E+02  0.7818608E-02  0.1517968E+00
          2   -1    0    0  502    0  0.00000000000E+00  0.00000000000E+00  0.28627537976E+03  0.28627537976E+03  0.00000000000E+00 0. -1.
          1   -1    0    0  501    0 -0.00000000000E+00 -0.00000000000E+00 -0.22763531552E+03  0.22763531552E+03  0.00000000000E+00 0. -1.
         25    2    1    2    0    0 -0.23183678308E+02  0.67075308966E+02  0.12095343034E+01  0.14374797283E+03  0.12500174681E+03 0.  0.
          2    1    1    2  501    0 -0.19158635680E+01 -0.38309736607E+02 -0.15226412204E+03  0.15702123841E+03  0.00000000000E+00 0. -1.
          1    1    1    2  502    0  0.25099541876E+02 -0.28765572359E+02  0.20969465197E+03  0.21314148404E+03  0.00000000000E+00 0. -1.
         22    1    3    3    0    0 -0.16837646734E+02  0.49717279188E+02 -0.60051965980E+02  0.79759343123E+02  0.00000000000E+00 0. -1.
         22    1    3    3    0    0 -0.63460315741E+01  0.17358029778E+02  0.61261500283E+02  0.63988629705E+02  0.00000000000E+00 0. -1.
</event>
<event>
 7    1  0.6017574E-006  0.6025793E+02  0.7818608E-02  0.1522313E+00
          2   -1    0    0  502    0  0.00000000000E+00  0.00000000000E+00  0.16902485482E+04  0.16902485482E+04  0.00000000000E+00 0. -1.
          1   -1    0    0  501    0 -0.00000000000E+00 -0.00000000000E+00 -0.10163377855E+03  0.10163377855E+03  0.00000000000E+00 0. -1.
         25    2    1    2    0    0 -0.34166813677E+02 -0.57111839570E+02  0.99763021699E+03  0.10076315592E+04  0.12500470310E+03 0.  0.
          2    1    1    2  501    0  0.47537082678E+02  0.37002381205E+02 -0.87008738714E+02  0.10582755339E+03  0.00000000000E+00 0. -1.
          1    1    1    2  502    0 -0.13370269002E+02  0.20109458366E+02  0.67799329136E+03  0.67842321418E+03  0.00000000000E+00 0. -1.
         22    1    3    3    0    0  0.16654845726E+02 -0.49603724864E+02  0.15815904262E+03  0.16658990416E+03  0.00000000000E+00 0.  1.
         22    1    3    3    0    0 -0.50821659403E+02 -0.75081147068E+01  0.83947117437E+03  0.84104165500E+03  0.00000000000E+00 0.  1.
</event>
<event>
 7    1  0.6017574E-006  0.6549191E+02  0.7818608E-02  0.1417196E+00
          2   -1    0    0  502    0  0.00000000000E+00  0.00000000000E+00  0.16736354493E+03  0.16736354493E+03  0.00000000000E+00 0. -1.
          1   -1    0    0  501    0 -0.00000000000E+00 -0.00000000000E+00 -0.42074420977E+03  0.42074420977E+03  0.00000000000E+00 0. -1.
         25    2    1    2    0    0 -0.35555125683E+02  0.33831195216E+02 -0.11946134456E+03  0.17973843224E+03  0.12500469771E+03 0.  0.
          2    1    1    2  501    0 -0.31604832568E+02 -0.35102048708E+02 -0.26067257737E+03  0.26491736798E+03  0.00000000000E+00 0. -1.
          1    1    1    2  502    0  0.67159958251E+02  0.12708534917E+01  0.12675325708E+03  0.14345195447E+03  0.00000000000E+00 0. -1.
         22    1    3    3    0    0  0.43895389931E+02  0.23614241767E+02 -0.24614529644E+02  0.55590581405E+02  0.00000000000E+00 0.  1.
         22    1    3    3    0    0 -0.79450515614E+02  0.10216953449E+02 -0.94846814912E+02  0.12414785084E+03  0.00000000000E+00 0.  1.
</event>
<event>
 7    1  0.6017574E-006  0.7338018E+02  0.7818608E-02  0.1403289E+00
          2   -1    0    0  502    0  0.00000000000E+00  0.00000000000E+00  0.59182130043E+03  0.59182130043E+03  0.00000000000E+00 0. -1.
          1   -1    0    0  501    0 -0.00000000000E+00 -0.00000000000E+00 -0.93137729356E+02  0.93137729356E+02  0.00000000000E+00 0. -1.
         25    2    1    2    0    0  0.93775905434E+02 -0.34188502776E+02  0.79878654674E+01  0.16016047315E+03  0.12499918801E+03 0.  0.
          2    1    1    2  501    0 -0.46789536543E+02  0.34135074285E+02  0.37112265869E+02  0.68787966275E+02  0.00000000000E+00 0. -1.
          1    1    1    2  502    0 -0.46986368891E+02  0.53428490398E-01  0.45358343974E+03  0.45601059036E+03  0.00000000000E+00 0. -1.
         22    1    3    3    0    0  0.47865068624E+02 -0.25917465655E+02  0.66108636381E+02  0.85633706124E+02  0.00000000000E+00 0. -1.
         22    1    3    3    0    0  0.45910836810E+02 -0.82710371205E+01 -0.58120770914E+02  0.74526767026E+02  0.00000000000E+00 0. -1.
</event>
<event>
 7    1  0.6017574E-006  0.8207246E+02  0.7818608E-02  0.1334250E+00
          2   -1    0    0  502    0  0.00000000000E+00  0.00000000000E+00  0.11618679470E+04  0.11618679470E+04  0.00000000000E+00 0. -1.
          1   -1    0    0  501    0 -0.00000000000E+00 -0.00000000000E+00 -0.18180260090E+03  0.18180260090E+03  0.00000000000E+00 0. -1.
         25    2    1    2    0    0 -0.87778105555E+02 -0.11191935637E+03  0.11392678500E+03  0.22098239773E+03  0.12499187822E+03 0.  0.
          2    1    1    2  501    0  0.17609615846E+02  0.72391471231E+02 -0.11566730006E+03  0.13758469384E+03  0.00000000000E+00 0. -1.
          1    1    1    2  502    0  0.70168489710E+02  0.39527885135E+02  0.98180586113E+03  0.98510345629E+03  0.00000000000E+00 0. -1.
         22    1    3    3    0    0 -0.27258576961E+02 -0.12466282129E+02  0.99206615580E+02  0.10363585665E+03  0.00000000000E+00 0.  1.
         22    1    3    3    0    0 -0.60519528595E+02 -0.99453074237E+02  0.14720169425E+02  0.11734654108E+03  0.00000000000E+00 0.  1.
</event>
<event>
 7    1  0.6017574E-006  0.6517752E+02  0.7818608E-02  0.1422788E+00
          2   -1    0    0  502    0  0.00000000000E+00  0.00000000000E+00  0.10476957302E+04  0.10476957302E+04  0.00000000000E+00 0. -1.
          1   -1    0    0  501    0 -0.00000000000E+00 -0.00000000000E+00 -0.62250925191E+03  0.62250925191E+03  0.00000000000E+00 0. -1.
         25    2    1    2    0    0 -0.87667423326E+01  0.63247284719E+02 -0.72566832227E+02  0.15801598070E+03  0.12500412082E+03 0.  0.
          2    1    1    2  501    0 -0.40602601027E+02 -0.20454338055E+02 -0.50513399386E+03  0.50717581065E+03  0.00000000000E+00 0. -1.
          1    1    1    2  502    0  0.49369343360E+02 -0.42792946664E+02  0.10028873044E+04  0.10050131908E+04  0.00000000000E+00 0. -1.
         22    1    3    3    0    0 -0.22765826609E+02  0.33245374349E+02 -0.10451163005E+03  0.11200990399E+03  0.00000000000E+00 0.  1.
         22    1    3    3    0    0  0.13999084276E+02  0.30001910370E+02  0.31944797819E+02  0.46006076709E+02  0.00000000000E+00 0.  1.
</event>
<event>
 7    1  0.6017574E-006  0.1852709E+03  0.7818608E-02  0.1268916E+00
          2   -1    0    0  502    0  0.00000000000E+00  0.00000000000E+00  0.12993129421E+04  0.12993129421E+04  0.00000000000E+00 0. -1.
          1   -1    0    0  501    0 -0.00000000000E+00 -0.00000000000E+00 -0.30987943790E+03  0.30987943790E+03  0.00000000000E+00 0. -1.
         25    2    1    2    0    0  0.18454774763E+02  0.17339036816E+03 -0.89254404641E+01  0.21473772066E+03  0.12501130630E+03 0.  0.
          2    1    1    2  501    0  0.39714918290E+02 -0.18891136787E+03 -0.15003117698E+03  0.24448749193E+03  0.00000000000E+00 0. -1.
          1    1    1    2  502    0 -0.58169693053E+02  0.15520999706E+02  0.11483901217E+04  0.11499671674E+04  0.00000000000E+00 0. -1.
         22    1    3    3    0    0 -0.53884845388E+02  0.77471949948E+02 -0.17592078443E+01  0.94385244627E+02  0.00000000000E+00 0.  1.
         22    1    3    3    0    0  0.72339620151E+02  0.95918418217E+02 -0.71662326197E+01  0.12035247603E+03  0.00000000000E+00 0.  1.
</event>
<event>
 7    1  0.6017574E-006  0.7086641E+02  0.7818608E-02  0.1443119E+00
          2   -1    0    0  502    0  0.00000000000E+00  0.00000000000E+00  0.15514581332E+04  0.15514581332E+04  0.00000000000E+00 0. -1.
          1   -1    0    0  501    0 -0.00000000000E+00 -0.00000000000E+00 -0.15618413385E+03  0.15618413385E+03  0.00000000000E+00 0. -1.
         25    2    1    2    0    0 -0.66236377208E+01  0.77775157299E+02 -0.11030121249E+03  0.18407676075E+03  0.12500019480E+03 0.  0.
          2    1    1    2  501    0 -0.31137435575E+02 -0.17797222450E+02  0.31342728884E+02  0.47630323063E+02  0.00000000000E+00 0. -1.
          1    1    1    2  502    0  0.37761073296E+02 -0.59977934849E+02  0.14742324829E+04  0.14759351832E+04  0.00000000000E+00 0. -1.
         22    1    3    3    0    0  0.51821453930E+02  0.54414059501E+02 -0.91474297915E+02  0.11838031989E+03  0.00000000000E+00 0. -1.
         22    1    3    3    0    0 -0.58445091651E+02  0.23361097798E+02 -0.18826914577E+02  0.65696440855E+02  0.00000000000E+00 0. -1.
</event>
<event>
 7    1  0.6017574E-006  0.6427705E+02  0.7818608E-02  0.1381500E+00
          2   -1    0    0  502    0  0.00000000000E+00  0.00000000000E+00  0.19032198854E+04  0.19032198854E+04  0.00000000000E+00 0. -1.
          1   -1    0    0  501    0 -0.00000000000E+00 -0.00000000000E+00 -0.25502874314E+03  0.25502874314E+03  0.00000000000E+00 0. -1.
         25    2    1    2    0    0 -0.40895348400E+02  0.84834444539E+02  0.10892918700E+03  0.19068707622E+03  0.12500672285E+03 0.  0.
          2    1    1    2  501    0  0.59435096255E+02 -0.23373207564E+02 -0.20878579478E+03  0.21833539704E+03  0.00000000000E+00 0. -1.
          1    1    1    2  502    0 -0.18539747855E+02 -0.61461236975E+02  0.17480477501E+04  0.17492261553E+04  0.00000000000E+00 0. -1.
         22    1    3    3    0    0  0.36874321361E+02  0.65827621602E+02  0.63635429094E+02  0.98703896466E+02  0.00000000000E+00 0.  1.
         22    1    3    3    0    0 -0.77769669762E+02  0.19006822937E+02  0.45293757907E+02  0.91983179757E+02  0.00000000000E+00 0.  1.
</event>
<event>
 7    1  0.6017574E-006  0.6725763E+02  0.7818608E-02  0.1422610E+00
          2   -1    0    0  502    0  0.00000000000E+00  0.00000000000E+00  0.89729374812E+03  0.89729374812E+03  0.00000000000E+00 0. -1.
          1   -1    0    0  501    0 -0.00000000000E+00 -0.00000000000E+00 -0.22624313472E+03  0.22624313472E+03  0.00000000000E+00 0. -1.
         25    2    1    2    0    0  0.46795372128E+02  0.97348556457E+02  0.29469517657E+03  0.33784099371E+03  0.12499896657E+03 0.  0.
          2    1    1    2  501    0 -0.17980777016E+02 -0.40287388312E+02 -0.20050658271E+03  0.20530287798E+03  0.00000000000E+00 0. -1.
          1    1    1    2  502    0 -0.28814595111E+02 -0.57061168144E+02  0.57686201954E+03  0.58039301115E+03  0.00000000000E+00 0. -1.
         22    1    3    3    0    0 -0.22216469804E+02  0.35400243533E+02  0.17086260715E+02  0.45151844679E+02  0.00000000000E+00 0. -1.
         22    1    3    3    0    0  0.69011841931E+02  0.61948312924E+02  0.27760891585E+03  0.29268914904E+03  0.00000000000E+00 0. -1.
</event>
<event>
 7    1  0.6017574E-006  0.1928915E+03  0.7818608E-02  0.1256573E+00
          2   -1    0    0  502    0  0.00000000000E+00  0.00000000000E+00  0.13875592478E+04  0.13875592478E+04  0.00000000000E+00 0. -1.
          1   -1    0    0  501    0 -0.00000000000E+00 -0.00000000000E+00 -0.25687926808E+03  0.25687926808E+03  0.00000000000E+00 0. -1.
         25    2    1    2    0    0 -0.12117816842E+03 -0.19715302739E+03  0.56218549198E+03  0.62066984945E+03  0.12500027968E+03 0.  0.
          2    1    1    2  501    0  0.57776305980E+02  0.18173929587E+03 -0.18604057854E+03  0.26641766094E+03  0.00000000000E+00 0. -1.
          1    1    1    2  502    0  0.63401862442E+02  0.15413731516E+02  0.75453506628E+03  0.75735100550E+03  0.00000000000E+00 0. -1.
         22    1    3    3    0    0  0.23169524986E+02 -0.36266544802E+02  0.13851736144E+03  0.14504878001E+03  0.00000000000E+00 0. -1.
         22    1    3    3    0    0 -0.14434769341E+03 -0.16088648259E+03  0.42366813053E+03  0.47562106945E+03  0.00000000000E+00 0. -1.
</event>
<event>
 7    1  0.6017574E-006  0.1064288E+03  0.7818608E-02  0.1363498E+00
          2   -1    0    0  502    0  0.00000000000E+00  0.00000000000E+00  0.10008655945E+04  0.10008655945E+04  0.00000000000E+00 0. -1.
          1   -1    0    0  501    0 -0.00000000000E+00 -0.00000000000E+00 -0.40276166493E+03  0.40276166493E+03  0.00000000000E+00 0. -1.
         25    2    1    2    0    0  0.97751020030E+02 -0.43853140041E+02  0.26162339926E+03  0.30912084867E+03  0.12502214298E+03 0.  0.
          2    1    1    2  501    0  0.99215751788E+01  0.43630941070E+02 -0.37361962184E+03  0.37628940789E+03  0.00000000000E+00 0. -1.
          1    1    1    2  502    0 -0.10767259521E+03  0.22219897050E+00  0.71010015213E+03  0.71821700285E+03  0.00000000000E+00 0. -1.
         22    1    3    3    0    0  0.50753588206E+02  0.36384806098E+02  0.15799179999E+03  0.16988581369E+03  0.00000000000E+00 0.  1.
         22    1    3    3    0    0  0.46997431823E+02 -0.80237946139E+02  0.10363159927E+03  0.13923503498E+03  0.00000000000E+00 0.  1.
</event>
<event>
 7    1  0.6017574E-006  0.1737951E+03  0.7818608E-02  0.1201846E+00
          2   -1    0    0  502    0  0.00000000000E+00  0.00000000000E+00  0.19145155007E+04  0.19145155007E+04  0.00000000000E+00 0. -1.
          1   -1    0    0  501    0 -0.00000000000E+00 -0.00000000000E+00 -0.86966525773E+03  0.86966525773E+03  0.00000000000E+00 0. -1.
         25    2    1    2    0    0 -0.28573880689E+03  0.85863392889E+01 -0.31392641046E+03  0.44260025645E+03  0.12499921935E+03 0.  0.
          2    1    1    2  501    0  0.11780721481E+03 -0.48893337694E+02 -0.47900792143E+03  0.49569919016E+03  0.00000000000E+00 0. -1.
          1    1    1    2  502    0  0.16793159208E+03  0.40306998405E+02  0.18377845748E+04  0.18458813118E+04  0.00000000000E+00 0. -1.
         22    1    3    3    0    0 -0.22884818806E+02 -0.29637662551E+02 -0.95918706268E+01  0.38653718520E+02  0.00000000000E+00 0.  1.
         22    1    3    3    0    0 -0.26285398808E+03  0.38224001840E+02 -0.30433453983E+03  0.40394653793E+03  0.00000000000E+00 0.  1.
</event>
<event>
 7    1  0.6017574E-006  0.1327261E+03  0.7818608E-02  0.1274199E+00
          2   -1    0    0  502    0  0.00000000000E+00  0.00000000000E+00  0.15670529123E+03  0.15670529123E+03  0.00000000000E+00 0. -1.
          1   -1    0    0  501    0 -0.00000000000E+00 -0.00000000000E+00 -0.17273930700E+04  0.17273930700E+04  0.00000000000E+00 0. -1.
         25    2    1    2    0    0 -0.16049964993E+02  0.68381628832E+02  0.45653489284E+02  0.15047708713E+03  0.12500185651E+03 0.  0.
          2    1    1    2  501    0 -0.34489382982E+02 -0.13022048430E+03 -0.16436925634E+04  0.16492034851E+04  0.00000000000E+00 0. -1.
          1    1    1    2  502    0  0.50539347975E+02  0.61838855466E+02  0.27351295413E+02  0.84417789001E+02  0.00000000000E+00 0. -1.
         22    1    3    3    0    0 -0.37438548321E+01  0.12594292250E+02 -0.43026916768E+02  0.44988311958E+02  0.00000000000E+00 0. -1.
         22    1    3    3    0    0 -0.12306110161E+02  0.55787336582E+02  0.88680406052E+02  0.10548877517E+03  0.00000000000E+00 0. -1.
</event>
<event>
 7    1  0.6017574E-006  0.5965429E+02  0.7818608E-02  0.1488654E+00
          2   -1    0    0  502    0  0.00000000000E+00  0.00000000000E+00  0.35743602599E+04  0.35743602599E+04  0.00000000000E+00 0. -1.
          1   -1    0    0  501    0 -0.00000000000E+00 -0.00000000000E+00 -0.19327810408E+02  0.19327810408E+02  0.00000000000E+00 0. -1.
         25    2    1    2    0    0  0.58399532991E+02  0.40203173655E+02  0.75859922167E+03  0.77209102516E+03  0.12499988559E+03 0.  0.
          2    1    1    2  501    0  0.26385838198E+00 -0.30686771560E+02  0.69297948000E+01  0.31460604349E+02  0.00000000000E+00 0. -1.
          1    1    1    2  502    0 -0.58663391373E+02 -0.95164020945E+01  0.27895034330E+04  0.27901364408E+04  0.00000000000E+00 0. -1.
         22    1    3    3    0    0  0.94778888917E+02  0.19282901918E+02  0.61229372880E+03  0.61988585918E+03  0.00000000000E+00 0. -1.
         22    1    3    3    0    0 -0.36379355925E+02  0.20920271737E+02  0.14630549287E+03  0.15220516598E+03  0.00000000000E+00 0. -1.
</event>
<event>
 7    1  0.6017574E-006  0.1382786E+03  0.7818608E-02  0.1322066E+00
          2   -1    0    0  502    0  0.00000000000E+00  0.00000000000E+00  0.46457309999E+03  0.46457309999E+03  0.00000000000E+00 0. -1.
          1   -1    0    0  501    0 -0.00000000000E+00 -0.00000000000E+00 -0.11344945092E+04  0.11344945092E+04  0.00000000000E+00 0. -1.
         25    2    1    2    0    0  0.17562614011E+03 -0.79182973609E+01 -0.73000453858E+02  0.22772610225E+03  0.12499148314E+03 0.  0.
          2    1    1    2  501    0 -0.13245244968E+03  0.31589894456E+02 -0.97782894924E+03  0.98726441586E+03  0.00000000000E+00 0. -1.
          1    1    1    2  502    0 -0.43173690433E+02 -0.23671597095E+02  0.38090799391E+03  0.38407709106E+03  0.00000000000E+00 0. -1.
         22    1    3    3    0    0 -0.10942645036E+01  0.25502111704E+02 -0.35960355113E+02  0.44098778396E+02  0.00000000000E+00 0. -1.
         22    1    3    3    0    0  0.17672040462E+03 -0.33420409065E+02 -0.37040098745E+02  0.18362732385E+03  0.00000000000E+00 0. -1.
</event>
<event>
 7    1  0.6017574E-006  0.9202665E+02  0.7818608E-02  0.1382800E+00
          2   -1    0    0  502    0  0.00000000000E+00  0.00000000000E+00  0.38222213638E+03  0.38222213638E+03  0.00000000000E+00 0. -1.
          1   -1    0    0  501    0 -0.00000000000E+00 -0.00000000000E+00 -0.21028514167E+04  0.21028514167E+04  0.00000000000E+00 0. -1.
         25    2    1    2    0    0  0.40996268413E+02 -0.46354078945E+02 -0.12394573677E+04  0.12472803269E+04  0.12499701131E+03 0.  0.
          2    1    1    2  501    0  0.43234845049E+02  0.88869475329E+01 -0.85328747326E+03  0.85442831278E+03  0.00000000000E+00 0. -1.
          1    1    1    2  502    0 -0.84231113462E+02  0.37467131412E+02  0.37211556061E+03  0.38336491344E+03  0.00000000000E+00 0. -1.
         22    1    3    3    0    0 -0.18218341694E+02 -0.71674230930E+02 -0.58307192201E+03  0.58774311531E+03  0.00000000000E+00 0.  1.
         22    1    3    3    0    0  0.59214610107E+02  0.25320151985E+02 -0.65638544570E+03  0.65953721159E+03  0.00000000000E+00 0.  1.
</event>
<event>
 7    1  0.6017574E-006  0.9905409E+02  0.7818608E-02  0.1352707E+00
          2   -1    0    0  502    0  0.00000000000E+00  0.00000000000E+00  0.17516914007E+03  0.17516914007E+03  0.00000000000E+00 0. -1.
          1   -1    0    0  501    0 -0.00000000000E+00 -0.00000000000E+00 -0.52726932164E+03  0.52726932164E+03  0.00000000000E+00 0. -1.
         25    2    1    2    0    0  0.73159821294E+02  0.10022878645E+02  0.15003957607E+02  0.14595843060E+03  0.12500370863E+03 0.  0.
          2    1    1    2  501    0 -0.93975755784E+02  0.38341056148E+02 -0.44833331936E+03  0.45967841424E+03  0.00000000000E+00 0. -1.
          1    1    1    2  502    0  0.20815934489E+02 -0.48363934793E+02  0.81229180186E+02  0.96801616883E+02  0.00000000000E+00 0. -1.
         22    1    3    3    0    0  0.10386448095E+03  0.14594880750E+01  0.33452282009E+02  0.10912843663E+03  0.00000000000E+00 0. -1.
         22    1    3    3    0    0 -0.30704659659E+02  0.85633905699E+01 -0.18448324402E+02  0.36829993973E+02  0.00000000000E+00 0. -1.
</event>
<event>
 7    1  0.6017574E-006  0.5990246E+02  0.7818608E-02  0.1440431E+00
          2   -1    0    0  502    0  0.00000000000E+00  0.00000000000E+00  0.45286368553E+03  0.45286368553E+03  0.00000000000E+00 0. -1.
          1   -1    0    0  501    0 -0.00000000000E+00 -0.00000000000E+00 -0.69757073106E+02  0.69757073106E+02  0.00000000000E+00 0. -1.
         25    2    1    2    0    0  0.98280897022E+02  0.89675212105E+01  0.15798970500E+03  0.22432710565E+03  0.12498940870E+03 0.  0.
          2    1    1    2  501    0 -0.55220337450E+02 -0.45376287947E+01 -0.12472548191E+02  0.56792959084E+02  0.00000000000E+00 0. -1.
          1    1    1    2  502    0 -0.43060559572E+02 -0.44298924159E+01  0.23758945561E+03  0.24150069390E+03  0.00000000000E+00 0. -1.
         22    1    3    3    0    0  0.60336128240E+02 -0.16864756974E+02  0.30415954102E+01  0.62722561343E+02  0.00000000000E+00 0. -1.
         22    1    3    3    0    0  0.37944768782E+02  0.25832278184E+02  0.15494810959E+03  0.16160454431E+03  0.00000000000E+00 0. -1.
</event>
<event>
 7    1  0.6017574E-006  0.7321187E+02  0.7818608E-02  0.1361191E+00
          2   -1    0    0  502    0  0.00000000000E+00  0.00000000000E+00  0.11013363885E+03  0.11013363885E+03  0.00000000000E+00 0. -1.
          1   -1    0    0  501    0 -0.00000000000E+00 -0.00000000000E+00 -0.55724041682E+03  0.55724041682E+03  0.00000000000E+00 0. -1.
         25    2    1    2    0    0  0.15615807870E+02 -0.16128318965E+02 -0.38539517690E+03  0.40577880589E+03  0.12499208296E+03 0.  0.
          2    1    1    2  501    0 -0.33226939886E+02 -0.57390342457E+02 -0.13867368891E+03  0.15371425743E+03  0.00000000000E+00 0. -1.
          1    1    1    2  502    0  0.17611132016E+02  0.73518661422E+02  0.76962087827E+02  0.10788099235E+03  0.00000000000E+00 0. -1.
         22    1    3    3    0    0 -0.20556733559E+02  0.45406671485E+02 -0.10191909022E+03  0.11345415841E+03  0.00000000000E+00 0. -1.
         22    1    3    3    0    0  0.36172541429E+02 -0.61534990450E+02 -0.28347608668E+03  0.29232464748E+03  0.00000000000E+00 0. -1.
</event>
<event>
 7    1  0.6017574E-006  0.2166265E+03  0.7818608E-02  0.1294497E+00
          2   -1    0    0  502    0  0.00000000000E+00  0.00000000000E+00  0.96889817319E+03  0.96889817319E+03  0.00000000000E+00 0. -1.
          1   -1    0    0  501    0 -0.00000000000E+00 -0.00000000000E+00 -0.17375576418E+04  0.17375576418E+04  0.00000000000E+00 0. -1.
         25    2    1    2    0    0 -0.15010238634E+03 -0.14011909980E+03  0.55410958816E+03  0.60400859028E+03  0.12499941170E+03 0.  0.
          2    1    1    2  501    0  0.12876879963E+03  0.17441685845E+03 -0.17046776108E+04  0.17184086827E+04  0.00000000000E+00 0. -1.
          1    1    1    2  502    0  0.21333586705E+02 -0.34297758655E+02  0.38190855395E+03  0.38403854202E+03  0.00000000000E+00 0. -1.
         22    1    3    3    0    0 -0.66589150556E+02 -0.95443360115E+02  0.15506442305E+03  0.19387760381E+03  0.00000000000E+00 0. -1.
         22    1    3    3    0    0 -0.83513235783E+02 -0.44675739682E+02  0.39904516511E+03  0.41013098647E+03  0.00000000000E+00 0. -1.
</event>
<event>
 7    1  0.6017574E-006  0.5475685E+02  0.7818608E-02  0.1498328E+00
          2   -1    0    0  502    0  0.00000000000E+00  0.00000000000E+00  0.20921359256E+04  0.20921359256E+04  0.00000000000E+00 0. -1.
          1   -1    0    0  501    0 -0.00000000000E+00 -0.00000000000E+00 -0.25132623762E+04  0.25132623762E+04  0.00000000000E+00 0. -1.
         25    2    1    2    0    0 -0.24408553203E+02  0.60004260424E+00  0.40343087567E+03  0.42305971268E+03  0.12500764589E+03 0.  0.
          2    1    1    2  501    0  0.53353425859E+02 -0.12416701659E+02 -0.25030027030E+04  0.25036020638E+04  0.00000000000E+00 0. -1.
          1    1    1    2  502    0 -0.28944872656E+02  0.11816659055E+02  0.16784453767E+04  0.16787365254E+04  0.00000000000E+00 0. -1.
         22    1    3    3    0    0  0.15590441963E+02  0.25287399529E+01 -0.17625576492E+01  0.15892231304E+02  0.00000000000E+00 0.  1.
         22    1    3    3    0    0 -0.39998995166E+02 -0.19286973486E+01  0.40519343332E+03  0.40716748138E+03  0.00000000000E+00 0.  1.
</event>
<event>
 7    1  0.6017574E-006  0.5157736E+02  0.7818608E-02  0.1482061E+00
          2   -1    0    0  502    0  0.00000000000E+00  0.00000000000E+00  0.27069627497E+02  0.27069627497E+02  0.00000000000E+00 0. -1.
          1   -1    0    0  501    0 -0.00000000000E+00 -0.00000000000E+00 -0.18615837130E+04  0.18615837130E+04  0.00000000000E+00 0. -1.
         25    2    1    2    0    0 -0.28477854342E+02  0.46922639973E+02 -0.67564718861E+03  0.68930328753E+03  0.12500870529E+03 0.  0.
          2    1    1    2  501    0 -0.20967460177E+02 -0.30694975863E+02 -0.11448525946E+04  0.11454559264E+04  0.00000000000E+00 0. -1.
          1    1    1    2  502    0  0.49445314519E+02 -0.16227664110E+02 -0.14014302287E+02  0.53894126572E+02  0.00000000000E+00 0. -1.
         22    1    3    3    0    0 -0.60355379934E+02  0.70123461081E+02 -0.54635069664E+03  0.55412918656E+03  0.00000000000E+00 0.  1.
         22    1    3    3    0    0  0.31877525591E+02 -0.23200821108E+02 -0.12929649197E+03  0.13517410097E+03  0.00000000000E+00 0.  1.
</event>
<event>
 7    1  0.6017574E-006  0.1492305E+03  0.7818608E-02  0.1271961E+00
          2   -1    0    0  502    0  0.00000000000E+00  0.00000000000E+00  0.44303525083E+03  0.44303525083E+03  0.00000000000E+00 0. -1.
          1   -1    0    0  501    0 -0.00000000000E+00 -0.00000000000E+00 -0.76261181107E+03  0.76261181107E+03  0.00000000000E+00 0. -1.
         25    2    1    2    0    0  0.78165708459E+02  0.17039234709E+03 -0.37529542505E+03  0.43773862964E+03  0.12500008759E+03 0.  0.
          2    1    1    2  501    0 -0.14819736319E+02 -0.13497042879E+03 -0.33972751574E+03  0.36585711170E+03  0.00000000000E+00 0. -1.
          1    1    1    2  502    0 -0.63345972141E+02 -0.35421918299E+02  0.39544638054E+03  0.40205132056E+03  0.00000000000E+00 0. -1.
         22    1    3    3    0    0 -0.18508109285E+02  0.27905908599E+01 -0.41267748605E+01  0.19166840570E+02  0.00000000000E+00 0. -1.
         22    1    3    3    0    0  0.96673817745E+02  0.16760175623E+03 -0.37116865019E+03  0.41857178908E+03  0.00000000000E+00 0. -1.
</event>
<event>
 7    1  0.6017574E-006  0.2518457E+03  0.7818608E-02  0.1218079E+00
          2   -1    0    0  502    0  0.00000000000E+00  0.00000000000E+00  0.17943329909E+03  0.17943329909E+03  0.00000000000E+00 0. -1.
          1   -1    0    0  501    0 -0.00000000000E+00 -0.00000000000E+00 -0.11875522430E+04  0.11875522430E+04  0.00000000000E+00 0. -1.
         25    2    1    2    0    0  0.21621098017E+03 -0.32495205120E+02 -0.51088504733E+03  0.56958930505E+03  0.12500127416E+03 0.  0.
          2    1    1    2  501    0 -0.28900165874E+03  0.19101294213E+02 -0.60262474580E+03  0.66861304388E+03  0.00000000000E+00 0. -1.
          1    1    1    2  502    0  0.72790678567E+02  0.13393910906E+02  0.10539084924E+03  0.12878319315E+03  0.00000000000E+00 0. -1.
         22    1    3    3    0    0 -0.33426256366E+01  0.13970402633E+02 -0.34927866964E+01  0.14783262656E+02  0.00000000000E+00 0. -1.
         22    1    3    3    0    0  0.21955360581E+03 -0.46465607752E+02 -0.50739226063E+03  0.55480604239E+03  0.00000000000E+00 0. -1.
</event>
<event>
 7    1  0.6017574E-006  0.4739551E+02  0.7818608E-02  0.1479753E+00
          2   -1    0    0  502    0  0.00000000000E+00  0.00000000000E+00  0.48035621821E+03  0.48035621821E+03  0.00000000000E+00 0. -1.
          1   -1    0    0  501    0 -0.00000000000E+00 -0.00000000000E+00 -0.24243718240E+03  0.24243718240E+03  0.00000000000E+00 0. -1.
         25    2    1    2    0    0 -0.25056410011E+02  0.19024051423E+02  0.37081346021E+03  0.39258223261E+03  0.12501379473E+03 0.  0.
          2    1    1    2  501    0 -0.47359510865E+01 -0.47361219100E+02 -0.22466447391E+03  0.22965112703E+03  0.00000000000E+00 0. -1.
          1    1    1    2  502    0  0.29792361098E+02  0.28337167677E+02  0.91770049521E+02  0.10056004097E+03  0.00000000000E+00 0. -1.
         22    1    3    3    0    0 -0.35572359868E+02  0.65027367990E+02  0.15691862589E+03  0.17354367325E+03  0.00000000000E+00 0. -1.
         22    1    3    3    0    0  0.10515949857E+02 -0.46003316567E+02  0.21389483432E+03  0.21903855936E+03  0.00000000000E+00 0. -1.
</event>
<event>
 7    1  0.6017574E-006  0.3787599E+02  0.7818608E-02  0.1528473E+00
          2   -1    0    0  502    0  0.00000000000E+00  0.00000000000E+00  0.36695769313E+03  0.36695769313E+03  0.00000000000E+00 0. -1.
          1   -1    0    0  501    0 -0.00000000000E+00 -0.00000000000E+00 -0.34409386543E+03  0.34409386543E+03  0.00000000000E+00 0. -1.
         25    2    1    2    0    0 -0.52665923245E+02 -0.29065809033E+02 -0.45308003534E+02  0.14593328781E+03  0.12500075432E+03 0.  0.
          2    1    1    2  501    0  0.37287462033E+02 -0.44543065743E+01 -0.24596948516E+03  0.24881957982E+03  0.00000000000E+00 0. -1.
          1    1    1    2  502    0  0.15378461212E+02  0.33520115608E+02  0.31414131640E+03  0.31629869093E+03  0.00000000000E+00 0. -1.
         22    1    3    3    0    0 -0.72543543129E+02  0.28380971701E+02 -0.27084205892E+02  0.82471809810E+02  0.00000000000E+00 0.  1.
         22    1    3    3    0    0  0.19877619885E+02 -0.57446780734E+02 -0.18223797642E+02  0.63461477996E+02  0.00000000000E+00 0.  1.
</event>
<event>
 7    1  0.6017574E-006  0.1710076E+03  0.7818608E-02  0.1373821E+00
          2   -1    0    0  502    0  0.00000000000E+00  0.00000000000E+00  0.74076308486E+03  0.74076308486E+03  0.00000000000E+00 0. -1.
          1   -1    0    0  501    0 -0.00000000000E+00 -0.00000000000E+00 -0.12730148581E+04  0.12730148581E+04  0.00000000000E+00 0. -1.
         25    2    1    2    0    0 -0.94202992072E+02  0.11214271590E+03  0.39481033519E+03  0.43926314556E+03  0.12500687113E+03 0.  0.
          2    1    1    2  501    0  0.11494502646E+03 -0.12708274017E+03 -0.12444033240E+04  0.12561456981E+04  0.00000000000E+00 0. -1.
          1    1    1    2  502    0 -0.20742034384E+02  0.14940024262E+02  0.31734121558E+03  0.31836909935E+03  0.00000000000E+00 0. -1.
         22    1    3    3    0    0 -0.33246750321E+02  0.11435880072E+02  0.25084352867E+03  0.25329548286E+03  0.00000000000E+00 0.  1.
         22    1    3    3    0    0 -0.60956241751E+02  0.10070683583E+03  0.14396680652E+03  0.18596766270E+03  0.00000000000E+00 0.  1.
</event>
<event>
 7    1  0.6017574E-006  0.9898007E+02  0.7818608E-02  0.1321092E+00
          2   -1    0    0  502    0  0.00000000000E+00  0.00000000000E+00  0.14246773187E+04  0.14246773187E+04  0.00000000000E+00 0. -1.
          1   -1    0    0  501    0 -0.00000000000E+00 -0.00000000000E+00 -0.28473092244E+03  0.28473092244E+03  0.00000000000E+00 0. -1.
         25    2    1    2    0    0 -0.78132683841E+02 -0.13165510912E+03  0.56255032902E+02  0.20549946335E+03  0.12501046623E+03 0.  0.
          2    1    1    2  501    0  0.71567630568E+02  0.62580470912E+02 -0.19836811465E+03  0.21997306652E+03  0.00000000000E+00 0. -1.
          1    1    1    2  502    0  0.65650532729E+01  0.69074638207E+02  0.12820594780E+04  0.12839357113E+04  0.00000000000E+00 0. -1.
         22    1    3    3    0    0 -0.29303413088E+02  0.17324221130E+02 -0.97258805630E+01  0.35403550798E+02  0.00000000000E+00 0. -1.
         22    1    3    3    0    0 -0.48829270752E+02 -0.14897933025E+03  0.65980913465E+02  0.17009591255E+03  0.00000000000E+00 0. -1.
</event>
<event>
 7    1  0.6017574E-006  0.6279638E+02  0.7818608E-02  0.1472478E+00
          2   -1    0    0  502    0  0.00000000000E+00  0.00000000000E+00  0.13042784966E+04  0.13042784966E+04  0.00000000000E+00 0. -1.
          1   -1    0    0  501    0 -0.00000000000E+00 -0.00000000000E+00 -0.81313348463E+02  0.81313348463E+02  0.00000000000E+00 0. -1.
         25    2    1    2    0    0  0.38902753876E+02 -0.16302874151E+02  0.10300104711E+03  0.16737450082E+03  0.12500319938E+03 0.  0.
          2    1    1    2  501    0  0.24336993483E+02  0.21807930730E+02 -0.42729046516E+02  0.53792625058E+02  0.00000000000E+00 0. -1.
          1    1    1    2  502    0 -0.63239747359E+02 -0.55050565787E+01  0.11626931475E+04  0.11644247192E+04  0.00000000000E+00 0. -1.
         22    1    3    3    0    0 -0.12977773959E+02 -0.61611519335E+02  0.46200870668E+02  0.78095597713E+02  0.00000000000E+00 0. -1.
         22    1    3    3    0    0  0.51880527835E+02  0.45308645184E+02  0.56800176443E+02  0.89278903112E+02  0.00000000000E+00 0. -1.
</event>
<event>
 7    1  0.6017574E-006  0.6030153E+02  0.7818608E-02  0.1399660E+00
          2   -1    0    0  502    0  0.00000000000E+00  0.00000000000E+00  0.42638410285E+03  0.42638410285E+03  0.00000000000E+00 0. -1.
          1   -1    0    0  501    0 -0.00000000000E+00 -0.00000000000E+00 -0.61740801332E+03  0.61740801332E+03  0.00000000000E+00 0. -1.
         25    2    1    2    0    0 -0.38583823042E+02  0.10186232338E+03 -0.31654445634E+02  0.16879278693E+03  0.12499742664E+03 0.  0.
          2    1    1    2  501    0  0.40757196373E+02 -0.43062198987E+02 -0.51304645599E+03  0.51646119703E+03  0.00000000000E+00 0. -1.
          1    1    1    2  502    0 -0.21733733315E+01 -0.58800124397E+02  0.35367699114E+03  0.35853813220E+03  0.00000000000E+00 0. -1.
         22    1    3    3    0    0 -0.37757334257E+01  0.11009653497E+03 -0.57878756253E+02  0.12444056252E+03  0.00000000000E+00 0.  1.
         22    1    3    3    0    0 -0.34808089616E+02 -0.82342115833E+01  0.26224310619E+02  0.44352224415E+02  0.00000000000E+00 0.  1.
</event>
<event>
 7    1  0.6017574E-006  0.7180806E+02  0.7818608E-02  0.1490223E+00
          2   -1    0    0  502    0  0.00000000000E+00  0.00000000000E+00  0.22099867393E+04  0.22099867393E+04  0.00000000000E+00 0. -1.
          1   -1    0    0  501    0 -0.00000000000E+00 -0.00000000000E+00 -0.10027791957E+04  0.10027791957E+04  0.00000000000E+00 0. -1.
         25    2    1    2    0    0 -0.32012117990E+02  0.83468858447E+02  0.15916389448E+02  0.15449710287E+03  0.12499678921E+03 0.  0.
          2    1    1    2  501    0  0.21893061361E+02 -0.12512772114E+02 -0.93271395022E+03  0.93305476181E+03  0.00000000000E+00 0. -1.
          1    1    1    2  502    0  0.10119056628E+02 -0.70956086333E+02  0.21240051043E+04  0.21252140703E+04  0.00000000000E+00 0. -1.
         22    1    3    3    0    0 -0.56824335099E+02  0.59086148812E+02 -0.37981217163E+02  0.90347943518E+02  0.00000000000E+00 0.  1.
         22    1    3    3    0    0  0.24812217109E+02  0.24382709636E+02  0.53897606611E+02  0.64149159350E+02  0.00000000000E+00 0.  1.
</event>
<event>
 7    1  0.6017574E-006  0.8444619E+02  0.7818608E-02  0.1425088E+00
          2   -1    0    0  502    0  0.00000000000E+00  0.00000000000E+00  0.37740910861E+03  0.37740910861E+03  0.00000000000E+00 0. -1.
          1   -1    0    0  501    0 -0.00000000000E+00 -0.00000000000E+00 -0.82213282770E+03  0.82213282770E+03  0.00000000000E+00 0. -1.
         25    2    1    2    0    0 -0.62066669047E+02  0.38619807477E+02 -0.23948494030E+02  0.14677453944E+03  0.12500189649E+03 0.  0.
          2    1    1    2  501    0  0.84256013787E+02 -0.12230842586E+02 -0.73336067491E+03  0.73828622422E+03  0.00000000000E+00 0. -1.
          1    1    1    2  502    0 -0.22189344739E+02 -0.26388964892E+02  0.31258544985E+03  0.31448117264E+03  0.00000000000E+00 0. -1.
         22    1    3    3    0    0  0.22917894083E+02  0.27562751035E+02  0.28938049017E+02  0.46068924393E+02  0.00000000000E+00 0.  1.
         22    1    3    3    0    0 -0.84984563130E+02  0.11057056442E+02 -0.52886543047E+02  0.10070561505E+03  0.00000000000E+00 0.  1.
</event>
<event>
 7    1  0.6017574E-006  0.7602841E+02  0.7818608E-02  0.1408526E+00
          2   -1    0    0  502    0  0.00000000000E+00  0.00000000000E+00  0.42239466300E+03  0.42239466300E+03  0.00000000000E+00 0. -1.
          1   -1    0    0  501    0 -0.00000000000E+00 -0.00000000000E+00 -0.42015691668E+03  0.42015691668E+03  0.00000000000E+00 0. -1.
         25    2    1    2    0    0 -0.29377348354E+02  0.19611766435E+02  0.11502962026E+03  0.17350591949E+03  0.12499936232E+03 0.  0.
          2    1    1    2  501    0  0.72283982513E+02 -0.26912745802E+02 -0.38537078124E+03  0.39301387895E+03  0.00000000000E+00 0. -1.
          1    1    1    2  502    0 -0.42906634159E+02  0.73009793675E+01  0.27257890730E+03  0.27603178124E+03  0.00000000000E+00 0. -1.
         22    1    3    3    0    0  0.36367128759E+02  0.40314870879E+02  0.24095287604E+02  0.59400671317E+02  0.00000000000E+00 0. -1.
         22    1    3    3    0    0 -0.65744477113E+02 -0.20703104444E+02  0.90934332659E+02  0.11410524817E+03  0.00000000000E+00 0. -1.
</event>
<event>
 7    1  0.6017574E-006  0.8993469E+02  0.7818608E-02  0.1384735E+00
          2   -1    0    0  502    0  0.00000000000E+00  0.00000000000E+00  0.72543104050E+03  0.72543104050E+03  0.00000000000E+00 0. -1.
          1   -1    0    0  501    0 -0.00000000000E+00 -0.00000000000E+00 -0.17508189521E+04  0.17508189521E+04  0.00000000000E+00 0. -1.
         25    2    1    2    0    0 -0.57436882081E+02 -0.40189387171E+02  0.77187056965E+02  0.16277985686E+03  0.12500103108E+03 0.  0.
          2    1    1    2  501    0  0.15234613394E+02 -0.41770897012E+02 -0.17042217307E+04  0.17048016332E+04  0.00000000000E+00 0. -1.
          1    1    1    2  502    0  0.42202268687E+02  0.81960284183E+02  0.60164676209E+03  0.60866850256E+03  0.00000000000E+00 0. -1.
         22    1    3    3    0    0  0.26570730077E+02  0.24442828491E+02  0.29181132331E+02  0.46421913420E+02  0.00000000000E+00 0.  1.
         22    1    3    3    0    0 -0.84007612158E+02 -0.64632215661E+02  0.48005924634E+02  0.11635794344E+03  0.00000000000E+00 0.  1.
</event>
<event>
 7    1  0.6017574E-006  0.1408627E+03  0.7818608E-02  0.1294954E+00
          2   -1    0    0  502    0  0.00000000000E+00  0.00000000000E+00  0.98758958695E+03  0.98758958695E+03  0.00000000000E+00 0. -1.
          1   -1    0    0  501    0 -0.00000000000E+00 -0.00000000000E+00 -0.10503027111E+03  0.10503027111E+03  0.00000000000E+00 0. -1.
         25    2    1    2    0    0  0.93299636547E+02  0.12283666384E+03  0.92273032870E+02  0.21893607598E+03  0.12500009843E+03 0.  0.
          2    1    1    2  501    0 -0.32181226728E+02 -0.13234120338E+03  0.74523170501E+02  0.15525311078E+03  0.00000000000E+00 0. -1.
          1    1    1    2  502    0 -0.61118409820E+02  0.95045395481E+01  0.71576311247E+03  0.71843067129E+03  0.00000000000E+00 0. -1.
         22    1    3    3    0    0  0.34296153327E+02  0.13382162682E+03  0.70461017783E+02  0.15507807377E+03  0.00000000000E+00 0. -1.
         22    1    3    3    0    0  0.59003483220E+02 -0.10984962983E+02  0.21812015086E+02  0.63858002208E+02  0.00000000000E+00 0. -1.
</event>
<event>
 7    1  0.6017574E-006  0.8202644E+02  0.7818608E-02  0.1331028E+00
          2   -1    0    0  502    0  0.00000000000E+00  0.00000000000E+00  0.54235750143E+02  0.54235750143E+02  0.00000000000E+00 0. -1.
          1   -1    0    0  501    0 -0.00000000000E+00 -0.00000000000E+00 -0.60137179369E+03  0.60137179369E+03  0.00000000000E+00 0. -1.
         25    2    1    2    0    0 -0.48620854838E+02 -0.48999784582E+02 -0.16573502356E+03  0.21876940009E+03  0.12500794361E+03 0.  0.
          2    1    1    2  501    0  0.80973326843E+02 -0.26376965955E+02 -0.32820187495E+03  0.33907063381E+03  0.00000000000E+00 0. -1.
          1    1    1    2  502    0 -0.32352472005E+02  0.75376750537E+02 -0.53199145035E+02  0.97767509935E+02  0.00000000000E+00 0. -1.
         22    1    3    3    0    0 -0.75140486746E+02 -0.11895922465E+02 -0.42006653489E+02  0.86903191294E+02  0.00000000000E+00 0. -1.
         22    1    3    3    0    0  0.26519631908E+02 -0.37103862117E+02 -0.12372837008E+03  0.13186620880E+03  0.00000000000E+00 0. -1.
</event>
<event>
 7    1  0.6017574E-006  0.2923785E+03  0.7818608E-02  0.1109023E+00
          2   -1    0    0  502    0  0.00000000000E+00  0.00000000000E+00  0.11287901626E+04  0.11287901626E+04  0.00000000000E+00 0. -1.
          1   -1    0    0  501    0 -0.00000000000E+00 -0.00000000000E+00 -0.80795225084E+03  0.80795225084E+03  0.00000000000E+00 0. -1.
         25    2    1    2    0    0 -0.14132611996E+02  0.37035855957E+02  0.46264067517E+02  0.13905760611E+03  0.12500107410E+03 0.  0.
          2    1    1    2  501    0  0.28831588352E+03  0.64495929128E+02 -0.71084997683E+03  0.76980092434E+03  0.00000000000E+00 0. -1.
          1    1    1    2  502    0 -0.27418327152E+03 -0.10153178508E+03  0.98542382109E+03  0.10278838830E+04  0.00000000000E+00 0. -1.
         22    1    3    3    0    0 -0.16134754788E+02 -0.29800555924E+02  0.61735235286E+02  0.70424730892E+02  0.00000000000E+00 0.  1.
         22    1    3    3    0    0  0.20021427922E+01  0.66836411880E+02 -0.15471167769E+02  0.68632875220E+02  0.00000000000E+00 0.  1.
</event>
<event>
 7    1  0.6017574E-006  0.8793401E+02  0.7818608E-02  0.1331901E+00
          2   -1    0    0  502    0  0.00000000000E+00  0.00000000000E+00  0.19785452808E+03  0.19785452808E+03  0.00000000000E+00 0. -1.
          1   -1    0    0  501    0 -0.00000000000E+00 -0.00000000000E+00 -0.13995963210E+04  0.13995963210E+04  0.00000000000E+00 0. -1.
         25    2    1    2    0    0 -0.38628150748E+02 -0.99765665702E+02 -0.56313345177E+03  0.58667667824E+03  0.12499967286E+03 0.  0.
          2    1    1    2  501    0  0.78416232841E+02  0.40984007455E+02 -0.81544092774E+03  0.82022722527E+03  0.00000000000E+00 0. -1.
          1    1    1    2  502    0 -0.39788082093E+02  0.58781658247E+02  0.17683258654E+03  0.19054694562E+03  0.00000000000E+00 0. -1.
         22    1    3    3    0    0 -0.13290349214E+01 -0.61224882202E+02 -0.80873504366E+02  0.10144346328E+03  0.00000000000E+00 0.  1.
         22    1    3    3    0    0 -0.37299115826E+02 -0.38540783499E+02 -0.48225994740E+03  0.48523321496E+03  0.00000000000E+00 0.  1.
</event>
<event>
 7    1  0.6017574E-006  0.1477794E+03  0.7818608E-02  0.1204435E+00
          2   -1    0    0  502    0  0.00000000000E+00  0.00000000000E+00  0.42798576960E+03  0.42798576960E+03  0.00000000000E+00 0. -1.
          1   -1    0    0  501    0 -0.00000000000E+00 -0.00000000000E+00 -0.13246735318E+04  0.13246735318E+04  0.00000000000E+00 0. -1.
         25    2    1    2    0    0  0.36532915155E+02 -0.44209569945E+02 -0.27106230442E+03  0.30395692579E+03  0.12500359952E+03 0.  0.
          2    1    1    2  501    0 -0.12867082020E+03  0.15729440268E+03 -0.10138303379E+04  0.10339969357E+04  0.00000000000E+00 0. -1.
          1    1    1    2  502    0  0.92137905045E+02 -0.11308483274E+03  0.38820488010E+03  0.41470543989E+03  0.00000000000E+00 0. -1.
         22    1    3    3    0    0 -0.33307155849E+02 -0.26577108278E+02 -0.29352573487E+02  0.51742466944E+02  0.00000000000E+00 0.  1.
         22    1    3    3    0    0  0.69840071003E+02 -0.17632461667E+02 -0.24170973093E+03  0.25221445884E+03  0.00000000000E+00 0.  1.
</event>
<event>
 7    1  0.6017574E-006  0.4986510E+02  0.7818608E-02  0.1470382E+00
          2   -1    0    0  502    0  0.00000000000E+00  0.00000000000E+00  0.10874719503E+04  0.10874719503E+04  0.00000000000E+00 0. -1.
          1   -1    0    0  501    0 -0.00000000000E+00 -0.00000000000E+00 -0.19843818465E+04  0.19843818465E+04  0.00000000000E+00 0. -1.
         25    2    1    2    0    0  0.86761295106E+02 -0.15562936857E+02  0.11876503137E+03  0.19364856345E+03  0.12499962448E+03 0.  0.
          2    1    1    2  501    0 -0.49659828806E+02 -0.36345702937E+01 -0.19461530182E+04  0.19467898908E+04  0.00000000000E+00 0. -1.
          1    1    1    2  502    0 -0.37101466301E+02  0.19197507151E+02  0.93047809061E+03  0.93141534247E+03  0.00000000000E+00 0. -1.
         22    1    3    3    0    0  0.10090955049E+03  0.84736063049E+01  0.37927027308E+02  0.10813417029E+03  0.00000000000E+00 0.  1.
         22    1    3    3    0    0 -0.14148255386E+02 -0.24036543162E+02  0.80838004058E+02  0.85514393161E+02  0.00000000000E+00 0.  1.
</event>
<event>
 7    1  0.6017574E-006  0.8810436E+02  0.7818608E-02  0.1370082E+00
          2   -1    0    0  502    0  0.00000000000E+00  0.00000000000E+00  0.15962360716E+04  0.15962360716E+04  0.00000000000E+00 0. -1.
          1   -1    0    0  501    0 -0.00000000000E+00 -0.00000000000E+00 -0.22119899793E+03  0.22119899793E+03  0.00000000000E+00 0. -1.
         25    2    1    2    0    0 -0.35126136464E+02  0.16437396182E+02 -0.22712035890E+02  0.13283126639E+03  0.12499710116E+03 0.  0.
          2    1    1    2  501    0 -0.37701334818E+02  0.34598837651E+02 -0.13753520641E+03  0.14674605009E+03  0.00000000000E+00 0. -1.
          1    1    1    2  502    0  0.72827471281E+02 -0.51036233833E+02  0.15352843160E+04  0.15378577530E+04  0.00000000000E+00 0. -1.
         22    1    3    3    0    0  0.37057966776E+02  0.18246217214E+02 -0.41152138740E+02  0.58307082478E+02  0.00000000000E+00 0. -1.
         22    1    3    3    0    0 -0.72184103240E+02 -0.18088210316E+01  0.18440102850E+02  0.74524183908E+02  0.00000000000E+00 0. -1.
</event>
<event>
 7    1  0.6017574E-006  0.6201965E+02  0.7818608E-02  0.1437588E+00
          2   -1    0    0  502    0  0.00000000000E+00  0.00000000000E+00  0.59165131588E+02  0.59165131588E+02  0.00000000000E+00 0. -1.
          1   -1    0    0  501    0 -0.00000000000E+00 -0.00000000000E+00 -0.13010579382E+04  0.13010579382E+04  0.00000000000E+00 0. -1.
         25    2    1    2    0    0 -0.90683914464E+01  0.75461884949E+02 -0.64145402574E+02  0.15973804727E+03  0.12499951708E+03 0.  0.
          2    1    1    2  501    0  0.40703190258E+02 -0.46768274821E+02 -0.11449710654E+04  0.11466484909E+04  0.00000000000E+00 0. -1.
          1    1    1    2  502    0 -0.31634798812E+02 -0.28693610127E+02 -0.32776338702E+02  0.53836531618E+02  0.00000000000E+00 0. -1.
         22    1    3    3    0    0 -0.44848805552E+02 -0.65418057424E+01 -0.52747739186E+02  0.69545198045E+02  0.00000000000E+00 0.  1.
         22    1    3    3    0    0  0.35780414106E+02  0.82003690691E+02 -0.11397663388E+02  0.90192849225E+02  0.00000000000E+00 0.  1.
</event>
<event>
 7    1  0.6017574E-006  0.4945495E+02  0.7818608E-02  0.1544969E+00
          2   -1    0    0  502    0  0.00000000000E+00  0.00000000000E+00  0.55482327824E+03  0.55482327824E+03  0.00000000000E+00 0. -1.
          1   -1    0    0  501    0 -0.00000000000E+00 -0.00000000000E+00 -0.19836044114E+03  0.19836044114E+03  0.00000000000E+00 0. -1.
         25    2    1    2    0    0  0.68801814457E+00 -0.43769486418E+02 -0.18449023503E+02  0.13372275709E+03  0.12500067194E+03 0.  0.
          2    1    1    2  501    0 -0.25347897068E+02  0.68046065352E+00 -0.11970375131E+03  0.12235998933E+03  0.00000000000E+00 0. -1.
          1    1    1    2  502    0  0.24659878924E+02  0.43089025765E+02  0.49461561191E+03  0.49710097295E+03  0.00000000000E+00 0. -1.
         22    1    3    3    0    0  0.33842601228E+02 -0.73538373718E+02  0.89020622149E+01  0.81439921283E+02  0.00000000000E+00 0.  1.
         22    1    3    3    0    0 -0.33154583084E+02  0.29768887300E+02 -0.27351085718E+02  0.52282835811E+02  0.00000000000E+00 0.  1.
</event>
<event>
 7    1  0.6017574E-006  0.7766563E+02  0.7818608E-02  0.1339133E+00
          2   -1    0    0  502    0  0.00000000000E+00  0.00000000000E+00  0.96877792572E+03  0.96877792572E+03  0.00000000000E+00 0. -1.
          1   -1    0    0  501    0 -0.00000000000E+00 -0.00000000000E+00 -0.63747006888E+03  0.63747006888E+03  0.00000000000E+00 0. -1.
         25    2    1    2    0    0  0.64336763126E+02  0.24598045211E+02  0.18298334862E+03  0.23205379130E+03  0.12498709240E+03 0.  0.
          2    1    1    2  501    0 -0.55882834141E+02  0.53935687382E+02 -0.60841071687E+03  0.61334782133E+03  0.00000000000E+00 0. -1.
          1    1    1    2  502    0 -0.84539289848E+01 -0.78533732593E+02  0.75673522509E+03  0.76084638197E+03  0.00000000000E+00 0. -1.
         22    1    3    3    0    0  0.19928180958E+02  0.24829230138E+02  0.18488277347E+03  0.18760400580E+03  0.00000000000E+00 0.  1.
         22    1    3    3    0    0  0.44408582168E+02 -0.23118492750E+00 -0.18994248488E+01  0.44449785504E+02  0.00000000000E+00 0.  1.
</event>
<event>
 7    1  0.6017574E-006  0.4342788E+02  0.7818608E-02  0.1560114E+00
          2   -1    0    0  502    0  0.00000000000E+00  0.00000000000E+00  0.13041501315E+04  0.13041501315E+04  0.00000000000E+00 0. -1.
          1   -1    0    0  501    0 -0.00000000000E+00 -0.00000000000E+00 -0.23883890775E+03  0.23883890775E+03  0.00000000000E+00 0. -1.
         25    2    1    2    0    0  0.60115134984E+02  0.33181112122E+02  0.10679314511E+04  0.10774120763E+04  0.12499752908E+03 0.  0.
          2    1    1    2  501    0 -0.40322080378E+02 -0.16002568800E+02 -0.23133401879E+03  0.23536648152E+03  0.00000000000E+00 0. -1.
          1    1    1    2  502    0 -0.19793054607E+02 -0.17178543322E+02  0.22871379142E+03  0.23021048140E+03  0.00000000000E+00 0. -1.
         22    1    3    3    0    0 -0.16502132569E+02  0.29888141540E+02  0.86573513756E+02  0.93062316048E+02  0.00000000000E+00 0.  1.
         22    1    3    3    0    0  0.76617267553E+02  0.32929705813E+01  0.98135793732E+03  0.98434976023E+03  0.00000000000E+00 0.  1.
</event>
<event>
 7    1  0.6017574E-006  0.1331344E+03  0.7818608E-02  0.1258633E+00
          2   -1    0    0  502    0  0.00000000000E+00  0.00000000000E+00  0.49811115678E+03  0.49811115678E+03  0.00000000000E+00 0. -1.
          1   -1    0    0  501    0 -0.00000000000E+00 -0.00000000000E+00 -0.64546842978E+03  0.64546842978E+03  0.00000000000E+00 0. -1.
         25    2    1    2    0    0 -0.18197990703E+03 -0.77463823421E+02 -0.10942002112E+03  0.25829426343E+03  0.12500341994E+03 0.  0.
          2    1    1    2  501    0  0.91221255449E+02 -0.16110962690E+02 -0.44671853300E+03  0.45622179726E+03  0.00000000000E+00 0. -1.
          1    1    1    2  502    0  0.90758651583E+02  0.93574786112E+02  0.40878128112E+03  0.42906352587E+03  0.00000000000E+00 0. -1.
         22    1    3    3    0    0 -0.11856197610E+03 -0.50655323244E+02 -0.13327027242E+03  0.18542887980E+03  0.00000000000E+00 0.  1.
         22    1    3    3    0    0 -0.63417930927E+02 -0.26808500177E+02  0.23850251306E+02  0.72865383634E+02  0.00000000000E+00 0.  1.
</event>
<event>
 7    1  0.6017574E-006  0.9996557E+02  0.7818608E-02  0.1322130E+00
          2   -1    0    0  502    0  0.00000000000E+00  0.00000000000E+00  0.26390370302E+04  0.26390370302E+04  0.00000000000E+00 0. -1.
          1   -1    0    0  501    0 -0.00000000000E+00 -0.00000000000E+00 -0.34706353910E+02  0.34706353910E+02  0.00000000000E+00 0. -1.
         25    2    1    2    0    0 -0.10084271228E+03  0.11813241410E+03  0.80921891968E+03  0.83341812725E+03  0.12500397981E+03 0.  0.
          2    1    1    2  501    0  0.76006405382E+02 -0.54755514413E+02  0.78092583707E+02  0.12195733536E+03  0.00000000000E+00 0. -1.
          1    1    1    2  502    0  0.24836306900E+02 -0.63376899684E+02  0.17170191729E+04  0.17183679215E+04  0.00000000000E+00 0. -1.
         22    1    3    3    0    0  0.60183407767E+00  0.92887252488E+02  0.32319653541E+03  0.33628024679E+03  0.00000000000E+00 0. -1.
         22    1    3    3    0    0 -0.10144454636E+03  0.25245161609E+02  0.48602238427E+03  0.49713788046E+03  0.00000000000E+00 0. -1.
</event>
<event>
 7    1  0.6017574E-006  0.6314114E+02  0.7818608E-02  0.1411253E+00
          2   -1    0    0  502    0  0.00000000000E+00  0.00000000000E+00  0.26972327933E+04  0.26972327933E+04  0.00000000000E+00 0. -1.
          1   -1    0    0  501    0 -0.00000000000E+00 -0.00000000000E+00 -0.15920197853E+03  0.15920197853E+03  0.00000000000E+00 0. -1.
         25    2    1    2    0    0 -0.41726951255E+02  0.15072072564E+02  0.66121410255E+02  0.14820450918E+03  0.12499691922E+03 0.  0.
          2    1    1    2  501    0  0.56701820186E+02  0.33996696182E+02 -0.10863772456E+03  0.12717321637E+03  0.00000000000E+00 0. -1.
          1    1    1    2  502    0 -0.14974868931E+02 -0.49068768746E+02  0.25805471291E+04  0.25810570463E+04  0.00000000000E+00 0. -1.
         22    1    3    3    0    0 -0.69399372012E+02  0.33206425833E+02  0.81188335824E+02  0.11185028130E+03  0.00000000000E+00 0.  1.
         22    1    3    3    0    0  0.27672420758E+02 -0.18134353269E+02 -0.15066925568E+02  0.36354227886E+02  0.00000000000E+00 0.  1.
</event>
<event>
 7    1  0.6017574E-006  0.1075249E+03  0.7818608E-02  0.1302990E+00
          2   -1    0    0  502    0  0.00000000000E+00  0.00000000000E+00  0.29957237371E+04  0.29957237371E+04  0.00000000000E+00 0. -1.
          1   -1    0    0  501    0 -0.00000000000E+00 -0.00000000000E+00 -0.12510786424E+04  0.12510786424E+04  0.00000000000E+00 0. -1.
         25    2    1    2    0    0 -0.87302760075E+02 -0.43136533099E+02  0.36871548666E+03  0.40132085990E+03  0.12499916031E+03 0.  0.
          2    1    1    2  501    0  0.10337713869E+03 -0.30361769158E+02 -0.12318820385E+04  0.12365848238E+04  0.00000000000E+00 0. -1.
          1    1    1    2  502    0 -0.16074378611E+02  0.73498302257E+02  0.26078116464E+04  0.26088966958E+04  0.00000000000E+00 0. -1.
         22    1    3    3    0    0  0.11060339804E+02 -0.44670122460E+01  0.21176794175E+03  0.21210362201E+03  0.00000000000E+00 0. -1.
         22    1    3    3    0    0 -0.98363099879E+02 -0.38669520853E+02  0.15694754491E+03  0.18921723789E+03  0.00000000000E+00 0. -1.
</event>
<event>
 7    1  0.6017574E-006  0.8458526E+02  0.7818608E-02  0.1348819E+00
          2   -1    0    0  502    0  0.00000000000E+00  0.00000000000E+00  0.21201556603E+03  0.21201556603E+03  0.00000000000E+00 0. -1.
          1   -1    0    0  501    0 -0.00000000000E+00 -0.00000000000E+00 -0.73694749973E+03  0.73694749973E+03  0.00000000000E+00 0. -1.
         25    2    1    2    0    0  0.45348533878E+02 -0.40423017367E+02 -0.23291819046E+03  0.27123048419E+03  0.12499832897E+03 0.  0.
          2    1    1    2  501    0  0.40453722282E+02  0.49253516282E+02 -0.47298316534E+03  0.47725830240E+03  0.00000000000E+00 0. -1.
          1    1    1    2  502    0 -0.85802256159E+02 -0.88304989155E+01  0.18096942211E+03  0.20047427918E+03  0.00000000000E+00 0. -1.
         22    1    3    3    0    0  0.15628314146E+02  0.31822804548E+02 -0.12853650678E+02  0.37711423045E+02  0.00000000000E+00 0.  1.
         22    1    3    3    0    0  0.29720219732E+02 -0.72245821915E+02 -0.22006453979E+03  0.23351906114E+03  0.00000000000E+00 0.  1.
</event>
<event>
 7    1  0.6017574E-006  0.3452625E+02  0.7818608E-02  0.1604613E+00
          2   -1    0    0  502    0  0.00000000000E+00  0.00000000000E+00  0.21361093980E+02  0.21361093980E+02  0.00000000000E+00 0. -1.
          1   -1    0    0  501    0 -0.00000000000E+00 -0.00000000000E+00 -0.11904163240E+04  0.11904163240E+04  0.00000000000E+00 0. -1.
         25    2    1    2    0    0 -0.11466984316E+02 -0.13615240041E+02 -0.60762541804E+03  0.62060620171E+03  0.12500616969E+03 0.  0.
          2    1    1    2  501    0  0.35671544090E+02  0.71022335770E+01 -0.56472053828E+03  0.56589061410E+03  0.00000000000E+00 0. -1.
          1    1    1    2  502    0 -0.24204559774E+02  0.65130064642E+01  0.32907262848E+01  0.25280602179E+02  0.00000000000E+00 0. -1.
         22    1    3    3    0    0 -0.18317373643E+02  0.70932189584E+01 -0.59515870509E+03  0.59548276564E+03  0.00000000000E+00 0. -1.
         22    1    3    3    0    0  0.68503893277E+01 -0.20708459000E+02 -0.12466712951E+02  0.25123436069E+02  0.00000000000E+00 0. -1.
</event>
<event>
 7    1  0.6017574E-006  0.1340627E+03  0.7818608E-02  0.1223179E+00
          2   -1    0    0  502    0  0.00000000000E+00  0.00000000000E+00  0.82755835792E+03  0.82755835792E+03  0.00000000000E+00 0. -1.
          1   -1    0    0  501    0 -0.00000000000E+00 -0.00000000000E+00 -0.27170239533E+04  0.27170239533E+04  0.00000000000E+00 0. -1.
         25    2    1    2    0    0  0.23278115511E+02  0.19737889243E+02 -0.32634788826E+03  0.35079786585E+03  0.12499897432E+03 0.  0.
          2    1    1    2  501    0 -0.15008908801E+02 -0.15354536356E+03 -0.23704155859E+04  0.23754308022E+04  0.00000000000E+00 0. -1.
          1    1    1    2  502    0 -0.82692067099E+01  0.13380747432E+03  0.80729787887E+03  0.81835364311E+03  0.00000000000E+00 0. -1.
         22    1    3    3    0    0 -0.71978103163E+01 -0.50495922421E+02 -0.15351204177E+03  0.16176400595E+03  0.00000000000E+00 0.  1.
         22    1    3    3    0    0  0.30475925827E+02  0.70233811664E+02 -0.17283584649E+03  0.18903385990E+03  0.00000000000E+00 0.  1.
</event>
<event>
 7    1  0.6017574E-006  0.3452036E+02  0.7818608E-02  0.1637365E+00
          2   -1    0    0  502    0  0.00000000000E+00  0.00000000000E+00  0.50372052544E+03  0.50372052544E+03  0.00000000000E+00 0. -1.
          1   -1    0    0  501    0 -0.00000000000E+00 -0.00000000000E+00 -0.24540207003E+02  0.24540207003E+02  0.00000000000E+00 0. -1.
         25    2    1    2    0    0 -0.32496945284E+02  0.86975743252E-01  0.31203894102E+03  0.33771201712E+03  0.12500018710E+03 0.  0.
          2    1    1    2  501    0  0.28755137858E+02  0.20265269738E+02  0.17149723888E+02  0.39136327628E+02  0.00000000000E+00 0. -1.
          1    1    1    2  502    0  0.37418074259E+01 -0.20352245482E+02  0.14999165352E+03  0.15141238769E+03  0.00000000000E+00 0. -1.
         22    1    3    3    0    0 -0.50076577443E+02  0.51501911746E+02  0.14091159672E+03  0.15816506761E+03  0.00000000000E+00 0. -1.
         22    1    3    3    0    0  0.17579632159E+02 -0.51414936003E+02  0.17112734430E+03  0.17954694951E+03  0.00000000000E+00 0. -1.
</event>
<event>
 7    1  0.6017574E-006  0.1067927E+03  0.7818608E-02  0.1286494E+00
          2   -1    0    0  502    0  0.00000000000E+00  0.00000000000E+00  0.73742373418E+03  0.73742373418E+03  0.00000000000E+00 0. -1.
          1   -1    0    0  501    0 -0.00000000000E+00 -0.00000000000E+00 -0.15516159998E+03  0.15516159998E+03  0.00000000000E+00 0. -1.
         25    2    1    2    0    0 -0.13848158307E+03  0.10043574668E+00 -0.19846666425E+02  0.18760434916E+03  0.12499737085E+03 0.  0.
          2    1    1    2  501    0  0.56218099800E+02 -0.68096872315E+02 -0.51118822376E+01  0.88452191065E+02  0.00000000000E+00 0. -1.
          1    1    1    2  502    0  0.82263483270E+02  0.67996436568E+02  0.60722068286E+03  0.61652879394E+03  0.00000000000E+00 0. -1.
         22    1    3    3    0    0 -0.10061954023E+03 -0.27657182108E+02 -0.64612352144E+02  0.12273535614E+03  0.00000000000E+00 0. -1.
         22    1    3    3    0    0 -0.37862042841E+02  0.27757617855E+02  0.44765685719E+02  0.64868993016E+02  0.00000000000E+00 0. -1.
</event>
<event>
 7    1  0.6017574E-006  0.2095847E+03  0.7818608E-02  0.1147590E+00
          2   -1    0    0  502    0  0.00000000000E+00  0.00000000000E+00  0.17286737050E+04  0.17286737050E+04  0.00000000000E+00 0. -1.
          1   -1    0    0  501    0 -0.00000000000E+00 -0.00000000000E+00 -0.16467291137E+04  0.16467291137E+04  0.00000000000E+00 0. -1.
         25    2    1    2    0    0 -0.29502991628E+03 -0.20949790472E+03  0.29576588057E+03  0.48377082980E+03  0.12499894428E+03 0.  0.
          2    1    1    2  501    0  0.10132038084E+03  0.18104810372E+03 -0.15385690491E+04  0.15524944297E+04  0.00000000000E+00 0. -1.
          1    1    1    2  502    0  0.19370953544E+03  0.28449800995E+02  0.13247477598E+04  0.13391375592E+04  0.00000000000E+00 0. -1.
         22    1    3    3    0    0 -0.96438178610E+02 -0.14279476445E+03  0.15114433207E+03  0.22920575072E+03  0.00000000000E+00 0.  1.
         22    1    3    3    0    0 -0.19859173767E+03 -0.66703140267E+02  0.14462154850E+03  0.25456507907E+03  0.00000000000E+00 0.  1.
</event>
<event>
 7    1  0.6017574E-006  0.7524180E+02  0.7818608E-02  0.1455758E+00
          2   -1    0    0  502    0  0.00000000000E+00  0.00000000000E+00  0.22555074827E+04  0.22555074827E+04  0.00000000000E+00 0. -1.
          1   -1    0    0  501    0 -0.00000000000E+00 -0.00000000000E+00 -0.59765604648E+03  0.59765604648E+03  0.00000000000E+00 0. -1.
         25    2    1    2    0    0 -0.59052538354E+02 -0.26883649351E+02  0.33072074934E+03  0.35946057934E+03  0.12500304465E+03 0.  0.
          2    1    1    2  501    0  0.81855129753E+01 -0.29665100650E+02 -0.58212248192E+03  0.58293533499E+03  0.00000000000E+00 0. -1.
          1    1    1    2  502    0  0.50867025379E+02  0.56548750001E+02  0.19092531688E+04  0.19107676148E+04  0.00000000000E+00 0. -1.
         22    1    3    3    0    0  0.15243629242E+02 -0.58190866476E+02  0.13606535477E+03  0.14876937165E+03  0.00000000000E+00 0.  1.
         22    1    3    3    0    0 -0.74296167596E+02  0.31307217125E+02  0.19465539457E+03  0.21069120769E+03  0.00000000000E+00 0.  1.
</event>
<event>
 7    1  0.6017574E-006  0.1375751E+03  0.7818608E-02  0.1249299E+00
          2   -1    0    0  502    0  0.00000000000E+00  0.00000000000E+00  0.59431527876E+03  0.59431527876E+03  0.00000000000E+00 0. -1.
          1   -1    0    0  501    0 -0.00000000000E+00 -0.00000000000E+00 -0.15421711820E+04  0.15421711820E+04  0.00000000000E+00 0. -1.
         25    2    1    2    0    0  0.60532359462E+01  0.10494115120E+03 -0.25418635733E+02  0.16529147570E+03  0.12500351201E+03 0.  0.
          2    1    1    2  501    0 -0.10386736542E+03 -0.94742224282E+02 -0.14387486458E+04  0.14456009769E+04  0.00000000000E+00 0. -1.
          1    1    1    2  502    0  0.97814129473E+02 -0.10198926921E+02  0.51631137830E+03  0.52559400815E+03  0.00000000000E+00 0. -1.
         22    1    3    3    0    0 -0.40903069971E+02 -0.39539132362E+01 -0.22095400693E+02  0.46657274831E+02  0.00000000000E+00 0.  1.
         22    1    3    3    0    0  0.46956305917E+02  0.10889506444E+03 -0.33232350405E+01  0.11863420087E+03  0.00000000000E+00 0.  1.
</event>
<event>
 7    1  0.6017574E-006  0.1801658E+03  0.7818608E-02  0.1288918E+00
          2   -1    0    0  502    0  0.00000000000E+00  0.00000000000E+00  0.73757424098E+03  0.73757424098E+03  0.00000000000E+00 0. -1.
          1   -1    0    0  501    0 -0.00000000000E+00 -0.00000000000E+00 -0.25115694578E+03  0.25115694578E+03  0.00000000000E+00 0. -1.
         25    2    1    2    0    0 -0.14407244177E+03  0.17239289788E+03  0.44448129509E+03  0.51348296940E+03  0.12499983385E+03 0.  0.
          2    1    1    2  501    0  0.12526628676E+03 -0.12481147936E+03 -0.17712877467E+03  0.25028813555E+03  0.00000000000E+00 0. -1.
          1    1    1    2  502    0  0.18806155012E+02 -0.47581418518E+02  0.21906477479E+03  0.22496008181E+03  0.00000000000E+00 0. -1.
         22    1    3    3    0    0 -0.84375500327E+02  0.10825206008E+03  0.38187839645E+03  0.40579408970E+03  0.00000000000E+00 0. -1.
         22    1    3    3    0    0 -0.59696941447E+02  0.64140837798E+02  0.62602898645E+02  0.10768887970E+03  0.00000000000E+00 0. -1.
</event>
<event>
 7    1  0.6017574E-006  0.9571932E+02  0.7818608E-02  0.1392267E+00
          2   -1    0    0  502    0  0.00000000000E+00  0.00000000000E+00  0.38003844603E+03  0.38003844603E+03  0.00000000000E+00 0. -1.
          1   -1    0    0  501    0 -0.00000000000E+00 -0.00000000000E+00 -0.10399872260E+04  0.10399872260E+04  0.00000000000E+00 0. -1.
         25    2    1    2    0    0  0.43028506565E+02 -0.81953520548E+02 -0.21194382604E+03  0.26289383104E+03  0.12500059639E+03 0.  0.
          2    1    1    2  501    0  0.32302426517E+02  0.22413721656E+02 -0.79557325678E+03  0.79654417867E+03  0.00000000000E+00 0. -1.
          1    1    1    2  502    0 -0.75330933082E+02  0.59539798892E+02  0.34756830281E+03  0.36058766236E+03  0.00000000000E+00 0. -1.
         22    1    3    3    0    0  0.81609424689E+02 -0.43525180455E+02 -0.17223993367E+03  0.19550226158E+03  0.00000000000E+00 0.  1.
         22    1    3    3    0    0 -0.38580918124E+02 -0.38428340093E+02 -0.39703892369E+02  0.67391569464E+02  0.00000000000E+00 0.  1.
</event>
<event>
 7    1  0.6017574E-006  0.8636767E+02  0.7818608E-02  0.1333619E+00
          2   -1    0    0  502    0  0.00000000000E+00  0.00000000000E+00  0.26067631837E+02  0.26067631837E+02  0.00000000000E+00 0. -1.
          1   -1    0    0  501    0 -0.00000000000E+00 -0.00000000000E+00 -0.17302586461E+04  0.17302586461E+04  0.00000000000E+00 0. -1.
         25    2    1    2    0    0  0.35158419135E+02 -0.18731118406E+02 -0.60099582729E+03  0.61515205855E+03  0.12501640489E+03 0.  0.
          2    1    1    2  501    0 -0.10490121651E+03  0.44539528921E+01 -0.10420625567E+04  0.10473387585E+04  0.00000000000E+00 0. -1.
          1    1    1    2  502    0  0.69742797373E+02  0.14277165514E+02 -0.61132630278E+02  0.93835460916E+02  0.00000000000E+00 0. -1.
         22    1    3    3    0    0  0.33951009428E+02  0.48894771893E+02 -0.20683870359E+03  0.21523387062E+03  0.00000000000E+00 0. -1.
         22    1    3    3    0    0  0.12074097073E+01 -0.67625890299E+02 -0.39415712370E+03  0.39991818793E+03  0.00000000000E+00 0. -1.
</event>
<event>
 7    1  0.6017574E-006  0.2801032E+03  0.7818608E-02  0.1153604E+00
          2   -1    0    0  502    0  0.00000000000E+00  0.00000000000E+00  0.95422676140E+03  0.95422676140E+03  0.00000000000E+00 0. -1.
          1   -1    0    0  501    0 -0.00000000000E+00 -0.00000000000E+00 -0.46013726799E+03  0.46013726799E+03  0.00000000000E+00 0. -1.
         25    2    1    2    0    0  0.27967786355E+03 -0.12718197256E+03  0.42161512231E+03  0.53645088398E+03  0.12500111224E+03 0.  0.
          2    1    1    2  501    0 -0.61252560433E+01  0.13629432924E+03 -0.34936463672E+03  0.37505907846E+03  0.00000000000E+00 0. -1.
          1    1    1    2  502    0 -0.27355260751E+03 -0.91123566840E+01  0.42183900783E+03  0.50285406694E+03  0.00000000000E+00 0. -1.
         22    1    3    3    0    0  0.18402826112E+03 -0.17931096045E+02  0.20988912318E+03  0.27971658714E+03  0.00000000000E+00 0. -1.
         22    1    3    3    0    0  0.95649602431E+02 -0.10925087651E+03  0.21172599914E+03  0.25673429684E+03  0.00000000000E+00 0. -1.
</event>
<event>
 7    1  0.6017574E-006  0.1442843E+03  0.7818608E-02  0.1377997E+00
          2   -1    0    0  502    0  0.00000000000E+00  0.00000000000E+00  0.24291891141E+04  0.24291891141E+04  0.00000000000E+00 0. -1.
          1   -1    0    0  501    0 -0.00000000000E+00 -0.00000000000E+00 -0.60106189543E+02  0.60106189543E+02  0.00000000000E+00 0. -1.
         25    2    1    2    0    0 -0.50043940134E+02  0.11167251486E+03  0.52144436337E+03  0.55000504334E+03  0.12500470828E+03 0.  0.
          2    1    1    2  501    0  0.49426829263E+02 -0.14094238812E+03  0.76315803827E+02  0.16772557984E+03  0.00000000000E+00 0. -1.
          1    1    1    2  502    0  0.61711087038E+00  0.29269873259E+02  0.17713227574E+04  0.17715646805E+04  0.00000000000E+00 0. -1.
         22    1    3    3    0    0  0.75401860295E+00  0.21979025567E+02  0.34468101406E+03  0.34538188656E+03  0.00000000000E+00 0.  1.
         22    1    3    3    0    0 -0.50797958737E+02  0.89693489292E+02  0.17676334931E+03  0.20462315679E+03  0.00000000000E+00 0.  1.
</event>
<event>
 7    1  0.6017574E-006  0.4422745E+02  0.7818608E-02  0.1536906E+00
          2   -1    0    0  502    0  0.00000000000E+00  0.00000000000E+00  0.77295110724E+02  0.77295110724E+02  0.00000000000E+00 0. -1.
          1   -1    0    0  501    0 -0.00000000000E+00 -0.00000000000E+00 -0.21529600697E+04  0.21529600697E+04  0.00000000000E+00 0. -1.
         25    2    1    2    0    0  0.86326496995E+01  0.31284317707E+02 -0.14077278795E+03  0.19106350153E+03  0.12504020399E+03 0.  0.
          2    1    1    2  501    0  0.29221468344E+02 -0.62392848315E+01 -0.19770312985E+04  0.19772570845E+04  0.00000000000E+00 0. -1.
          1    1    1    2  502    0 -0.37854118043E+02 -0.25045032876E+02  0.42139127457E+02  0.61934594431E+02  0.00000000000E+00 0. -1.
         22    1    3    3    0    0 -0.32833181960E+02  0.42610406997E+02 -0.11739641693E+02  0.55058912168E+02  0.00000000000E+00 0. -1.
         22    1    3    3    0    0  0.41465831660E+02 -0.11326089289E+02 -0.12903314626E+03  0.13600458936E+03  0.00000000000E+00 0. -1.
</event>
<event>
 7    1  0.6017574E-006  0.1594305E+03  0.7818608E-02  0.1411200E+00
          2   -1    0    0  502    0  0.00000000000E+00  0.00000000000E+00  0.52409893285E+03  0.52409893285E+03  0.00000000000E+00 0. -1.
          1   -1    0    0  501    0 -0.00000000000E+00 -0.00000000000E+00 -0.17879079668E+04  0.17879079668E+04  0.00000000000E+00 0. -1.
         25    2    1    2    0    0 -0.12457433984E+03  0.68312825882E+02  0.55348829341E+02  0.19716156572E+03  0.12499512696E+03 0.  0.
          2    1    1    2  501    0  0.14489315752E+03 -0.67751955926E+02 -0.17130137953E+04  0.17204652328E+04  0.00000000000E+00 0. -1.
          1    1    1    2  502    0 -0.20318817680E+02 -0.56086995593E+00  0.39385593201E+03  0.39438010105E+03  0.00000000000E+00 0. -1.
         22    1    3    3    0    0 -0.47873962331E+02  0.92423367685E+02  0.92841815812E+01  0.10449971862E+03  0.00000000000E+00 0. -1.
         22    1    3    3    0    0 -0.76700377508E+02 -0.24110541803E+02  0.46064647759E+02  0.92661847106E+02  0.00000000000E+00 0. -1.
</event>
<event>
 7    1  0.6017574E-006  0.9206817E+02  0.7818608E-02  0.1314031E+00
          2   -1    0    0  502    0  0.00000000000E+00  0.00000000000E+00  0.29419686751E+03  0.29419686751E+03  0.00000000000E+00 0. -1.
          1   -1    0    0  501    0 -0.00000000000E+00 -0.00000000000E+00 -0.54626129820E+03  0.54626129820E+03  0.00000000000E+00 0. -1.
         25    2    1    2    0    0 -0.62876700980E+02 -0.40251732375E+01  0.12625600931E+03  0.18850397841E+03  0.12499395363E+03 0.  0.
          2    1    1    2  501    0 -0.48347031140E+02  0.63073343352E+02 -0.48220367523E+03  0.48870857008E+03  0.00000000000E+00 0. -1.
          1    1    1    2  502    0  0.11122373212E+03 -0.59048170115E+02  0.10388323523E+03  0.16324561722E+03  0.00000000000E+00 0. -1.
         22    1    3    3    0    0 -0.98933552815E+02  0.52374384782E-02  0.68628512176E+02  0.12040648065E+03  0.00000000000E+00 0. -1.
         22    1    3    3    0    0  0.36056851835E+02 -0.40304106760E+01  0.57627497133E+02  0.68097497753E+02  0.00000000000E+00 0. -1.
</event>
<event>
 7    1  0.6017574E-006  0.9577363E+02  0.7818608E-02  0.1418686E+00
          2   -1    0    0  502    0  0.00000000000E+00  0.00000000000E+00  0.93131239138E+03  0.93131239138E+03  0.00000000000E+00 0. -1.
          1   -1    0    0  501    0 -0.00000000000E+00 -0.00000000000E+00 -0.10534490827E+04  0.10534490827E+04  0.00000000000E+00 0. -1.
         25    2    1    2    0    0 -0.10235438816E+02 -0.92103650373E+02 -0.60175773999E+03  0.62155043026E+03  0.12499885239E+03 0.  0.
          2    1    1    2  501    0  0.31906843123E+02 -0.12208234769E+01 -0.43872273752E+03  0.43988314069E+03  0.00000000000E+00 0. -1.
          1    1    1    2  502    0 -0.21671404307E+02  0.93324473849E+02  0.91834378615E+03  0.92332790316E+03  0.00000000000E+00 0. -1.
         22    1    3    3    0    0  0.28392742021E+02  0.10751036217E+02 -0.46545221224E+02  0.55571487275E+02  0.00000000000E+00 0.  1.
         22    1    3    3    0    0 -0.38628180837E+02 -0.10285468659E+03 -0.55521251877E+03  0.56597894299E+03  0.00000000000E+00 0.  1.
</event>
<event>
 7    1  0.6017574E-006  0.1570585E+03  0.7818608E-02  0.1249584E+00
          2   -1    0    0  502    0  0.00000000000E+00  0.00000000000E+00  0.23306964399E+04  0.23306964399E+04  0.00000000000E+00 0. -1.
          1   -1    0    0  501    0 -0.00000000000E+00 -0.00000000000E+00 -0.85639845731E+03  0.85639845731E+03  0.00000000000E+00 0. -1.
         25    2    1    2    0    0 -0.17797228101E+02 -0.23936579526E+03  0.20731721238E+03  0.34090943684E+03  0.12500436918E+03 0.  0.
          2    1    1    2  501    0  0.30640534360E+01  0.15473946343E+03 -0.78110930614E+03  0.79629481858E+03  0.00000000000E+00 0. -1.
          1    1    1    2  502    0  0.14733174665E+02  0.84626331827E+02  0.20480900764E+04  0.20498906418E+04  0.00000000000E+00 0. -1.
         22    1    3    3    0    0  0.36148005154E+02 -0.75388462293E+02  0.19573286767E+02  0.85867409874E+02  0.00000000000E+00 0.  1.
         22    1    3    3    0    0 -0.53945233255E+02 -0.16397733296E+03  0.18774392561E+03  0.25504202697E+03  0.00000000000E+00 0.  1.
</event>
<event>
 7    1  0.6839429E-006  0.8845917E+02  0.7818608E-02  0.1338822E+00
          2   -1    0    0  502    0  0.00000000000E+00  0.00000000000E+00  0.33897049021E+04  0.33897049021E+04  0.00000000000E+00 0. -1.
          1   -1    0    0  501    0 -0.00000000000E+00 -0.00000000000E+00 -0.21004378549E+04  0.21004378549E+04  0.00000000000E+00 0. -1.
         25    2    1    2    0    0 -0.10867806123E+02  0.10923341332E+03 -0.38190610222E+03  0.41656573808E+03  0.12499878173E+03 0.  0.
          2    1    1    2  501    0  0.57154293510E+02 -0.33848744749E+02 -0.16999730832E+04  0.17012703590E+04  0.00000000000E+00 0. -1.
          1    1    1    2  502    0 -0.46286487387E+02 -0.75384668569E+02  0.33711462326E+04  0.33723066599E+04  0.00000000000E+00 0. -1.
         22    1    3    3    0    0 -0.31026958479E+02  0.95546204018E+02 -0.37892768891E+03  0.39201778363E+03  0.00000000000E+00 0.  1.
         22    1    3    3    0    0  0.20159152355E+02  0.13687209301E+02 -0.29784133106E+01  0.24547954456E+02  0.00000000000E+00 0.  1.
</event>
<event>
 7    1  0.6017574E-006  0.8463069E+02  0.7818608E-02  0.1381299E+00
          2   -1    0    0  502    0  0.00000000000E+00  0.00000000000E+00  0.10456193319E+04  0.10456193319E+04  0.00000000000E+00 0. -1.
          1   -1    0    0  501    0 -0.00000000000E+00 -0.00000000000E+00 -0.76329435867E+03  0.76329435867E+03  0.00000000000E+00 0. -1.
         25    2    1    2    0    0 -0.47522419988E+02 -0.67488899486E+02  0.20967913349E+02  0.15125491525E+03  0.12500105616E+03 0.  0.
          2    1    1    2  501    0  0.79341138011E+02  0.30772262832E+02 -0.69493859635E+03  0.70012970301E+03  0.00000000000E+00 0. -1.
          1    1    1    2  502    0 -0.31818718023E+02  0.36716636655E+02  0.95629565620E+03  0.95752907229E+03  0.00000000000E+00 0. -1.
         22    1    3    3    0    0 -0.76305498671E+02 -0.72689436725E+01  0.32967149311E+02  0.83439796280E+02  0.00000000000E+00 0.  1.
         22    1    3    3    0    0  0.28783078683E+02 -0.60219955814E+02 -0.11999235962E+02  0.67815118966E+02  0.00000000000E+00 0.  1.
</event>
<event>
 7    1  0.6017574E-006  0.2018030E+03  0.7818608E-02  0.1275682E+00
          2   -1    0    0  502    0  0.00000000000E+00  0.00000000000E+00  0.16399651438E+04  0.16399651438E+04  0.00000000000E+00 0. -1.
          1   -1    0    0  501    0 -0.00000000000E+00 -0.00000000000E+00 -0.13635966668E+03  0.13635966668E+03  0.00000000000E+00 0. -1.
         25    2    1    2    0    0 -0.18320903104E+03  0.85557226664E+02  0.14418017446E+04  0.14612700343E+04  0.12502901341E+03 0.  0.
          2    1    1    2  501    0 -0.18456816979E+02 -0.48383816211E+02 -0.57844712691E+02  0.77637996822E+02  0.00000000000E+00 0. -1.
          1    1    1    2  502    0  0.20166584802E+03 -0.37173410453E+02  0.11964844519E+03  0.23741677940E+03  0.00000000000E+00 0. -1.
         22    1    3    3    0    0 -0.17848305438E+03  0.97891882758E+02  0.14269380139E+04  0.14413851384E+04  0.00000000000E+00 0.  1.
         22    1    3    3    0    0 -0.47259766576E+01 -0.12334656094E+02  0.14863730660E+02  0.19884895913E+02  0.00000000000E+00 0.  1.
</event>
<event>
 7    1  0.6017574E-006  0.1349222E+03  0.7818608E-02  0.1303479E+00
          2   -1    0    0  502    0  0.00000000000E+00  0.00000000000E+00  0.11130998404E+04  0.11130998404E+04  0.00000000000E+00 0. -1.
          1   -1    0    0  501    0 -0.00000000000E+00 -0.00000000000E+00 -0.99891779370E+02  0.99891779370E+02  0.00000000000E+00 0. -1.
         25    2    1    2    0    0 -0.14222615922E+02 -0.13667965039E+03  0.60394084983E+02  0.19533710910E+03  0.12500212421E+03 0.  0.
          2    1    1    2  501    0  0.59055483955E+02  0.86826876956E+01  0.46839342222E+01  0.59873854816E+02  0.00000000000E+00 0. -1.
          1    1    1    2  502    0 -0.44832868033E+02  0.12799696269E+03  0.94813004187E+03  0.95778065590E+03  0.00000000000E+00 0. -1.
         22    1    3    3    0    0 -0.43530534177E+02 -0.63305618447E+02 -0.23257236598E+02  0.80270840203E+02  0.00000000000E+00 0. -1.
         22    1    3    3    0    0  0.29307918255E+02 -0.73374031943E+02  0.83651321581E+02  0.11506626890E+03  0.00000000000E+00 0. -1.
</event>
<event>
 7    1  0.6017574E-006  0.1969623E+03  0.7818608E-02  0.1163971E+00
          2   -1    0    0  502    0  0.00000000000E+00  0.00000000000E+00  0.12351088082E+04  0.12351088082E+04  0.00000000000E+00 0. -1.
          1   -1    0    0  501    0 -0.00000000000E+00 -0.00000000000E+00 -0.14697009620E+03  0.14697009620E+03  0.00000000000E+00 0. -1.
         25    2    1    2    0    0  0.28755171961E+01 -0.41814248215E+02  0.48877176515E+03  0.50624063317E+03  0.12500016127E+03 0.  0.
          2    1    1    2  501    0  0.19408580239E+03  0.41198895270E+02 -0.43800912518E+02  0.20318751831E+03  0.00000000000E+00 0. -1.
          1    1    1    2  502    0 -0.19696131958E+03  0.61535294515E+00  0.64316785942E+03  0.67265075296E+03  0.00000000000E+00 0. -1.
         22    1    3    3    0    0  0.33100807784E+02  0.13322690564E+02  0.42195855726E+02  0.55259820849E+02  0.00000000000E+00 0. -1.
         22    1    3    3    0    0 -0.30225290588E+02 -0.55136938780E+02  0.44657590942E+03  0.45098081232E+03  0.00000000000E+00 0. -1.
</event>
<event>
 7    1  0.6017574E-006  0.1061812E+03  0.7818608E-02  0.1339242E+00
          2   -1    0    0  502    0  0.00000000000E+00  0.00000000000E+00  0.19666595370E+03  0.19666595370E+03  0.00000000000E+00 0. -1.
          1   -1    0    0  501    0 -0.00000000000E+00 -0.00000000000E+00 -0.55077948051E+03  0.55077948051E+03  0.00000000000E+00 0. -1.
         25    2    1    2    0    0 -0.47948585513E+02 -0.97561762151E+02 -0.23354885925E+03  0.28633203164E+03  0.12499439347E+03 0.  0.
          2    1    1    2  501    0  0.89966278594E+02  0.61859480189E+02 -0.27566761990E+03  0.29650154002E+03  0.00000000000E+00 0. -1.
          1    1    1    2  502    0 -0.42017693081E+02  0.35702281961E+02  0.15510295234E+03  0.16461186255E+03  0.00000000000E+00 0. -1.
         22    1    3    3    0    0 -0.33747799220E+02  0.44658685677E+00 -0.12151404811E+01  0.33772621433E+02  0.00000000000E+00 0.  1.
         22    1    3    3    0    0 -0.14200786293E+02 -0.98008349007E+02 -0.23233371877E+03  0.25255941021E+03  0.00000000000E+00 0.  1.
</event>
<event>
 7    1  0.6017574E-006  0.2331927E+03  0.7818608E-02  0.1264443E+00
          2   -1    0    0  502    0  0.00000000000E+00  0.00000000000E+00  0.80154888689E+03  0.80154888689E+03  0.00000000000E+00 0. -1.
          1   -1    0    0  501    0 -0.00000000000E+00 -0.00000000000E+00 -0.49917906527E+03  0.49917906527E+03  0.00000000000E+00 0. -1.
         25    2    1    2    0    0 -0.23915365100E+03 -0.79661894703E+01  0.22449434709E+03  0.35111417520E+03  0.12500209273E+03 0.  0.
          2    1    1    2  501    0  0.22940593053E+03 -0.41031913569E+02 -0.40333247652E+03  0.46581947738E+03  0.00000000000E+00 0. -1.
          1    1    1    2  502    0  0.97477204698E+01  0.48998103040E+02  0.48120795105E+03  0.48379429958E+03  0.00000000000E+00 0. -1.
         22    1    3    3    0    0  0.15198944167E+02  0.12291842801E+01  0.96935245857E+01  0.18068846578E+02  0.00000000000E+00 0.  1.
         22    1    3    3    0    0 -0.25435259517E+03 -0.91953737504E+01  0.21480082251E+03  0.33304532862E+03  0.00000000000E+00 0.  1.
</event>
<event>
 7    1  0.6017574E-006  0.6118952E+02  0.7818608E-02  0.1433030E+00
          2   -1    0    0  502    0  0.00000000000E+00  0.00000000000E+00  0.54201508614E+03  0.54201508614E+03  0.00000000000E+00 0. -1.
          1   -1    0    0  501    0 -0.00000000000E+00 -0.00000000000E+00 -0.20428218990E+03  0.20428218990E+03  0.00000000000E+00 0. -1.
         25    2    1    2    0    0 -0.67054226346E+02 -0.31346266115E+02 -0.50944214441E+02  0.15395823729E+03  0.12501587169E+03 0.  0.
          2    1    1    2  501    0  0.28468386249E+02  0.54107308520E+02 -0.91516345080E+02  0.11006039827E+03  0.00000000000E+00 0. -1.
          1    1    1    2  502    0  0.38585840097E+02 -0.22761042405E+02  0.48019345576E+03  0.48227864048E+03  0.00000000000E+00 0. -1.
         22    1    3    3    0    0 -0.88523619120E+02 -0.89111253755E+01  0.59199951324E+01  0.89167738785E+02  0.00000000000E+00 0.  1.
         22    1    3    3    0    0  0.21469392774E+02 -0.22435140739E+02 -0.56864209573E+02  0.64790498505E+02  0.00000000000E+00 0.  1.
</event>
<event>
 7    1  0.6017574E-006  0.1264242E+03  0.7818608E-02  0.1384940E+00
          2   -1    0    0  502    0  0.00000000000E+00  0.00000000000E+00  0.23074212168E+04  0.23074212168E+04  0.00000000000E+00 0. -1.
          1   -1    0    0  501    0 -0.00000000000E+00 -0.00000000000E+00 -0.25016824380E+04  0.25016824380E+04  0.00000000000E+00 0. -1.
         25    2    1    2    0    0  0.14768194904E+03  0.47266391577E+02 -0.31151941304E+03  0.36974598865E+03  0.12499472618E+03 0.  0.
          2    1    1    2  501    0 -0.12085671419E+03 -0.30607931155E+02 -0.21591420410E+04  0.21627384363E+04  0.00000000000E+00 0. -1.
          1    1    1    2  502    0 -0.26825234854E+02 -0.16658460422E+02  0.22764002328E+04  0.22766192298E+04  0.00000000000E+00 0. -1.
         22    1    3    3    0    0  0.14337208334E+03 -0.42745854703E+01 -0.25880967526E+03  0.29589909491E+03  0.00000000000E+00 0.  1.
         22    1    3    3    0    0  0.43098657063E+01  0.51540977048E+02 -0.52709737779E+02  0.73846893734E+02  0.00000000000E+00 0.  1.
</event>
<event>
 7    1  0.6017574E-006  0.1007733E+03  0.7818608E-02  0.1392793E+00
          2   -1    0    0  502    0  0.00000000000E+00  0.00000000000E+00  0.21573342052E+03  0.21573342052E+03  0.00000000000E+00 0. -1.
          1   -1    0    0  501    0 -0.00000000000E+00 -0.00000000000E+00 -0.11564885054E+04  0.11564885054E+04  0.00000000000E+00 0. -1.
         25    2    1    2    0    0 -0.63204048363E+02 -0.13045683027E+02  0.40291627973E+02  0.14633073725E+03  0.12499731119E+03 0.  0.
          2    1    1    2  501    0  0.99993862059E+02  0.18472482001E+02 -0.10982408459E+04  0.11029383304E+04  0.00000000000E+00 0. -1.
          1    1    1    2  502    0 -0.36789813696E+02 -0.54267989737E+01  0.11719413304E+03  0.12295285828E+03  0.00000000000E+00 0. -1.
         22    1    3    3    0    0  0.34722840447E+02 -0.23298429646E+02  0.70271329350E+01  0.42401333351E+02  0.00000000000E+00 0. -1.
         22    1    3    3    0    0 -0.97926888809E+02  0.10252746619E+02  0.33264495038E+02  0.10392940390E+03  0.00000000000E+00 0. -1.
</event>
<event>
 7    1  0.6017574E-006  0.1578154E+03  0.7818608E-02  0.1206836E+00
          2   -1    0    0  502    0  0.00000000000E+00  0.00000000000E+00  0.25196001111E+04  0.25196001111E+04  0.00000000000E+00 0. -1.
          1   -1    0    0  501    0 -0.00000000000E+00 -0.00000000000E+00 -0.41212372379E+03  0.41212372379E+03  0.00000000000E+00 0. -1.
         25    2    1    2    0    0 -0.22928645960E+03 -0.16024660775E+03  0.10904246107E+03  0.32522011032E+03  0.12500642379E+03 0.  0.
          2    1    1    2  501    0  0.11349753895E+03  0.94587478046E+02 -0.28403165871E+03  0.32016006231E+03  0.00000000000E+00 0. -1.
          1    1    1    2  502    0  0.11578892065E+03  0.65659129704E+02  0.22824655850E+04  0.22863436623E+04  0.00000000000E+00 0. -1.
         22    1    3    3    0    0 -0.14229610701E+03 -0.14827931181E+03  0.11795990011E+03  0.23695880320E+03  0.00000000000E+00 0.  1.
         22    1    3    3    0    0 -0.86990352590E+02 -0.11967295944E+02 -0.89174390325E+01  0.88261307122E+02  0.00000000000E+00 0.  1.
</event>
<event>
 7    1  0.6017574E-006  0.1353114E+03  0.7818608E-02  0.1254842E+00
          2   -1    0    0  502    0  0.00000000000E+00  0.00000000000E+00  0.38459510265E+04  0.38459510265E+04  0.00000000000E+00 0. -1.
          1   -1    0    0  501    0 -0.00000000000E+00 -0.00000000000E+00 -0.37103556248E+03  0.37103556248E+03  0.00000000000E+00 0. -1.
         25    2    1    2    0    0  0.16963472228E+03  0.10456542981E+03  0.10327856873E+04  0.10592364023E+04  0.12500244782E+03 0.  0.
          2    1    1    2  501    0 -0.13366347885E+03 -0.17047907922E+02 -0.34429272296E+03  0.36972156527E+03  0.00000000000E+00 0. -1.
          1    1    1    2  502    0 -0.35971243432E+02 -0.87517521892E+02  0.27864224997E+04  0.27880286214E+04  0.00000000000E+00 0. -1.
         22    1    3    3    0    0  0.28078887521E+01  0.61756993398E+02  0.32206626453E+03  0.32794586325E+03  0.00000000000E+00 0.  1.
         22    1    3    3    0    0  0.16682683353E+03  0.42808436416E+02  0.71071942277E+03  0.73129053906E+03  0.00000000000E+00 0.  1.
</event>
<event>
 7    1  0.6017574E-006  0.8732562E+02  0.7818608E-02  0.1354832E+00
          2   -1    0    0  502    0  0.00000000000E+00  0.00000000000E+00  0.28893382653E+04  0.28893382653E+04  0.00000000000E+00 0. -1.
          1   -1    0    0  501    0 -0.00000000000E+00 -0.00000000000E+00 -0.17224589006E+04  0.17224589006E+04  0.00000000000E+00 0. -1.
         25    2    1    2    0    0  0.33465721643E+02 -0.16031100576E+02  0.34222402569E+03  0.36622343847E+03  0.12500148964E+03 0.  0.
          2    1    1    2  501    0  0.26505021387E+02 -0.52328388186E+02 -0.17091403933E+04  0.17101466781E+04  0.00000000000E+00 0. -1.
          1    1    1    2  502    0 -0.59970743030E+02  0.68359488762E+02  0.25337957323E+04  0.25354270494E+04  0.00000000000E+00 0. -1.
         22    1    3    3    0    0  0.81439543732E+01  0.43706395863E+02  0.24716881306E+03  0.25113541204E+03  0.00000000000E+00 0. -1.
         22    1    3    3    0    0  0.25321767270E+02 -0.59737496439E+02  0.95055212634E+02  0.11508802643E+03  0.00000000000E+00 0. -1.
</event>
<event>
 7    1  0.6017574E-006  0.3116659E+02  0.7818608E-02  0.1633722E+00
          2   -1    0    0  502    0  0.00000000000E+00  0.00000000000E+00  0.45860502239E+03  0.45860502239E+03  0.00000000000E+00 0. -1.
          1   -1    0    0  501    0 -0.00000000000E+00 -0.00000000000E+00 -0.15082396081E+04  0.15082396081E+04  0.00000000000E+00 0. -1.
         25    2    1    2    0    0 -0.27148046122E+02  0.21230860289E+02 -0.82193129170E+02  0.15352161584E+03  0.12500164083E+03 0.  0.
          2    1    1    2  501    0 -0.39904386119E+01 -0.23062682373E+02 -0.13897084443E+04  0.13899055260E+04  0.00000000000E+00 0. -1.
          1    1    1    2  502    0  0.31138484734E+02  0.18318220846E+01  0.42226698775E+03  0.42341748871E+03  0.00000000000E+00 0. -1.
         22    1    3    3    0    0 -0.59223972041E+02  0.37389398795E+02 -0.72455953509E+01  0.70412673991E+02  0.00000000000E+00 0. -1.
         22    1    3    3    0    0  0.32075925919E+02 -0.16158538506E+02 -0.74947533819E+02  0.83108941852E+02  0.00000000000E+00 0. -1.
</event>
<event>
 7    1  0.6017574E-006  0.1123963E+03  0.7818608E-02  0.1352049E+00
          2   -1    0    0  502    0  0.00000000000E+00  0.00000000000E+00  0.88731260220E+03  0.88731260220E+03  0.00000000000E+00 0. -1.
          1   -1    0    0  501    0 -0.00000000000E+00 -0.00000000000E+00 -0.82591171720E+03  0.82591171720E+03  0.00000000000E+00 0. -1.
         25    2    1    2    0    0  0.14433442588E+03  0.49979070527E+02 -0.49568471811E+02  0.20350292179E+03  0.12500428711E+03 0.  0.
          2    1    1    2  501    0 -0.97682632348E+02 -0.51023603821E+02 -0.69435494732E+03  0.70304629839E+03  0.00000000000E+00 0. -1.
          1    1    1    2  502    0 -0.46651793532E+02  0.10445332943E+01  0.80532430412E+03  0.80667509922E+03  0.00000000000E+00 0. -1.
         22    1    3    3    0    0  0.30010174945E+02  0.41219328753E+02  0.34294706061E+02  0.61447298776E+02  0.00000000000E+00 0.  1.
         22    1    3    3    0    0  0.11432425094E+03  0.87597417736E+01 -0.83863177872E+02  0.14205562302E+03  0.00000000000E+00 0.  1.
</event>
<event>
 7    1  0.6017574E-006  0.1025545E+03  0.7818608E-02  0.1431975E+00
          2   -1    0    0  502    0  0.00000000000E+00  0.00000000000E+00  0.49656763166E+03  0.49656763166E+03  0.00000000000E+00 0. -1.
          1   -1    0    0  501    0 -0.00000000000E+00 -0.00000000000E+00 -0.87746327080E+03  0.87746327080E+03  0.00000000000E+00 0. -1.
         25    2    1    2    0    0  0.40240290466E+02  0.76977041518E+02  0.35895280330E+03  0.38989150042E+03  0.12499408470E+03 0.  0.
          2    1    1    2  501    0 -0.25450850102E+02 -0.99498296674E+02 -0.85740538193E+03  0.86353439177E+03  0.00000000000E+00 0. -1.
          1    1    1    2  502    0 -0.14789440364E+02  0.22521255156E+02  0.11755693949E+03  0.12060501027E+03  0.00000000000E+00 0. -1.
         22    1    3    3    0    0 -0.17834092526E+02  0.26752941871E+02  0.27199289806E+03  0.27388667611E+03  0.00000000000E+00 0. -1.
         22    1    3    3    0    0  0.58074382992E+02  0.50224099647E+02  0.86959905238E+02  0.11600482431E+03  0.00000000000E+00 0. -1.
</event>
<event>
 7    1  0.6017574E-006  0.1012932E+03  0.7818608E-02  0.1354811E+00
          2   -1    0    0  502    0  0.00000000000E+00  0.00000000000E+00  0.10246275026E+03  0.10246275026E+03  0.00000000000E+00 0. -1.
          1   -1    0    0  501    0 -0.00000000000E+00 -0.00000000000E+00 -0.70070045353E+03  0.70070045353E+03  0.00000000000E+00 0. -1.
         25    2    1    2    0    0 -0.44782090806E+02 -0.12357521325E+03 -0.16497567293E+03  0.24519062656E+03  0.12500080683E+03 0.  0.
          2    1    1    2  501    0 -0.15663168342E+02  0.48092232912E+02 -0.45586635734E+03  0.45866363869E+03  0.00000000000E+00 0. -1.
          1    1    1    2  502    0  0.60445259149E+02  0.75482980342E+02  0.22604326998E+02  0.99308938540E+02  0.00000000000E+00 0. -1.
         22    1    3    3    0    0 -0.71918287320E+02 -0.21850150218E+02 -0.56563803388E+02  0.94069830282E+02  0.00000000000E+00 0. -1.
         22    1    3    3    0    0  0.27136196513E+02 -0.10172506304E+03 -0.10841186954E+03  0.15112079628E+03  0.00000000000E+00 0. -1.
</event>
<event>
 7    1  0.6017574E-006  0.4040264E+02  0.7818608E-02  0.1534337E+00
          2   -1    0    0  502    0  0.00000000000E+00  0.00000000000E+00  0.15674809809E+04  0.15674809809E+04  0.00000000000E+00 0. -1.
          1   -1    0    0  501    0 -0.00000000000E+00 -0.00000000000E+00 -0.27897903554E+03  0.27897903554E+03  0.00000000000E+00 0. -1.
         25    2    1    2    0    0 -0.44680882197E+02 -0.34270709178E+02  0.16986859888E+03  0.21829132015E+03  0.12499958731E+03 0.  0.
          2    1    1    2  501    0  0.32980528061E+02 -0.43301019211E+01 -0.25338426871E+03  0.25555831555E+03  0.00000000000E+00 0. -1.
          1    1    1    2  502    0  0.11700354136E+02  0.38600811099E+02  0.13720176152E+04  0.13726103808E+04  0.00000000000E+00 0. -1.
         22    1    3    3    0    0 -0.73474736598E+02 -0.14373340184E+02  0.16719201827E+03  0.18318924859E+03  0.00000000000E+00 0. -1.
         22    1    3    3    0    0  0.28793854402E+02 -0.19897368994E+02  0.26765806059E+01  0.35102071562E+02  0.00000000000E+00 0. -1.
</event>
<event>
 7    1  0.6017574E-006  0.6734398E+02  0.7818608E-02  0.1472182E+00
          2   -1    0    0  502    0  0.00000000000E+00  0.00000000000E+00  0.10215251929E+03  0.10215251929E+03  0.00000000000E+00 0. -1.
          1   -1    0    0  501    0 -0.00000000000E+00 -0.00000000000E+00 -0.21406027810E+04  0.21406027810E+04  0.00000000000E+00 0. -1.
         25    2    1    2    0    0 -0.60275139286E+02 -0.15816972825E+02 -0.34035256783E+03  0.36789683163E+03  0.12499975700E+03 0.  0.
          2    1    1    2  501    0 -0.60025769920E+01  0.29940231498E+02 -0.17733374102E+04  0.17736002985E+04  0.00000000000E+00 0. -1.
          1    1    1    2  502    0  0.66277716278E+02 -0.14123258673E+02  0.75239716326E+02  0.10125817016E+03  0.00000000000E+00 0. -1.
         22    1    3    3    0    0 -0.84046953125E+02  0.27370392503E+02 -0.18748055281E+03  0.20727273433E+03  0.00000000000E+00 0.  1.
         22    1    3    3    0    0  0.23771813839E+02 -0.43187365327E+02 -0.15287201502E+03  0.16062409730E+03  0.00000000000E+00 0.  1.
</event>
<event>
 7    1  0.6017574E-006  0.1176024E+03  0.7818608E-02  0.1317564E+00
          2   -1    0    0  502    0  0.00000000000E+00  0.00000000000E+00  0.19331509986E+04  0.19331509986E+04  0.00000000000E+00 0. -1.
          1   -1    0    0  501    0 -0.00000000000E+00 -0.00000000000E+00 -0.83981588071E+03  0.83981588071E+03  0.00000000000E+00 0. -1.
         25    2    1    2    0    0 -0.79506462886E+02  0.12692268782E+03  0.12523096573E+03  0.23181625048E+03  0.12500133153E+03 0.  0.
          2    1    1    2  501    0  0.59081880930E+02 -0.11913352717E+02 -0.78342040799E+03  0.78573540857E+03  0.00000000000E+00 0. -1.
          1    1    1    2  502    0  0.20424581956E+02 -0.11500933511E+03  0.17515245601E+04  0.17554152203E+04  0.00000000000E+00 0. -1.
         22    1    3    3    0    0 -0.96211137143E+02  0.48551801075E+02  0.10200283040E+03  0.14838611023E+03  0.00000000000E+00 0.  1.
         22    1    3    3    0    0  0.16704674257E+02  0.78370886749E+02  0.23228135323E+02  0.83430140252E+02  0.00000000000E+00 0.  1.
</event>
<event>
 7    1  0.6017574E-006  0.1983184E+03  0.7818608E-02  0.1177905E+00
          2   -1    0    0  502    0  0.00000000000E+00  0.00000000000E+00  0.68737529555E+03  0.68737529555E+03  0.00000000000E+00 0. -1.
          1   -1    0    0  501    0 -0.00000000000E+00 -0.00000000000E+00 -0.13379488118E+04  0.13379488118E+04  0.00000000000E+00 0. -1.
         25    2    1    2    0    0  0.49435106879E+02  0.72893806886E+02 -0.80638372375E+02  0.17287110758E+03  0.12499814343E+03 0.  0.
          2    1    1    2  501    0 -0.51876240618E+02 -0.21850434561E+03 -0.11923054038E+04  0.12132713914E+04  0.00000000000E+00 0. -1.
          1    1    1    2  502    0  0.24411337396E+01  0.14561053873E+03  0.62237025987E+03  0.63918160838E+03  0.00000000000E+00 0. -1.
         22    1    3    3    0    0  0.79801410865E+02  0.33995988016E+02 -0.87311926350E+02  0.12307463126E+03  0.00000000000E+00 0.  1.
         22    1    3    3    0    0 -0.30366303987E+02  0.38897818870E+02  0.66735539750E+01  0.49796476314E+02  0.00000000000E+00 0.  1.
</event>
<event>
 7    1  0.6017574E-006  0.6619166E+02  0.7818608E-02  0.1514138E+00
          2   -1    0    0  502    0  0.00000000000E+00  0.00000000000E+00  0.24743240533E+03  0.24743240533E+03  0.00000000000E+00 0. -1.
          1   -1    0    0  501    0 -0.00000000000E+00 -0.00000000000E+00 -0.18719810432E+03  0.18719810432E+03  0.00000000000E+00 0. -1.
         25    2    1    2    0    0  0.81509308986E+02  0.33932354515E+01  0.70323497187E+02  0.16500214417E+03  0.12500012731E+03 0.  0.
          2    1    1    2  501    0 -0.62962263827E+02 -0.17367091438E+02 -0.13106850347E+03  0.14644048324E+03  0.00000000000E+00 0. -1.
          1    1    1    2  502    0 -0.18547045159E+02  0.13973855986E+02  0.12097930729E+03  0.12318788223E+03  0.00000000000E+00 0. -1.
         22    1    3    3    0    0  0.51665161909E+02  0.37899002474E+01  0.10630328930E+03  0.11825413995E+03  0.00000000000E+00 0. -1.
         22    1    3    3    0    0  0.29844147077E+02 -0.39666479589E+00 -0.35979792118E+02  0.46748004220E+02  0.00000000000E+00 0. -1.
</event>
<event>
 7    1  0.6017574E-006  0.9273355E+02  0.7818608E-02  0.1385777E+00
          2   -1    0    0  502    0  0.00000000000E+00  0.00000000000E+00  0.29644861472E+03  0.29644861472E+03  0.00000000000E+00 0. -1.
          1   -1    0    0  501    0 -0.00000000000E+00 -0.00000000000E+00 -0.26408144388E+04  0.26408144388E+04  0.00000000000E+00 0. -1.
         25    2    1    2    0    0  0.47612443246E+01  0.79935241604E+02 -0.46645147750E+03  0.48950353877E+03  0.12499768518E+03 0.  0.
          2    1    1    2  501    0  0.37432067387E+02 -0.86864068148E+02 -0.21601919992E+04  0.21622617786E+04  0.00000000000E+00 0. -1.
          1    1    1    2  502    0 -0.42193311712E+02  0.69288265446E+01  0.28227765259E+03  0.28549773614E+03  0.00000000000E+00 0. -1.
         22    1    3    3    0    0  0.38937572470E+02  0.32919722941E+02 -0.59226362426E+02  0.78151165791E+02  0.00000000000E+00 0.  1.
         22    1    3    3    0    0 -0.34176328146E+02  0.47015518663E+02 -0.40722511508E+03  0.41135237297E+03  0.00000000000E+00 0.  1.
</event>
<event>
 7    1  0.6017574E-006  0.1076422E+03  0.7818608E-02  0.1304040E+00
          2   -1    0    0  502    0  0.00000000000E+00  0.00000000000E+00  0.42562043887E+03  0.42562043887E+03  0.00000000000E+00 0. -1.
          1   -1    0    0  501    0 -0.00000000000E+00 -0.00000000000E+00 -0.10137714262E+04  0.10137714262E+04  0.00000000000E+00 0. -1.
         25    2    1    2    0    0 -0.13417799385E+03 -0.67449470028E+02 -0.10872803250E+03  0.22360734416E+03  0.12500117707E+03 0.  0.
          2    1    1    2  501    0  0.27779545461E+02  0.69055886439E+02 -0.83823135379E+03  0.84152969114E+03  0.00000000000E+00 0. -1.
          1    1    1    2  502    0  0.10639844839E+03 -0.16064164112E+01  0.35880839899E+03  0.37425482973E+03  0.00000000000E+00 0. -1.
         22    1    3    3    0    0  0.10412794991E+02 -0.46794276076E+02 -0.15724111068E+02  0.50451741713E+02  0.00000000000E+00 0. -1.
         22    1    3    3    0    0 -0.14459078885E+03 -0.20655193952E+02 -0.93003921430E+02  0.17315560244E+03  0.00000000000E+00 0. -1.
</event>
<event>
 7    1  0.6017574E-006  0.7326936E+02  0.7818608E-02  0.1351124E+00
          2   -1    0    0  502    0  0.00000000000E+00  0.00000000000E+00  0.22486870807E+04  0.22486870807E+04  0.00000000000E+00 0. -1.
          1   -1    0    0  501    0 -0.00000000000E+00 -0.00000000000E+00 -0.18920901895E+03  0.18920901895E+03  0.00000000000E+00 0. -1.
         25    2    1    2    0    0  0.83500055018E+02  0.45090031001E+02  0.15751501960E+04  0.15829491793E+04  0.12499837749E+03 0.  0.
          2    1    1    2  501    0 -0.68729865804E+02  0.25529857244E+02 -0.17601481570E+03  0.19067454841E+03  0.00000000000E+00 0. -1.
          1    1    1    2  502    0 -0.14770189214E+02 -0.70619888244E+02  0.66034268149E+03  0.66427237193E+03  0.00000000000E+00 0. -1.
         22    1    3    3    0    0  0.91772566003E+02  0.79363548949E+02  0.11742134356E+04  0.11804651495E+04  0.00000000000E+00 0. -1.
         22    1    3    3    0    0 -0.82725109845E+01 -0.34273517948E+02  0.40093676035E+03  0.40248402983E+03  0.00000000000E+00 0. -1.
</event>
<event>
 7    1  0.6017574E-006  0.7207333E+02  0.7818608E-02  0.1353217E+00
          2   -1    0    0  502    0  0.00000000000E+00  0.00000000000E+00  0.29201640041E+03  0.29201640041E+03  0.00000000000E+00 0. -1.
          1   -1    0    0  501    0 -0.00000000000E+00 -0.00000000000E+00 -0.37528720709E+03  0.37528720709E+03  0.00000000000E+00 0. -1.
         25    2    1    2    0    0  0.58512950125E+02 -0.22219790298E+02  0.42016465654E+02  0.14597179549E+03  0.12499958911E+03 0.  0.
          2    1    1    2  501    0 -0.54797732162E+02 -0.49757720642E+02 -0.31227894576E+03  0.32093108634E+03  0.00000000000E+00 0. -1.
          1    1    1    2  502    0 -0.37152179632E+01  0.71977510940E+02  0.18699167341E+03  0.20040072568E+03  0.00000000000E+00 0. -1.
         22    1    3    3    0    0  0.82436791284E+02  0.20986091175E+02  0.45484698057E+02  0.96462937636E+02  0.00000000000E+00 0.  1.
         22    1    3    3    0    0 -0.23923841158E+02 -0.43205881473E+02 -0.34682324034E+01  0.49508857850E+02  0.00000000000E+00 0.  1.
</event>
<event>
 7    1  0.6017574E-006  0.6890036E+02  0.7818608E-02  0.1512176E+00
          2   -1    0    0  502    0  0.00000000000E+00  0.00000000000E+00  0.49458640924E+03  0.49458640924E+03  0.00000000000E+00 0. -1.
          1   -1    0    0  501    0 -0.00000000000E+00 -0.00000000000E+00 -0.10544490505E+03  0.10544490505E+03  0.00000000000E+00 0. -1.
         25    2    1    2    0    0  0.83821525918E+01  0.79832219237E+02  0.93732887743E+01  0.14885053483E+03  0.12500071786E+03 0.  0.
          2    1    1    2  501    0 -0.19076406276E+02 -0.12130101974E+02 -0.28963780120E+02  0.36741654959E+02  0.00000000000E+00 0. -1.
          1    1    1    2  502    0  0.10694253684E+02 -0.67702117263E+02  0.40873199553E+03  0.41443912450E+03  0.00000000000E+00 0. -1.
         22    1    3    3    0    0  0.21074425649E+02 -0.19672617520E+02  0.34973554007E+02  0.45324306684E+02  0.00000000000E+00 0. -1.
         22    1    3    3    0    0 -0.12692273058E+02  0.99504836757E+02 -0.25600265232E+02  0.10352622814E+03  0.00000000000E+00 0. -1.
</event>
<event>
 7    1  0.6017574E-006  0.4596082E+02  0.7818608E-02  0.1574911E+00
          2   -1    0    0  502    0  0.00000000000E+00  0.00000000000E+00  0.90575757269E+02  0.90575757269E+02  0.00000000000E+00 0. -1.
          1   -1    0    0  501    0 -0.00000000000E+00 -0.00000000000E+00 -0.72935229557E+03  0.72935229557E+03  0.00000000000E+00 0. -1.
         25    2    1    2    0    0 -0.49290928993E+02  0.23381896076E+02 -0.36446970979E+03  0.38915151977E+03  0.12499770892E+03 0.  0.
          2    1    1    2  501    0  0.45413254486E+02 -0.11500003183E+01 -0.34941270568E+03  0.35235340934E+03  0.00000000000E+00 0. -1.
          1    1    1    2  502    0  0.38776745065E+01 -0.22231895758E+02  0.75105877177E+02  0.78423123727E+02  0.00000000000E+00 0. -1.
         22    1    3    3    0    0  0.15241014261E+02  0.38857533168E+02 -0.39471674238E+02  0.57447449610E+02  0.00000000000E+00 0.  1.
         22    1    3    3    0    0 -0.64531943253E+02 -0.15475637092E+02 -0.32499803555E+03  0.33170407016E+03  0.00000000000E+00 0.  1.
</event>
<event>
 7    1  0.6017574E-006  0.6848228E+02  0.7818608E-02  0.1491607E+00
          2   -1    0    0  502    0  0.00000000000E+00  0.00000000000E+00  0.14447795103E+04  0.14447795103E+04  0.00000000000E+00 0. -1.
          1   -1    0    0  501    0 -0.00000000000E+00 -0.00000000000E+00 -0.62560075794E+03  0.62560075794E+03  0.00000000000E+00 0. -1.
         25    2    1    2    0    0  0.57836805155E+02  0.35624579344E+02  0.28421557825E+03  0.31783364158E+03  0.12500208847E+03 0.  0.
          2    1    1    2  501    0 -0.40509222872E+02 -0.55260068060E+02 -0.60671323237E+03  0.61056991294E+03  0.00000000000E+00 0. -1.
          1    1    1    2  502    0 -0.17327582283E+02  0.19635488717E+02  0.11416764065E+04  0.11419767137E+04  0.00000000000E+00 0. -1.
         22    1    3    3    0    0  0.36394549164E+02  0.69177497828E+02  0.25938430686E+03  0.27090645629E+03  0.00000000000E+00 0. -1.
         22    1    3    3    0    0  0.21442255992E+02 -0.33552918484E+02  0.24831271382E+02  0.46927185290E+02  0.00000000000E+00 0. -1.
</event>
<event>
 7    1  0.6017574E-006  0.1242583E+03  0.7818608E-02  0.1283590E+00
          2   -1    0    0  502    0  0.00000000000E+00  0.00000000000E+00  0.35076514480E+03  0.35076514480E+03  0.00000000000E+00 0. -1.
          1   -1    0    0  501    0 -0.00000000000E+00 -0.00000000000E+00 -0.28566171306E+03  0.28566171306E+03  0.00000000000E+00 0. -1.
         25    2    1    2    0    0  0.87261804235E+02 -0.37527924521E+02 -0.72161953917E+02  0.17278714979E+03  0.12500033576E+03 0.  0.
          2    1    1    2  501    0 -0.14983454284E+03 -0.90440658859E+01 -0.12166121554E+03  0.19321914171E+03  0.00000000000E+00 0. -1.
          1    1    1    2  502    0  0.62572738606E+02  0.46571990407E+02  0.25892660119E+03  0.27042056636E+03  0.00000000000E+00 0. -1.
         22    1    3    3    0    0  0.61008620282E+02  0.25611554213E+02 -0.80160556507E+02  0.10394093649E+03  0.00000000000E+00 0. -1.
         22    1    3    3    0    0  0.26253183953E+02 -0.63139478734E+02  0.79986025901E+01  0.68846213301E+02  0.00000000000E+00 0. -1.
</event>
<event>
 7    1  0.6017574E-006  0.6685834E+02  0.7818608E-02  0.1471297E+00
          2   -1    0    0  502    0  0.00000000000E+00  0.00000000000E+00  0.18024383425E+03  0.18024383425E+03  0.00000000000E+00 0. -1.
          1   -1    0    0  501    0 -0.00000000000E+00 -0.00000000000E+00 -0.47743308966E+03  0.47743308966E+03  0.00000000000E+00 0. -1.
         25    2    1    2    0    0 -0.65941344436E+02 -0.46512043346E+02 -0.66402614666E+02  0.16292565741E+03  0.12499532602E+03 0.  0.
          2    1    1    2  501    0  0.64458188536E+02  0.15594617806E+02 -0.35786478188E+03  0.36395776167E+03  0.00000000000E+00 0. -1.
          1    1    1    2  502    0  0.14831559001E+01  0.30917425540E+02  0.12707814113E+03  0.13079350483E+03  0.00000000000E+00 0. -1.
         22    1    3    3    0    0 -0.24601248985E+02 -0.82854665210E+02 -0.15213826524E+02  0.87758632146E+02  0.00000000000E+00 0.  1.
         22    1    3    3    0    0 -0.41340095451E+02  0.36342621864E+02 -0.51188788142E+02  0.75167025266E+02  0.00000000000E+00 0.  1.
</event>
<event>
 7    1  0.6017574E-006  0.6779003E+02  0.7818608E-02  0.1409528E+00
          2   -1    0    0  502    0  0.00000000000E+00  0.00000000000E+00  0.11043894676E+04  0.11043894676E+04  0.00000000000E+00 0. -1.
          1   -1    0    0  501    0 -0.00000000000E+00 -0.00000000000E+00 -0.18267965449E+04  0.18267965449E+04  0.00000000000E+00 0. -1.
         25    2    1    2    0    0 -0.98057439036E+02 -0.46465033542E+02 -0.73917020873E+02  0.18128075622E+03  0.12499890364E+03 0.  0.
          2    1    1    2  501    0  0.66656080636E+02  0.95919069776E+01 -0.16979717326E+04  0.16993066358E+04  0.00000000000E+00 0. -1.
          1    1    1    2  502    0  0.31401358400E+02  0.36873126564E+02  0.10494816761E+04  0.10505986205E+04  0.00000000000E+00 0. -1.
         22    1    3    3    0    0 -0.36668953039E+02 -0.19944455675E+01 -0.95621802279E+02  0.10243104510E+03  0.00000000000E+00 0.  1.
         22    1    3    3    0    0 -0.61388485997E+02 -0.44470587974E+02  0.21704781407E+02  0.78849711120E+02  0.00000000000E+00 0.  1.
</event>
<event>
 7    1  0.6017574E-006  0.1119682E+03  0.7818608E-02  0.1288093E+00
          2   -1    0    0  502    0  0.00000000000E+00  0.00000000000E+00  0.12123945738E+04  0.12123945738E+04  0.00000000000E+00 0. -1.
          1   -1    0    0  501    0 -0.00000000000E+00 -0.00000000000E+00 -0.28640455968E+03  0.28640455968E+03  0.00000000000E+00 0. -1.
         25    2    1    2    0    0  0.26894149320E+02  0.58013298665E+02  0.46163700095E+03  0.48251670662E+03  0.12499925371E+03 0.  0.
          2    1    1    2  501    0  0.53830659595E+02  0.63131056092E+02 -0.26234258622E+03  0.27514887370E+03  0.00000000000E+00 0. -1.
          1    1    1    2  502    0 -0.80724808915E+02 -0.12114435476E+03  0.72669559939E+03  0.74113355318E+03  0.00000000000E+00 0. -1.
         22    1    3    3    0    0  0.11985382301E+02  0.70978677364E+02  0.45644754114E+03  0.46208871426E+03  0.00000000000E+00 0.  1.
         22    1    3    3    0    0  0.14908767019E+02 -0.12965378699E+02  0.51894598110E+01  0.20427992363E+02  0.00000000000E+00 0.  1.
</event>
<event>
 7    1  0.6017574E-006  0.4684332E+02  0.7818608E-02  0.1528174E+00
          2   -1    0    0  502    0  0.00000000000E+00  0.00000000000E+00  0.12051221663E+04  0.12051221663E+04  0.00000000000E+00 0. -1.
          1   -1    0    0  501    0 -0.00000000000E+00 -0.00000000000E+00 -0.35399065161E+03  0.35399065161E+03  0.00000000000E+00 0. -1.
         25    2    1    2    0    0 -0.20281599299E+02  0.51018826098E+02 -0.29085850710E+02  0.13958820392E+03  0.12499846429E+03 0.  0.
          2    1    1    2  501    0  0.38214007399E+02 -0.27120068900E+02 -0.26742195145E+03  0.27149642468E+03  0.00000000000E+00 0. -1.
          1    1    1    2  502    0 -0.17932408100E+02 -0.23898757198E+02  0.11476393169E+04  0.11480281893E+04  0.00000000000E+00 0. -1.
         22    1    3    3    0    0 -0.32476252017E+02  0.54163817690E+02  0.36406357210E+02  0.72896151731E+02  0.00000000000E+00 0. -1.
         22    1    3    3    0    0  0.12194652719E+02 -0.31449915923E+01 -0.65492207920E+02  0.66692052190E+02  0.00000000000E+00 0. -1.
</event>
<event>
 7    1  0.6017574E-006  0.1424497E+03  0.7818608E-02  0.1214463E+00
          2   -1    0    0  502    0  0.00000000000E+00  0.00000000000E+00  0.79859376563E+03  0.79859376563E+03  0.00000000000E+00 0. -1.
          1   -1    0    0  501    0 -0.00000000000E+00 -0.00000000000E+00 -0.56997707037E+03  0.56997707037E+03  0.00000000000E+00 0. -1.
         25    2    1    2    0    0 -0.69773249780E+01 -0.25186642811E+02 -0.33258178224E+01  0.12774578989E+03  0.12499950292E+03 0.  0.
          2    1    1    2  501    0  0.44691687938E+02 -0.12839143378E+03 -0.48652376679E+03  0.50516045262E+03  0.00000000000E+00 0. -1.
          1    1    1    2  502    0 -0.37714362960E+02  0.15357807659E+03  0.71846627987E+03  0.73566459348E+03  0.00000000000E+00 0. -1.
         22    1    3    3    0    0  0.52820320049E+02 -0.39806769138E+02 -0.12830646208E+01  0.66152938968E+02  0.00000000000E+00 0. -1.
         22    1    3    3    0    0 -0.59797645027E+02  0.14620126327E+02 -0.20427532016E+01  0.61592850926E+02  0.00000000000E+00 0. -1.
</event>
<event>
 7    1  0.6017574E-006  0.4419083E+02  0.7818608E-02  0.1565595E+00
          2   -1    0    0  502    0  0.00000000000E+00  0.00000000000E+00  0.56820081762E+03  0.56820081762E+03  0.00000000000E+00 0. -1.
          1   -1    0    0  501    0 -0.00000000000E+00 -0.00000000000E+00 -0.50695882395E+03  0.50695882395E+03  0.00000000000E+00 0. -1.
         25    2    1    2    0    0 -0.42764678719E+02  0.29780934559E+01  0.15579350522E+03  0.20429007489E+03  0.12500052657E+03 0.  0.
          2    1    1    2  501    0  0.37432274862E+01 -0.24596317877E+02 -0.48110633715E+03  0.48174920680E+03  0.00000000000E+00 0. -1.
          1    1    1    2  502    0  0.39021451233E+02  0.21618224422E+02  0.38655482559E+03  0.38912035988E+03  0.00000000000E+00 0. -1.
         22    1    3    3    0    0  0.89190160967E+01  0.42597943751E+02  0.12479496702E+03  0.13216624930E+03  0.00000000000E+00 0. -1.
         22    1    3    3    0    0 -0.51683694815E+02 -0.39619850295E+02  0.30998538203E+02  0.72123825591E+02  0.00000000000E+00 0. -1.
</event>
<event>
 7    1  0.6017574E-006  0.7733936E+02  0.7818608E-02  0.1338294E+00
          2   -1    0    0  502    0  0.00000000000E+00  0.00000000000E+00  0.84968766211E+03  0.84968766211E+03  0.00000000000E+00 0. -1.
          1   -1    0    0  501    0 -0.00000000000E+00 -0.00000000000E+00 -0.51900275690E+03  0.51900275690E+03  0.00000000000E+00 0. -1.
         25    2    1    2    0    0 -0.39343718878E+02  0.26353672816E+02  0.56185937163E+02  0.14500057745E+03  0.12500345451E+03 0.  0.
          2    1    1    2  501    0 -0.27028625581E+02 -0.71379016516E+02 -0.46935711016E+03  0.47552245737E+03  0.00000000000E+00 0. -1.
          1    1    1    2  502    0  0.66372344459E+02  0.45025343701E+02  0.74385607821E+03  0.74816738420E+03  0.00000000000E+00 0. -1.
         22    1    3    3    0    0  0.35628425534E+02  0.32797004896E+02  0.49829822232E+02  0.69484094725E+02  0.00000000000E+00 0.  1.
         22    1    3    3    0    0 -0.74972144412E+02 -0.64433320799E+01  0.63561149316E+01  0.75516482724E+02  0.00000000000E+00 0.  1.
</event>
<event>
 7    1  0.6017574E-006  0.1170010E+03  0.7818608E-02  0.1416431E+00
          2   -1    0    0  502    0  0.00000000000E+00  0.00000000000E+00  0.17057582640E+02  0.17057582640E+02  0.00000000000E+00 0. -1.
          1   -1    0    0  501    0 -0.00000000000E+00 -0.00000000000E+00 -0.23374765230E+04  0.23374765230E+04  0.00000000000E+00 0. -1.
         25    2    1    2    0    0 -0.10237261738E+03 -0.87773442260E+02 -0.15879121220E+04  0.15985226632E+04  0.12500187101E+03 0.  0.
          2    1    1    2  501    0  0.26452096342E+02  0.27632170257E+01 -0.45815489026E+03  0.45892619477E+03  0.00000000000E+00 0. -1.
          1    1    1    2  502    0  0.75920521042E+02  0.85010225235E+02 -0.27435192811E+03  0.29708524764E+03  0.00000000000E+00 0. -1.
         22    1    3    3    0    0 -0.12791600060E+01 -0.58191423769E+02 -0.96612928018E+03  0.96788101752E+03  0.00000000000E+00 0.  1.
         22    1    3    3    0    0 -0.10109345738E+03 -0.29582018491E+02 -0.62178284179E+03  0.63064164570E+03  0.00000000000E+00 0.  1.
</event>
<event>
 7    1  0.6017574E-006  0.1478360E+03  0.7818608E-02  0.1290780E+00
          2   -1    0    0  502    0  0.00000000000E+00  0.00000000000E+00  0.47612912284E+03  0.47612912284E+03  0.00000000000E+00 0. -1.
          1   -1    0    0  501    0 -0.00000000000E+00 -0.00000000000E+00 -0.56730813427E+03  0.56730813427E+03  0.00000000000E+00 0. -1.
         25    2    1    2    0    0  0.15379175920E+03 -0.99464344628E+02 -0.49439951114E+02  0.22718834231E+03  0.12500069226E+03 0.  0.
          2    1    1    2  501    0 -0.93349687415E+02  0.10952527308E+03 -0.41435206672E+03  0.43863149086E+03  0.00000000000E+00 0. -1.
          1    1    1    2  502    0 -0.60442071786E+02 -0.10060928447E+02  0.37261300640E+03  0.37761742394E+03  0.00000000000E+00 0. -1.
         22    1    3    3    0    0  0.85330227200E+02 -0.10236511489E+03  0.13754270454E+02  0.13397404366E+03  0.00000000000E+00 0.  1.
         22    1    3    3    0    0  0.68461532001E+02  0.29007702610E+01 -0.63194221568E+02  0.93214298644E+02  0.00000000000E+00 0.  1.
</event>
<event>
 7    1  0.6017574E-006  0.1339193E+03  0.7818608E-02  0.1365471E+00
          2   -1    0    0  502    0  0.00000000000E+00  0.00000000000E+00  0.21875581323E+04  0.21875581323E+04  0.00000000000E+00 0. -1.
          1   -1    0    0  501    0 -0.00000000000E+00 -0.00000000000E+00 -0.38725453989E+03  0.38725453989E+03  0.00000000000E+00 0. -1.
         25    2    1    2    0    0 -0.10257490791E+03  0.47520740321E+02 -0.14127570367E+03  0.21991587922E+03  0.12499734795E+03 0.  0.
          2    1    1    2  501    0  0.13357971786E+03 -0.63714322933E+02 -0.17999943674E+03  0.23302972600E+03  0.00000000000E+00 0. -1.
          1    1    1    2  502    0 -0.31004809951E+02  0.16193582613E+02  0.21215787328E+04  0.21218670670E+04  0.00000000000E+00 0. -1.
         22    1    3    3    0    0 -0.37963836698E+01  0.17598413783E+02  0.20961208076E+02  0.27631303636E+02  0.00000000000E+00 0.  1.
         22    1    3    3    0    0 -0.98778524241E+02  0.29922326538E+02 -0.16223691174E+03  0.19228457559E+03  0.00000000000E+00 0.  1.
</event>
<event>
 7    1  0.6017574E-006  0.6043144E+02  0.7818608E-02  0.1505913E+00
          2   -1    0    0  502    0  0.00000000000E+00  0.00000000000E+00  0.75073912921E+03  0.75073912921E+03  0.00000000000E+00 0. -1.
          1   -1    0    0  501    0 -0.00000000000E+00 -0.00000000000E+00 -0.54469028004E+03  0.54469028004E+03  0.00000000000E+00 0. -1.
         25    2    1    2    0    0 -0.30778394607E+02  0.73431677007E+02 -0.18070864815E+03  0.23370789705E+03  0.12499697943E+03 0.  0.
          2    1    1    2  501    0  0.23216193285E+02 -0.13574967680E+02 -0.33568679009E+03  0.33676236788E+03  0.00000000000E+00 0. -1.
          1    1    1    2  502    0  0.75622013220E+01 -0.59856709327E+02  0.72244428741E+03  0.72495914433E+03  0.00000000000E+00 0. -1.
         22    1    3    3    0    0 -0.67481224850E+02  0.14049988924E+02 -0.48762684141E+02  0.84432915742E+02  0.00000000000E+00 0.  1.
         22    1    3    3    0    0  0.36702830244E+02  0.59381688083E+02 -0.13194596401E+03  0.14927498131E+03  0.00000000000E+00 0.  1.
</event>
<event>
 7    1  0.6017574E-006  0.3639491E+02  0.7818608E-02  0.1580927E+00
          2   -1    0    0  502    0  0.00000000000E+00  0.00000000000E+00  0.18449917134E+04  0.18449917134E+04  0.00000000000E+00 0. -1.
          1   -1    0    0  501    0 -0.00000000000E+00 -0.00000000000E+00 -0.59324012499E+02  0.59324012499E+02  0.00000000000E+00 0. -1.
         25    2    1    2    0    0  0.58381793080E+02  0.43512504700E+00  0.12246950345E+03  0.18445752894E+03  0.12496870652E+03 0.  0.
          2    1    1    2  501    0 -0.33323393890E+02  0.10788837737E+02 -0.17348430090E+02  0.39087282160E+02  0.00000000000E+00 0. -1.
          1    1    1    2  502    0 -0.25058399190E+02 -0.11223962784E+02  0.16805466275E+04  0.16807709148E+04  0.00000000000E+00 0. -1.
         22    1    3    3    0    0  0.19838730008E+02 -0.59129914482E+02  0.33936719318E+02  0.71004386576E+02  0.00000000000E+00 0. -1.
         22    1    3    3    0    0  0.38543063072E+02  0.59565039529E+02  0.88532784135E+02  0.11345314236E+03  0.00000000000E+00 0. -1.
</event>
<event>
 7    1  0.6017574E-006  0.7385577E+02  0.7818608E-02  0.1432204E+00
          2   -1    0    0  502    0  0.00000000000E+00  0.00000000000E+00  0.85408606403E+03  0.85408606403E+03  0.00000000000E+00 0. -1.
          1   -1    0    0  501    0 -0.00000000000E+00 -0.00000000000E+00 -0.59629924366E+03  0.59629924366E+03  0.00000000000E+00 0. -1.
         25    2    1    2    0    0 -0.77724514094E+01 -0.89354603167E+02  0.40706188344E+03  0.43516914096E+03  0.12501259210E+03 0.  0.
          2    1    1    2  501    0 -0.24038679614E+02  0.69786288725E+02 -0.57909335842E+03  0.58377829866E+03  0.00000000000E+00 0. -1.
          1    1    1    2  502    0  0.31811131023E+02  0.19568314441E+02  0.42981829535E+03  0.43143786807E+03  0.00000000000E+00 0. -1.
         22    1    3    3    0    0  0.22665280079E+02 -0.71775496331E+02  0.38790139227E+03  0.39513659274E+03  0.00000000000E+00 0.  1.
         22    1    3    3    0    0 -0.30437731489E+02 -0.17579106836E+02  0.19160491173E+02  0.40032548224E+02  0.00000000000E+00 0.  1.
</event>
<event>
 7    1  0.6017574E-006  0.4926844E+02  0.7818608E-02  0.1537655E+00
          2   -1    0    0  502    0  0.00000000000E+00  0.00000000000E+00  0.15389994459E+04  0.15389994459E+04  0.00000000000E+00 0. -1.
          1   -1    0    0  501    0 -0.00000000000E+00 -0.00000000000E+00 -0.59897677539E+02  0.59897677539E+02  0.00000000000E+00 0. -1.
         25    2    1    2    0    0 -0.38810815100E+02  0.20118503103E+02  0.44846718206E+03  0.46760987588E+03  0.12500059638E+03 0.  0.
          2    1    1    2  501    0  0.24894493901E+02 -0.42895643014E+02 -0.37899954130E+02  0.62419376313E+02  0.00000000000E+00 0. -1.
          1    1    1    2  502    0  0.13916321199E+02  0.22777139911E+02  0.10685345404E+04  0.10688678712E+04  0.00000000000E+00 0. -1.
         22    1    3    3    0    0 -0.20405989861E+01 -0.17719519711E+02  0.19010092846E+01  0.17937649214E+02  0.00000000000E+00 0. -1.
         22    1    3    3    0    0 -0.36770216114E+02  0.37838022814E+02  0.44656617278E+03  0.44967222667E+03  0.00000000000E+00 0. -1.
</event>
<event>
 7    1  0.6017574E-006  0.8184298E+02  0.7818608E-02  0.1396114E+00
          2   -1    0    0  502    0  0.00000000000E+00  0.00000000000E+00  0.22544885039E+04  0.22544885039E+04  0.00000000000E+00 0. -1.
          1   -1    0    0  501    0 -0.00000000000E+00 -0.00000000000E+00 -0.10652066325E+03  0.10652066325E+03  0.00000000000E+00 0. -1.
         25    2    1    2    0    0  0.19896027230E+02  0.76336595993E+02  0.71752779382E+02  0.16430807841E+03  0.12500222196E+03 0.  0.
          2    1    1    2  501    0 -0.44548038353E+02  0.19713094401E+01 -0.51089712565E+02  0.67812775434E+02  0.00000000000E+00 0. -1.
          1    1    1    2  502    0  0.24652011123E+02 -0.78307905433E+02  0.21273047738E+04  0.21288883133E+04  0.00000000000E+00 0. -1.
         22    1    3    3    0    0 -0.28364052169E+02  0.62434031699E+00  0.68860826324E+02  0.74476322804E+02  0.00000000000E+00 0. -1.
         22    1    3    3    0    0  0.48260079399E+02  0.75712255676E+02  0.28919530573E+01  0.89831755608E+02  0.00000000000E+00 0. -1.
</event>
<event>
 7    1  0.6017574E-006  0.8560413E+02  0.7818608E-02  0.1442320E+00
          2   -1    0    0  502    0  0.00000000000E+00  0.00000000000E+00  0.25692989872E+02  0.25692989872E+02  0.00000000000E+00 0. -1.
          1   -1    0    0  501    0 -0.00000000000E+00 -0.00000000000E+00 -0.97707693974E+03  0.97707693974E+03  0.00000000000E+00 0. -1.
         25    2    1    2    0    0  0.29501074065E+01  0.72944595505E+02 -0.68363921785E+03  0.69879729925E+03  0.12500187242E+03 0.  0.
          2    1    1    2  501    0 -0.84454670919E+01 -0.10230218947E+03 -0.24735550985E+03  0.26780928314E+03  0.00000000000E+00 0. -1.
          1    1    1    2  502    0  0.54953596854E+01  0.29357593966E+02 -0.20389222170E+02  0.36163347221E+02  0.00000000000E+00 0. -1.
         22    1    3    3    0    0  0.24288223276E+02  0.15467922034E+02 -0.27557367946E+02  0.39857031125E+02  0.00000000000E+00 0.  1.
         22    1    3    3    0    0 -0.21338115869E+02  0.57476673471E+02 -0.65608184991E+03  0.65894026813E+03  0.00000000000E+00 0.  1.
</event>
<event>
 7    1  0.6017574E-006  0.9218688E+02  0.7818608E-02  0.1451399E+00
          2   -1    0    0  502    0  0.00000000000E+00  0.00000000000E+00  0.31527311781E+02  0.31527311781E+02  0.00000000000E+00 0. -1.
          1   -1    0    0  501    0 -0.00000000000E+00 -0.00000000000E+00 -0.25923711626E+04  0.25923711626E+04  0.00000000000E+00 0. -1.
         25    2    1    2    0    0 -0.74059360353E+02 -0.26040244721E+01 -0.18440419470E+03  0.23477943542E+03  0.12499962591E+03 0.  0.
          2    1    1    2  501    0  0.91396574826E+02 -0.16681147723E+02 -0.23508547342E+04  0.23526898597E+04  0.00000000000E+00 0. -1.
          1    1    1    2  502    0 -0.17337214473E+02  0.19285172195E+02 -0.25584921931E+02  0.36429179273E+02  0.00000000000E+00 0. -1.
         22    1    3    3    0    0 -0.91225586350E+02  0.39823613697E+02 -0.12523128729E+03  0.15997156975E+03  0.00000000000E+00 0.  1.
         22    1    3    3    0    0  0.17166225998E+02 -0.42427638169E+02 -0.59172907407E+02  0.74807865673E+02  0.00000000000E+00 0.  1.
</event>
<event>
 7    1  0.6017574E-006  0.8394450E+02  0.7818608E-02  0.1399890E+00
          2   -1    0    0  502    0  0.00000000000E+00  0.00000000000E+00  0.23944715428E+03  0.23944715428E+03  0.00000000000E+00 0. -1.
          1   -1    0    0  501    0 -0.00000000000E+00 -0.00000000000E+00 -0.12013900418E+04  0.12013900418E+04  0.00000000000E+00 0. -1.
         25    2    1    2    0    0 -0.51590977739E+02 -0.27915089942E+01 -0.22385324091E+03  0.26154649755E+03  0.12500750141E+03 0.  0.
          2    1    1    2  501    0 -0.25352207780E+02 -0.33724775999E+02 -0.94998407075E+03  0.95092051699E+03  0.00000000000E+00 0. -1.
          1    1    1    2  502    0  0.76943185519E+02  0.36516284993E+02  0.21189442410E+03  0.22837018158E+03  0.00000000000E+00 0. -1.
         22    1    3    3    0    0 -0.34113828582E+02  0.34810728823E+02 -0.21324714673E+03  0.21874616735E+03  0.00000000000E+00 0. -1.
         22    1    3    3    0    0 -0.17477149157E+02 -0.37602237817E+02 -0.10606094180E+02  0.42800330200E+02  0.00000000000E+00 0. -1.
</event>
<event>
 7    1  0.6017574E-006  0.5980854E+02  0.7818608E-02  0.1482902E+00
          2   -1    0    0  502    0  0.00000000000E+00  0.00000000000E+00  0.96673316130E+03  0.96673316130E+03  0.00000000000E+00 0. -1.
          1   -1    0    0  501    0 -0.00000000000E+00 -0.00000000000E+00 -0.26056764675E+03  0.26056764675E+03  0.00000000000E+00 0. -1.
         25    2    1    2    0    0 -0.51337505947E+02 -0.60700383144E+02  0.41815903326E+03  0.44362327130E+03  0.12499821483E+03 0.  0.
          2    1    1    2  501    0  0.52253911720E+02  0.28845889802E+02 -0.24375791232E+03  0.25095911314E+03  0.00000000000E+00 0. -1.
          1    1    1    2  502    0 -0.91640577323E+00  0.31854493342E+02  0.53176439360E+03  0.53271842361E+03  0.00000000000E+00 0. -1.
         22    1    3    3    0    0 -0.67541462944E+02 -0.70840611745E+02  0.18164000959E+03  0.20633306709E+03  0.00000000000E+00 0. -1.
         22    1    3    3    0    0  0.16203956997E+02  0.10140228600E+02  0.23651902367E+03  0.23729020421E+03  0.00000000000E+00 0. -1.
</event>
<event>
 7    1  0.6017574E-006  0.1358639E+03  0.7818608E-02  0.1413432E+00
          2   -1    0    0  502    0  0.00000000000E+00  0.00000000000E+00  0.32987322343E+03  0.32987322343E+03  0.00000000000E+00 0. -1.
          1   -1    0    0  501    0 -0.00000000000E+00 -0.00000000000E+00 -0.79737038158E+03  0.79737038158E+03  0.00000000000E+00 0. -1.
         25    2    1    2    0    0  0.11607703042E+03  0.26038059909E+02  0.14630321433E+02  0.17317863457E+03  0.12499974244E+03 0.  0.
          2    1    1    2  501    0 -0.12938166692E+03 -0.45338641847E+02 -0.71094852721E+03  0.72404628065E+03  0.00000000000E+00 0. -1.
          1    1    1    2  502    0  0.13304636506E+02  0.19300581938E+02  0.22882104763E+03  0.23001868980E+03  0.00000000000E+00 0. -1.
         22    1    3    3    0    0  0.10018300098E+03  0.56645481566E+02 -0.27900303701E+02  0.11842200477E+03  0.00000000000E+00 0. -1.
         22    1    3    3    0    0  0.15894029437E+02 -0.30607421657E+02  0.42530625133E+02  0.54756629794E+02  0.00000000000E+00 0. -1.
</event>
<event>
 7    1  0.6017574E-006  0.1319553E+03  0.7818608E-02  0.1285161E+00
          2   -1    0    0  502    0  0.00000000000E+00  0.00000000000E+00  0.68186634369E+02  0.68186634369E+02  0.00000000000E+00 0. -1.
          1   -1    0    0  501    0 -0.00000000000E+00 -0.00000000000E+00 -0.13695456642E+04  0.13695456642E+04  0.00000000000E+00 0. -1.
         25    2    1    2    0    0 -0.86195117998E+02  0.11335796418E+03 -0.17489844530E+03  0.25786441276E+03  0.12499985115E+03 0.  0.
          2    1    1    2  501    0  0.12254843573E+03 -0.50781574306E+02 -0.10914369489E+04  0.10994687357E+04  0.00000000000E+00 0. -1.
          1    1    1    2  502    0 -0.36353317730E+02 -0.62576389875E+02 -0.35023635589E+02  0.80399150055E+02  0.00000000000E+00 0. -1.
         22    1    3    3    0    0 -0.44180387897E+02  0.33144127540E+02  0.60124664894E+01  0.55557084323E+02  0.00000000000E+00 0. -1.
         22    1    3    3    0    0 -0.42014730101E+02  0.80213836641E+02 -0.18091091179E+03  0.20230732844E+03  0.00000000000E+00 0. -1.
</event>
<event>
 7    1  0.6017574E-006  0.1221886E+03  0.7818608E-02  0.1388645E+00
          2   -1    0    0  502    0  0.00000000000E+00  0.00000000000E+00  0.36097210295E+03  0.36097210295E+03  0.00000000000E+00 0. -1.
          1   -1    0    0  501    0 -0.00000000000E+00 -0.00000000000E+00 -0.86966588803E+02  0.86966588803E+02  0.00000000000E+00 0. -1.
         25    2    1    2    0    0 -0.71751665133E+02 -0.12526541391E+03  0.12120425395E+03  0.22617692979E+03  0.12500322804E+03 0.  0.
          2    1    1    2  501    0  0.75100874383E+01  0.30806324999E+02  0.92771838663E+00  0.31722101675E+02  0.00000000000E+00 0. -1.
          1    1    1    2  502    0  0.64241577695E+02  0.94459088909E+02  0.15187354181E+03  0.19003966029E+03  0.00000000000E+00 0. -1.
         22    1    3    3    0    0 -0.30777932153E+02 -0.13263295642E+03  0.52670440956E+02  0.14598958041E+03  0.00000000000E+00 0.  1.
         22    1    3    3    0    0 -0.40973732981E+02  0.73675425134E+01  0.68533812996E+02  0.80187349382E+02  0.00000000000E+00 0.  1.
</event>
<event>
 7    1  0.6017574E-006  0.3518608E+02  0.7818608E-02  0.1564856E+00
          2   -1    0    0  502    0  0.00000000000E+00  0.00000000000E+00  0.54795969501E+02  0.54795969501E+02  0.00000000000E+00 0. -1.
          1   -1    0    0  501    0 -0.00000000000E+00 -0.00000000000E+00 -0.57649770622E+03  0.57649770622E+03  0.00000000000E+00 0. -1.
         25    2    1    2    0    0  0.28393234881E+02  0.39073683134E+02 -0.21379182642E+03  0.25231998351E+03  0.12500200213E+03 0.  0.
          2    1    1    2  501    0 -0.31126933478E+02 -0.40728337459E+01 -0.33384993135E+03  0.33532260679E+03  0.00000000000E+00 0. -1.
          1    1    1    2  502    0  0.27336985966E+01 -0.35000849388E+02  0.25940021052E+02  0.43651085417E+02  0.00000000000E+00 0. -1.
         22    1    3    3    0    0  0.59538621775E+02  0.28476772837E+02 -0.20887758064E+03  0.21905619774E+03  0.00000000000E+00 0.  1.
         22    1    3    3    0    0 -0.31145386893E+02  0.10596910297E+02 -0.49142457825E+01  0.33263785777E+02  0.00000000000E+00 0.  1.
</event>
<event>
 7    1  0.6017574E-006  0.4422224E+02  0.7818608E-02  0.1483490E+00
          2   -1    0    0  502    0  0.00000000000E+00  0.00000000000E+00  0.69767797198E+02  0.69767797198E+02  0.00000000000E+00 0. -1.
          1   -1    0    0  501    0 -0.00000000000E+00 -0.00000000000E+00 -0.11547664465E+04  0.11547664465E+04  0.00000000000E+00 0. -1.
         25    2    1    2    0    0  0.83846656835E+01  0.26096595879E+02 -0.59643486301E+03  0.61001314178E+03  0.12502060787E+03 0.  0.
          2    1    1    2  501    0 -0.48102982744E+02 -0.98262034536E+01 -0.54299091629E+03  0.54520600363E+03  0.00000000000E+00 0. -1.
          1    1    1    2  502    0  0.39718317060E+02 -0.16270392425E+02  0.54427129962E+02  0.69315098324E+02  0.00000000000E+00 0. -1.
         22    1    3    3    0    0  0.50928891705E+02 -0.26641664061E+02 -0.33750675973E+03  0.34236580311E+03  0.00000000000E+00 0.  1.
         22    1    3    3    0    0 -0.42544226021E+02  0.52738259940E+02 -0.25892810328E+03  0.26764733867E+03  0.00000000000E+00 0.  1.
</event>
<event>
 7    1  0.6017574E-006  0.5008372E+02  0.7818608E-02  0.1457647E+00
          2   -1    0    0  502    0  0.00000000000E+00  0.00000000000E+00  0.49473323993E+03  0.49473323993E+03  0.00000000000E+00 0. -1.
          1   -1    0    0  501    0 -0.00000000000E+00 -0.00000000000E+00 -0.30164000819E+03  0.30164000819E+03  0.00000000000E+00 0. -1.
         25    2    1    2    0    0  0.23665555624E+02 -0.83456570253E+02 -0.90386510415E+02  0.17697495001E+03  0.12500141610E+03 0.  0.
          2    1    1    2  501    0 -0.28516627536E+02  0.38116603100E+02 -0.16340268353E+03  0.17019550659E+03  0.00000000000E+00 0. -1.
          1    1    1    2  502    0  0.48510719116E+01  0.45339967153E+02  0.44688242569E+03  0.44920279152E+03  0.00000000000E+00 0. -1.
         22    1    3    3    0    0  0.71591267141E+00 -0.71631215159E+02 -0.11871094863E+03  0.13865003729E+03  0.00000000000E+00 0. -1.
         22    1    3    3    0    0  0.22949642953E+02 -0.11825355093E+02  0.28324438217E+02  0.38324912721E+02  0.00000000000E+00 0. -1.
</event>
<event>
 7    1  0.6017574E-006  0.5832306E+02  0.7818608E-02  0.1551587E+00
          2   -1    0    0  502    0  0.00000000000E+00  0.00000000000E+00  0.10295806027E+04  0.10295806027E+04  0.00000000000E+00 0. -1.
          1   -1    0    0  501    0 -0.00000000000E+00 -0.00000000000E+00 -0.46689613859E+03  0.46689613859E+03  0.00000000000E+00 0. -1.
         25    2    1    2    0    0  0.22283193547E+02 -0.73314545441E+02  0.61838398255E+03  0.63552574428E+03  0.12499063358E+03 0.  0.
          2    1    1    2  501    0 -0.89870069915E+01  0.57573976700E+02 -0.45620721265E+03  0.45991363316E+03  0.00000000000E+00 0. -1.
          1    1    1    2  502    0 -0.13296186555E+02  0.15740568741E+02  0.40050769420E+03  0.40103736384E+03  0.00000000000E+00 0. -1.
         22    1    3    3    0    0 -0.36480227499E+02 -0.13633211464E+02  0.64502629590E+02  0.75347599014E+02  0.00000000000E+00 0. -1.
         22    1    3    3    0    0  0.58763421046E+02 -0.59681333977E+02  0.55388135296E+03  0.56017814527E+03  0.00000000000E+00 0. -1.
</event>
<event>
 7    1  0.6017574E-006  0.9154151E+02  0.7818608E-02  0.1414232E+00
          2   -1    0    0  502    0  0.00000000000E+00  0.00000000000E+00  0.12475424449E+04  0.12475424449E+04  0.00000000000E+00 0. -1.
          1   -1    0    0  501    0 -0.00000000000E+00 -0.00000000000E+00 -0.10620422814E+03  0.10620422814E+03  0.00000000000E+00 0. -1.
         25    2    1    2    0    0 -0.91264756631E+02 -0.21809292862E+02  0.81620490075E+03  0.83103567464E+03  0.12499980588E+03 0.  0.
          2    1    1    2  501    0 -0.45093955840E+00  0.34573836399E+02 -0.90503675560E+02  0.96883790180E+02  0.00000000000E+00 0. -1.
          1    1    1    2  502    0  0.91715696189E+02 -0.12764543537E+02  0.41563699156E+03  0.42582720821E+03  0.00000000000E+00 0. -1.
         22    1    3    3    0    0 -0.10661076165E+03 -0.46581577278E+02  0.49397801594E+03  0.50749382072E+03  0.00000000000E+00 0. -1.
         22    1    3    3    0    0  0.15346005019E+02  0.24772284416E+02  0.32222688481E+03  0.32354185392E+03  0.00000000000E+00 0. -1.
</event>
<event>
 7    1  0.6017574E-006  0.1061898E+03  0.7818608E-02  0.1369041E+00
          2   -1    0    0  502    0  0.00000000000E+00  0.00000000000E+00  0.66196555730E+03  0.66196555730E+03  0.00000000000E+00 0. -1.
          1   -1    0    0  501    0 -0.00000000000E+00 -0.00000000000E+00 -0.18833740073E+04  0.18833740073E+04  0.00000000000E+00 0. -1.
         25    2    1    2    0    0  0.10424670454E+03  0.33013351476E+02 -0.31425403602E+03  0.35544060073E+03  0.12500065884E+03 0.  0.
          2    1    1    2  501    0 -0.23357385647E+02  0.35892655097E+02 -0.15438265858E+04  0.15444204017E+04  0.00000000000E+00 0. -1.
          1    1    1    2  502    0 -0.80889318894E+02 -0.68906006574E+02  0.63667217190E+03  0.64547856209E+03  0.00000000000E+00 0. -1.
         22    1    3    3    0    0  0.84436409734E+01 -0.21467720008E+02 -0.18123224706E+03  0.18269451401E+03  0.00000000000E+00 0. -1.
         22    1    3    3    0    0  0.95803063567E+02  0.54481071484E+02 -0.13302178896E+03  0.17274608672E+03  0.00000000000E+00 0. -1.
</event>
<event>
 7    1  0.6017574E-006  0.9198934E+02  0.7818608E-02  0.1392951E+00
          2   -1    0    0  502    0  0.00000000000E+00  0.00000000000E+00  0.11919317103E+04  0.11919317103E+04  0.00000000000E+00 0. -1.
          1   -1    0    0  501    0 -0.00000000000E+00 -0.00000000000E+00 -0.39968164218E+03  0.39968164218E+03  0.00000000000E+00 0. -1.
         25    2    1    2    0    0  0.54103489947E+02 -0.29793135122E+02  0.65822414229E+03  0.67282845338E+03  0.12499715062E+03 0.  0.
          2    1    1    2  501    0 -0.60062494969E+02  0.70042115782E+02 -0.38614984171E+03  0.39702027849E+03  0.00000000000E+00 0. -1.
          1    1    1    2  502    0  0.59590050216E+01 -0.40248980660E+02  0.52017576753E+03  0.52176462060E+03  0.00000000000E+00 0. -1.
         22    1    3    3    0    0  0.64192599933E+02  0.98282934473E+01  0.58795273835E+03  0.59152828147E+03  0.00000000000E+00 0. -1.
         22    1    3    3    0    0 -0.10089109986E+02 -0.39621428569E+02  0.70271403934E+02  0.81300171913E+02  0.00000000000E+00 0. -1.
</event>
<event>
 7    1  0.6017574E-006  0.1014687E+03  0.7818608E-02  0.1288430E+00
          2   -1    0    0  502    0  0.00000000000E+00  0.00000000000E+00  0.28893230296E+04  0.28893230296E+04  0.00000000000E+00 0. -1.
          1   -1    0    0  501    0 -0.00000000000E+00 -0.00000000000E+00 -0.94744580769E+02  0.94744580769E+02  0.00000000000E+00 0. -1.
         25    2    1    2    0    0  0.67208050414E+02 -0.45035405886E+02  0.14863962853E+04  0.14938354747E+04  0.12500159422E+03 0.  0.
          2    1    1    2  501    0  0.62449502491E+02  0.66548058085E+02 -0.64193870446E+02  0.11157704692E+03  0.00000000000E+00 0. -1.
          1    1    1    2  502    0 -0.12965755290E+03 -0.21512652199E+02  0.13723760339E+04  0.13786550888E+04  0.00000000000E+00 0. -1.
         22    1    3    3    0    0  0.35106591436E+02 -0.28548069042E+02  0.14373151807E+03  0.15068581318E+03  0.00000000000E+00 0. -1.
         22    1    3    3    0    0  0.32101458978E+02 -0.16487336844E+02  0.13426647672E+04  0.13431496615E+04  0.00000000000E+00 0. -1.
</event>
<event>
 7    1  0.6017574E-006  0.4713191E+02  0.7818608E-02  0.1472245E+00
          2   -1    0    0  502    0  0.00000000000E+00  0.00000000000E+00  0.29896392325E+03  0.29896392325E+03  0.00000000000E+00 0. -1.
          1   -1    0    0  501    0 -0.00000000000E+00 -0.00000000000E+00 -0.43406481965E+03  0.43406481965E+03  0.00000000000E+00 0. -1.
         25    2    1    2    0    0 -0.96580824464E+01 -0.25900074248E+02 -0.91529199673E-01  0.12804286620E+03  0.12502349701E+03 0.  0.
          2    1    1    2  501    0 -0.33035611294E+02  0.34800819078E+02 -0.36639625171E+03  0.36952491376E+03  0.00000000000E+00 0. -1.
          1    1    1    2  502    0  0.42693693740E+02 -0.89007448296E+01  0.23138688451E+03  0.23546096294E+03  0.00000000000E+00 0. -1.
         22    1    3    3    0    0 -0.16415229936E+02  0.47248652071E+02  0.16616189247E+02  0.52706666006E+02  0.00000000000E+00 0.  1.
         22    1    3    3    0    0  0.67571474896E+01 -0.73148726319E+02 -0.16707718447E+02  0.75336200196E+02  0.00000000000E+00 0.  1.
</event>
<event>
 7    1  0.6017574E-006  0.6210728E+02  0.7818608E-02  0.1525177E+00
          2   -1    0    0  502    0  0.00000000000E+00  0.00000000000E+00  0.63946221716E+03  0.63946221716E+03  0.00000000000E+00 0. -1.
          1   -1    0    0  501    0 -0.00000000000E+00 -0.00000000000E+00 -0.16423661506E+04  0.16423661506E+04  0.00000000000E+00 0. -1.
         25    2    1    2    0    0  0.25963318301E+02  0.69144330414E+02 -0.56611953335E+02  0.15583602105E+03  0.12499967948E+03 0.  0.
          2    1    1    2  501    0 -0.41612541701E+01 -0.61858150180E+02 -0.15352923193E+04  0.15365436058E+04  0.00000000000E+00 0. -1.
          1    1    1    2  502    0 -0.21802064130E+02 -0.72861802347E+01  0.58900033928E+03  0.58944874085E+03  0.00000000000E+00 0. -1.
         22    1    3    3    0    0 -0.35122371003E+02 -0.12042099645E+02  0.42962400707E+01  0.37377142580E+02  0.00000000000E+00 0. -1.
         22    1    3    3    0    0  0.61085689303E+02  0.81186430059E+02 -0.60908193405E+02  0.11845887847E+03  0.00000000000E+00 0. -1.
</event>
<event>
 7    1  0.6017574E-006  0.1473473E+03  0.7818608E-02  0.1404432E+00
          2   -1    0    0  502    0  0.00000000000E+00  0.00000000000E+00  0.92396581830E+02  0.92396581830E+02  0.00000000000E+00 0. -1.
          1   -1    0    0  501    0 -0.00000000000E+00 -0.00000000000E+00 -0.16062991177E+04  0.16062991177E+04  0.00000000000E+00 0. -1.
         25    2    1    2    0    0 -0.91533439539E+02  0.12943697705E+03 -0.24882960084E+03  0.32042757793E+03  0.12500144344E+03 0.  0.
          2    1    1    2  501    0 -0.50658500148E+01 -0.22629979406E+02 -0.12297759881E+04  0.12299946178E+04  0.00000000000E+00 0. -1.
          1    1    1    2  502    0  0.96599289554E+02 -0.10680699765E+03 -0.35296946975E+02  0.14827350389E+03  0.00000000000E+00 0. -1.
         22    1    3    3    0    0 -0.57389928174E+02  0.13946986015E+03 -0.24050404240E+03  0.28387962265E+03  0.00000000000E+00 0. -1.
         22    1    3    3    0    0 -0.34143511365E+02 -0.10032883095E+02 -0.83255584354E+01  0.36547955275E+02  0.00000000000E+00 0. -1.
</event>
<event>
 7    1  0.6017574E-006  0.7116528E+02  0.7818608E-02  0.1368324E+00
          2   -1    0    0  502    0  0.00000000000E+00  0.00000000000E+00  0.11824225176E+04  0.11824225176E+04  0.00000000000E+00 0. -1.
          1   -1    0    0  501    0 -0.00000000000E+00 -0.00000000000E+00 -0.55151583994E+02  0.55151583994E+02  0.00000000000E+00 0. -1.
         25    2    1    2    0    0  0.30308605707E+02 -0.43322677033E+02  0.20171502178E+03  0.24312554963E+03  0.12500246777E+03 0.  0.
          2    1    1    2  501    0 -0.59223920127E+02 -0.24989988954E+02 -0.16288876193E+01  0.64301053942E+02  0.00000000000E+00 0. -1.
          1    1    1    2  502    0  0.28915314420E+02  0.68312665987E+02  0.92718479947E+03  0.93014749804E+03  0.00000000000E+00 0. -1.
         22    1    3    3    0    0  0.50523543714E+02 -0.61600849496E+02  0.20060883029E+03  0.21584993842E+03  0.00000000000E+00 0. -1.
         22    1    3    3    0    0 -0.20214938007E+02  0.18278172463E+02  0.11061914880E+01  0.27275611209E+02  0.00000000000E+00 0. -1.
</event>
<event>
 7    1  0.6017574E-006  0.7035004E+02  0.7818608E-02  0.1483645E+00
          2   -1    0    0  502    0  0.00000000000E+00  0.00000000000E+00  0.54525128006E+03  0.54525128006E+03  0.00000000000E+00 0. -1.
          1   -1    0    0  501    0 -0.00000000000E+00 -0.00000000000E+00 -0.13106487827E+03  0.13106487827E+03  0.00000000000E+00 0. -1.
         25    2    1    2    0    0 -0.22827814271E+02  0.39378131064E+02  0.21358923132E+03  0.25162842076E+03  0.12499902435E+03 0.  0.
          2    1    1    2  501    0  0.28274047674E+02 -0.65773519105E+02 -0.99943988503E+02  0.12294054834E+03  0.00000000000E+00 0. -1.
          1    1    1    2  502    0 -0.54462334024E+01  0.26395388041E+02  0.30054115898E+03  0.30174718923E+03  0.00000000000E+00 0. -1.
         22    1    3    3    0    0 -0.65399315554E+01  0.41342608309E+02  0.47268975311E+01  0.42122743581E+02  0.00000000000E+00 0.  1.
         22    1    3    3    0    0 -0.16287882716E+02 -0.19644772455E+01  0.20886233379E+03  0.20950567717E+03  0.00000000000E+00 0.  1.
</event>
<event>
 7    1  0.6017574E-006  0.6616533E+02  0.7818608E-02  0.1425939E+00
          2   -1    0    0  502    0  0.00000000000E+00  0.00000000000E+00  0.33530826813E+03  0.33530826813E+03  0.00000000000E+00 0. -1.
          1   -1    0    0  501    0 -0.00000000000E+00 -0.00000000000E+00 -0.42987941161E+03  0.42987941161E+03  0.00000000000E+00 0. -1.
         25    2    1    2    0    0  0.60125220180E+02 -0.51608577121E+01 -0.17696131521E+03  0.22490404962E+03  0.12499939160E+03 0.  0.
          2    1    1    2  501    0 -0.50970384668E+02  0.47910867824E+02 -0.22200480982E+03  0.23276504667E+03  0.00000000000E+00 0. -1.
          1    1    1    2  502    0 -0.91548355122E+01 -0.42750010112E+02  0.30439498155E+03  0.30751858346E+03  0.00000000000E+00 0. -1.
         22    1    3    3    0    0  0.21909511588E+02 -0.58833053126E+02 -0.12881777290E+03  0.14330168685E+03  0.00000000000E+00 0.  1.
         22    1    3    3    0    0  0.38215708592E+02  0.53672195414E+02 -0.48143542309E+02  0.81602362771E+02  0.00000000000E+00 0.  1.
</event>
<event>
 7    1  0.6017574E-006  0.3410139E+02  0.7818608E-02  0.1586214E+00
          2   -1    0    0  502    0  0.00000000000E+00  0.00000000000E+00  0.18714201229E+04  0.18714201229E+04  0.00000000000E+00 0. -1.
          1   -1    0    0  501    0 -0.00000000000E+00 -0.00000000000E+00 -0.14528441709E+03  0.14528441709E+03  0.00000000000E+00 0. -1.
         25    2    1    2    0    0  0.25870106705E+02  0.12117163780E+02  0.12266574803E+04  0.12333408110E+04  0.12499957538E+03 0.  0.
          2    1    1    2  501    0 -0.70968958244E+01 -0.33383553840E+02 -0.13957196861E+03  0.14368424416E+03  0.00000000000E+00 0. -1.
          1    1    1    2  502    0 -0.18773210880E+02  0.21266390060E+02  0.63905019405E+03  0.63967948483E+03  0.00000000000E+00 0. -1.
         22    1    3    3    0    0  0.39536888898E+02  0.49519277140E+02  0.10638019037E+04  0.10656874845E+04  0.00000000000E+00 0.  1.
         22    1    3    3    0    0 -0.13666782194E+02 -0.37402113360E+02  0.16285557667E+03  0.16765332645E+03  0.00000000000E+00 0.  1.
</event>
<event>
 7    1  0.6017574E-006  0.2301612E+03  0.7818608E-02  0.1206694E+00
          2   -1    0    0  502    0  0.00000000000E+00  0.00000000000E+00  0.15828631962E+04  0.15828631962E+04  0.00000000000E+00 0. -1.
          1   -1    0    0  501    0 -0.00000000000E+00 -0.00000000000E+00 -0.34386416865E+03  0.34386416865E+03  0.00000000000E+00 0. -1.
         25    2    1    2    0    0  0.29653127792E+03  0.11502221257E+03 -0.14385882872E+03  0.37079186300E+03  0.12502133776E+03 0.  0.
          2    1    1    2  501    0 -0.87725414033E+02 -0.25686952723E+02 -0.50680246468E+02  0.10451820506E+03  0.00000000000E+00 0. -1.
          1    1    1    2  502    0 -0.20880586389E+03 -0.89335259849E+02  0.14335381027E+04  0.14514172968E+04  0.00000000000E+00 0. -1.
         22    1    3    3    0    0  0.30471084684E+03  0.11970243128E+03 -0.12636447222E+03  0.35092072050E+03  0.00000000000E+00 0. -1.
         22    1    3    3    0    0 -0.81795689227E+01 -0.46802187067E+01 -0.17494356495E+02  0.19871142496E+02  0.00000000000E+00 0. -1.
</event>
<event>
 7    1  0.6017574E-006  0.6927377E+02  0.7818608E-02  0.1437149E+00
          2   -1    0    0  502    0  0.00000000000E+00  0.00000000000E+00  0.69409764851E+03  0.69409764851E+03  0.00000000000E+00 0. -1.
          1   -1    0    0  501    0 -0.00000000000E+00 -0.00000000000E+00 -0.41334300220E+03  0.41334300220E+03  0.00000000000E+00 0. -1.
         25    2    1    2    0    0  0.10346439773E+02  0.44856455491E+02 -0.22848632547E+03  0.26449457539E+03  0.12502891294E+03 0.  0.
          2    1    1    2  501    0  0.38031964049E+02  0.50282264374E+01 -0.16283199332E+03  0.16729008159E+03  0.00000000000E+00 0. -1.
          1    1    1    2  502    0 -0.48378403822E+02 -0.49884681929E+02  0.67207296509E+03  0.67565599373E+03  0.00000000000E+00 0. -1.
         22    1    3    3    0    0  0.33858831037E+02  0.32563871711E+02 -0.23290665331E+03  0.23759700195E+03  0.00000000000E+00 0. -1.
         22    1    3    3    0    0 -0.23512391263E+02  0.12292583780E+02  0.44203278406E+01  0.26897573443E+02  0.00000000000E+00 0. -1.
</event>
<event>
 7    1  0.6017574E-006  0.8947668E+02  0.7818608E-02  0.1344292E+00
          2   -1    0    0  502    0  0.00000000000E+00  0.00000000000E+00  0.23633671460E+04  0.23633671460E+04  0.00000000000E+00 0. -1.
          1   -1    0    0  501    0 -0.00000000000E+00 -0.00000000000E+00 -0.31666324627E+03  0.31666324627E+03  0.00000000000E+00 0. -1.
         25    2    1    2    0    0 -0.22488635452E+02  0.22390266417E+02 -0.88625995542E+02  0.15648155490E+03  0.12499938873E+03 0.  0.
          2    1    1    2  501    0 -0.62124561297E+02  0.80066593320E+01 -0.18816402580E+03  0.19831608184E+03  0.00000000000E+00 0. -1.
          1    1    1    2  502    0  0.84613196750E+02 -0.30396925749E+02  0.23234939211E+04  0.23252327555E+04  0.00000000000E+00 0. -1.
         22    1    3    3    0    0  0.42103193728E+02  0.27929227903E+02 -0.74686584058E+02  0.90170984976E+02  0.00000000000E+00 0.  1.
         22    1    3    3    0    0 -0.64591829180E+02 -0.55389614858E+01 -0.13939411484E+02  0.66310569924E+02  0.00000000000E+00 0.  1.
</event>
<event>
 7    1  0.6017574E-006  0.6973619E+02  0.7818608E-02  0.1382156E+00
          2   -1    0    0  502    0  0.00000000000E+00  0.00000000000E+00  0.12000022242E+03  0.12000022242E+03  0.00000000000E+00 0. -1.
          1   -1    0    0  501    0 -0.00000000000E+00 -0.00000000000E+00 -0.46833222987E+03  0.46833222987E+03  0.00000000000E+00 0. -1.
         25    2    1    2    0    0 -0.22954362689E+02 -0.60775480921E+02  0.32531318108E+01  0.14091780548E+03  0.12500673256E+03 0.  0.
          2    1    1    2  501    0  0.67332484506E+02  0.22578432140E+02 -0.37696625995E+03  0.38359745855E+03  0.00000000000E+00 0. -1.
          1    1    1    2  502    0 -0.44378121817E+02  0.38197048780E+02  0.25381120682E+02  0.63817188270E+02  0.00000000000E+00 0. -1.
         22    1    3    3    0    0  0.13311805016E+02 -0.30793190817E+02  0.59058700229E+02  0.67921681562E+02  0.00000000000E+00 0. -1.
         22    1    3    3    0    0 -0.36266167705E+02 -0.29982290104E+02 -0.55805568418E+02  0.72996123913E+02  0.00000000000E+00 0. -1.
</event>
<event>
 7    1  0.6017574E-006  0.5763105E+02  0.7818608E-02  0.1458771E+00
          2   -1    0    0  502    0  0.00000000000E+00  0.00000000000E+00  0.15790542780E+04  0.15790542780E+04  0.00000000000E+00 0. -1.
          1   -1    0    0  501    0 -0.00000000000E+00 -0.00000000000E+00 -0.20589445490E+03  0.20589445490E+03  0.00000000000E+00 0. -1.
         25    2    1    2    0    0  0.62732187444E+02 -0.72298580911E+02  0.80617758155E+02  0.17688044153E+03  0.12500022210E+03 0.  0.
          2    1    1    2  501    0 -0.29983188285E+02  0.25413404711E+02 -0.15474153781E+03  0.15965517919E+03  0.00000000000E+00 0. -1.
          1    1    1    2  502    0 -0.32748999159E+02  0.46885176201E+02  0.14472836028E+04  0.14484131122E+04  0.00000000000E+00 0. -1.
         22    1    3    3    0    0 -0.33322605707E+02 -0.38288890779E+02  0.48076290264E+02  0.69912551761E+02  0.00000000000E+00 0. -1.
         22    1    3    3    0    0  0.96054793150E+02 -0.34009690133E+02  0.32541467891E+02  0.10696788977E+03  0.00000000000E+00 0. -1.
</event>
<event>
 7    1  0.6017574E-006  0.1175154E+03  0.7818608E-02  0.1359812E+00
          2   -1    0    0  502    0  0.00000000000E+00  0.00000000000E+00  0.14902014436E+04  0.14902014436E+04  0.00000000000E+00 0. -1.
          1   -1    0    0  501    0 -0.00000000000E+00 -0.00000000000E+00 -0.86667931242E+03  0.86667931242E+03  0.00000000000E+00 0. -1.
         25    2    1    2    0    0  0.83152858576E+02 -0.11298180293E+03 -0.44349121978E+03  0.48165260887E+03  0.12500195169E+03 0.  0.
          2    1    1    2  501    0 -0.83333921571E+02  0.71187050446E+02 -0.39637226616E+03  0.41124580486E+03  0.00000000000E+00 0. -1.
          1    1    1    2  502    0  0.18106299411E+00  0.41794752488E+02  0.14633856171E+04  0.14639823423E+04  0.00000000000E+00 0. -1.
         22    1    3    3    0    0 -0.27444092997E+02 -0.33089384681E+02 -0.54409650661E+02  0.69343317659E+02  0.00000000000E+00 0. -1.
         22    1    3    3    0    0  0.11059695157E+03 -0.79892418254E+02 -0.38908156912E+03  0.41230929122E+03  0.00000000000E+00 0. -1.
</event>
<event>
 7    1  0.6017574E-006  0.4445610E+02  0.7818608E-02  0.1523559E+00
          2   -1    0    0  502    0  0.00000000000E+00  0.00000000000E+00  0.23082437876E+03  0.23082437876E+03  0.00000000000E+00 0. -1.
          1   -1    0    0  501    0 -0.00000000000E+00 -0.00000000000E+00 -0.24971117926E+03  0.24971117926E+03  0.00000000000E+00 0. -1.
         25    2    1    2    0    0  0.19440134540E+02 -0.84967670849E+00  0.42681978448E+01  0.12658128127E+03  0.12500384984E+03 0.  0.
          2    1    1    2  501    0 -0.37472972984E+02 -0.26142500118E+02 -0.18414258190E+03  0.18972649917E+03  0.00000000000E+00 0. -1.
          1    1    1    2  502    0  0.18032838444E+02  0.26992176826E+02  0.16098758356E+03  0.16422777759E+03  0.00000000000E+00 0. -1.
         22    1    3    3    0    0  0.49814768819E+02  0.37557419820E+02  0.32202234423E+02  0.70207228103E+02  0.00000000000E+00 0.  1.
         22    1    3    3    0    0 -0.30374634279E+02 -0.38407096528E+02 -0.27934036578E+02  0.56374053171E+02  0.00000000000E+00 0.  1.
</event>
<event>
 7    1  0.6017574E-006  0.1314157E+03  0.7818608E-02  0.1247057E+00
          2   -1    0    0  502    0  0.00000000000E+00  0.00000000000E+00  0.23452903356E+04  0.23452903356E+04  0.00000000000E+00 0. -1.
          1   -1    0    0  501    0 -0.00000000000E+00 -0.00000000000E+00 -0.10429433890E+04  0.10429433890E+04  0.00000000000E+00 0. -1.
         25    2    1    2    0    0 -0.59973356650E+02  0.46572275221E+02  0.33888602931E+03  0.36910026895E+03  0.12500194940E+03 0.  0.
          2    1    1    2  501    0 -0.96379782085E+00 -0.13243946845E+03 -0.10221690867E+04  0.10307137253E+04  0.00000000000E+00 0. -1.
          1    1    1    2  502    0  0.60937154471E+02  0.85867193233E+02  0.19856300039E+04  0.19884197304E+04  0.00000000000E+00 0. -1.
         22    1    3    3    0    0  0.31300513493E+02 -0.16427315881E+02  0.82987625669E+02  0.90202687688E+02  0.00000000000E+00 0. -1.
         22    1    3    3    0    0 -0.91273870143E+02  0.62999591102E+02  0.25589840364E+03  0.27889758126E+03  0.00000000000E+00 0. -1.
</event>
<event>
 7    1  0.6017574E-006  0.2081647E+03  0.7818608E-02  0.1268298E+00
          2   -1    0    0  502    0  0.00000000000E+00  0.00000000000E+00  0.13985826910E+04  0.13985826910E+04  0.00000000000E+00 0. -1.
          1   -1    0    0  501    0 -0.00000000000E+00 -0.00000000000E+00 -0.14097319229E+04  0.14097319229E+04  0.00000000000E+00 0. -1.
         25    2    1    2    0    0  0.70991226464E+02  0.23694262185E+03 -0.75106054307E+03  0.80056133075E+03  0.12499977860E+03 0.  0.
          2    1    1    2  501    0 -0.44184454534E+02 -0.30879116934E+02 -0.62489626860E+03  0.62721697393E+03  0.00000000000E+00 0. -1.
          1    1    1    2  502    0 -0.26806771930E+02 -0.20606350492E+03  0.13648075798E+04  0.13805363092E+04  0.00000000000E+00 0. -1.
         22    1    3    3    0    0  0.10724567007E+03  0.18201574293E+03 -0.57997846543E+03  0.61725714640E+03  0.00000000000E+00 0. -1.
         22    1    3    3    0    0 -0.36254443607E+02  0.54926878921E+02 -0.17108207765E+03  0.18330418435E+03  0.00000000000E+00 0. -1.
</event>
<event>
 7    1  0.6017574E-006  0.5680892E+02  0.7818608E-02  0.1414141E+00
          2   -1    0    0  502    0  0.00000000000E+00  0.00000000000E+00  0.80032549846E+02  0.80032549846E+02  0.00000000000E+00 0. -1.
          1   -1    0    0  501    0 -0.00000000000E+00 -0.00000000000E+00 -0.58670318212E+03  0.58670318212E+03  0.00000000000E+00 0. -1.
         25    2    1    2    0    0 -0.65906673538E+00 -0.10055492974E+02 -0.91107920534E+02  0.15501153090E+03  0.12500549676E+03 0.  0.
          2    1    1    2  501    0  0.53958605440E+02  0.26422632827E+02 -0.44475066583E+03  0.44879042034E+03  0.00000000000E+00 0. -1.
          1    1    1    2  502    0 -0.53299538704E+02 -0.16367139853E+02  0.29187954090E+02  0.62933780730E+02  0.00000000000E+00 0. -1.
         22    1    3    3    0    0  0.55591538518E+02 -0.32151537285E+02 -0.55418041491E+02  0.84825113187E+02  0.00000000000E+00 0.  1.
         22    1    3    3    0    0 -0.56250605253E+02  0.22096044311E+02 -0.35689879043E+02  0.70186417715E+02  0.00000000000E+00 0.  1.
</event>
<event>
 7    1  0.6017574E-006  0.6407898E+02  0.7818608E-02  0.1394895E+00
          2   -1    0    0  502    0  0.00000000000E+00  0.00000000000E+00  0.15822575295E+04  0.15822575295E+04  0.00000000000E+00 0. -1.
          1   -1    0    0  501    0 -0.00000000000E+00 -0.00000000000E+00 -0.24059053826E+04  0.24059053826E+04  0.00000000000E+00 0. -1.
         25    2    1    2    0    0 -0.71534852111E+02  0.86279382574E+02  0.37291438455E+03  0.40896385429E+03  0.12499971596E+03 0.  0.
          2    1    1    2  501    0  0.18005491506E+02 -0.54618350995E+02 -0.23867223619E+04  0.23874151283E+04  0.00000000000E+00 0. -1.
          1    1    1    2  502    0  0.53529360605E+02 -0.31661031580E+02  0.11901601242E+04  0.11917839295E+04  0.00000000000E+00 0. -1.
         22    1    3    3    0    0 -0.87110949051E+02  0.29721422602E+02  0.30804916250E+03  0.32150578055E+03  0.00000000000E+00 0. -1.
         22    1    3    3    0    0  0.15576096939E+02  0.56557959973E+02  0.64865222044E+02  0.87458073744E+02  0.00000000000E+00 0. -1.
</event>
<event>
 7    1  0.6017574E-006  0.1178223E+03  0.7818608E-02  0.1303804E+00
          2   -1    0    0  502    0  0.00000000000E+00  0.00000000000E+00  0.14021306745E+04  0.14021306745E+04  0.00000000000E+00 0. -1.
          1   -1    0    0  501    0 -0.00000000000E+00 -0.00000000000E+00 -0.57878655167E+03  0.57878655167E+03  0.00000000000E+00 0. -1.
         25    2    1    2    0    0 -0.45865162412E+02 -0.96025043815E+02  0.40124018113E+02  0.16897397660E+03  0.12497137983E+03 0.  0.
          2    1    1    2  501    0  0.10368254798E+03  0.59947374916E+02 -0.50647805498E+03  0.52044575000E+03  0.00000000000E+00 0. -1.
          1    1    1    2  502    0 -0.57817385570E+02  0.36077668899E+02  0.12896981597E+04  0.12914974996E+04  0.00000000000E+00 0. -1.
         22    1    3    3    0    0  0.11061972674E+02 -0.90052995348E+02 -0.12046870613E+02  0.91526150920E+02  0.00000000000E+00 0. -1.
         22    1    3    3    0    0 -0.56927135086E+02 -0.59720484663E+01  0.52170888727E+02  0.77447825679E+02  0.00000000000E+00 0. -1.
</event>
<event>
 7    1  0.6017574E-006  0.6474574E+02  0.7818608E-02  0.1505254E+00
          2   -1    0    0  502    0  0.00000000000E+00  0.00000000000E+00  0.37020995815E+02  0.37020995815E+02  0.00000000000E+00 0. -1.
          1   -1    0    0  501    0 -0.00000000000E+00 -0.00000000000E+00 -0.77565771212E+03  0.77565771212E+03  0.00000000000E+00 0. -1.
         25    2    1    2    0    0  0.77139892258E+02  0.38816324455E+02 -0.20240166378E+03  0.25307829743E+03  0.12499968444E+03 0.  0.
          2    1    1    2  501    0 -0.59764836557E+02 -0.20543848673E+02 -0.52982906824E+03  0.53358478891E+03  0.00000000000E+00 0. -1.
          1    1    1    2  502    0 -0.17375055701E+02 -0.18272475782E+02 -0.64059842824E+01  0.26015621585E+02  0.00000000000E+00 0. -1.
         22    1    3    3    0    0 -0.30131990681E+02 -0.70389574914E+01 -0.20981819251E+02  0.37386100680E+02  0.00000000000E+00 0. -1.
         22    1    3    3    0    0  0.10727188294E+03  0.45855281947E+02 -0.18141984453E+03  0.21569219675E+03  0.00000000000E+00 0. -1.
</event>
<event>
 7    1  0.6017574E-006  0.1189056E+03  0.7818608E-02  0.1300371E+00
          2   -1    0    0  502    0  0.00000000000E+00  0.00000000000E+00  0.84746868417E+03  0.84746868417E+03  0.00000000000E+00 0. -1.
          1   -1    0    0  501    0 -0.00000000000E+00 -0.00000000000E+00 -0.30558565840E+03  0.30558565840E+03  0.00000000000E+00 0. -1.
         25    2    1    2    0    0  0.24824769184E+02  0.88853021604E+02  0.52295420522E+02  0.16393163834E+03  0.12501056927E+03 0.  0.
          2    1    1    2  501    0  0.69009215166E+02 -0.97366162904E+01 -0.23967591743E+03  0.24960292240E+03  0.00000000000E+00 0. -1.
          1    1    1    2  502    0 -0.93833984350E+02 -0.79116405314E+02  0.72926352267E+03  0.73951978183E+03  0.00000000000E+00 0. -1.
         22    1    3    3    0    0  0.52482168591E+02  0.66394407308E+02  0.81778165289E+02  0.11768714314E+03  0.00000000000E+00 0.  1.
         22    1    3    3    0    0 -0.27657399406E+02  0.22458614296E+02 -0.29482744767E+02  0.46244495208E+02  0.00000000000E+00 0.  1.
</event>
<event>
 7    1  0.6017574E-006  0.7317474E+02  0.7818608E-02  0.1450260E+00
          2   -1    0    0  502    0  0.00000000000E+00  0.00000000000E+00  0.69548631666E+03  0.69548631666E+03  0.00000000000E+00 0. -1.
          1   -1    0    0  501    0 -0.00000000000E+00 -0.00000000000E+00 -0.20980204230E+03  0.20980204230E+03  0.00000000000E+00 0. -1.
         25    2    1    2    0    0 -0.40103339359E+02  0.24769247316E+02  0.27709701386E+03  0.30761990925E+03  0.12500184015E+03 0.  0.
          2    1    1    2  501    0  0.46988590171E+02 -0.56986912468E+02 -0.18682009716E+03  0.20089097666E+03  0.00000000000E+00 0. -1.
          1    1    1    2  502    0 -0.68852508123E+01  0.32217665151E+02  0.39540735766E+03  0.39677747305E+03  0.00000000000E+00 0. -1.
         22    1    3    3    0    0  0.29666283915E+02 -0.26890703659E+02  0.47301924510E+02  0.61973142626E+02  0.00000000000E+00 0. -1.
         22    1    3    3    0    0 -0.69769623275E+02  0.51659950975E+02  0.22979508935E+03  0.24564676663E+03  0.00000000000E+00 0. -1.
</event>
<event>
 7    1  0.6017574E-006  0.2644134E+03  0.7818608E-02  0.1218684E+00
          2   -1    0    0  502    0  0.00000000000E+00  0.00000000000E+00  0.11510965638E+04  0.11510965638E+04  0.00000000000E+00 0. -1.
          1   -1    0    0  501    0 -0.00000000000E+00 -0.00000000000E+00 -0.13485674867E+04  0.13485674867E+04  0.00000000000E+00 0. -1.
         25    2    1    2    0    0  0.28440157773E+02  0.20602413660E+03 -0.69225668319E+03  0.73355171079E+03  0.12499603812E+03 0.  0.
          2    1    1    2  501    0 -0.36871759478E+02  0.59557566472E+02 -0.61804319286E+03  0.62200001496E+03  0.00000000000E+00 0. -1.
          1    1    1    2  502    0  0.84316017050E+01 -0.26558170307E+03  0.11128289531E+04  0.11441123248E+04  0.00000000000E+00 0. -1.
         22    1    3    3    0    0  0.65190515029E+02  0.12860323438E+03 -0.53910152484E+03  0.55804932508E+03  0.00000000000E+00 0.  1.
         22    1    3    3    0    0 -0.36750357256E+02  0.77420902223E+02 -0.15315515835E+03  0.17550238571E+03  0.00000000000E+00 0.  1.
</event>
<event>
 7    1  0.6017574E-006  0.5819856E+02  0.7818608E-02  0.1493273E+00
          2   -1    0    0  502    0  0.00000000000E+00  0.00000000000E+00  0.27529618547E+04  0.27529618547E+04  0.00000000000E+00 0. -1.
          1   -1    0    0  501    0 -0.00000000000E+00 -0.00000000000E+00 -0.30539774810E+02  0.30539774810E+02  0.00000000000E+00 0. -1.
         25    2    1    2    0    0  0.70438537726E+02 -0.22040141099E+02  0.15893236379E+04  0.15959393853E+04  0.12500216068E+03 0.  0.
          2    1    1    2  501    0 -0.57729996101E+02 -0.56429711881E+01  0.40966636406E+01  0.58149619316E+02  0.00000000000E+00 0. -1.
          1    1    1    2  502    0 -0.12708541626E+02  0.27683112287E+02  0.11290017783E+04  0.11294126249E+04  0.00000000000E+00 0. -1.
         22    1    3    3    0    0  0.99688985028E+02  0.66742574344E+01  0.93229007877E+03  0.93762851408E+03  0.00000000000E+00 0. -1.
         22    1    3    3    0    0 -0.29250447302E+02 -0.28714398533E+02  0.65703355912E+03  0.65831087122E+03  0.00000000000E+00 0. -1.
</event>
<event>
 7    1  0.6017574E-006  0.7589129E+02  0.7818608E-02  0.1488206E+00
          2   -1    0    0  502    0  0.00000000000E+00  0.00000000000E+00  0.67899075911E+02  0.67899075911E+02  0.00000000000E+00 0. -1.
          1   -1    0    0  501    0 -0.00000000000E+00 -0.00000000000E+00 -0.71661899011E+03  0.71661899011E+03  0.00000000000E+00 0. -1.
         25    2    1    2    0    0  0.11449133112E+02 -0.64183160303E+02 -0.28214078949E+03  0.31540246025E+03  0.12499890448E+03 0.  0.
          2    1    1    2  501    0  0.23773453191E+02 -0.45115904262E+01 -0.38819465030E+03  0.38894809172E+03  0.00000000000E+00 0. -1.
          1    1    1    2  502    0 -0.35222586304E+02  0.68694750729E+02  0.21615525593E+02  0.80167514058E+02  0.00000000000E+00 0. -1.
         22    1    3    3    0    0  0.84968333698E+01 -0.10056051600E+03 -0.23524520114E+03  0.25597835497E+03  0.00000000000E+00 0. -1.
         22    1    3    3    0    0  0.29522997427E+01  0.36377355695E+02 -0.46895588351E+02  0.59424105277E+02  0.00000000000E+00 0. -1.
</event>
<event>
 7    1  0.6017574E-006  0.2684808E+02  0.7818608E-02  0.1673121E+00
          2   -1    0    0  502    0  0.00000000000E+00  0.00000000000E+00  0.18770105769E+03  0.18770105769E+03  0.00000000000E+00 0. -1.
          1   -1    0    0  501    0 -0.00000000000E+00 -0.00000000000E+00 -0.22508397686E+03  0.22508397686E+03  0.00000000000E+00 0. -1.
         25    2    1    2    0    0  0.16550919263E+02 -0.29991567729E+02  0.72319356053E+02  0.14842227053E+03  0.12500261624E+03 0.  0.
          2    1    1    2  501    0 -0.24955694808E+02  0.99087968626E+01 -0.18450900719E+03  0.18645252665E+03  0.00000000000E+00 0. -1.
          1    1    1    2  502    0  0.84047755446E+01  0.20082770866E+02  0.74806731969E+02  0.77910237360E+02  0.00000000000E+00 0. -1.
         22    1    3    3    0    0  0.66465719311E+02 -0.23954971614E+02  0.15090551540E+02  0.72244427151E+02  0.00000000000E+00 0.  1.
         22    1    3    3    0    0 -0.49914800048E+02 -0.60365961150E+01  0.57228804514E+02  0.76177843383E+02  0.00000000000E+00 0.  1.
</event>
<event>
 7    1  0.6017574E-006  0.2414271E+02  0.7818608E-02  0.1688394E+00
          2   -1    0    0  502    0  0.00000000000E+00  0.00000000000E+00  0.73245372195E+02  0.73245372195E+02  0.00000000000E+00 0. -1.
          1   -1    0    0  501    0 -0.00000000000E+00 -0.00000000000E+00 -0.96082123912E+03  0.96082123912E+03  0.00000000000E+00 0. -1.
         25    2    1    2    0    0 -0.31978782887E+02  0.17005100479E+02 -0.10436581512E+03  0.16682070354E+03  0.12500043107E+03 0.  0.
          2    1    1    2  501    0  0.10227962668E+02 -0.21838662521E+02 -0.82208481970E+03  0.82243844097E+03  0.00000000000E+00 0. -1.
          1    1    1    2  502    0  0.21750820219E+02  0.48335620421E+01  0.38874767896E+02  0.44807466801E+02  0.00000000000E+00 0. -1.
         22    1    3    3    0    0 -0.64495091536E+02 -0.27001572292E+02 -0.34179830110E+02  0.77826489866E+02  0.00000000000E+00 0. -1.
         22    1    3    3    0    0  0.32516308649E+02  0.44006672771E+02 -0.70185985007E+02  0.88994213677E+02  0.00000000000E+00 0. -1.
</event>
<event>
 7    1  0.6017574E-006  0.6654131E+02  0.7818608E-02  0.1443855E+00
          2   -1    0    0  502    0  0.00000000000E+00  0.00000000000E+00  0.65467197435E+03  0.65467197435E+03  0.00000000000E+00 0. -1.
          1   -1    0    0  501    0 -0.00000000000E+00 -0.00000000000E+00 -0.15459017476E+04  0.15459017476E+04  0.00000000000E+00 0. -1.
         25    2    1    2    0    0  0.84228683838E+02 -0.45826379005E+02 -0.87099964840E+03  0.88513429901E+03  0.12501124585E+03 0.  0.
          2    1    1    2  501    0 -0.37939630461E+02 -0.19082816786E+01 -0.66558498028E+03  0.66666815064E+03  0.00000000000E+00 0. -1.
          1    1    1    2  502    0 -0.46289053377E+02  0.47734660683E+02  0.64535485544E+03  0.64877127228E+03  0.00000000000E+00 0. -1.
         22    1    3    3    0    0  0.98764365041E+02  0.50146479967E+01 -0.67163244584E+03  0.67887383865E+03  0.00000000000E+00 0.  1.
         22    1    3    3    0    0 -0.14535681203E+02 -0.50841027001E+02 -0.19936720256E+03  0.20626046036E+03  0.00000000000E+00 0.  1.
</event>
<event>
 7    1  0.6017574E-006  0.5312391E+02  0.7818608E-02  0.1484376E+00
          2   -1    0    0  502    0  0.00000000000E+00  0.00000000000E+00  0.20140980071E+04  0.20140980071E+04  0.00000000000E+00 0. -1.
          1   -1    0    0  501    0 -0.00000000000E+00 -0.00000000000E+00 -0.98145919159E+03  0.98145919159E+03  0.00000000000E+00 0. -1.
         25    2    1    2    0    0 -0.15132910222E+02  0.18904613346E+02  0.85510275609E+02  0.15337366912E+03  0.12500034306E+03 0.  0.
          2    1    1    2  501    0  0.93121490584E+01  0.34265128634E+02 -0.94681714033E+03  0.94748272406E+03  0.00000000000E+00 0. -1.
          1    1    1    2  502    0  0.58207611634E+01 -0.53169741980E+02  0.18939456803E+04  0.18947008056E+04  0.00000000000E+00 0. -1.
         22    1    3    3    0    0  0.31771498387E+02  0.47389033508E+02  0.68506916176E+01  0.57463732756E+02  0.00000000000E+00 0. -1.
         22    1    3    3    0    0 -0.46904408609E+02 -0.28484420163E+02  0.78659583992E+02  0.95909936360E+02  0.00000000000E+00 0. -1.
</event>
<event>
 7    1  0.6017574E-006  0.3985988E+02  0.7818608E-02  0.1509334E+00
          2   -1    0    0  502    0  0.00000000000E+00  0.00000000000E+00  0.20337099570E+04  0.20337099570E+04  0.00000000000E+00 0. -1.
          1   -1    0    0  501    0 -0.00000000000E+00 -0.00000000000E+00 -0.30060558016E+03  0.30060558016E+03  0.00000000000E+00 0. -1.
         25    2    1    2    0    0 -0.65897191562E+01 -0.34269300204E+02  0.11065986106E+03  0.17055435410E+03  0.12500149407E+03 0.  0.
          2    1    1    2  501    0 -0.31974222954E+02  0.24188018659E+02 -0.26896247696E+03  0.27193422954E+03  0.00000000000E+00 0. -1.
          1    1    1    2  502    0  0.38563942110E+02  0.10081281545E+02  0.18914069927E+04  0.18918269535E+04  0.00000000000E+00 0. -1.
         22    1    3    3    0    0 -0.12457863848E+02 -0.15154779093E+02  0.13648819562E+03  0.13789087441E+03  0.00000000000E+00 0.  1.
         22    1    3    3    0    0  0.58681446919E+01 -0.19114521111E+02 -0.25828334563E+02  0.32663479694E+02  0.00000000000E+00 0.  1.
</event>
<event>
 7    1  0.6017574E-006  0.9115314E+02  0.7818608E-02  0.1446377E+00
          2   -1    0    0  502    0  0.00000000000E+00  0.00000000000E+00  0.94193786734E+03  0.94193786734E+03  0.00000000000E+00 0. -1.
          1   -1    0    0  501    0 -0.00000000000E+00 -0.00000000000E+00 -0.49902164327E+03  0.49902164327E+03  0.00000000000E+00 0. -1.
         25    2    1    2    0    0 -0.33899779562E+00  0.81196389533E+02  0.49800056871E+03  0.51982610099E+03  0.12498656025E+03 0.  0.
          2    1    1    2  501    0 -0.26152177289E+02 -0.87438657151E+02 -0.48340699305E+03  0.49194692404E+03  0.00000000000E+00 0. -1.
          1    1    1    2  502    0  0.26491175085E+02  0.62422676183E+01  0.42832264842E+03  0.42918648559E+03  0.00000000000E+00 0. -1.
         22    1    3    3    0    0  0.29295873209E+02  0.37986928842E+02  0.51959022889E+02  0.70717713548E+02  0.00000000000E+00 0. -1.
         22    1    3    3    0    0 -0.29634871004E+02  0.43209460691E+02  0.44604154582E+03  0.44910838744E+03  0.00000000000E+00 0. -1.
</event>
<event>
 7    1  0.6017574E-006  0.1674002E+03  0.7818608E-02  0.1335915E+00
          2   -1    0    0  502    0  0.00000000000E+00  0.00000000000E+00  0.76987859585E+03  0.76987859585E+03  0.00000000000E+00 0. -1.
          1   -1    0    0  501    0 -0.00000000000E+00 -0.00000000000E+00 -0.21371345136E+03  0.21371345136E+03  0.00000000000E+00 0. -1.
         25    2    1    2    0    0  0.19491878171E+03  0.11132742154E+02  0.84167162062E+02  0.24662912053E+03  0.12499817003E+03 0.  0.
          2    1    1    2  501    0 -0.15891890188E+03 -0.11128895619E+02 -0.83797326521E+02  0.18000294893E+03  0.00000000000E+00 0. -1.
          1    1    1    2  502    0 -0.35999879830E+02 -0.38465352833E-02  0.55579530895E+03  0.55695997775E+03  0.00000000000E+00 0. -1.
         22    1    3    3    0    0  0.20638237995E+03 -0.97532542403E+01  0.66789273862E+02  0.21713963209E+03  0.00000000000E+00 0. -1.
         22    1    3    3    0    0 -0.11463598239E+02  0.20885996394E+02  0.17377888199E+02  0.29489488436E+02  0.00000000000E+00 0. -1.
</event>
<event>
 7    1  0.6017574E-006  0.9222668E+02  0.7818608E-02  0.1354170E+00
          2   -1    0    0  502    0  0.00000000000E+00  0.00000000000E+00  0.64335366766E+03  0.64335366766E+03  0.00000000000E+00 0. -1.
          1   -1    0    0  501    0 -0.00000000000E+00 -0.00000000000E+00 -0.67498912610E+03  0.67498912610E+03  0.00000000000E+00 0. -1.
         25    2    1    2    0    0  0.77015328757E+02  0.11926347452E+01  0.12488835170E+03  0.19275548037E+03  0.12499916632E+03 0.  0.
          2    1    1    2  501    0 -0.73379120745E+02 -0.56927652964E+02 -0.63606246003E+03  0.64280689642E+03  0.00000000000E+00 0. -1.
          1    1    1    2  502    0 -0.36362080120E+01  0.55735018219E+02  0.47953864989E+03  0.48278041696E+03  0.00000000000E+00 0. -1.
         22    1    3    3    0    0  0.77025022455E+02  0.81520181820E+01  0.10509321609E+02  0.78164923881E+02  0.00000000000E+00 0. -1.
         22    1    3    3    0    0 -0.96936977915E-02 -0.69593834368E+01  0.11437903009E+03  0.11459055649E+03  0.00000000000E+00 0. -1.
</event>
<event>
 7    1  0.6017574E-006  0.5830985E+02  0.7818608E-02  0.1451689E+00
          2   -1    0    0  502    0  0.00000000000E+00  0.00000000000E+00  0.14227245803E+04  0.14227245803E+04  0.00000000000E+00 0. -1.
          1   -1    0    0  501    0 -0.00000000000E+00 -0.00000000000E+00 -0.25842254439E+02  0.25842254439E+02  0.00000000000E+00 0. -1.
         25    2    1    2    0    0  0.13301395473E+02  0.28070857328E+02  0.61326338037E+03  0.62664290822E+03  0.12499784223E+03 0.  0.
          2    1    1    2  501    0  0.12682243958E+02 -0.59671583134E+02  0.31433190631E+02  0.68626398848E+02  0.00000000000E+00 0. -1.
          1    1    1    2  502    0 -0.25983639432E+02  0.31600725806E+02  0.75218575485E+03  0.75329752766E+03  0.00000000000E+00 0. -1.
         22    1    3    3    0    0 -0.53121450533E+02  0.66733570758E+01  0.35927121710E+03  0.36323852995E+03  0.00000000000E+00 0. -1.
         22    1    3    3    0    0  0.66422846006E+02  0.21397500252E+02  0.25399216327E+03  0.26340437827E+03  0.00000000000E+00 0. -1.
</event>
<event>
 7    1  0.6017574E-006  0.9969825E+02  0.7818608E-02  0.1338947E+00
          2   -1    0    0  502    0  0.00000000000E+00  0.00000000000E+00  0.21432670984E+04  0.21432670984E+04  0.00000000000E+00 0. -1.
          1   -1    0    0  501    0 -0.00000000000E+00 -0.00000000000E+00 -0.20197223405E+04  0.20197223405E+04  0.00000000000E+00 0. -1.
         25    2    1    2    0    0 -0.84846170943E+02  0.10970007534E+03  0.44855845771E+03  0.48586240368E+03  0.12499842429E+03 0.  0.
          2    1    1    2  501    0  0.56497526403E+02 -0.16556518986E+02 -0.19992227272E+04  0.20000893985E+04  0.00000000000E+00 0. -1.
          1    1    1    2  502    0  0.28348644541E+02 -0.93143556358E+02  0.16742090274E+04  0.16770376368E+04  0.00000000000E+00 0. -1.
         22    1    3    3    0    0 -0.10910493810E+03  0.54288023984E+02  0.34551288671E+03  0.36637444227E+03  0.00000000000E+00 0. -1.
         22    1    3    3    0    0  0.24258767157E+02  0.55412051360E+02  0.10304557099E+03  0.11948796141E+03  0.00000000000E+00 0. -1.
</event>
<event>
 7    1  0.6017574E-006  0.1482649E+03  0.7818608E-02  0.1240725E+00
          2   -1    0    0  502    0  0.00000000000E+00  0.00000000000E+00  0.45396539773E+03  0.45396539773E+03  0.00000000000E+00 0. -1.
          1   -1    0    0  501    0 -0.00000000000E+00 -0.00000000000E+00 -0.22068323814E+03  0.22068323814E+03  0.00000000000E+00 0. -1.
         25    2    1    2    0    0  0.39721631937E+02  0.15649878265E+03  0.58047159485E+02  0.21228203111E+03  0.12499804395E+03 0.  0.
          2    1    1    2  501    0  0.58417934808E+02 -0.14020119551E+03 -0.91752122707E+02  0.17744712551E+03  0.00000000000E+00 0. -1.
          1    1    1    2  502    0 -0.98139566745E+02 -0.16297587140E+02  0.26698712281E+03  0.28491947925E+03  0.00000000000E+00 0. -1.
         22    1    3    3    0    0  0.32152260490E+02  0.20332131272E+02  0.65452066407E+02  0.75704269454E+02  0.00000000000E+00 0.  1.
         22    1    3    3    0    0  0.75693714469E+01  0.13616665138E+03 -0.74049069219E+01  0.13657776165E+03  0.00000000000E+00 0.  1.
</event>
<event>
 7    1  0.6017574E-006  0.1425297E+03  0.7818608E-02  0.1375972E+00
          2   -1    0    0  502    0  0.00000000000E+00  0.00000000000E+00  0.11474903372E+04  0.11474903372E+04  0.00000000000E+00 0. -1.
          1   -1    0    0  501    0 -0.00000000000E+00 -0.00000000000E+00 -0.75316512000E+03  0.75316512000E+03  0.00000000000E+00 0. -1.
         25    2    1    2    0    0  0.10396350163E+03  0.63169453057E+02  0.13795401360E+03  0.22238910733E+03  0.12500726266E+03 0.  0.
          2    1    1    2  501    0  0.29581227135E+02 -0.57377645772E+01 -0.70516235981E+03  0.70580586895E+03  0.00000000000E+00 0. -1.
          1    1    1    2  502    0 -0.13354472876E+03 -0.57431688480E+02  0.96153356337E+03  0.97246048090E+03  0.00000000000E+00 0. -1.
         22    1    3    3    0    0  0.91654342650E+02  0.12513338612E+02  0.21749248802E+02  0.95027006652E+02  0.00000000000E+00 0.  1.
         22    1    3    3    0    0  0.12309158978E+02  0.50656114445E+02  0.11620476480E+03  0.12736210067E+03  0.00000000000E+00 0.  1.
</event>
<event>
 7    1  0.6017574E-006  0.9047795E+02  0.7818608E-02  0.1406907E+00
          2   -1    0    0  502    0  0.00000000000E+00  0.00000000000E+00  0.11239200056E+03  0.11239200056E+03  0.00000000000E+00 0. -1.
          1   -1    0    0  501    0 -0.00000000000E+00 -0.00000000000E+00 -0.65909713468E+03  0.65909713468E+03  0.00000000000E+00 0. -1.
         25    2    1    2    0    0 -0.83505949518E+02  0.85310542675E+02 -0.13959283526E+03  0.22217603594E+03  0.12499959598E+03 0.  0.
          2    1    1    2  501    0  0.34145304769E+02 -0.14352421953E+02 -0.45089867699E+03  0.45241740767E+03  0.00000000000E+00 0. -1.
          1    1    1    2  502    0  0.49360644749E+02 -0.70958120723E+02  0.43786378120E+02  0.96895691625E+02  0.00000000000E+00 0. -1.
         22    1    3    3    0    0 -0.83941913993E+02  0.81720941532E+02 -0.16175384025E+03  0.19972196185E+03  0.00000000000E+00 0.  1.
         22    1    3    3    0    0  0.43596447443E+00  0.35896011431E+01  0.22161004989E+02  0.22454074096E+02  0.00000000000E+00 0.  1.
</event>
<event>
 7    1  0.6017574E-006  0.5862214E+02  0.7818608E-02  0.1483042E+00
          2   -1    0    0  502    0  0.00000000000E+00  0.00000000000E+00  0.19698973184E+03  0.19698973184E+03  0.00000000000E+00 0. -1.
          1   -1    0    0  501    0 -0.00000000000E+00 -0.00000000000E+00 -0.11260243258E+04  0.11260243258E+04  0.00000000000E+00 0. -1.
         25    2    1    2    0    0  0.51336535055E+02 -0.70383672082E+02 -0.49533032454E+03  0.51823375839E+03  0.12499918720E+03 0.  0.
          2    1    1    2  501    0 -0.77512652951E+01  0.31542242845E+02 -0.61421002783E+03  0.61506825108E+03  0.00000000000E+00 0. -1.
          1    1    1    2  502    0 -0.43585269760E+02  0.38841429237E+02  0.18050575846E+03  0.18971204813E+03  0.00000000000E+00 0. -1.
         22    1    3    3    0    0 -0.15378586665E+02 -0.80139288802E+02 -0.32389383531E+03  0.33401500429E+03  0.00000000000E+00 0.  1.
         22    1    3    3    0    0  0.66715121721E+02  0.97556167198E+01 -0.17143648923E+03  0.18421875410E+03  0.00000000000E+00 0.  1.
</event>
<event>
 7    1  0.6017574E-006  0.5745267E+02  0.7818608E-02  0.1467667E+00
          2   -1    0    0  502    0  0.00000000000E+00  0.00000000000E+00  0.18079376877E+04  0.18079376877E+04  0.00000000000E+00 0. -1.
          1   -1    0    0  501    0 -0.00000000000E+00 -0.00000000000E+00 -0.28567745816E+03  0.28567745816E+03  0.00000000000E+00 0. -1.
         25    2    1    2    0    0  0.68254677627E+02  0.55102181735E+02  0.69498309304E+02  0.16777733514E+03  0.12499707092E+03 0.  0.
          2    1    1    2  501    0 -0.52354152308E+02 -0.21726306091E+02 -0.23293650556E+03  0.23973403025E+03  0.00000000000E+00 0. -1.
          1    1    1    2  502    0 -0.15900525319E+02 -0.33375875644E+02  0.16856984258E+04  0.16861037805E+04  0.00000000000E+00 0. -1.
         22    1    3    3    0    0 -0.25676938271E+02 -0.18177585336E+02  0.36913371925E+01  0.31675791038E+02  0.00000000000E+00 0. -1.
         22    1    3    3    0    0  0.93931615898E+02  0.73279767070E+02  0.65806972112E+02  0.13610154410E+03  0.00000000000E+00 0. -1.
</event>
<event>
 7    1  0.6017574E-006  0.2272250E+03  0.7818608E-02  0.1156782E+00
          2   -1    0    0  502    0  0.00000000000E+00  0.00000000000E+00  0.12869782397E+04  0.12869782397E+04  0.00000000000E+00 0. -1.
          1   -1    0    0  501    0 -0.00000000000E+00 -0.00000000000E+00 -0.19572938457E+03  0.19572938457E+03  0.00000000000E+00 0. -1.
         25    2    1    2    0    0  0.14913082362E+03  0.32330735876E+01  0.59962828675E+03  0.63041978313E+03  0.12499826150E+03 0.  0.
          2    1    1    2  501    0 -0.18110805916E+03 -0.16206869675E+03 -0.81787642088E+02  0.25642856697E+03  0.00000000000E+00 0. -1.
          1    1    1    2  502    0  0.31977235534E+02  0.15883562316E+03  0.57340821043E+03  0.59585927413E+03  0.00000000000E+00 0. -1.
         22    1    3    3    0    0  0.76979101462E+02 -0.60153963520E+02  0.33228612416E+03  0.34635003927E+03  0.00000000000E+00 0.  1.
         22    1    3    3    0    0  0.72151722162E+02  0.63387037108E+02  0.26734216258E+03  0.28406974386E+03  0.00000000000E+00 0.  1.
</event>
<event>
 7    1  0.6017574E-006  0.1256335E+03  0.7818608E-02  0.1257458E+00
          2   -1    0    0  502    0  0.00000000000E+00  0.00000000000E+00  0.26201505478E+04  0.26201505478E+04  0.00000000000E+00 0. -1.
          1   -1    0    0  501    0 -0.00000000000E+00 -0.00000000000E+00 -0.51077946287E+02  0.51077946287E+02  0.00000000000E+00 0. -1.
         25    2    1    2    0    0  0.47628340979E+02  0.70550656401E+02  0.20763207174E+03  0.25685493182E+03  0.12497009563E+03 0.  0.
          2    1    1    2  501    0 -0.13778970622E+03  0.16940565496E+02  0.17066619768E+03  0.21999985666E+03  0.00000000000E+00 0. -1.
          1    1    1    2  502    0  0.90161365242E+02 -0.87491221897E+02  0.21907743321E+04  0.21943737056E+04  0.00000000000E+00 0. -1.
         22    1    3    3    0    0  0.72375834700E+02  0.17255312584E+02  0.52765100805E+02  0.91214928185E+02  0.00000000000E+00 0.  1.
         22    1    3    3    0    0 -0.24747493720E+02  0.53295343817E+02  0.15486697093E+03  0.16564000363E+03  0.00000000000E+00 0.  1.
</event>
<event>
 7    1  0.6017574E-006  0.9216745E+02  0.7818608E-02  0.1388906E+00
          2   -1    0    0  502    0  0.00000000000E+00  0.00000000000E+00  0.22367554568E+04  0.22367554568E+04  0.00000000000E+00 0. -1.
          1   -1    0    0  501    0 -0.00000000000E+00 -0.00000000000E+00 -0.15310903864E+04  0.15310903864E+04  0.00000000000E+00 0. -1.
         25    2    1    2    0    0  0.37015940871E+01 -0.59681997365E+02  0.16711765130E+03  0.21709283846E+03  0.12500139409E+03 0.  0.
          2    1    1    2  501    0  0.32231125632E+02 -0.26848361718E+02 -0.15047369695E+04  0.15053215695E+04  0.00000000000E+00 0. -1.
          1    1    1    2  502    0 -0.35932719719E+02  0.86530359083E+02  0.20432843886E+04  0.20454314352E+04  0.00000000000E+00 0. -1.
         22    1    3    3    0    0  0.58038531729E+02 -0.58800826090E+01  0.48006378523E+02  0.75549049733E+02  0.00000000000E+00 0.  1.
         22    1    3    3    0    0 -0.54336937642E+02 -0.53801914756E+02  0.11911127278E+03  0.14154378872E+03  0.00000000000E+00 0.  1.
</event>
<event>
 7    1  0.6017574E-006  0.5261610E+02  0.7818608E-02  0.1501139E+00
          2   -1    0    0  502    0  0.00000000000E+00  0.00000000000E+00  0.11078856730E+04  0.11078856730E+04  0.00000000000E+00 0. -1.
          1   -1    0    0  501    0 -0.00000000000E+00 -0.00000000000E+00 -0.19444893638E+04  0.19444893638E+04  0.00000000000E+00 0. -1.
         25    2    1    2    0    0 -0.62223872387E+02 -0.10694973777E+02  0.58765501211E+03  0.60411126484E+03  0.12500325715E+03 0.  0.
          2    1    1    2  501    0  0.22328746351E+02 -0.22800931028E+02 -0.19348043173E+04  0.19350674927E+04  0.00000000000E+00 0. -1.
          1    1    1    2  502    0  0.39895126036E+02  0.33495904804E+02  0.51054561433E+03  0.51319627925E+03  0.00000000000E+00 0. -1.
         22    1    3    3    0    0 -0.94588392690E+02  0.63874613006E+01  0.31339774047E+03  0.32742313209E+03  0.00000000000E+00 0.  1.
         22    1    3    3    0    0  0.32364520303E+02 -0.17082435077E+02  0.27425727164E+03  0.27668813276E+03  0.00000000000E+00 0.  1.
</event>
<event>
 7    1  0.6017574E-006  0.4884752E+02  0.7818608E-02  0.1537366E+00
          2   -1    0    0  502    0  0.00000000000E+00  0.00000000000E+00  0.17012156661E+04  0.17012156661E+04  0.00000000000E+00 0. -1.
          1   -1    0    0  501    0 -0.00000000000E+00 -0.00000000000E+00 -0.54153171967E+03  0.54153171967E+03  0.00000000000E+00 0. -1.
         25    2    1    2    0    0 -0.29543147375E+02 -0.52978084266E+01  0.60827512099E+02  0.14221923356E+03  0.12500183933E+03 0.  0.
          2    1    1    2  501    0  0.46561648780E+02 -0.15628224413E+02 -0.49951770015E+03  0.50192645009E+03  0.00000000000E+00 0. -1.
          1    1    1    2  502    0 -0.17018501405E+02  0.20926032840E+02  0.15983741345E+04  0.15986017021E+04  0.00000000000E+00 0. -1.
         22    1    3    3    0    0 -0.21191374716E+02  0.28320710980E+02 -0.29130116496E+02  0.45822491419E+02  0.00000000000E+00 0.  1.
         22    1    3    3    0    0 -0.83517726584E+01 -0.33618519406E+02  0.89957628594E+02  0.96396742144E+02  0.00000000000E+00 0.  1.
</event>
<event>
 7    1  0.6017574E-006  0.1241779E+03  0.7818608E-02  0.1347851E+00
          2   -1    0    0  502    0  0.00000000000E+00  0.00000000000E+00  0.14269796975E+04  0.14269796975E+04  0.00000000000E+00 0. -1.
          1   -1    0    0  501    0 -0.00000000000E+00 -0.00000000000E+00 -0.99063895007E+02  0.99063895007E+02  0.00000000000E+00 0. -1.
         25    2    1    2    0    0  0.16081803348E+03 -0.94559643261E+01  0.33804735950E+03  0.39477977884E+03  0.12499280526E+03 0.  0.
          2    1    1    2  501    0 -0.11910069050E+03 -0.38109218724E+01 -0.19672151328E+02  0.12077454674E+03  0.00000000000E+00 0. -1.
          1    1    1    2  502    0 -0.41717342985E+02  0.13266886198E+02  0.10095405943E+04  0.10104892669E+04  0.00000000000E+00 0. -1.
         22    1    3    3    0    0  0.16619435835E+03 -0.34632077670E+02  0.32317012807E+03  0.36504640421E+03  0.00000000000E+00 0. -1.
         22    1    3    3    0    0 -0.53763248639E+01  0.25176113344E+02  0.14877231427E+02  0.29733374633E+02  0.00000000000E+00 0. -1.
</event>
<event>
 7    1  0.6017574E-006  0.1082189E+03  0.7818608E-02  0.1434332E+00
          2   -1    0    0  502    0  0.00000000000E+00  0.00000000000E+00  0.49961611433E+03  0.49961611433E+03  0.00000000000E+00 0. -1.
          1   -1    0    0  501    0 -0.00000000000E+00 -0.00000000000E+00 -0.11581519165E+04  0.11581519165E+04  0.00000000000E+00 0. -1.
         25    2    1    2    0    0  0.10037460373E+03  0.58285160948E+02 -0.15655764950E+03  0.23152957966E+03  0.12499371017E+03 0.  0.
          2    1    1    2  501    0 -0.79727132670E+02 -0.72527065863E+02 -0.96075238108E+03  0.96677904855E+03  0.00000000000E+00 0. -1.
          1    1    1    2  502    0 -0.20647471058E+02  0.14241904915E+02  0.45877422845E+03  0.45945940257E+03  0.00000000000E+00 0. -1.
         22    1    3    3    0    0  0.93224076483E+02  0.86897521263E+02 -0.15677000962E+03  0.20203649065E+03  0.00000000000E+00 0. -1.
         22    1    3    3    0    0  0.71505272451E+01 -0.28612360315E+02  0.21236012306E+00  0.29493089012E+02  0.00000000000E+00 0. -1.
</event>
<event>
 7    1  0.6017574E-006  0.5637366E+02  0.7818608E-02  0.1519094E+00
          2   -1    0    0  502    0  0.00000000000E+00  0.00000000000E+00  0.35624489485E+03  0.35624489485E+03  0.00000000000E+00 0. -1.
          1   -1    0    0  501    0 -0.00000000000E+00 -0.00000000000E+00 -0.21432195026E+04  0.21432195026E+04  0.00000000000E+00 0. -1.
         25    2    1    2    0    0 -0.71528760497E+02 -0.20576067420E+02 -0.12210864306E+04  0.12297220753E+04  0.12499829355E+03 0.  0.
          2    1    1    2  501    0  0.53444542059E+02  0.13791950239E+01 -0.91654108670E+03  0.91809900603E+03  0.00000000000E+00 0. -1.
          1    1    1    2  502    0  0.18084218439E+02  0.19196872397E+02  0.35065290949E+03  0.35164331616E+03  0.00000000000E+00 0. -1.
         22    1    3    3    0    0 -0.68640894848E+01 -0.44752442441E+02 -0.90739293503E+03  0.90852178586E+03  0.00000000000E+00 0. -1.
         22    1    3    3    0    0 -0.64664671013E+02  0.24176375020E+02 -0.31369349556E+03  0.32120028945E+03  0.00000000000E+00 0. -1.
</event>
<event>
 7    1  0.6017574E-006  0.2454254E+03  0.7818608E-02  0.1261266E+00
          2   -1    0    0  502    0  0.00000000000E+00  0.00000000000E+00  0.30829056032E+04  0.30829056032E+04  0.00000000000E+00 0. -1.
          1   -1    0    0  501    0 -0.00000000000E+00 -0.00000000000E+00 -0.19841329672E+03  0.19841329672E+03  0.00000000000E+00 0. -1.
         25    2    1    2    0    0  0.68028046170E+02  0.23317306235E+03  0.29652334909E+03  0.40317290553E+03  0.12499921253E+03 0.  0.
          2    1    1    2  501    0 -0.47444850667E+02  0.12111827111E+02 -0.13524180405E+03  0.14383343066E+03  0.00000000000E+00 0. -1.
          1    1    1    2  502    0 -0.20583195502E+02 -0.24528488946E+03  0.27232107615E+04  0.27343125638E+04  0.00000000000E+00 0. -1.
         22    1    3    3    0    0 -0.24562166997E+02  0.92818940782E+02  0.60871813843E+02  0.11368391943E+03  0.00000000000E+00 0. -1.
         22    1    3    3    0    0  0.92590213166E+02  0.14035412157E+03  0.23565153524E+03  0.28948898611E+03  0.00000000000E+00 0. -1.
</event>
<event>
 7    1  0.6017574E-006  0.1132102E+03  0.7818608E-02  0.1319547E+00
          2   -1    0    0  502    0  0.00000000000E+00  0.00000000000E+00  0.20815330683E+04  0.20815330683E+04  0.00000000000E+00 0. -1.
          1   -1    0    0  501    0 -0.00000000000E+00 -0.00000000000E+00 -0.24485241839E+04  0.24485241839E+04  0.00000000000E+00 0. -1.
         25    2    1    2    0    0  0.33870769126E+02  0.67223195272E+02  0.12459062028E+03  0.19187386382E+03  0.12500627973E+03 0.  0.
          2    1    1    2  501    0  0.61480625104E+02 -0.18009992291E+01 -0.24127521289E+04  0.24135359840E+04  0.00000000000E+00 0. -1.
          1    1    1    2  502    0 -0.95351394230E+02 -0.65422196043E+02  0.19211703930E+04  0.19246474043E+04  0.00000000000E+00 0. -1.
         22    1    3    3    0    0 -0.32852785235E+02  0.18443649093E+02  0.98089821940E+02  0.10507657616E+03  0.00000000000E+00 0.  1.
         22    1    3    3    0    0  0.66723554361E+02  0.48779546179E+02  0.26500798337E+02  0.86797287656E+02  0.00000000000E+00 0.  1.
</event>
<event>
 7    1  0.6017574E-006  0.4783206E+02  0.7818608E-02  0.1530462E+00
          2   -1    0    0  502    0  0.00000000000E+00  0.00000000000E+00  0.19142816846E+04  0.19142816846E+04  0.00000000000E+00 0. -1.
          1   -1    0    0  501    0 -0.00000000000E+00 -0.00000000000E+00 -0.45134864123E+03  0.45134864123E+03  0.00000000000E+00 0. -1.
         25    2    1    2    0    0  0.24959502078E+02  0.40579739921E+02  0.62909114235E+03  0.64315426455E+03  0.12498820182E+03 0.  0.
          2    1    1    2  501    0  0.29541258363E+01 -0.47758725171E+02 -0.44286568099E+03  0.44544318840E+03  0.00000000000E+00 0. -1.
          1    1    1    2  502    0 -0.27913627915E+02  0.71789852500E+01  0.12767075820E+04  0.12770328729E+04  0.00000000000E+00 0. -1.
         22    1    3    3    0    0 -0.10436283991E+02  0.19910558430E+02  0.57424079639E+03  0.57468064053E+03  0.00000000000E+00 0.  1.
         22    1    3    3    0    0  0.35395786069E+02  0.20669181491E+02  0.54850345958E+02  0.68473624021E+02  0.00000000000E+00 0.  1.
</event>
<event>
 7    1  0.6017574E-006  0.6812106E+02  0.7818608E-02  0.1488399E+00
          2   -1    0    0  502    0  0.00000000000E+00  0.00000000000E+00  0.44317177319E+03  0.44317177319E+03  0.00000000000E+00 0. -1.
          1   -1    0    0  501    0 -0.00000000000E+00 -0.00000000000E+00 -0.28652922465E+03  0.28652922465E+03  0.00000000000E+00 0. -1.
         25    2    1    2    0    0  0.51792176551E+02  0.41811178105E+02 -0.93707938553E+02  0.16981491907E+03  0.12500129930E+03 0.  0.
          2    1    1    2  501    0  0.13856927107E+02 -0.23081639711E+02 -0.15069024442E+03  0.15307621071E+03  0.00000000000E+00 0. -1.
          1    1    1    2  502    0 -0.65649103658E+02 -0.18729538394E+02  0.40104073151E+03  0.40680986806E+03  0.00000000000E+00 0. -1.
         22    1    3    3    0    0  0.57238894141E+02  0.40395111230E+02  0.56618125514E+01  0.70285931274E+02  0.00000000000E+00 0. -1.
         22    1    3    3    0    0 -0.54467175894E+01  0.14160668743E+01 -0.99369751104E+02  0.99528987800E+02  0.00000000000E+00 0. -1.
</event>
<event>
 7    1  0.6017574E-006  0.9972057E+02  0.7818608E-02  0.1390573E+00
          2   -1    0    0  502    0  0.00000000000E+00  0.00000000000E+00  0.25446408719E+04  0.25446408719E+04  0.00000000000E+00 0. -1.
          1   -1    0    0  501    0 -0.00000000000E+00 -0.00000000000E+00 -0.87359821500E+02  0.87359821500E+02  0.00000000000E+00 0. -1.
         25    2    1    2    0    0 -0.37900725318E+02 -0.59925606835E+02  0.10267867664E+03  0.17662320671E+03  0.12500121270E+03 0.  0.
          2    1    1    2  501    0 -0.37703109117E+02 -0.64768269676E+01 -0.41915292515E+02  0.56748264037E+02  0.00000000000E+00 0. -1.
          1    1    1    2  502    0  0.75603834434E+02  0.66402433802E+02  0.23965176662E+04  0.23986292226E+04  0.00000000000E+00 0. -1.
         22    1    3    3    0    0 -0.37523305356E+02 -0.77976309094E+02  0.12239060418E+03  0.14989250553E+03  0.00000000000E+00 0.  1.
         22    1    3    3    0    0 -0.37741996194E+00  0.18050702260E+02 -0.19711927538E+02  0.26730701173E+02  0.00000000000E+00 0.  1.
</event>
<event>
 7    1  0.6017574E-006  0.5986077E+02  0.7818608E-02  0.1435189E+00
          2   -1    0    0  502    0  0.00000000000E+00  0.00000000000E+00  0.12920252332E+04  0.12920252332E+04  0.00000000000E+00 0. -1.
          1   -1    0    0  501    0 -0.00000000000E+00 -0.00000000000E+00 -0.94317629087E+03  0.94317629087E+03  0.00000000000E+00 0. -1.
         25    2    1    2    0    0  0.82299904622E+02  0.45303240773E+02  0.13924626397E+03  0.20938122253E+03  0.12500126556E+03 0.  0.
          2    1    1    2  501    0 -0.37265926344E+02 -0.46651918761E+02 -0.90667241869E+03  0.90863635499E+03  0.00000000000E+00 0. -1.
          1    1    1    2  502    0 -0.45033978278E+02  0.13486779879E+01  0.11162750971E+04  0.11171839466E+04  0.00000000000E+00 0. -1.
         22    1    3    3    0    0 -0.19677405306E+02  0.32296430898E+02  0.85245221126E+02  0.93257747416E+02  0.00000000000E+00 0. -1.
         22    1    3    3    0    0  0.10197730993E+03  0.13006809875E+02  0.54001042849E+02  0.11612347511E+03  0.00000000000E+00 0. -1.
</event>
<event>
 7    1  0.6017574E-006  0.1065769E+03  0.7818608E-02  0.1371970E+00
          2   -1    0    0  502    0  0.00000000000E+00  0.00000000000E+00  0.12766692500E+03  0.12766692500E+03  0.00000000000E+00 0. -1.
          1   -1    0    0  501    0 -0.00000000000E+00 -0.00000000000E+00 -0.55158321478E+03  0.55158321478E+03  0.00000000000E+00 0. -1.
         25    2    1    2    0    0  0.70580590079E+02  0.14818626579E+02 -0.71925794237E+02  0.16124276013E+03  0.12499878571E+03 0.  0.
          2    1    1    2  501    0 -0.10634704159E+03 -0.36153755230E+02 -0.42192014259E+03  0.43661584258E+03  0.00000000000E+00 0. -1.
          1    1    1    2  502    0  0.35766451506E+02  0.21335128651E+02  0.69929647055E+02  0.81391537061E+02  0.00000000000E+00 0. -1.
         22    1    3    3    0    0  0.32370877741E+02 -0.30085048804E+02 -0.89417895579E+02  0.99742387865E+02  0.00000000000E+00 0. -1.
         22    1    3    3    0    0  0.38209712339E+02  0.44903675383E+02  0.17492101341E+02  0.61500372269E+02  0.00000000000E+00 0. -1.
</event>
<event>
 7    1  0.6017574E-006  0.7568109E+02  0.7818608E-02  0.1473738E+00
          2   -1    0    0  502    0  0.00000000000E+00  0.00000000000E+00  0.17267347485E+04  0.17267347485E+04  0.00000000000E+00 0. -1.
          1   -1    0    0  501    0 -0.00000000000E+00 -0.00000000000E+00 -0.18567614766E+04  0.18567614766E+04  0.00000000000E+00 0. -1.
         25    2    1    2    0    0 -0.32285736049E+02  0.97058303628E+02  0.33674716542E+00  0.16151504030E+03  0.12499724713E+03 0.  0.
          2    1    1    2  501    0  0.24130020109E+02 -0.71453468581E+02 -0.17752619582E+04  0.17768632126E+04  0.00000000000E+00 0. -1.
          1    1    1    2  502    0  0.81557159404E+01 -0.25604835046E+02  0.16448984830E+04  0.16451179722E+04  0.00000000000E+00 0. -1.
         22    1    3    3    0    0 -0.16234156857E+02  0.12940007652E+02  0.55766386321E+02  0.59505306404E+02  0.00000000000E+00 0. -1.
         22    1    3    3    0    0 -0.16051579192E+02  0.84118295976E+02 -0.55429639156E+02  0.10200973390E+03  0.00000000000E+00 0. -1.
</event>
<event>
 7    1  0.6017574E-006  0.2668103E+02  0.7818608E-02  0.1667198E+00
          2   -1    0    0  502    0  0.00000000000E+00  0.00000000000E+00  0.78856495312E+03  0.78856495312E+03  0.00000000000E+00 0. -1.
          1   -1    0    0  501    0 -0.00000000000E+00 -0.00000000000E+00 -0.11006918798E+03  0.11006918798E+03  0.00000000000E+00 0. -1.
         25    2    1    2    0    0  0.41888759920E+02  0.25556908191E+02  0.66399658327E+03  0.67744056050E+03  0.12500570650E+03 0.  0.
          2    1    1    2  501    0 -0.23767916096E+02 -0.11995904642E+02 -0.10051111216E+03  0.10397739770E+03  0.00000000000E+00 0. -1.
          1    1    1    2  502    0 -0.18120843824E+02 -0.13561003550E+02  0.11501029404E+03  0.11721618290E+03  0.00000000000E+00 0. -1.
         22    1    3    3    0    0 -0.23429506632E+02  0.55974119818E+02  0.35547597015E+03  0.36061781601E+03  0.00000000000E+00 0. -1.
         22    1    3    3    0    0  0.65318266552E+02 -0.30417211627E+02  0.30852061312E+03  0.31682274449E+03  0.00000000000E+00 0. -1.
</event>
<event>
 7    1  0.6017574E-006  0.1010378E+03  0.7818608E-02  0.1305981E+00
          2   -1    0    0  502    0  0.00000000000E+00  0.00000000000E+00  0.16910299162E+04  0.16910299162E+04  0.00000000000E+00 0. -1.
          1   -1    0    0  501    0 -0.00000000000E+00 -0.00000000000E+00 -0.22691772258E+03  0.22691772258E+03  0.00000000000E+00 0. -1.
         25    2    1    2    0    0  0.66783380149E+02 -0.93135021164E+02 -0.42638663510E+01  0.16963879863E+03  0.12499995765E+03 0.  0.
          2    1    1    2  501    0 -0.77531756144E+02 -0.76079771211E+01 -0.12739383485E+03  0.14932596453E+03  0.00000000000E+00 0. -1.
          1    1    1    2  502    0  0.10748375995E+02  0.10074299829E+03  0.15957698948E+04  0.15989828756E+04  0.00000000000E+00 0. -1.
         22    1    3    3    0    0  0.40124784442E+02 -0.62801712098E+02  0.58679794862E+02  0.94854476404E+02  0.00000000000E+00 0.  1.
         22    1    3    3    0    0  0.26658595707E+02 -0.30333309067E+02 -0.62943661213E+02  0.74784322227E+02  0.00000000000E+00 0.  1.
</event>
<event>
 7    1  0.6017574E-006  0.7119554E+02  0.7818608E-02  0.1363415E+00
          2   -1    0    0  502    0  0.00000000000E+00  0.00000000000E+00  0.56503260241E+03  0.56503260241E+03  0.00000000000E+00 0. -1.
          1   -1    0    0  501    0 -0.00000000000E+00 -0.00000000000E+00 -0.12616922126E+03  0.12616922126E+03  0.00000000000E+00 0. -1.
         25    2    1    2    0    0 -0.11415301473E+03  0.71078258668E+02  0.20393628040E+03  0.27440583017E+03  0.12500209414E+03 0.  0.
          2    1    1    2  501    0  0.59319905515E+02 -0.32690729390E+02 -0.74223573625E+02  0.10048220668E+03  0.00000000000E+00 0. -1.
          1    1    1    2  502    0  0.54833109219E+02 -0.38387529279E+02  0.30915067437E+03  0.31631378682E+03  0.00000000000E+00 0. -1.
         22    1    3    3    0    0 -0.62094391687E+01  0.12067440525E+02  0.13035397350E+03  0.13105853144E+03  0.00000000000E+00 0.  1.
         22    1    3    3    0    0 -0.10794357556E+03  0.59010818143E+02  0.73582306895E+02  0.14334729873E+03  0.00000000000E+00 0.  1.
</event>
<event>
 7    1  0.6017574E-006  0.7808332E+02  0.7818608E-02  0.1465561E+00
          2   -1    0    0  502    0  0.00000000000E+00  0.00000000000E+00  0.37384368422E+03  0.37384368422E+03  0.00000000000E+00 0. -1.
          1   -1    0    0  501    0 -0.00000000000E+00 -0.00000000000E+00 -0.17180395502E+03  0.17180395502E+03  0.00000000000E+00 0. -1.
         25    2    1    2    0    0  0.42622443671E+02 -0.76555713380E+02  0.38693390076E+02  0.15747795962E+03  0.12499871749E+03 0.  0.
          2    1    1    2  501    0 -0.15015128279E+02  0.75813002734E+02 -0.98314619722E+02  0.12505530741E+03  0.00000000000E+00 0. -1.
          1    1    1    2  502    0 -0.27607315391E+02  0.74271064575E+00  0.26166095884E+03  0.26311437221E+03  0.00000000000E+00 0. -1.
         22    1    3    3    0    0 -0.11857166703E+02  0.27245924078E+02  0.26144272430E+02  0.39578475994E+02  0.00000000000E+00 0.  1.
         22    1    3    3    0    0  0.54479610374E+02 -0.10380163746E+03  0.12549117646E+02  0.11789948363E+03  0.00000000000E+00 0.  1.
</event>
<event>
 7    1  0.6017574E-006  0.9881243E+02  0.7818608E-02  0.1395525E+00
          2   -1    0    0  502    0  0.00000000000E+00  0.00000000000E+00  0.22179735395E+04  0.22179735395E+04  0.00000000000E+00 0. -1.
          1   -1    0    0  501    0 -0.00000000000E+00 -0.00000000000E+00 -0.39448967794E+03  0.39448967794E+03  0.00000000000E+00 0. -1.
         25    2    1    2    0    0  0.86314923979E+02  0.73071529176E+01  0.85899467889E+03  0.87235171203E+03  0.12498796157E+03 0.  0.
          2    1    1    2  501    0  0.13764269423E+02 -0.34460261878E+02 -0.38492968652E+03  0.38671414291E+03  0.00000000000E+00 0. -1.
          1    1    1    2  502    0 -0.10007919340E+03  0.27153108960E+02  0.13494188692E+04  0.13533973625E+04  0.00000000000E+00 0. -1.
         22    1    3    3    0    0  0.88380715658E+02  0.50582022713E+02  0.70725420741E+03  0.71454755323E+03  0.00000000000E+00 0.  1.
         22    1    3    3    0    0 -0.20657916787E+01 -0.43274869796E+02  0.15174047148E+03  0.15780415880E+03  0.00000000000E+00 0.  1.
</event>
<event>
 7    1  0.6017574E-006  0.1350604E+03  0.7818608E-02  0.1323667E+00
          2   -1    0    0  502    0  0.00000000000E+00  0.00000000000E+00  0.27188511254E+04  0.27188511254E+04  0.00000000000E+00 0. -1.
          1   -1    0    0  501    0 -0.00000000000E+00 -0.00000000000E+00 -0.41001508539E+03  0.41001508539E+03  0.00000000000E+00 0. -1.
         25    2    1    2    0    0 -0.29145299497E+02  0.11398690729E+03  0.17833433035E+04  0.17915862843E+04  0.12500244955E+03 0.  0.
          2    1    1    2  501    0 -0.34412167848E+01  0.49578731753E+02 -0.39686514444E+03  0.39996479281E+03  0.00000000000E+00 0. -1.
          1    1    1    2  502    0  0.32586516281E+02 -0.16356563905E+03  0.92235788097E+03  0.93731513372E+03  0.00000000000E+00 0. -1.
         22    1    3    3    0    0  0.47792935375E+02  0.36157629107E+02  0.77770306958E+03  0.78000871999E+03  0.00000000000E+00 0. -1.
         22    1    3    3    0    0 -0.76938234872E+02  0.77829278187E+02  0.10056402339E+04  0.10115775643E+04  0.00000000000E+00 0. -1.
</event>
<event>
 7    1  0.6017574E-006  0.5745551E+02  0.7818608E-02  0.1448051E+00
          2   -1    0    0  502    0  0.00000000000E+00  0.00000000000E+00  0.35857694907E+04  0.35857694907E+04  0.00000000000E+00 0. -1.
          1   -1    0    0  501    0 -0.00000000000E+00 -0.00000000000E+00 -0.21837916377E+02  0.21837916377E+02  0.00000000000E+00 0. -1.
         25    2    1    2    0    0 -0.72719747863E+02  0.33634172481E+01  0.52055414461E+03  0.54027884376E+03  0.12500054897E+03 0.  0.
          2    1    1    2  501    0  0.27785758936E+02  0.32354163174E+02  0.27153301594E+02  0.50558303589E+02  0.00000000000E+00 0. -1.
          1    1    1    2  502    0  0.44933988927E+02 -0.35717580423E+02  0.30162241281E+04  0.30167702597E+04  0.00000000000E+00 0. -1.
         22    1    3    3    0    0 -0.66463823981E+02  0.53051166411E+02  0.22545068200E+03  0.24095617064E+03  0.00000000000E+00 0. -1.
         22    1    3    3    0    0 -0.62559238822E+01 -0.49687749162E+02  0.29510346261E+03  0.29932267312E+03  0.00000000000E+00 0. -1.
</event>
<event>
 7    1  0.6017574E-006  0.6924248E+02  0.7818608E-02  0.1468133E+00
          2   -1    0    0  502    0  0.00000000000E+00  0.00000000000E+00  0.14505152086E+04  0.14505152086E+04  0.00000000000E+00 0. -1.
          1   -1    0    0  501    0 -0.00000000000E+00 -0.00000000000E+00 -0.15904848989E+02  0.15904848989E+02  0.00000000000E+00 0. -1.
         25    2    1    2    0    0 -0.40358651289E+02 -0.51924267706E+02  0.40563426153E+03  0.42952185925E+03  0.12499969254E+03 0.  0.
          2    1    1    2  501    0  0.18393241616E+02  0.73189450726E+02  0.39254125195E+03  0.39972946041E+03  0.00000000000E+00 0. -1.
          1    1    1    2  502    0  0.21965409673E+02 -0.21265183020E+02  0.63643484617E+03  0.63716873798E+03  0.00000000000E+00 0. -1.
         22    1    3    3    0    0 -0.36115042467E+02  0.35699442914E+02  0.19139738113E+03  0.19801945364E+03  0.00000000000E+00 0.  1.
         22    1    3    3    0    0 -0.42436088217E+01 -0.87623710620E+02  0.21423688040E+03  0.23150240561E+03  0.00000000000E+00 0.  1.
</event>
<event>
 7    1  0.6017574E-006  0.6429848E+02  0.7818608E-02  0.1475148E+00
          2   -1    0    0  502    0  0.00000000000E+00  0.00000000000E+00  0.15994454367E+03  0.15994454367E+03  0.00000000000E+00 0. -1.
          1   -1    0    0  501    0 -0.00000000000E+00 -0.00000000000E+00 -0.71554938645E+03  0.71554938645E+03  0.00000000000E+00 0. -1.
         25    2    1    2    0    0 -0.19711897795E+02  0.60848876301E+02 -0.39252417926E+03  0.41688372492E+03  0.12500265652E+03 0.  0.
          2    1    1    2  501    0 -0.11310310392E+02 -0.65109845267E+02 -0.30561419244E+03  0.31267754907E+03  0.00000000000E+00 0. -1.
          1    1    1    2  502    0  0.31022208188E+02  0.42609689664E+01  0.14253352892E+03  0.14593265613E+03  0.00000000000E+00 0. -1.
         22    1    3    3    0    0 -0.45688366248E+02  0.21560319517E+02 -0.34936990369E+03  0.35300368808E+03  0.00000000000E+00 0. -1.
         22    1    3    3    0    0  0.25976468453E+02  0.39288556784E+02 -0.43154275568E+02  0.63880036845E+02  0.00000000000E+00 0. -1.
</event>
<event>
 7    1  0.6017574E-006  0.7100927E+02  0.7818608E-02  0.1415718E+00
          2   -1    0    0  502    0  0.00000000000E+00  0.00000000000E+00  0.46452316014E+03  0.46452316014E+03  0.00000000000E+00 0. -1.
          1   -1    0    0  501    0 -0.00000000000E+00 -0.00000000000E+00 -0.23259783093E+04  0.23259783093E+04  0.00000000000E+00 0. -1.
         25    2    1    2    0    0  0.41007883401E+02 -0.31500281150E+02 -0.14667187443E+04  0.14729433491E+04  0.12499728261E+03 0.  0.
          2    1    1    2  501    0 -0.83960992474E+02  0.21666872627E+02 -0.85289192278E+03  0.85728847745E+03  0.00000000000E+00 0. -1.
          1    1    1    2  502    0  0.42953109073E+02  0.98334085230E+01  0.45815551793E+03  0.46026964284E+03  0.00000000000E+00 0. -1.
         22    1    3    3    0    0  0.17724975872E+02  0.45201329916E+02 -0.35001564186E+03  0.35336706771E+03  0.00000000000E+00 0.  1.
         22    1    3    3    0    0  0.23282907530E+02 -0.76701611067E+02 -0.11167031025E+04  0.11195762814E+04  0.00000000000E+00 0.  1.
</event>
<event>
 7    1  0.6017574E-006  0.4549697E+02  0.7818608E-02  0.1500244E+00
          2   -1    0    0  502    0  0.00000000000E+00  0.00000000000E+00  0.11676829060E+04  0.11676829060E+04  0.00000000000E+00 0. -1.
          1   -1    0    0  501    0 -0.00000000000E+00 -0.00000000000E+00 -0.23610071499E+03  0.23610071499E+03  0.00000000000E+00 0. -1.
         25    2    1    2    0    0  0.13369712482E+02 -0.70973052842E+02  0.74799392391E+03  0.76179779426E+03  0.12500018278E+03 0.  0.
          2    1    1    2  501    0 -0.27102090447E+02  0.36471186880E+02 -0.22609869714E+03  0.23061936525E+03  0.00000000000E+00 0. -1.
          1    1    1    2  502    0  0.13732377965E+02  0.34501865963E+02  0.40968696422E+03  0.41136646146E+03  0.00000000000E+00 0. -1.
         22    1    3    3    0    0 -0.21895021601E+01  0.21210277817E+02  0.42531234916E+03  0.42584652652E+03  0.00000000000E+00 0. -1.
         22    1    3    3    0    0  0.15559214642E+02 -0.92183330659E+02  0.32268157475E+03  0.33595126774E+03  0.00000000000E+00 0. -1.
</event>
<event>
 7    1  0.6017574E-006  0.8419447E+02  0.7818608E-02  0.1359613E+00
          2   -1    0    0  502    0  0.00000000000E+00  0.00000000000E+00  0.18423909571E+04  0.18423909571E+04  0.00000000000E+00 0. -1.
          1   -1    0    0  501    0 -0.00000000000E+00 -0.00000000000E+00 -0.12509624001E+03  0.12509624001E+03  0.00000000000E+00 0. -1.
         25    2    1    2    0    0  0.47461639583E+02 -0.45198445605E+02  0.23038464985E+03  0.27018102349E+03  0.12500076739E+03 0.  0.
          2    1    1    2  501    0 -0.41743071764E+02 -0.40890570080E+02 -0.95816939058E+02  0.11222926789E+03  0.00000000000E+00 0. -1.
          1    1    1    2  502    0 -0.57185678197E+01  0.86089015685E+02  0.15827270063E+04  0.15850769057E+04  0.00000000000E+00 0. -1.
         22    1    3    3    0    0  0.78627011172E+02 -0.16123887172E+02  0.20598325886E+03  0.22106851778E+03  0.00000000000E+00 0.  1.
         22    1    3    3    0    0 -0.31165371589E+02 -0.29074558433E+02  0.24401390993E+02  0.49112505707E+02  0.00000000000E+00 0.  1.
</event>
<event>
 7    1  0.6017574E-006  0.1396275E+03  0.7818608E-02  0.1298012E+00
          2   -1    0    0  502    0  0.00000000000E+00  0.00000000000E+00  0.72831762408E+02  0.72831762408E+02  0.00000000000E+00 0. -1.
          1   -1    0    0  501    0 -0.00000000000E+00 -0.00000000000E+00 -0.15100742833E+04  0.15100742833E+04  0.00000000000E+00 0. -1.
         25    2    1    2    0    0 -0.69091052516E+02  0.66683103274E+02 -0.50633631964E+03  0.53030279225E+03  0.12499749229E+03 0.  0.
          2    1    1    2  501    0 -0.60489399569E+02  0.44977027110E+01 -0.89939567647E+03  0.90143872762E+03  0.00000000000E+00 0. -1.
          1    1    1    2  502    0  0.12958045209E+03 -0.71180805985E+02 -0.31510524786E+02  0.15116452585E+03  0.00000000000E+00 0. -1.
         22    1    3    3    0    0 -0.10126463975E+03  0.33321703580E+02 -0.40627128113E+03  0.42002525765E+03  0.00000000000E+00 0. -1.
         22    1    3    3    0    0  0.32173587231E+02  0.33361399694E+02 -0.10006503851E+03  0.11027753460E+03  0.00000000000E+00 0. -1.
</event>
<event>
 7    1  0.6017574E-006  0.4868958E+02  0.7818608E-02  0.1481250E+00
          2   -1    0    0  502    0  0.00000000000E+00  0.00000000000E+00  0.13022257293E+04  0.13022257293E+04  0.00000000000E+00 0. -1.
          1   -1    0    0  501    0 -0.00000000000E+00 -0.00000000000E+00 -0.41524342325E+03  0.41524342325E+03  0.00000000000E+00 0. -1.
         25    2    1    2    0    0 -0.25559778001E+02  0.39911764357E+02 -0.25713868280E+03  0.28981402766E+03  0.12500246897E+03 0.  0.
          2    1    1    2  501    0 -0.12418433408E+02 -0.51139876954E+02 -0.13656650718E+03  0.14635544194E+03  0.00000000000E+00 0. -1.
          1    1    1    2  502    0  0.37978211409E+02  0.11228112597E+02  0.12806874960E+04  0.12812996830E+04  0.00000000000E+00 0. -1.
         22    1    3    3    0    0  0.16511532663E+02  0.26750434710E+02 -0.26630164463E+01  0.31548504317E+02  0.00000000000E+00 0. -1.
         22    1    3    3    0    0 -0.42071310664E+02  0.13161329647E+02 -0.25447566636E+03  0.25826552334E+03  0.00000000000E+00 0. -1.
</event>
<event>
 7    1  0.6017574E-006  0.1082265E+03  0.7818608E-02  0.1266787E+00
          2   -1    0    0  502    0  0.00000000000E+00  0.00000000000E+00  0.45276901359E+03  0.45276901359E+03  0.00000000000E+00 0. -1.
          1   -1    0    0  501    0 -0.00000000000E+00 -0.00000000000E+00 -0.99747221269E+03  0.99747221269E+03  0.00000000000E+00 0. -1.
         25    2    1    2    0    0 -0.10040090443E+03 -0.94662508414E+02  0.14934627859E+03  0.23868508940E+03  0.12499971546E+03 0.  0.
          2    1    1    2  501    0 -0.90841366043E+01  0.10482147533E+03 -0.93804625011E+03  0.94392840331E+03  0.00000000000E+00 0. -1.
          1    1    1    2  502    0  0.10948504104E+03 -0.10158966914E+02  0.24399677243E+03  0.26762773357E+03  0.00000000000E+00 0. -1.
         22    1    3    3    0    0 -0.12905922117E+02 -0.82974654115E+02  0.27774727804E+02  0.88446546320E+02  0.00000000000E+00 0. -1.
         22    1    3    3    0    0 -0.87494982315E+02 -0.11687854299E+02  0.12157155078E+03  0.15023854308E+03  0.00000000000E+00 0. -1.
</event>
<event>
 7    1  0.6017574E-006  0.8493882E+02  0.7818608E-02  0.1319188E+00
          2   -1    0    0  502    0  0.00000000000E+00  0.00000000000E+00  0.95227274705E+03  0.95227274705E+03  0.00000000000E+00 0. -1.
          1   -1    0    0  501    0 -0.00000000000E+00 -0.00000000000E+00 -0.19805911903E+03  0.19805911903E+03  0.00000000000E+00 0. -1.
         25    2    1    2    0    0 -0.30861524815E+02 -0.91221468771E+02  0.79122001599E+02  0.17651284978E+03  0.12499081934E+03 0.  0.
          2    1    1    2  501    0  0.82888423774E+02  0.27526147431E+02 -0.13433151518E+03  0.16022838562E+03  0.00000000000E+00 0. -1.
          1    1    1    2  502    0 -0.52026898959E+02  0.63695321340E+02  0.80942314160E+03  0.81359063068E+03  0.00000000000E+00 0. -1.
         22    1    3    3    0    0  0.16414680862E+02  0.26309573691E+02  0.13178653139E+02  0.33694395886E+02  0.00000000000E+00 0. -1.
         22    1    3    3    0    0 -0.47276205677E+02 -0.11753104246E+03  0.65943348460E+02  0.14281845389E+03  0.00000000000E+00 0. -1.
</event>
<event>
 7    1  0.6017574E-006  0.1114995E+03  0.7818608E-02  0.1296048E+00
          2   -1    0    0  502    0  0.00000000000E+00  0.00000000000E+00  0.26452072430E+03  0.26452072430E+03  0.00000000000E+00 0. -1.
          1   -1    0    0  501    0 -0.00000000000E+00 -0.00000000000E+00 -0.65289799953E+03  0.65289799953E+03  0.00000000000E+00 0. -1.
         25    2    1    2    0    0 -0.39581294201E+02  0.91459831293E+02 -0.18810739739E+03  0.24685902038E+03  0.12499361342E+03 0.  0.
          2    1    1    2  501    0  0.10742087877E+03 -0.54295613587E+02 -0.42037032869E+03  0.43726247506E+03  0.00000000000E+00 0. -1.
          1    1    1    2  502    0 -0.67839584571E+02 -0.37164217706E+02  0.22010045085E+03  0.23329722839E+03  0.00000000000E+00 0. -1.
         22    1    3    3    0    0 -0.17824109068E+02  0.59242685840E+02 -0.19741739753E+03  0.20688408237E+03  0.00000000000E+00 0.  1.
         22    1    3    3    0    0 -0.21757185133E+02  0.32217145453E+02  0.93100001399E+01  0.39974938007E+02  0.00000000000E+00 0.  1.
</event>
<event>
 7    1  0.6017574E-006  0.9486476E+02  0.7818608E-02  0.1442782E+00
          2   -1    0    0  502    0  0.00000000000E+00  0.00000000000E+00  0.95129286360E+02  0.95129286360E+02  0.00000000000E+00 0. -1.
          1   -1    0    0  501    0 -0.00000000000E+00 -0.00000000000E+00 -0.51377097957E+03  0.51377097957E+03  0.00000000000E+00 0. -1.
         25    2    1    2    0    0 -0.81937161721E+02  0.85535128025E+01 -0.21948102564E+02  0.15131107018E+03  0.12500583867E+03 0.  0.
          2    1    1    2  501    0  0.94980869372E+02  0.14925885570E+02 -0.41440740672E+03  0.42541467575E+03  0.00000000000E+00 0. -1.
          1    1    1    2  502    0 -0.13043707652E+02 -0.23479398373E+02  0.17713816070E+02  0.32174519997E+02  0.00000000000E+00 0. -1.
         22    1    3    3    0    0 -0.96352655381E+02 -0.27486958450E+02  0.10464115576E+02  0.10074157433E+03  0.00000000000E+00 0.  1.
         22    1    3    3    0    0  0.14415493661E+02  0.36040471253E+02 -0.32412218140E+02  0.50569495848E+02  0.00000000000E+00 0.  1.
</event>
<event>
 7    1  0.6017574E-006  0.7589721E+02  0.7818608E-02  0.1491896E+00
          2   -1    0    0  502    0  0.00000000000E+00  0.00000000000E+00  0.12168760811E+04  0.12168760811E+04  0.00000000000E+00 0. -1.
          1   -1    0    0  501    0 -0.00000000000E+00 -0.00000000000E+00 -0.24435156525E+02  0.24435156525E+02  0.00000000000E+00 0. -1.
         25    2    1    2    0    0 -0.16380886733E+02  0.65408119790E+02  0.88899258962E+03  0.90026642071E+03  0.12500099304E+03 0.  0.
          2    1    1    2  501    0 -0.20461063828E+02  0.11724071498E+02 -0.21851497168E+01  0.23682986820E+02  0.00000000000E+00 0. -1.
          1    1    1    2  502    0  0.36841950561E+02 -0.77132191288E+02  0.30563348470E+03  0.31736183013E+03  0.00000000000E+00 0. -1.
         22    1    3    3    0    0 -0.58724533049E+02  0.17164965692E+02  0.64764589746E+03  0.65052933472E+03  0.00000000000E+00 0. -1.
         22    1    3    3    0    0  0.42343646316E+02  0.48243154098E+02  0.24134669216E+03  0.24973708599E+03  0.00000000000E+00 0. -1.
</event>
<event>
 7    1  0.6017574E-006  0.4670035E+02  0.7818608E-02  0.1517833E+00
          2   -1    0    0  502    0  0.00000000000E+00  0.00000000000E+00  0.58387647455E+03  0.58387647455E+03  0.00000000000E+00 0. -1.
          1   -1    0    0  501    0 -0.00000000000E+00 -0.00000000000E+00 -0.13553291300E+04  0.13553291300E+04  0.00000000000E+00 0. -1.
         25    2    1    2    0    0  0.68955987032E+00  0.50559215728E+02 -0.60602878712E+02  0.14783043565E+03  0.12499767602E+03 0.  0.
          2    1    1    2  501    0 -0.29153050779E+02 -0.13450991246E+02 -0.12498938412E+04  0.12503061400E+04  0.00000000000E+00 0. -1.
          1    1    1    2  502    0  0.28463490909E+02 -0.37108224482E+02  0.53904406443E+03  0.54106902890E+03  0.00000000000E+00 0. -1.
         22    1    3    3    0    0 -0.59414848169E+02  0.92383565897E+01 -0.39345888273E+02  0.71857987305E+02  0.00000000000E+00 0. -1.
         22    1    3    3    0    0  0.60104408040E+02  0.41320859138E+02 -0.21256990438E+02  0.75972448349E+02  0.00000000000E+00 0. -1.
</event>
<event>
 7    1  0.6017574E-006  0.7591233E+02  0.7818608E-02  0.1473305E+00
          2   -1    0    0  502    0  0.00000000000E+00  0.00000000000E+00  0.28218289382E+03  0.28218289382E+03  0.00000000000E+00 0. -1.
          1   -1    0    0  501    0 -0.00000000000E+00 -0.00000000000E+00 -0.15202957339E+04  0.15202957339E+04  0.00000000000E+00 0. -1.
         25    2    1    2    0    0  0.38983746328E+02  0.30352659030E+02 -0.84054314721E+03  0.85122118158E+03  0.12499480496E+03 0.  0.
          2    1    1    2  501    0  0.18443089929E+02  0.19545470790E+02 -0.66891220417E+03  0.66945179803E+03  0.00000000000E+00 0. -1.
          1    1    1    2  502    0 -0.57426836258E+02 -0.49898129820E+02  0.27134251129E+03  0.28180564812E+03  0.00000000000E+00 0. -1.
         22    1    3    3    0    0 -0.33095614269E+02  0.40728959394E+02 -0.51316156317E+03  0.51583811194E+03  0.00000000000E+00 0.  1.
         22    1    3    3    0    0  0.72079360597E+02 -0.10376300365E+02 -0.32738158404E+03  0.33538306964E+03  0.00000000000E+00 0.  1.
</event>
<event>
 7    1  0.6017574E-006  0.5673654E+02  0.7818608E-02  0.1537521E+00
          2   -1    0    0  502    0  0.00000000000E+00  0.00000000000E+00  0.19107166349E+03  0.19107166349E+03  0.00000000000E+00 0. -1.
          1   -1    0    0  501    0 -0.00000000000E+00 -0.00000000000E+00 -0.82227963165E+03  0.82227963165E+03  0.00000000000E+00 0. -1.
         25    2    1    2    0    0  0.12891961298E+02 -0.36746361583E+02 -0.39045798936E+03  0.41182426147E+03  0.12500113247E+03 0.  0.
          2    1    1    2  501    0 -0.95757171642E+01  0.59706909855E+02 -0.41820896950E+03  0.42255810442E+03  0.00000000000E+00 0. -1.
          1    1    1    2  502    0 -0.33162441342E+01 -0.22960548272E+02  0.17745899071E+03  0.17896892924E+03  0.00000000000E+00 0. -1.
         22    1    3    3    0    0 -0.74678603280E+01 -0.53336879092E+02 -0.37960540298E+03  0.38340690341E+03  0.00000000000E+00 0. -1.
         22    1    3    3    0    0  0.20359821626E+02  0.16590517510E+02 -0.10852586384E+02  0.28417358060E+02  0.00000000000E+00 0. -1.
</event>
<event>
 7    1  0.6017574E-006  0.9308579E+02  0.7818608E-02  0.1369377E+00
          2   -1    0    0  502    0  0.00000000000E+00  0.00000000000E+00  0.40737549057E+03  0.40737549057E+03  0.00000000000E+00 0. -1.
          1   -1    0    0  501    0 -0.00000000000E+00 -0.00000000000E+00 -0.20727132906E+03  0.20727132906E+03  0.00000000000E+00 0. -1.
         25    2    1    2    0    0  0.95132218618E+02  0.45124472749E+02  0.34404943940E+02  0.16701244266E+03  0.12499239488E+03 0.  0.
          2    1    1    2  501    0 -0.92716867086E+02  0.35315246058E+01 -0.12343852030E+03  0.15442136317E+03  0.00000000000E+00 0. -1.
          1    1    1    2  502    0 -0.24153515315E+01 -0.48655997355E+02  0.28913773787E+03  0.29321301380E+03  0.00000000000E+00 0. -1.
         22    1    3    3    0    0  0.11510374078E+02  0.61690789985E+02 -0.20022220206E+02  0.65872085001E+02  0.00000000000E+00 0. -1.
         22    1    3    3    0    0  0.83621844540E+02 -0.16566317236E+02  0.54427164146E+02  0.10114035766E+03  0.00000000000E+00 0. -1.
</event>
<event>
 7    1  0.6017574E-006  0.6237447E+02  0.7818608E-02  0.1422490E+00
          2   -1    0    0  502    0  0.00000000000E+00  0.00000000000E+00  0.30075613556E+03  0.30075613556E+03  0.00000000000E+00 0. -1.
          1   -1    0    0  501    0 -0.00000000000E+00 -0.00000000000E+00 -0.53391254317E+03  0.53391254317E+03  0.00000000000E+00 0. -1.
         25    2    1    2    0    0  0.27512682187E+02 -0.34968035432E+01 -0.25530391813E+03  0.28561131682E+03  0.12499823346E+03 0.  0.
          2    1    1    2  501    0 -0.74621967132E+02 -0.34270870785E+01 -0.25609638147E+03  0.26676870039E+03  0.00000000000E+00 0. -1.
          1    1    1    2  502    0  0.47109284945E+02  0.69238906216E+01  0.27824389200E+03  0.28228866152E+03  0.00000000000E+00 0. -1.
         22    1    3    3    0    0 -0.26412322524E+02  0.24685059980E+02 -0.20046963121E+03  0.20370330387E+03  0.00000000000E+00 0. -1.
         22    1    3    3    0    0  0.53925004711E+02 -0.28181863523E+02 -0.54834286912E+02  0.81908012952E+02  0.00000000000E+00 0. -1.
</event>
<event>
 7    1  0.6017574E-006  0.2673033E+03  0.7818608E-02  0.1280534E+00
          2   -1    0    0  502    0  0.00000000000E+00  0.00000000000E+00  0.12773912415E+03  0.12773912415E+03  0.00000000000E+00 0. -1.
          1   -1    0    0  501    0 -0.00000000000E+00 -0.00000000000E+00 -0.18435345610E+04  0.18435345610E+04  0.00000000000E+00 0. -1.
         25    2    1    2    0    0  0.25486222761E+03 -0.15490750688E+03 -0.33844125549E+03  0.46810141396E+03  0.12500143833E+03 0.  0.
          2    1    1    2  501    0 -0.22698958457E+03  0.13008108358E+03 -0.14214925088E+04  0.14453671895E+04  0.00000000000E+00 0. -1.
          1    1    1    2  502    0 -0.27872643036E+02  0.24826423296E+02  0.44138327443E+02  0.57805081722E+02  0.00000000000E+00 0. -1.
         22    1    3    3    0    0  0.59257451018E+02 -0.40846320241E+02 -0.15391333899E+02  0.73598644944E+02  0.00000000000E+00 0. -1.
         22    1    3    3    0    0  0.19560477659E+03 -0.11406118663E+03 -0.32304992159E+03  0.39450276901E+03  0.00000000000E+00 0. -1.
</event>
<event>
 7    1  0.6017574E-006  0.8565752E+02  0.7818608E-02  0.1323176E+00
          2   -1    0    0  502    0  0.00000000000E+00  0.00000000000E+00  0.34456779122E+03  0.34456779122E+03  0.00000000000E+00 0. -1.
          1   -1    0    0  501    0 -0.00000000000E+00 -0.00000000000E+00 -0.14045642330E+04  0.14045642330E+04  0.00000000000E+00 0. -1.
         25    2    1    2    0    0  0.48630885419E+00 -0.39157323932E+02  0.26899043419E+02  0.13372570476E+03  0.12500189223E+03 0.  0.
          2    1    1    2  501    0  0.78205655011E+02  0.37798053153E+02 -0.13438574124E+04  0.13466616361E+04  0.00000000000E+00 0. -1.
          1    1    1    2  502    0 -0.78691963865E+02  0.13592707791E+01  0.25696192721E+03  0.26874468335E+03  0.00000000000E+00 0. -1.
         22    1    3    3    0    0 -0.68125235513E+01 -0.64666934900E+02  0.61918726399E+02  0.89789485049E+02  0.00000000000E+00 0.  1.
         22    1    3    3    0    0  0.72988324055E+01  0.25509610968E+02 -0.35019682980E+02  0.43936219708E+02  0.00000000000E+00 0.  1.
</event>
<event>
 7    1  0.6017574E-006  0.8711454E+02  0.7818608E-02  0.1383178E+00
          2   -1    0    0  502    0  0.00000000000E+00  0.00000000000E+00  0.27283163832E+04  0.27283163832E+04  0.00000000000E+00 0. -1.
          1   -1    0    0  501    0 -0.00000000000E+00 -0.00000000000E+00 -0.10314133644E+04  0.10314133644E+04  0.00000000000E+00 0. -1.
         25    2    1    2    0    0 -0.36781131981E+02 -0.10233296415E+03  0.19972526766E+03  0.25949900084E+03  0.12499864668E+03 0.  0.
          2    1    1    2  501    0  0.60619628527E+02  0.62425749760E+02 -0.99941968441E+03  0.10032005877E+04  0.00000000000E+00 0. -1.
          1    1    1    2  502    0 -0.23838496547E+02  0.39907214387E+02  0.24965974356E+04  0.24970301591E+04  0.00000000000E+00 0. -1.
         22    1    3    3    0    0  0.20285536825E+01 -0.10540965464E+03  0.76471469297E+02  0.13024283450E+03  0.00000000000E+00 0. -1.
         22    1    3    3    0    0 -0.38809685663E+02  0.30766904940E+01  0.12325379836E+03  0.12925616634E+03  0.00000000000E+00 0. -1.
</event>
<event>
 7    1  0.6017574E-006  0.1164555E+03  0.7818608E-02  0.1255704E+00
          2   -1    0    0  502    0  0.00000000000E+00  0.00000000000E+00  0.26720029357E+03  0.26720029357E+03  0.00000000000E+00 0. -1.
          1   -1    0    0  501    0 -0.00000000000E+00 -0.00000000000E+00 -0.15653854646E+04  0.15653854646E+04  0.00000000000E+00 0. -1.
         25    2    1    2    0    0  0.10390197739E+02 -0.85288452826E+02 -0.44623711348E+02  0.15811029972E+03  0.12500205946E+03 0.  0.
          2    1    1    2  501    0 -0.10899760072E+03  0.14447619236E+01 -0.14418636926E+04  0.14459783789E+04  0.00000000000E+00 0. -1.
          1    1    1    2  502    0  0.98607402980E+02  0.83843690902E+02  0.18830223292E+03  0.22849707952E+03  0.00000000000E+00 0. -1.
         22    1    3    3    0    0 -0.23819111056E+02 -0.83623405669E+02  0.16067740365E+02  0.88421695911E+02  0.00000000000E+00 0. -1.
         22    1    3    3    0    0  0.34209308795E+02 -0.16650471566E+01 -0.60691451714E+02  0.69688603813E+02  0.00000000000E+00 0. -1.
</event>
<event>
 7    1  0.6017574E-006  0.1572286E+03  0.7818608E-02  0.1249308E+00
          2   -1    0    0  502    0  0.00000000000E+00  0.00000000000E+00  0.90968968158E+03  0.90968968158E+03  0.00000000000E+00 0. -1.
          1   -1    0    0  501    0 -0.00000000000E+00 -0.00000000000E+00 -0.76061084595E+03  0.76061084595E+03  0.00000000000E+00 0. -1.
         25    2    1    2    0    0 -0.14509450561E+03 -0.34166042349E+02  0.30371399478E+02  0.19689485698E+03  0.12500171515E+03 0.  0.
          2    1    1    2  501    0  0.11215703149E+03  0.11365534636E+03 -0.66555288394E+03  0.68443946321E+03  0.00000000000E+00 0. -1.
          1    1    1    2  502    0  0.32937474117E+02 -0.79489304012E+02  0.78426032009E+03  0.78896620734E+03  0.00000000000E+00 0. -1.
         22    1    3    3    0    0 -0.20237195914E+02  0.28301780562E+02  0.44592799169E+02  0.56560168132E+02  0.00000000000E+00 0. -1.
         22    1    3    3    0    0 -0.12485730970E+03 -0.62467822911E+02 -0.14221399691E+02  0.14033468884E+03  0.00000000000E+00 0. -1.
</event>
<event>
 7    1  0.6017574E-006  0.6609375E+02  0.7818608E-02  0.1412374E+00
          2   -1    0    0  502    0  0.00000000000E+00  0.00000000000E+00  0.56694974501E+03  0.56694974501E+03  0.00000000000E+00 0. -1.
          1   -1    0    0  501    0 -0.00000000000E+00 -0.00000000000E+00 -0.29617905522E+03  0.29617905522E+03  0.00000000000E+00 0. -1.
         25    2    1    2    0    0 -0.43872991376E+02 -0.35940090185E+02  0.29984729903E+02  0.14049932041E+03  0.12499778220E+03 0.  0.
          2    1    1    2  501    0  0.67175166275E+02 -0.66928704976E+01 -0.23493101560E+03  0.24443788489E+03  0.00000000000E+00 0. -1.
          1    1    1    2  502    0 -0.23302174899E+02  0.42632960683E+02  0.47571697549E+03  0.47819159492E+03  0.00000000000E+00 0. -1.
         22    1    3    3    0    0 -0.48656363966E+01 -0.39024671765E+02 -0.42638515476E+02  0.58005537890E+02  0.00000000000E+00 0.  1.
         22    1    3    3    0    0 -0.39007354979E+02  0.30845815796E+01  0.72623245378E+02  0.82493782525E+02  0.00000000000E+00 0.  1.
</event>
<event>
 7    1  0.6017574E-006  0.6829043E+02  0.7818608E-02  0.1421391E+00
          2   -1    0    0  502    0  0.00000000000E+00  0.00000000000E+00  0.23642739462E+03  0.23642739462E+03  0.00000000000E+00 0. -1.
          1   -1    0    0  501    0 -0.00000000000E+00 -0.00000000000E+00 -0.10844905541E+04  0.10844905541E+04  0.00000000000E+00 0. -1.
         25    2    1    2    0    0 -0.82300945534E+02  0.52066302719E+02 -0.61838016615E+02  0.17009927471E+03  0.12500190975E+03 0.  0.
          2    1    1    2  501    0  0.66918610024E+02 -0.10993670701E+02 -0.96467622279E+03  0.96705696625E+03  0.00000000000E+00 0. -1.
          1    1    1    2  502    0  0.15382335510E+02 -0.41072632018E+02  0.17845107988E+03  0.18376170781E+03  0.00000000000E+00 0. -1.
         22    1    3    3    0    0 -0.11568846346E+03  0.34565274826E+02 -0.48346345653E+02  0.13006132376E+03  0.00000000000E+00 0.  1.
         22    1    3    3    0    0  0.33387517924E+02  0.17501027893E+02 -0.13491670962E+02  0.40037950943E+02  0.00000000000E+00 0.  1.
</event>
<event>
 7    1  0.6017574E-006  0.4029728E+02  0.7818608E-02  0.1512230E+00
          2   -1    0    0  502    0  0.00000000000E+00  0.00000000000E+00  0.14791439105E+04  0.14791439105E+04  0.00000000000E+00 0. -1.
          1   -1    0    0  501    0 -0.00000000000E+00 -0.00000000000E+00 -0.17487115040E+03  0.17487115040E+03  0.00000000000E+00 0. -1.
         25    2    1    2    0    0 -0.98570950862E+01  0.27021479656E+02  0.60485734484E+02  0.14180569084E+03  0.12499202852E+03 0.  0.
          2    1    1    2  501    0 -0.30511127018E+02 -0.23706268485E+02 -0.13112582791E+03  0.13670003212E+03  0.00000000000E+00 0. -1.
          1    1    1    2  502    0  0.40368222104E+02 -0.33152111708E+01  0.13749128536E+04  0.13755093380E+04  0.00000000000E+00 0. -1.
         22    1    3    3    0    0 -0.11111356743E+02  0.35679179184E+02 -0.31823039799E+02  0.49083316289E+02  0.00000000000E+00 0.  1.
         22    1    3    3    0    0  0.12542616568E+01 -0.86576995277E+01  0.92308774283E+02  0.92722374554E+02  0.00000000000E+00 0.  1.
</event>
<event>
 7    1  0.6017574E-006  0.5325226E+03  0.7818608E-02  0.1143902E+00
          2   -1    0    0  502    0  0.00000000000E+00  0.00000000000E+00  0.18285604520E+04  0.18285604520E+04  0.00000000000E+00 0. -1.
          1   -1    0    0  501    0 -0.00000000000E+00 -0.00000000000E+00 -0.16738664833E+04  0.16738664833E+04  0.00000000000E+00 0. -1.
         25    2    1    2    0    0 -0.48330548518E+03 -0.35309060998E+02  0.21540609902E+03  0.54484462349E+03  0.12499981780E+03 0.  0.
          2    1    1    2  501    0 -0.64724553765E+02  0.47904487867E+02 -0.14561294073E+04  0.14583541952E+04  0.00000000000E+00 0. -1.
          1    1    1    2  502    0  0.54803003895E+03 -0.12595426869E+02  0.13954172770E+04  0.14992281165E+04  0.00000000000E+00 0. -1.
         22    1    3    3    0    0 -0.10126140886E+03  0.26286680808E+02  0.90148491145E+02  0.13810001074E+03  0.00000000000E+00 0. -1.
         22    1    3    3    0    0 -0.38204407633E+03 -0.61595741805E+02  0.12525760788E+03  0.40674461274E+03  0.00000000000E+00 0. -1.
</event>
<event>
 7    1  0.6017574E-006  0.1211074E+03  0.7818608E-02  0.1295096E+00
          2   -1    0    0  502    0  0.00000000000E+00  0.00000000000E+00  0.53959851208E+03  0.53959851208E+03  0.00000000000E+00 0. -1.
          1   -1    0    0  501    0 -0.00000000000E+00 -0.00000000000E+00 -0.11769202003E+03  0.11769202003E+03  0.00000000000E+00 0. -1.
         25    2    1    2    0    0  0.44566939952E+02 -0.11042587236E+03  0.11399509301E+03  0.20688142408E+03  0.12499982790E+03 0.  0.
          2    1    1    2  501    0  0.59551233000E+02  0.40196685434E+02 -0.38798043443E+02  0.81654216344E+02  0.00000000000E+00 0. -1.
          1    1    1    2  502    0 -0.10411817295E+03  0.70229186925E+02  0.34670944249E+03  0.36875489169E+03  0.00000000000E+00 0. -1.
         22    1    3    3    0    0  0.30784579267E+02  0.19198441054E+02  0.43408343763E+01  0.36539202272E+02  0.00000000000E+00 0. -1.
         22    1    3    3    0    0  0.13782360685E+02 -0.12962431341E+03  0.10965425863E+03  0.17034222181E+03  0.00000000000E+00 0. -1.
</event>
<event>
 7    1  0.6017574E-006  0.7490400E+02  0.7818608E-02  0.1358215E+00
          2   -1    0    0  502    0  0.00000000000E+00  0.00000000000E+00  0.43597540653E+02  0.43597540653E+02  0.00000000000E+00 0. -1.
          1   -1    0    0  501    0 -0.00000000000E+00 -0.00000000000E+00 -0.24298334140E+04  0.24298334140E+04  0.00000000000E+00 0. -1.
         25    2    1    2    0    0  0.13102898725E+03 -0.22201033133E+02 -0.56459557661E+03  0.59334265106E+03  0.12500342022E+03 0.  0.
          2    1    1    2  501    0 -0.60454579710E+02  0.27605611867E+02 -0.18064797730E+04  0.18077018550E+04  0.00000000000E+00 0. -1.
          1    1    1    2  502    0 -0.70574407537E+02 -0.54045787337E+01 -0.15160523723E+02  0.72386448663E+02  0.00000000000E+00 0. -1.
         22    1    3    3    0    0 -0.16948734825E+02  0.22201471718E+02 -0.83261553899E+02  0.87821701852E+02  0.00000000000E+00 0.  1.
         22    1    3    3    0    0  0.14797772207E+03 -0.44402504851E+02 -0.48133402271E+03  0.50552094921E+03  0.00000000000E+00 0.  1.
</event>
<event>
 7    1  0.6017574E-006  0.1092096E+03  0.7818608E-02  0.1418322E+00
          2   -1    0    0  502    0  0.00000000000E+00  0.00000000000E+00  0.45245282008E+03  0.45245282008E+03  0.00000000000E+00 0. -1.
          1   -1    0    0  501    0 -0.00000000000E+00 -0.00000000000E+00 -0.92579655677E+03  0.92579655677E+03  0.00000000000E+00 0. -1.
         25    2    1    2    0    0  0.86928404905E+02 -0.29674814525E+02 -0.10660815290E+03  0.18821716743E+03  0.12499304642E+03 0.  0.
          2    1    1    2  501    0 -0.95711352895E+02  0.56346583012E+02 -0.77393596851E+03  0.78186474779E+03  0.00000000000E+00 0. -1.
          1    1    1    2  502    0  0.87829479894E+01 -0.26671768487E+02  0.40720038472E+03  0.40816746162E+03  0.00000000000E+00 0. -1.
         22    1    3    3    0    0  0.11212405385E+03 -0.44631596892E+02 -0.10306796229E+03  0.15870345851E+03  0.00000000000E+00 0.  1.
         22    1    3    3    0    0 -0.25195648944E+02  0.14956782367E+02 -0.35401906112E+01  0.29513708918E+02  0.00000000000E+00 0.  1.
</event>
<event>
 7    1  0.6017574E-006  0.9628704E+02  0.7818608E-02  0.1335756E+00
          2   -1    0    0  502    0  0.00000000000E+00  0.00000000000E+00  0.13246184712E+04  0.13246184712E+04  0.00000000000E+00 0. -1.
          1   -1    0    0  501    0 -0.00000000000E+00 -0.00000000000E+00 -0.52762542332E+03  0.52762542332E+03  0.00000000000E+00 0. -1.
         25    2    1    2    0    0  0.84268042483E+02 -0.10461058872E+03  0.18895672771E+03  0.26339044808E+03  0.12500161973E+03 0.  0.
          2    1    1    2  501    0 -0.86072164087E+02  0.41961985769E+02 -0.48482786873E+03  0.49419357338E+03  0.00000000000E+00 0. -1.
          1    1    1    2  502    0  0.18041216043E+01  0.62648602946E+02  0.10928641889E+04  0.10946598731E+04  0.00000000000E+00 0. -1.
         22    1    3    3    0    0  0.15722523941E+02  0.13704489671E+02 -0.90688581778E+01  0.22743240421E+02  0.00000000000E+00 0. -1.
         22    1    3    3    0    0  0.68545518543E+02 -0.11831507839E+03  0.19802558589E+03  0.24064720766E+03  0.00000000000E+00 0. -1.
</event>
<event>
 7    1  0.6017574E-006  0.6529470E+02  0.7818608E-02  0.1474826E+00
          2   -1    0    0  502    0  0.00000000000E+00  0.00000000000E+00  0.30918061409E+03  0.30918061409E+03  0.00000000000E+00 0. -1.
          1   -1    0    0  501    0 -0.00000000000E+00 -0.00000000000E+00 -0.29622489538E+03  0.29622489538E+03  0.00000000000E+00 0. -1.
         25    2    1    2    0    0 -0.46194856540E+01 -0.48820419485E+02  0.14135666775E+03  0.19496468122E+03  0.12499898560E+03 0.  0.
          2    1    1    2  501    0 -0.26592726832E+02 -0.15749416527E+02 -0.25932521473E+03  0.26116045687E+03  0.00000000000E+00 0. -1.
          1    1    1    2  502    0  0.31212212486E+02  0.64569836012E+02  0.13092426570E+03  0.14928037138E+03  0.00000000000E+00 0. -1.
         22    1    3    3    0    0  0.57932886061E+02 -0.55310666457E+01  0.60289381569E+02  0.83795116299E+02  0.00000000000E+00 0.  1.
         22    1    3    3    0    0 -0.62552371715E+02 -0.43289352840E+02  0.81067286180E+02  0.11116956492E+03  0.00000000000E+00 0.  1.
</event>
<event>
 7    1  0.6017574E-006  0.1330948E+03  0.7818608E-02  0.1342156E+00
          2   -1    0    0  502    0  0.00000000000E+00  0.00000000000E+00  0.59214019552E+03  0.59214019552E+03  0.00000000000E+00 0. -1.
          1   -1    0    0  501    0 -0.00000000000E+00 -0.00000000000E+00 -0.94858814885E+03  0.94858814885E+03  0.00000000000E+00 0. -1.
         25    2    1    2    0    0  0.60248018855E+02  0.73240376579E+02  0.29504334930E+03  0.33416989001E+03  0.12499984355E+03 0.  0.
          2    1    1    2  501    0 -0.67243758724E+02 -0.11555879137E+03 -0.92251927724E+03  0.93215737632E+03  0.00000000000E+00 0. -1.
          1    1    1    2  502    0  0.69957398692E+01  0.42318414787E+02  0.27102797461E+03  0.27440107804E+03  0.00000000000E+00 0. -1.
         22    1    3    3    0    0  0.81131979155E+02  0.89474529571E+02  0.18459217880E+03  0.22059547130E+03  0.00000000000E+00 0. -1.
         22    1    3    3    0    0 -0.20883960300E+02 -0.16234152992E+02  0.11045117050E+03  0.11357441871E+03  0.00000000000E+00 0. -1.
</event>
<event>
 7    1  0.6017574E-006  0.9898708E+02  0.7818608E-02  0.1406533E+00
          2   -1    0    0  502    0  0.00000000000E+00  0.00000000000E+00  0.44348169236E+04  0.44348169236E+04  0.00000000000E+00 0. -1.
          1   -1    0    0  501    0 -0.00000000000E+00 -0.00000000000E+00 -0.72525403182E+02  0.72525403182E+02  0.00000000000E+00 0. -1.
         25    2    1    2    0    0 -0.10350316239E+03  0.63302898250E+02  0.51173039075E+03  0.54056731654E+03  0.12499947736E+03 0.  0.
          2    1    1    2  501    0  0.10356966605E+02 -0.32336601244E+02 -0.52476293382E+02  0.62503471138E+02  0.00000000000E+00 0. -1.
          1    1    1    2  502    0  0.93146195784E+02 -0.30966297006E+02  0.39030374231E+04  0.39042715391E+04  0.00000000000E+00 0. -1.
         22    1    3    3    0    0 -0.12049048134E+03  0.46460260461E+02  0.28880215317E+03  0.31635928242E+03  0.00000000000E+00 0.  1.
         22    1    3    3    0    0  0.16987318955E+02  0.16842637789E+02  0.22292823758E+03  0.22420803412E+03  0.00000000000E+00 0.  1.
</event>
<event>
 7    1  0.6017574E-006  0.5011109E+02  0.7818608E-02  0.1504872E+00
          2   -1    0    0  502    0  0.00000000000E+00  0.00000000000E+00  0.15794647580E+04  0.15794647580E+04  0.00000000000E+00 0. -1.
          1   -1    0    0  501    0 -0.00000000000E+00 -0.00000000000E+00 -0.95200762613E+03  0.95200762613E+03  0.00000000000E+00 0. -1.
         25    2    1    2    0    0 -0.82248139786E+02  0.55709595277E+01  0.38984303085E+02  0.15473023984E+03  0.12500351653E+03 0.  0.
          2    1    1    2  501    0  0.32663114121E+02 -0.18001728305E+00 -0.89341663808E+03  0.89401353492E+03  0.00000000000E+00 0. -1.
          1    1    1    2  502    0  0.49585025666E+02 -0.53909422447E+01  0.14818894669E+04  0.14827286094E+04  0.00000000000E+00 0. -1.
         22    1    3    3    0    0 -0.40068765455E+02 -0.53164622946E+02  0.47696203991E+02  0.81895732326E+02  0.00000000000E+00 0.  1.
         22    1    3    3    0    0 -0.42179374332E+02  0.58735582474E+02 -0.87119009063E+01  0.72834507515E+02  0.00000000000E+00 0.  1.
</event>
<event>
 7    1  0.6017574E-006  0.3549460E+02  0.7818608E-02  0.1570405E+00
          2   -1    0    0  502    0  0.00000000000E+00  0.00000000000E+00  0.74557471163E+02  0.74557471163E+02  0.00000000000E+00 0. -1.
          1   -1    0    0  501    0 -0.00000000000E+00 -0.00000000000E+00 -0.11005620407E+04  0.11005620407E+04  0.00000000000E+00 0. -1.
         25    2    1    2    0    0  0.17905532466E+02  0.38390187476E+01 -0.77238202804E+03  0.78264629201E+03  0.12500349995E+03 0.  0.
          2    1    1    2  501    0 -0.54414288389E+01  0.29557816964E+02 -0.31771569582E+03  0.31913404247E+03  0.00000000000E+00 0. -1.
          1    1    1    2  502    0 -0.12464103627E+02 -0.33396835711E+02  0.64093154300E+02  0.73339177408E+02  0.00000000000E+00 0. -1.
         22    1    3    3    0    0  0.34266938395E+02  0.42142586923E+02 -0.66882315128E+03  0.67102505794E+03  0.00000000000E+00 0. -1.
         22    1    3    3    0    0 -0.16361405929E+02 -0.38303568175E+02 -0.10355887676E+03  0.11162123407E+03  0.00000000000E+00 0. -1.
</event>
<event>
 7    1  0.6017574E-006  0.1716379E+03  0.7818608E-02  0.1342318E+00
          2   -1    0    0  502    0  0.00000000000E+00  0.00000000000E+00  0.20348409270E+03  0.20348409270E+03  0.00000000000E+00 0. -1.
          1   -1    0    0  501    0 -0.00000000000E+00 -0.00000000000E+00 -0.50646270043E+03  0.50646270043E+03  0.00000000000E+00 0. -1.
         25    2    1    2    0    0  0.13607839335E+03  0.12407827021E+03  0.50772554870E+02  0.22828496891E+03  0.12499371357E+03 0.  0.
          2    1    1    2  501    0 -0.32978321764E+02 -0.39528177473E+01 -0.31753735644E+03  0.31926974052E+03  0.00000000000E+00 0. -1.
          1    1    1    2  502    0 -0.10310007158E+03 -0.12012545246E+03 -0.36213806157E+02  0.16239208369E+03  0.00000000000E+00 0. -1.
         22    1    3    3    0    0  0.36997462142E+02  0.25103049352E+02  0.73869500478E+02  0.86346270288E+02  0.00000000000E+00 0. -1.
         22    1    3    3    0    0  0.99080931205E+02  0.98975220853E+02 -0.23096945608E+02  0.14193869863E+03  0.00000000000E+00 0. -1.
</event>
<event>
 7    1  0.6017574E-006  0.3779036E+02  0.7818608E-02  0.1575447E+00
          2   -1    0    0  502    0  0.00000000000E+00  0.00000000000E+00  0.15314021547E+04  0.15314021547E+04  0.00000000000E+00 0. -1.
          1   -1    0    0  501    0 -0.00000000000E+00 -0.00000000000E+00 -0.23544529569E+02  0.23544529569E+02  0.00000000000E+00 0. -1.
         25    2    1    2    0    0  0.35913211079E+02  0.15165116680E+02  0.22360401843E+03  0.25911960659E+03  0.12499789584E+03 0.  0.
          2    1    1    2  501    0  0.20163365321E-02 -0.27355456884E+02  0.28511612669E+02  0.39512442121E+02  0.00000000000E+00 0. -1.
          1    1    1    2  502    0 -0.35915227415E+02  0.12190340205E+02  0.12557419940E+04  0.12563146356E+04  0.00000000000E+00 0. -1.
         22    1    3    3    0    0  0.35605744216E+00  0.37823415443E+02  0.21205709144E+03  0.21540414936E+03  0.00000000000E+00 0. -1.
         22    1    3    3    0    0  0.35557153636E+02 -0.22658298763E+02  0.11546926998E+02  0.43715457228E+02  0.00000000000E+00 0. -1.
</event>
<event>
 7    1  0.6017574E-006  0.5099395E+02  0.7818608E-02  0.1551765E+00
          2   -1    0    0  502    0  0.00000000000E+00  0.00000000000E+00  0.14710290337E+03  0.14710290337E+03  0.00000000000E+00 0. -1.
          1   -1    0    0  501    0 -0.00000000000E+00 -0.00000000000E+00 -0.50251632152E+03  0.50251632152E+03  0.00000000000E+00 0. -1.
         25    2    1    2    0    0  0.66157530369E+02 -0.25557247736E+01 -0.30059659816E+02  0.14460316527E+03  0.12499256659E+03 0.  0.
          2    1    1    2  501    0 -0.47676881157E+02  0.17135191698E+02 -0.41206438407E+03  0.41516714273E+03  0.00000000000E+00 0. -1.
          1    1    1    2  502    0 -0.18480649213E+02 -0.14579466924E+02  0.86710625730E+02  0.89848916886E+02  0.00000000000E+00 0. -1.
         22    1    3    3    0    0 -0.29847410817E+02  0.93539634968E+01 -0.35987524844E+02  0.47680882018E+02  0.00000000000E+00 0.  1.
         22    1    3    3    0    0  0.96004941186E+02 -0.11909688270E+02  0.59278650288E+01  0.96922283251E+02  0.00000000000E+00 0.  1.
</event>
<event>
 7    1  0.6017574E-006  0.6920932E+02  0.7818608E-02  0.1465670E+00
          2   -1    0    0  502    0  0.00000000000E+00  0.00000000000E+00  0.71798385660E+03  0.71798385660E+03  0.00000000000E+00 0. -1.
          1   -1    0    0  501    0 -0.00000000000E+00 -0.00000000000E+00 -0.33279382897E+02  0.33279382897E+02  0.00000000000E+00 0. -1.
         25    2    1    2    0    0 -0.22564601438E+01 -0.52452077721E+02  0.41676258852E+03  0.43826153205E+03  0.12500321284E+03 0.  0.
          2    1    1    2  501    0 -0.21549970028E+02 -0.22470588908E+02 -0.26258984380E+01  0.31244582198E+02  0.00000000000E+00 0. -1.
          1    1    1    2  502    0  0.23806430172E+02  0.74922666629E+02  0.27056778363E+03  0.28175712525E+03  0.00000000000E+00 0. -1.
         22    1    3    3    0    0  0.88468143167E+01 -0.76242374661E+02  0.13512149824E+03  0.15539943727E+03  0.00000000000E+00 0.  1.
         22    1    3    3    0    0 -0.11103274461E+02  0.23790296940E+02  0.28164109027E+03  0.28286209478E+03  0.00000000000E+00 0.  1.
</event>
<event>
 7    1  0.6017574E-006  0.1006818E+03  0.7818608E-02  0.1334968E+00
          2   -1    0    0  502    0  0.00000000000E+00  0.00000000000E+00  0.37544979116E+03  0.37544979116E+03  0.00000000000E+00 0. -1.
          1   -1    0    0  501    0 -0.00000000000E+00 -0.00000000000E+00 -0.14555617297E+03  0.14555617297E+03  0.00000000000E+00 0. -1.
         25    2    1    2    0    0 -0.42437415133E+02 -0.13413354639E+03  0.90566508676E+02  0.20885554909E+03  0.12500242165E+03 0.  0.
          2    1    1    2  501    0 -0.14651125009E+02  0.58546998726E+02 -0.63922643087E+02  0.87911949262E+02  0.00000000000E+00 0. -1.
          1    1    1    2  502    0  0.57088540143E+02  0.75586547666E+02  0.20324975260E+03  0.22423846578E+03  0.00000000000E+00 0. -1.
         22    1    3    3    0    0  0.25486172453E+02 -0.36895874169E+02 -0.17750163168E+02  0.48227780474E+02  0.00000000000E+00 0. -1.
         22    1    3    3    0    0 -0.67923587586E+02 -0.97237672224E+02  0.10831667184E+03  0.16062776861E+03  0.00000000000E+00 0. -1.
</event>
<event>
 7    1  0.6017574E-006  0.7630912E+02  0.7818608E-02  0.1441179E+00
          2   -1    0    0  502    0  0.00000000000E+00  0.00000000000E+00  0.28992645087E+03  0.28992645087E+03  0.00000000000E+00 0. -1.
          1   -1    0    0  501    0 -0.00000000000E+00 -0.00000000000E+00 -0.29566323624E+03  0.29566323624E+03  0.00000000000E+00 0. -1.
         25    2    1    2    0    0  0.54253781592E+02  0.67794683397E+02  0.50305913697E+02  0.16030434205E+03  0.12500882054E+03 0.  0.
          2    1    1    2  501    0  0.12131470432E+02 -0.31538920352E+02 -0.23163874140E+03  0.23409054357E+03  0.00000000000E+00 0. -1.
          1    1    1    2  502    0 -0.66385252025E+02 -0.36255763045E+02  0.17559604233E+03  0.19119480151E+03  0.00000000000E+00 0. -1.
         22    1    3    3    0    0 -0.35257176094E+02  0.46355304108E+02  0.32023722825E+02  0.66463535180E+02  0.00000000000E+00 0.  1.
         22    1    3    3    0    0  0.89510957686E+02  0.21439379290E+02  0.18282190872E+02  0.93840806866E+02  0.00000000000E+00 0.  1.
</event>
<event>
 7    1  0.6017574E-006  0.9448718E+02  0.7818608E-02  0.1362400E+00
          2   -1    0    0  502    0  0.00000000000E+00  0.00000000000E+00  0.17555296739E+04  0.17555296739E+04  0.00000000000E+00 0. -1.
          1   -1    0    0  501    0 -0.00000000000E+00 -0.00000000000E+00 -0.61408752135E+02  0.61408752135E+02  0.00000000000E+00 0. -1.
         25    2    1    2    0    0  0.53734841466E+02 -0.22729662308E+02  0.46906823865E+03  0.48893373172E+03  0.12500844279E+03 0.  0.
          2    1    1    2  501    0 -0.67655771703E+02  0.71652907993E+02 -0.32975050457E+01  0.98601806313E+02  0.00000000000E+00 0. -1.
          1    1    1    2  502    0  0.13920930238E+02 -0.48923245685E+02  0.12283501882E+04  0.12294028880E+04  0.00000000000E+00 0. -1.
         22    1    3    3    0    0 -0.10185144441E+01 -0.46911073605E+02  0.37162322552E+03  0.37457376836E+03  0.00000000000E+00 0.  1.
         22    1    3    3    0    0  0.54753355910E+02  0.24181411297E+02  0.97445013124E+02  0.11435996335E+03  0.00000000000E+00 0.  1.
</event>
<event>
 7    1  0.6017574E-006  0.4934241E+02  0.7818608E-02  0.1478306E+00
          2   -1    0    0  502    0  0.00000000000E+00  0.00000000000E+00  0.59370681412E+03  0.59370681412E+03  0.00000000000E+00 0. -1.
          1   -1    0    0  501    0 -0.00000000000E+00 -0.00000000000E+00 -0.15216897169E+04  0.15216897169E+04  0.00000000000E+00 0. -1.
         25    2    1    2    0    0 -0.82007533047E+02  0.31528239294E+02 -0.28586571248E+01  0.15281026504E+03  0.12499415920E+03 0.  0.
          2    1    1    2  501    0  0.42798313508E+02 -0.24131554913E+02 -0.14426691387E+04  0.14435055495E+04  0.00000000000E+00 0. -1.
          1    1    1    2  502    0  0.39209219539E+02 -0.73966843814E+01  0.51754489309E+03  0.51908071646E+03  0.00000000000E+00 0. -1.
         22    1    3    3    0    0 -0.49287802508E+02 -0.32827619922E+02  0.37505181187E+02  0.70096923768E+02  0.00000000000E+00 0. -1.
         22    1    3    3    0    0 -0.32719730539E+02  0.64355859217E+02 -0.40363838311E+02  0.82713341277E+02  0.00000000000E+00 0. -1.
</event>
<event>
 7    1  0.6017574E-006  0.1109735E+03  0.7818608E-02  0.1345407E+00
          2   -1    0    0  502    0  0.00000000000E+00  0.00000000000E+00  0.38649262578E+03  0.38649262578E+03  0.00000000000E+00 0. -1.
          1   -1    0    0  501    0 -0.00000000000E+00 -0.00000000000E+00 -0.23269648415E+03  0.23269648415E+03  0.00000000000E+00 0. -1.
         25    2    1    2    0    0 -0.45539454811E+02  0.73684702127E+02  0.39928653503E+02  0.15723383486E+03  0.12499961673E+03 0.  0.
          2    1    1    2  501    0  0.95249796381E+02 -0.68105351975E+02 -0.15174694158E+03  0.19167158620E+03  0.00000000000E+00 0. -1.
          1    1    1    2  502    0 -0.49710341570E+02 -0.55793501521E+01  0.26561442970E+03  0.27028368887E+03  0.00000000000E+00 0. -1.
         22    1    3    3    0    0 -0.11305153530E+02 -0.14848865257E+02  0.57717186067E+02  0.60659449909E+02  0.00000000000E+00 0. -1.
         22    1    3    3    0    0 -0.34234301281E+02  0.88533567384E+02 -0.17788532563E+02  0.96574384951E+02  0.00000000000E+00 0. -1.
</event>
<event>
 7    1  0.6017574E-006  0.5929183E+02  0.7818608E-02  0.1439959E+00
          2   -1    0    0  502    0  0.00000000000E+00  0.00000000000E+00  0.99816071400E+03  0.99816071400E+03  0.00000000000E+00 0. -1.
          1   -1    0    0  501    0 -0.00000000000E+00 -0.00000000000E+00 -0.72955193348E+02  0.72955193348E+02  0.00000000000E+00 0. -1.
         25    2    1    2    0    0  0.24973829346E+02  0.23362446701E+02  0.64363980945E+03  0.65655038360E+03  0.12496681891E+03 0.  0.
          2    1    1    2  501    0  0.17339957863E+02  0.40317323386E+02 -0.54464709422E+02  0.69946874670E+02  0.00000000000E+00 0. -1.
          1    1    1    2  502    0 -0.42313787209E+02 -0.63679770086E+02  0.33603042063E+03  0.34461864908E+03  0.00000000000E+00 0. -1.
         22    1    3    3    0    0  0.32941210079E+01 -0.46053672645E+01 -0.46307864751E+01  0.73146991896E+01  0.00000000000E+00 0. -1.
         22    1    3    3    0    0  0.21679708338E+02  0.27967813965E+02  0.64827059592E+03  0.64923568441E+03  0.00000000000E+00 0. -1.
</event>
<event>
 7    1  0.6017574E-006  0.1367860E+03  0.7818608E-02  0.1288611E+00
          2   -1    0    0  502    0  0.00000000000E+00  0.00000000000E+00  0.17962712161E+04  0.17962712161E+04  0.00000000000E+00 0. -1.
          1   -1    0    0  501    0 -0.00000000000E+00 -0.00000000000E+00 -0.15816394703E+03  0.15816394703E+03  0.00000000000E+00 0. -1.
         25    2    1    2    0    0 -0.19109729544E+01  0.21398973983E+02  0.91757698244E+03  0.92630116468E+03  0.12499904427E+03 0.  0.
          2    1    1    2  501    0  0.11560888277E+03  0.73109529555E+02 -0.11556394090E+03  0.17906825940E+03  0.00000000000E+00 0. -1.
          1    1    1    2  502    0 -0.11369790981E+03 -0.94508503538E+02  0.83609422756E+03  0.84906573909E+03  0.00000000000E+00 0. -1.
         22    1    3    3    0    0 -0.80651376676E+01  0.73689144203E+02  0.54947266444E+03  0.55445048957E+03  0.00000000000E+00 0. -1.
         22    1    3    3    0    0  0.61541647133E+01 -0.52290170220E+02  0.36810431800E+03  0.37185067510E+03  0.00000000000E+00 0. -1.
</event>
<event>
 7    1  0.6017574E-006  0.1036181E+03  0.7818608E-02  0.1314161E+00
          2   -1    0    0  502    0  0.00000000000E+00  0.00000000000E+00  0.67842923410E+02  0.67842923410E+02  0.00000000000E+00 0. -1.
          1   -1    0    0  501    0 -0.00000000000E+00 -0.00000000000E+00 -0.18511384506E+04  0.18511384506E+04  0.00000000000E+00 0. -1.
         25    2    1    2    0    0 -0.28971615207E+02 -0.31121205248E+02 -0.21990470506E+03  0.25649799351E+03  0.12500102986E+03 0.  0.
          2    1    1    2  501    0  0.95098015345E+02  0.55653931856E+02 -0.15849158343E+04  0.15887413869E+04  0.00000000000E+00 0. -1.
          1    1    1    2  502    0 -0.66126400138E+02 -0.24532726607E+02  0.21525012167E+02  0.73741993591E+02  0.00000000000E+00 0. -1.
         22    1    3    3    0    0  0.78684487124E+01 -0.45825792195E+02 -0.16617000259E+02  0.49376516817E+02  0.00000000000E+00 0. -1.
         22    1    3    3    0    0 -0.36840063919E+02  0.14704586946E+02 -0.20328770480E+03  0.20712147669E+03  0.00000000000E+00 0. -1.
</event>
<event>
 7    1  0.6017574E-006  0.5763867E+02  0.7818608E-02  0.1495404E+00
          2   -1    0    0  502    0  0.00000000000E+00  0.00000000000E+00  0.15026306502E+04  0.15026306502E+04  0.00000000000E+00 0. -1.
          1   -1    0    0  501    0 -0.00000000000E+00 -0.00000000000E+00 -0.18038983630E+03  0.18038983630E+03  0.00000000000E+00 0. -1.
         25    2    1    2    0    0 -0.32761471932E+01 -0.83101936822E+02  0.49300340736E+02  0.15802687240E+03  0.12500121503E+03 0.  0.
          2    1    1    2  501    0  0.13451121648E+02  0.54554851684E+02 -0.11959059982E+03  0.13213279715E+03  0.00000000000E+00 0. -1.
          1    1    1    2  502    0 -0.10174974454E+02  0.28547085138E+02  0.13925310730E+04  0.13928608169E+04  0.00000000000E+00 0. -1.
         22    1    3    3    0    0 -0.22031471487E+01 -0.29264486349E+02 -0.42470844238E+02  0.51623992764E+02  0.00000000000E+00 0.  1.
         22    1    3    3    0    0 -0.10730000445E+01 -0.53837450473E+02  0.91771184975E+02  0.10640287963E+03  0.00000000000E+00 0.  1.
</event>
<event>
 7    1  0.6017574E-006  0.4087957E+02  0.7818608E-02  0.1531251E+00
          2   -1    0    0  502    0  0.00000000000E+00  0.00000000000E+00  0.11872805295E+04  0.11872805295E+04  0.00000000000E+00 0. -1.
          1   -1    0    0  501    0 -0.00000000000E+00 -0.00000000000E+00 -0.28443126715E+03  0.28443126715E+03  0.00000000000E+00 0. -1.
         25    2    1    2    0    0  0.70184474578E+01  0.77495356667E+01 -0.83888118921E+02  0.15090312360E+03  0.12500088923E+03 0.  0.
          2    1    1    2  501    0 -0.19288786020E+02 -0.38974140730E+02 -0.16395671934E+03  0.16962560752E+03  0.00000000000E+00 0. -1.
          1    1    1    2  502    0  0.12270338562E+02  0.31224605064E+02  0.11506941006E+04  0.11511830655E+04  0.00000000000E+00 0. -1.
         22    1    3    3    0    0  0.12009460426E+02  0.54431097068E+02 -0.87576902682E+02  0.10381081519E+03  0.00000000000E+00 0.  1.
         22    1    3    3    0    0 -0.49910129680E+01 -0.46681561401E+02  0.36887837608E+01  0.47092308405E+02  0.00000000000E+00 0.  1.
</event>
<event>
 7    1  0.6017574E-006  0.8478432E+02  0.7818608E-02  0.1418664E+00
          2   -1    0    0  502    0  0.00000000000E+00  0.00000000000E+00  0.18719583245E+04  0.18719583245E+04  0.00000000000E+00 0. -1.
          1   -1    0    0  501    0 -0.00000000000E+00 -0.00000000000E+00 -0.11118692311E+03  0.11118692311E+03  0.00000000000E+00 0. -1.
         25    2    1    2    0    0  0.57433514168E+01 -0.10523558879E+03  0.28171170176E+03  0.32570228129E+03  0.12495190234E+03 0.  0.
          2    1    1    2  501    0  0.21034003051E+02  0.81061506402E+02 -0.69276888329E+02  0.10868617373E+03  0.00000000000E+00 0. -1.
          1    1    1    2  502    0 -0.26777354468E+02  0.24174082389E+02  0.15483365879E+04  0.15487567926E+04  0.00000000000E+00 0. -1.
         22    1    3    3    0    0  0.43153026751E+01 -0.86685438081E+02  0.29187230039E+03  0.30450357428E+03  0.00000000000E+00 0.  1.
         22    1    3    3    0    0  0.14280487417E+01 -0.18550150709E+02 -0.10160598632E+02  0.21198707015E+02  0.00000000000E+00 0.  1.
</event>
<event>
 7    1  0.6017574E-006  0.1460907E+03  0.7818608E-02  0.1293204E+00
          2   -1    0    0  502    0  0.00000000000E+00  0.00000000000E+00  0.78909495574E+03  0.78909495574E+03  0.00000000000E+00 0. -1.
          1   -1    0    0  501    0 -0.00000000000E+00 -0.00000000000E+00 -0.28739927323E+04  0.28739927323E+04  0.00000000000E+00 0. -1.
         25    2    1    2    0    0  0.37864707190E+01  0.19775179433E+03 -0.13270230215E+03  0.26898929922E+03  0.12500093031E+03 0.  0.
          2    1    1    2  501    0 -0.27636824812E+02 -0.14202242319E+03 -0.26699104843E+04  0.26738279969E+04  0.00000000000E+00 0. -1.
          1    1    1    2  502    0  0.23850354093E+02 -0.55729371136E+02  0.71771500984E+03  0.72027039197E+03  0.00000000000E+00 0. -1.
         22    1    3    3    0    0  0.47180970996E+02  0.83573136491E+02 -0.10779846961E+03  0.14432956460E+03  0.00000000000E+00 0. -1.
         22    1    3    3    0    0 -0.43394500277E+02  0.11417865784E+03 -0.24903832537E+02  0.12465973462E+03  0.00000000000E+00 0. -1.
</event>
<event>
 7    1  0.6017574E-006  0.4081321E+02  0.7818608E-02  0.1509317E+00
          2   -1    0    0  502    0  0.00000000000E+00  0.00000000000E+00  0.27461480596E+04  0.27461480596E+04  0.00000000000E+00 0. -1.
          1   -1    0    0  501    0 -0.00000000000E+00 -0.00000000000E+00 -0.14943598586E+03  0.14943598586E+03  0.00000000000E+00 0. -1.
         25    2    1    2    0    0  0.38106007148E+01 -0.39468586276E+01  0.70995048865E+03  0.72089245032E+03  0.12500452081E+03 0.  0.
          2    1    1    2  501    0  0.38456419269E+02  0.59227785879E+01 -0.14111119932E+03  0.14637740967E+03  0.00000000000E+00 0. -1.
          1    1    1    2  502    0 -0.42267019984E+02 -0.19759199603E+01  0.20278727844E+04  0.20283141855E+04  0.00000000000E+00 0. -1.
         22    1    3    3    0    0  0.34685503333E+02  0.50154822760E+02  0.41310822577E+03  0.41758471785E+03  0.00000000000E+00 0.  1.
         22    1    3    3    0    0 -0.30874902619E+02 -0.54101681387E+02  0.29684226288E+03  0.30330773247E+03  0.00000000000E+00 0.  1.
</event>
<event>
 7    1  0.6017574E-006  0.6781230E+02  0.7818608E-02  0.1464579E+00
          2   -1    0    0  502    0  0.00000000000E+00  0.00000000000E+00  0.15148477588E+03  0.15148477588E+03  0.00000000000E+00 0. -1.
          1   -1    0    0  501    0 -0.00000000000E+00 -0.00000000000E+00 -0.15573726380E+03  0.15573726380E+03  0.00000000000E+00 0. -1.
         25    2    1    2    0    0 -0.23540681155E+02 -0.61389347919E+02 -0.91225668430E+02  0.16813939917E+03  0.12500367701E+03 0.  0.
          2    1    1    2  501    0  0.54577765491E+02  0.53490627800E+02  0.58705647338E+02  0.96365620311E+02  0.00000000000E+00 0. -1.
          1    1    1    2  502    0 -0.31037084337E+02  0.78987201186E+01  0.28267533166E+02  0.42717020202E+02  0.00000000000E+00 0. -1.
         22    1    3    3    0    0  0.49808866466E+02 -0.41925448596E+02 -0.37182580277E+02  0.74974733709E+02  0.00000000000E+00 0.  1.
         22    1    3    3    0    0 -0.73349547621E+02 -0.19463899322E+02 -0.54043088153E+02  0.93164665459E+02  0.00000000000E+00 0.  1.
</event>
<event>
 7    1  0.6017574E-006  0.6289577E+02  0.7818608E-02  0.1501714E+00
          2   -1    0    0  502    0  0.00000000000E+00  0.00000000000E+00  0.67436267608E+02  0.67436267608E+02  0.00000000000E+00 0. -1.
          1   -1    0    0  501    0 -0.00000000000E+00 -0.00000000000E+00 -0.13692201899E+04  0.13692201899E+04  0.00000000000E+00 0. -1.
         25    2    1    2    0    0 -0.30774577200E+02  0.34411195109E+02 -0.20800584602E+02  0.13486417565E+03  0.12499790639E+03 0.  0.
          2    1    1    2  501    0  0.56597135111E+02 -0.28058883939E+02 -0.12722283985E+04  0.12737957586E+04  0.00000000000E+00 0. -1.
          1    1    1    2  502    0 -0.25822557911E+02 -0.63523111703E+01 -0.87549391775E+01  0.27996523253E+02  0.00000000000E+00 0. -1.
         22    1    3    3    0    0 -0.57332418181E+01 -0.46516768464E+02 -0.17681660268E+02  0.50093122481E+02  0.00000000000E+00 0. -1.
         22    1    3    3    0    0 -0.25041335382E+02  0.80927963573E+02 -0.31189243339E+01  0.84771053165E+02  0.00000000000E+00 0. -1.
</event>
<event>
 7    1  0.6017574E-006  0.3076586E+02  0.7818608E-02  0.1624305E+00
          2   -1    0    0  502    0  0.00000000000E+00  0.00000000000E+00  0.22849743875E+03  0.22849743875E+03  0.00000000000E+00 0. -1.
          1   -1    0    0  501    0 -0.00000000000E+00 -0.00000000000E+00 -0.23365354563E+03  0.23365354563E+03  0.00000000000E+00 0. -1.
         25    2    1    2    0    0  0.44237682637E+02 -0.25497417155E+01  0.77225392099E+02  0.15346723242E+03  0.12499982598E+03 0.  0.
          2    1    1    2  501    0 -0.19727234479E+02 -0.15422993810E+02 -0.19266665467E+03  0.19428708743E+03  0.00000000000E+00 0. -1.
          1    1    1    2  502    0 -0.24510448158E+02  0.17972735526E+02  0.11028515569E+03  0.11439666454E+03  0.00000000000E+00 0. -1.
         22    1    3    3    0    0 -0.93870320156E+01  0.21734672245E+02 -0.25671198757E+02  0.34921666530E+02  0.00000000000E+00 0.  1.
         22    1    3    3    0    0  0.53624714653E+02 -0.24284413960E+02  0.10289659086E+03  0.11854556589E+03  0.00000000000E+00 0.  1.
</event>
<event>
 7    1  0.6017574E-006  0.4534949E+02  0.7818608E-02  0.1501864E+00
          2   -1    0    0  502    0  0.00000000000E+00  0.00000000000E+00  0.23544088106E+03  0.23544088106E+03  0.00000000000E+00 0. -1.
          1   -1    0    0  501    0 -0.00000000000E+00 -0.00000000000E+00 -0.90628425685E+03  0.90628425685E+03  0.00000000000E+00 0. -1.
         25    2    1    2    0    0  0.18792181966E+02 -0.22024091471E+02 -0.12949119558E+02  0.12896236114E+03  0.12500161673E+03 0.  0.
          2    1    1    2  501    0 -0.28366308687E+02 -0.23511543124E+02 -0.83186308986E+03  0.83267859370E+03  0.00000000000E+00 0. -1.
          1    1    1    2  502    0  0.95741267213E+01  0.45535634594E+02  0.17396883363E+03  0.18008418308E+03  0.00000000000E+00 0. -1.
         22    1    3    3    0    0 -0.10601178477E+02 -0.23223427027E+02  0.51852392995E+02  0.57796048371E+02  0.00000000000E+00 0. -1.
         22    1    3    3    0    0  0.29393360443E+02  0.11993355559E+01 -0.64801512553E+02  0.71166312769E+02  0.00000000000E+00 0. -1.
</event>
<event>
 7    1  0.6017574E-006  0.9851079E+02  0.7818608E-02  0.1427284E+00
          2   -1    0    0  502    0  0.00000000000E+00  0.00000000000E+00  0.40654027585E+03  0.40654027585E+03  0.00000000000E+00 0. -1.
          1   -1    0    0  501    0 -0.00000000000E+00 -0.00000000000E+00 -0.26901588993E+04  0.26901588993E+04  0.00000000000E+00 0. -1.
         25    2    1    2    0    0  0.31303297248E+02  0.74216789169E+02  0.77709456004E+02  0.16778442944E+03  0.12499930798E+03 0.  0.
          2    1    1    2  501    0 -0.14109597642E+02 -0.97650899235E+02 -0.26434544757E+04  0.26452951337E+04  0.00000000000E+00 0. -1.
          1    1    1    2  502    0 -0.17193699607E+02  0.23434110065E+02  0.28212639632E+03  0.28361961202E+03  0.00000000000E+00 0. -1.
         22    1    3    3    0    0  0.57411709699E+02  0.76470076745E+02  0.96256116597E+02  0.13567983281E+03  0.00000000000E+00 0. -1.
         22    1    3    3    0    0 -0.26108412451E+02 -0.22532875763E+01 -0.18546660592E+02  0.32104596629E+02  0.00000000000E+00 0. -1.
</event>
<event>
 7    1  0.6017574E-006  0.1431103E+03  0.7818608E-02  0.1383224E+00
          2   -1    0    0  502    0  0.00000000000E+00  0.00000000000E+00  0.11089122139E+03  0.11089122139E+03  0.00000000000E+00 0. -1.
          1   -1    0    0  501    0 -0.00000000000E+00 -0.00000000000E+00 -0.81680880167E+03  0.81680880167E+03  0.00000000000E+00 0. -1.
         25    2    1    2    0    0  0.12449582047E+03 -0.27921817234E+02 -0.46711318477E+02  0.18462150302E+03  0.12499725962E+03 0.  0.
          2    1    1    2  501    0 -0.13438032334E+03  0.54424474295E+02 -0.68776645022E+03  0.70288177153E+03  0.00000000000E+00 0. -1.
          1    1    1    2  502    0  0.98845028718E+01 -0.26502657061E+02  0.28560188414E+02  0.40196748508E+02  0.00000000000E+00 0. -1.
         22    1    3    3    0    0  0.67029523158E+02 -0.21244204312E+02 -0.88661474169E+02  0.11315975518E+03  0.00000000000E+00 0.  1.
         22    1    3    3    0    0  0.57466297315E+02 -0.66776129218E+01  0.41950155692E+02  0.71461747838E+02  0.00000000000E+00 0.  1.
</event>
<event>
 7    1  0.6017574E-006  0.7212076E+02  0.7818608E-02  0.1423448E+00
          2   -1    0    0  502    0  0.00000000000E+00  0.00000000000E+00  0.10560246566E+04  0.10560246566E+04  0.00000000000E+00 0. -1.
          1   -1    0    0  501    0 -0.00000000000E+00 -0.00000000000E+00 -0.15086274290E+04  0.15086274290E+04  0.00000000000E+00 0. -1.
         25    2    1    2    0    0  0.46920283595E+02 -0.91289886468E+02  0.63189538088E+03  0.65226715635E+03  0.12500125797E+03 0.  0.
          2    1    1    2  501    0 -0.11322382510E+02  0.71191682283E+02 -0.14965625743E+04  0.14982976976E+04  0.00000000000E+00 0. -1.
          1    1    1    2  502    0 -0.35597901086E+02  0.20098204185E+02  0.41206442098E+03  0.41408723164E+03  0.00000000000E+00 0. -1.
         22    1    3    3    0    0  0.32273117002E+02 -0.99269645555E+02  0.26246510279E+03  0.28246052254E+03  0.00000000000E+00 0.  1.
         22    1    3    3    0    0  0.14647166593E+02  0.79797590867E+01  0.36943027808E+03  0.36980663381E+03  0.00000000000E+00 0.  1.
</event>
<event>
 7    1  0.6017574E-006  0.7568018E+02  0.7818608E-02  0.1391871E+00
          2   -1    0    0  502    0  0.00000000000E+00  0.00000000000E+00  0.97881255354E+03  0.97881255354E+03  0.00000000000E+00 0. -1.
          1   -1    0    0  501    0 -0.00000000000E+00 -0.00000000000E+00 -0.12858750633E+03  0.12858750633E+03  0.00000000000E+00 0. -1.
         25    2    1    2    0    0 -0.68532271449E+02  0.70749379001E+02  0.13245927285E+03  0.20705604349E+03  0.12499839729E+03 0.  0.
          2    1    1    2  501    0  0.71655703725E+02 -0.20961735179E+02 -0.75108511708E+02  0.10590194875E+03  0.00000000000E+00 0. -1.
          1    1    1    2  502    0 -0.31234322767E+01 -0.49787643822E+02  0.79287428607E+03  0.79444206763E+03  0.00000000000E+00 0. -1.
         22    1    3    3    0    0 -0.80709780594E+01  0.88396184231E+02  0.10724160138E+03  0.13921130392E+03  0.00000000000E+00 0.  1.
         22    1    3    3    0    0 -0.60461293389E+02 -0.17646805231E+02  0.25217671474E+02  0.67844739573E+02  0.00000000000E+00 0.  1.
</event>
<event>
 7    1  0.6017574E-006  0.7116090E+02  0.7818608E-02  0.1463984E+00
          2   -1    0    0  502    0  0.00000000000E+00  0.00000000000E+00  0.29250706183E+04  0.29250706183E+04  0.00000000000E+00 0. -1.
          1   -1    0    0  501    0 -0.00000000000E+00 -0.00000000000E+00 -0.20080369527E+02  0.20080369527E+02  0.00000000000E+00 0. -1.
         25    2    1    2    0    0  0.21268292652E+02  0.66709876780E+02  0.75837879491E+03  0.77179560056E+03  0.12501001776E+03 0.  0.
          2    1    1    2  501    0  0.90084493493E+01 -0.71483731279E+02  0.84627148650E+02  0.11114328718E+03  0.00000000000E+00 0. -1.
          1    1    1    2  502    0 -0.30276742002E+02  0.47738544990E+01  0.20619843052E+04  0.20622121001E+04  0.00000000000E+00 0. -1.
         22    1    3    3    0    0 -0.35535523252E+02 -0.27769290319E+01  0.80983981664E+02  0.88481015104E+02  0.00000000000E+00 0. -1.
         22    1    3    3    0    0  0.56803815905E+02  0.69486805812E+02  0.67739481325E+03  0.68331458546E+03  0.00000000000E+00 0. -1.
</event>
<event>
 7    1  0.6017574E-006  0.1918777E+03  0.7818608E-02  0.1309720E+00
          2   -1    0    0  502    0  0.00000000000E+00  0.00000000000E+00  0.26454145888E+04  0.26454145888E+04  0.00000000000E+00 0. -1.
          1   -1    0    0  501    0 -0.00000000000E+00 -0.00000000000E+00 -0.10918286685E+03  0.10918286685E+03  0.00000000000E+00 0. -1.
         25    2    1    2    0    0 -0.98559798270E+02 -0.14326696958E+03  0.45045587758E+03  0.49877405380E+03  0.12500240275E+03 0.  0.
          2    1    1    2  501    0  0.13808439208E+03  0.14012493493E+03  0.29222089650E+02  0.19888747384E+03  0.00000000000E+00 0. -1.
          1    1    1    2  502    0 -0.39524593814E+02  0.31420346510E+01  0.20565537547E+04  0.20569359280E+04  0.00000000000E+00 0. -1.
         22    1    3    3    0    0 -0.12179172025E+03 -0.77564715141E+02  0.29741442344E+03  0.33061283615E+03  0.00000000000E+00 0. -1.
         22    1    3    3    0    0  0.23231921980E+02 -0.65702254438E+02  0.15304145414E+03  0.16816121766E+03  0.00000000000E+00 0. -1.
</event>
<event>
 7    1  0.6017574E-006  0.1562635E+03  0.7818608E-02  0.1231516E+00
          2   -1    0    0  502    0  0.00000000000E+00  0.00000000000E+00  0.69158481075E+03  0.69158481075E+03  0.00000000000E+00 0. -1.
          1   -1    0    0  501    0 -0.00000000000E+00 -0.00000000000E+00 -0.41083413549E+03  0.41083413549E+03  0.00000000000E+00 0. -1.
         25    2    1    2    0    0 -0.27291154955E+02  0.10376023752E+03 -0.11349314457E+03  0.20004691673E+03  0.12500832373E+03 0.  0.
          2    1    1    2  501    0  0.86005519208E+01 -0.20576925980E+03 -0.20714737769E+03  0.29210442287E+03  0.00000000000E+00 0. -1.
          1    1    1    2  502    0  0.18690603034E+02  0.10200902228E+03  0.60139119752E+03  0.61026760665E+03  0.00000000000E+00 0. -1.
         22    1    3    3    0    0  0.18841968407E+02  0.97387740758E+02 -0.28626410714E+02  0.10324177068E+03  0.00000000000E+00 0.  1.
         22    1    3    3    0    0 -0.46133123362E+02  0.63724967624E+01 -0.84866733857E+02  0.96805146050E+02  0.00000000000E+00 0.  1.
</event>
<event>
 7    1  0.6017574E-006  0.1462037E+03  0.7818608E-02  0.1295169E+00
          2   -1    0    0  502    0  0.00000000000E+00  0.00000000000E+00  0.52717731087E+03  0.52717731087E+03  0.00000000000E+00 0. -1.
          1   -1    0    0  501    0 -0.00000000000E+00 -0.00000000000E+00 -0.91103262566E+02  0.91103262566E+02  0.00000000000E+00 0. -1.
         25    2    1    2    0    0  0.11590863711E+03 -0.51281801908E+02  0.30316123598E+03  0.35156279993E+03  0.12500012774E+03 0.  0.
          2    1    1    2  501    0 -0.15449607666E+03  0.60248228001E+01  0.45828878824E+02  0.16126258812E+03  0.00000000000E+00 0. -1.
          1    1    1    2  502    0  0.38587439551E+02  0.45256979108E+02  0.87083933502E+02  0.10545518538E+03  0.00000000000E+00 0. -1.
         22    1    3    3    0    0  0.30819395163E+02  0.30380326804E+02  0.16168836055E+03  0.16737958451E+03  0.00000000000E+00 0. -1.
         22    1    3    3    0    0  0.85089241946E+02 -0.81662128712E+02  0.14147287543E+03  0.18418321542E+03  0.00000000000E+00 0. -1.
</event>
<event>
 7    1  0.6017574E-006  0.6781171E+02  0.7818608E-02  0.1380703E+00
          2   -1    0    0  502    0  0.00000000000E+00  0.00000000000E+00  0.94822885475E+02  0.94822885475E+02  0.00000000000E+00 0. -1.
          1   -1    0    0  501    0 -0.00000000000E+00 -0.00000000000E+00 -0.49113002338E+03  0.49113002338E+03  0.00000000000E+00 0. -1.
         25    2    1    2    0    0 -0.21696220537E+02 -0.12872502501E+02 -0.21427351455E+03  0.24934773315E+03  0.12499890274E+03 0.  0.
          2    1    1    2  501    0  0.75926504889E+02  0.40650999519E+02 -0.23847479409E+03  0.25354992668E+03  0.00000000000E+00 0. -1.
          1    1    1    2  502    0 -0.54230284352E+02 -0.27778497017E+02  0.56441170724E+02  0.83055249023E+02  0.00000000000E+00 0. -1.
         22    1    3    3    0    0 -0.13173333920E+02  0.26842698985E+02  0.13501840259E+01  0.29931425163E+02  0.00000000000E+00 0. -1.
         22    1    3    3    0    0 -0.85228866166E+01 -0.39715201487E+02 -0.21562369857E+03  0.21941630799E+03  0.00000000000E+00 0. -1.
</event>
<event>
 7    1  0.6017574E-006  0.1487864E+03  0.7818608E-02  0.1229191E+00
          2   -1    0    0  502    0  0.00000000000E+00  0.00000000000E+00  0.97231801534E+03  0.97231801534E+03  0.00000000000E+00 0. -1.
          1   -1    0    0  501    0 -0.00000000000E+00 -0.00000000000E+00 -0.12171805402E+04  0.12171805402E+04  0.00000000000E+00 0. -1.
         25    2    1    2    0    0  0.19508641670E+03 -0.40374258123E+02 -0.45334332847E+02  0.23951693078E+03  0.12499747076E+03 0.  0.
          2    1    1    2  501    0 -0.10407859474E+03  0.10490230889E+03 -0.10660824708E+04  0.10762753750E+04  0.00000000000E+00 0. -1.
          1    1    1    2  502    0 -0.91007821962E+02 -0.64528050766E+02  0.86655427872E+03  0.87370624981E+03  0.00000000000E+00 0. -1.
         22    1    3    3    0    0  0.79397790987E+01 -0.30429911300E+02  0.24137867279E+02  0.39644119748E+02  0.00000000000E+00 0.  1.
         22    1    3    3    0    0  0.18714663761E+03 -0.99443468230E+01 -0.69472200126E+02  0.19987281104E+03  0.00000000000E+00 0.  1.
</event>
<event>
 7    1  0.6017574E-006  0.2842636E+02  0.7818608E-02  0.1622459E+00
          2   -1    0    0  502    0  0.00000000000E+00  0.00000000000E+00  0.34919213500E+03  0.34919213500E+03  0.00000000000E+00 0. -1.
          1   -1    0    0  501    0 -0.00000000000E+00 -0.00000000000E+00 -0.44085186199E+03  0.44085186199E+03  0.00000000000E+00 0. -1.
         25    2    1    2    0    0  0.22681733985E+02  0.35467355261E+02 -0.56298996238E+02  0.14341408169E+03  0.12500250999E+03 0.  0.
          2    1    1    2  501    0  0.37124010113E+01 -0.28128936701E+02 -0.33978897973E+03  0.34097150870E+03  0.00000000000E+00 0. -1.
          1    1    1    2  502    0 -0.26394134996E+02 -0.73384185604E+01  0.30442824897E+03  0.30565840660E+03  0.00000000000E+00 0. -1.
         22    1    3    3    0    0 -0.40396447772E+02  0.19081895578E+02 -0.63719491722E+02  0.77821368253E+02  0.00000000000E+00 0. -1.
         22    1    3    3    0    0  0.63078181757E+02  0.16385459683E+02  0.74204954842E+01  0.65592713437E+02  0.00000000000E+00 0. -1.
</event>
<event>
 7    1  0.6017574E-006  0.7061798E+02  0.7818608E-02  0.1449402E+00
          2   -1    0    0  502    0  0.00000000000E+00  0.00000000000E+00  0.11459208625E+04  0.11459208625E+04  0.00000000000E+00 0. -1.
          1   -1    0    0  501    0 -0.00000000000E+00 -0.00000000000E+00 -0.11975645816E+03  0.11975645816E+03  0.00000000000E+00 0. -1.
         25    2    1    2    0    0  0.22838494492E+02  0.76863623238E+02  0.85995672982E+02  0.17160826217E+03  0.12499810584E+03 0.  0.
          2    1    1    2  501    0 -0.46891587402E+02 -0.52334161684E+02 -0.60551887007E+02  0.92758915843E+02  0.00000000000E+00 0. -1.
          1    1    1    2  502    0  0.24053092910E+02 -0.24529461554E+02  0.10007206184E+04  0.10013101427E+04  0.00000000000E+00 0. -1.
         22    1    3    3    0    0  0.87449209908E+01  0.51832819363E+01 -0.31585606747E+02  0.33181178525E+02  0.00000000000E+00 0. -1.
         22    1    3    3    0    0  0.14093573501E+02  0.71680341302E+02  0.11758127973E+03  0.13842708364E+03  0.00000000000E+00 0. -1.
</event>
<event>
 7    1  0.6017574E-006  0.6178126E+02  0.7818608E-02  0.1447039E+00
          2   -1    0    0  502    0  0.00000000000E+00  0.00000000000E+00  0.32080879622E+04  0.32080879622E+04  0.00000000000E+00 0. -1.
          1   -1    0    0  501    0 -0.00000000000E+00 -0.00000000000E+00 -0.14645756144E+02  0.14645756144E+02  0.00000000000E+00 0. -1.
         25    2    1    2    0    0  0.23585076714E+02  0.59587265696E+01  0.62495626339E+03  0.63779875894E+03  0.12500065397E+03 0.  0.
          2    1    1    2  501    0  0.39673155457E+02  0.47784415934E+01  0.43250960087E+02  0.58884958320E+02  0.00000000000E+00 0. -1.
          1    1    1    2  502    0 -0.63258232171E+02 -0.10737168163E+02  0.25252349826E+04  0.25260500011E+04  0.00000000000E+00 0. -1.
         22    1    3    3    0    0  0.65790212903E+02 -0.26256933424E+02  0.28221218897E+03  0.29096648995E+03  0.00000000000E+00 0. -1.
         22    1    3    3    0    0 -0.42205136189E+02  0.32215659993E+02  0.34274407441E+03  0.34683226899E+03  0.00000000000E+00 0. -1.
</event>
<event>
 7    1  0.6017574E-006  0.1872578E+03  0.7818608E-02  0.1361671E+00
          2   -1    0    0  502    0  0.00000000000E+00  0.00000000000E+00  0.49555236462E+03  0.49555236462E+03  0.00000000000E+00 0. -1.
          1   -1    0    0  501    0 -0.00000000000E+00 -0.00000000000E+00 -0.28728100841E+04  0.28728100841E+04  0.00000000000E+00 0. -1.
         25    2    1    2    0    0  0.53947660706E+02  0.19809272574E+03 -0.98347366342E+03  0.10124209204E+04  0.12499838118E+03 0.  0.
          2    1    1    2  501    0 -0.21734401589E+02 -0.13943997588E+02 -0.18566081152E+04  0.18567876865E+04  0.00000000000E+00 0. -1.
          1    1    1    2  502    0 -0.32213259117E+02 -0.18414872815E+03  0.46282405913E+03  0.49915384187E+03  0.00000000000E+00 0. -1.
         22    1    3    3    0    0  0.37707816230E+01  0.76871449586E+02 -0.14906532104E+03  0.16776146307E+03  0.00000000000E+00 0.  1.
         22    1    3    3    0    0  0.50176879083E+02  0.12122127615E+03 -0.83440834238E+03  0.84465945731E+03  0.00000000000E+00 0.  1.
</event>
<event>
 7    1  0.6017574E-006  0.7795645E+02  0.7818608E-02  0.1439723E+00
          2   -1    0    0  502    0  0.00000000000E+00  0.00000000000E+00  0.20889844857E+04  0.20889844857E+04  0.00000000000E+00 0. -1.
          1   -1    0    0  501    0 -0.00000000000E+00 -0.00000000000E+00 -0.27458045623E+03  0.27458045623E+03  0.00000000000E+00 0. -1.
         25    2    1    2    0    0 -0.39790921356E+02  0.32014016146E+02  0.18576624022E+03  0.22965540976E+03  0.12499718627E+03 0.  0.
          2    1    1    2  501    0 -0.33374652019E+02 -0.20780540197E+01 -0.25069474074E+03  0.25291508208E+03  0.00000000000E+00 0. -1.
          1    1    1    2  502    0  0.73165573375E+02 -0.29935962126E+02  0.18793325300E+04  0.18809944501E+04  0.00000000000E+00 0. -1.
         22    1    3    3    0    0 -0.81738065755E+02  0.37579971168E+02  0.10341921579E+03  0.13707260785E+03  0.00000000000E+00 0.  1.
         22    1    3    3    0    0  0.41947144399E+02 -0.55659550222E+01  0.82347024429E+02  0.92582801917E+02  0.00000000000E+00 0.  1.
</event>
<event>
 7    1  0.6017574E-006  0.2247814E+03  0.7818608E-02  0.1236395E+00
          2   -1    0    0  502    0  0.00000000000E+00  0.00000000000E+00  0.91756788565E+03  0.91756788565E+03  0.00000000000E+00 0. -1.
          1   -1    0    0  501    0 -0.00000000000E+00 -0.00000000000E+00 -0.93722978747E+03  0.93722978747E+03  0.00000000000E+00 0. -1.
         25    2    1    2    0    0 -0.93248233221E+02 -0.17900744581E+03 -0.40648300349E+03  0.47073661578E+03  0.12500252261E+03 0.  0.
          2    1    1    2  501    0  0.16072176346E+03  0.19125484556E+03 -0.46586547565E+03  0.52862136033E+03  0.00000000000E+00 0. -1.
          1    1    1    2  502    0 -0.67473530242E+02 -0.12247399746E+02  0.85268657732E+03  0.85543969701E+03  0.00000000000E+00 0. -1.
         22    1    3    3    0    0  0.48444634293E+01  0.58985157828E+01  0.49659903659E+01  0.91061723393E+01  0.00000000000E+00 0. -1.
         22    1    3    3    0    0 -0.98092696650E+02 -0.18490596159E+03 -0.41144899385E+03  0.46163044344E+03  0.00000000000E+00 0. -1.
</event>
<event>
 7    1  0.6017574E-006  0.1156987E+03  0.7818608E-02  0.1282259E+00
          2   -1    0    0  502    0  0.00000000000E+00  0.00000000000E+00  0.99892677293E+03  0.99892677293E+03  0.00000000000E+00 0. -1.
          1   -1    0    0  501    0 -0.00000000000E+00 -0.00000000000E+00 -0.14730802733E+04  0.14730802733E+04  0.00000000000E+00 0. -1.
         25    2    1    2    0    0  0.54875354746E+02 -0.82435999244E+02 -0.25714033276E+02  0.16153333235E+03  0.12499922969E+03 0.  0.
          2    1    1    2  501    0 -0.78282616752E+02 -0.32692700997E+02 -0.13744372428E+04  0.13770529094E+04  0.00000000000E+00 0. -1.
          1    1    1    2  502    0  0.23407262006E+02  0.11512870024E+03  0.92599777575E+03  0.93342080448E+03  0.00000000000E+00 0. -1.
         22    1    3    3    0    0  0.27850668895E+02 -0.35922330597E+02 -0.75571119488E+02  0.88187684481E+02  0.00000000000E+00 0. -1.
         22    1    3    3    0    0  0.27024685851E+02 -0.46513668647E+02  0.49857086212E+02  0.73345647873E+02  0.00000000000E+00 0. -1.
</event>
<event>
 7    1  0.6017574E-006  0.7588619E+02  0.7818608E-02  0.1355116E+00
          2   -1    0    0  502    0  0.00000000000E+00  0.00000000000E+00  0.15556885805E+04  0.15556885805E+04  0.00000000000E+00 0. -1.
          1   -1    0    0  501    0 -0.00000000000E+00 -0.00000000000E+00 -0.56027476892E+03  0.56027476892E+03  0.00000000000E+00 0. -1.
         25    2    1    2    0    0 -0.47519568247E+02  0.12842174463E+03 -0.96581887796E+01  0.18565877450E+03  0.12500258429E+03 0.  0.
          2    1    1    2  501    0  0.35690276115E+01 -0.67243483182E+02 -0.45919254541E+03  0.46410367133E+03  0.00000000000E+00 0. -1.
          1    1    1    2  502    0  0.43950540635E+02 -0.61178261446E+02  0.14642645457E+04  0.14662009036E+04  0.00000000000E+00 0. -1.
         22    1    3    3    0    0 -0.15161471926E+02 -0.27352858513E+00 -0.45700286172E+02  0.48150401920E+02  0.00000000000E+00 0. -1.
         22    1    3    3    0    0 -0.32358096321E+02  0.12869527321E+03  0.36042097392E+02  0.13750837258E+03  0.00000000000E+00 0. -1.
</event>
<event>
 7    1  0.6017574E-006  0.1352294E+03  0.7818608E-02  0.1399764E+00
          2   -1    0    0  502    0  0.00000000000E+00  0.00000000000E+00  0.31628627326E+03  0.31628627326E+03  0.00000000000E+00 0. -1.
          1   -1    0    0  501    0 -0.00000000000E+00 -0.00000000000E+00 -0.71610988375E+03  0.71610988375E+03  0.00000000000E+00 0. -1.
         25    2    1    2    0    0 -0.86070312437E+02 -0.91202427344E+02 -0.35068778645E+03  0.39284702442E+03  0.12498351729E+03 0.  0.
          2    1    1    2  501    0  0.81673468982E+02  0.11704759976E+03 -0.32891374006E+03  0.35854559619E+03  0.00000000000E+00 0. -1.
          1    1    1    2  502    0  0.43968434546E+01 -0.25845172418E+02  0.27977791603E+03  0.28100353640E+03  0.00000000000E+00 0. -1.
         22    1    3    3    0    0 -0.11284518933E+03 -0.97684062397E+02 -0.30328342785E+03  0.33801930479E+03  0.00000000000E+00 0. -1.
         22    1    3    3    0    0  0.26774876895E+02  0.64816350527E+01 -0.47404358607E+02  0.54827719638E+02  0.00000000000E+00 0. -1.
</event>
<event>
 7    1  0.6017574E-006  0.3789651E+02  0.7818608E-02  0.1610864E+00
          2   -1    0    0  502    0  0.00000000000E+00  0.00000000000E+00  0.17334397738E+03  0.17334397738E+03  0.00000000000E+00 0. -1.
          1   -1    0    0  501    0 -0.00000000000E+00 -0.00000000000E+00 -0.50394226825E+03  0.50394226825E+03  0.00000000000E+00 0. -1.
         25    2    1    2    0    0  0.39479695439E+02  0.32985442983E+02 -0.87532551962E+01  0.13545640059E+03  0.12500052473E+03 0.  0.
          2    1    1    2  501    0 -0.22001084367E+02  0.14341040459E+00 -0.42835799794E+03  0.42892265349E+03  0.00000000000E+00 0. -1.
          1    1    1    2  502    0 -0.17478611072E+02 -0.33128853387E+02  0.10651296227E+03  0.11290719155E+03  0.00000000000E+00 0. -1.
         22    1    3    3    0    0  0.23000150770E+02  0.73630007727E+00 -0.64778794671E+02  0.68744754798E+02  0.00000000000E+00 0.  1.
         22    1    3    3    0    0  0.16479544669E+02  0.32249142905E+02  0.56025539474E+02  0.66711645790E+02  0.00000000000E+00 0.  1.
</event>
<event>
 7    1  0.6017574E-006  0.9914922E+02  0.7818608E-02  0.1438903E+00
          2   -1    0    0  502    0  0.00000000000E+00  0.00000000000E+00  0.40516599009E+03  0.40516599009E+03  0.00000000000E+00 0. -1.
          1   -1    0    0  501    0 -0.00000000000E+00 -0.00000000000E+00 -0.34786459776E+03  0.34786459776E+03  0.00000000000E+00 0. -1.
         25    2    1    2    0    0  0.24530785026E+02  0.83289453078E+02  0.60109663445E+02  0.16363434580E+03  0.12499654026E+03 0.  0.
          2    1    1    2  501    0 -0.50794362917E+02 -0.86453480619E+02 -0.28698145181E+03  0.30399444945E+03  0.00000000000E+00 0. -1.
          1    1    1    2  502    0  0.26263577891E+02  0.31640275407E+01  0.28417318070E+03  0.28540179260E+03  0.00000000000E+00 0. -1.
         22    1    3    3    0    0  0.34611846170E+02  0.10849449324E+03  0.20649975046E+02  0.11573874212E+03  0.00000000000E+00 0. -1.
         22    1    3    3    0    0 -0.10081061144E+02 -0.25205040158E+02  0.39459688399E+02  0.47895603678E+02  0.00000000000E+00 0. -1.
</event>
<event>
 7    1  0.6017574E-006  0.6681175E+02  0.7818608E-02  0.1383079E+00
          2   -1    0    0  502    0  0.00000000000E+00  0.00000000000E+00  0.18741161863E+03  0.18741161863E+03  0.00000000000E+00 0. -1.
          1   -1    0    0  501    0 -0.00000000000E+00 -0.00000000000E+00 -0.57700118994E+03  0.57700118994E+03  0.00000000000E+00 0. -1.
         25    2    1    2    0    0  0.54449101428E+00 -0.19284805768E+02 -0.11162540186E+03  0.16869427638E+03  0.12500131335E+03 0.  0.
          2    1    1    2  501    0  0.57271274610E+02 -0.19988604632E+02 -0.42690533507E+03  0.43119335376E+03  0.00000000000E+00 0. -1.
          1    1    1    2  502    0 -0.57815765624E+02  0.39273410400E+02  0.14894116563E+03  0.16452517843E+03  0.00000000000E+00 0. -1.
         22    1    3    3    0    0 -0.14549452700E+02  0.47656643979E+01 -0.13254454381E+03  0.13342583792E+03  0.00000000000E+00 0. -1.
         22    1    3    3    0    0  0.15093943715E+02 -0.24050470166E+02  0.20919141944E+02  0.35268438465E+02  0.00000000000E+00 0. -1.
</event>
<event>
 7    1  0.6017574E-006  0.6924797E+02  0.7818608E-02  0.1504844E+00
          2   -1    0    0  502    0  0.00000000000E+00  0.00000000000E+00  0.41500017411E+03  0.41500017411E+03  0.00000000000E+00 0. -1.
          1   -1    0    0  501    0 -0.00000000000E+00 -0.00000000000E+00 -0.10985060788E+03  0.10985060788E+03  0.00000000000E+00 0. -1.
         25    2    1    2    0    0  0.12396924077E+02 -0.52033232297E+02  0.55566271322E+02  0.14687715899E+03  0.12499659329E+03 0.  0.
          2    1    1    2  501    0 -0.92326053006E+00  0.72703692554E+02 -0.42975955883E+02  0.84460713382E+02  0.00000000000E+00 0. -1.
          1    1    1    2  502    0 -0.11473663547E+02 -0.20670460258E+02  0.29255925080E+03  0.29351290962E+03  0.00000000000E+00 0. -1.
         22    1    3    3    0    0  0.14076435049E+02 -0.67989980936E+02  0.87164883714E+02  0.11143832592E+03  0.00000000000E+00 0.  1.
         22    1    3    3    0    0 -0.16795109714E+01  0.15956748640E+02 -0.31598612392E+02  0.35438833070E+02  0.00000000000E+00 0.  1.
</event>
<event>
 7    1  0.6017574E-006  0.8981868E+02  0.7818608E-02  0.1337502E+00
          2   -1    0    0  502    0  0.00000000000E+00  0.00000000000E+00  0.12272959535E+04  0.12272959535E+04  0.00000000000E+00 0. -1.
          1   -1    0    0  501    0 -0.00000000000E+00 -0.00000000000E+00 -0.29672677042E+03  0.29672677042E+03  0.00000000000E+00 0. -1.
         25    2    1    2    0    0 -0.47036092576E+02 -0.12918554798E+03  0.14345057333E+03  0.23474372919E+03  0.12500100636E+03 0.  0.
          2    1    1    2  501    0  0.60413604824E+02  0.64377100193E+02 -0.24222406167E+03  0.25781138596E+03  0.00000000000E+00 0. -1.
          1    1    1    2  502    0 -0.13377512249E+02  0.64808447790E+02  0.10293426714E+04  0.10314676088E+04  0.00000000000E+00 0. -1.
         22    1    3    3    0    0  0.16238695748E+02 -0.72389338261E+02  0.77315003931E+01  0.74590130928E+02  0.00000000000E+00 0.  1.
         22    1    3    3    0    0 -0.63274788324E+02 -0.56796209722E+02  0.13571907294E+03  0.16015359826E+03  0.00000000000E+00 0.  1.
</event>
<event>
 7    1  0.6017574E-006  0.1204991E+03  0.7818608E-02  0.1405359E+00
          2   -1    0    0  502    0  0.00000000000E+00  0.00000000000E+00  0.98200063880E+03  0.98200063880E+03  0.00000000000E+00 0. -1.
          1   -1    0    0  501    0 -0.00000000000E+00 -0.00000000000E+00 -0.37854570496E+03  0.37854570496E+03  0.00000000000E+00 0. -1.
         25    2    1    2    0    0 -0.10336504646E+03  0.20332948227E+01  0.31021766210E+02  0.16515438221E+03  0.12500061148E+03 0.  0.
          2    1    1    2  501    0  0.12120422382E+03  0.19743932568E+02 -0.29913954511E+03  0.32336473864E+03  0.00000000000E+00 0. -1.
          1    1    1    2  502    0 -0.17839177370E+02 -0.21777227391E+02  0.87157271274E+03  0.87202722290E+03  0.00000000000E+00 0. -1.
         22    1    3    3    0    0 -0.43060046242E+02 -0.15688458042E+02 -0.46543323325E+02  0.65319034317E+02  0.00000000000E+00 0.  1.
         22    1    3    3    0    0 -0.60305000213E+02  0.17721752864E+02  0.77565089534E+02  0.99835347897E+02  0.00000000000E+00 0.  1.
</event>
<event>
 7    1  0.6017574E-006  0.4852772E+02  0.7818608E-02  0.1490113E+00
          2   -1    0    0  502    0  0.00000000000E+00  0.00000000000E+00  0.80667838761E+03  0.80667838761E+03  0.00000000000E+00 0. -1.
          1   -1    0    0  501    0 -0.00000000000E+00 -0.00000000000E+00 -0.10239153716E+03  0.10239153716E+03  0.00000000000E+00 0. -1.
         25    2    1    2    0    0 -0.54445397211E+02 -0.63254983481E+02  0.44210690133E+03  0.46695678882E+03  0.12499854483E+03 0.  0.
          2    1    1    2  501    0  0.24007600822E+02  0.41621931724E+02 -0.82469736302E+02  0.95446359299E+02  0.00000000000E+00 0. -1.
          1    1    1    2  502    0  0.30437796389E+02  0.21633051757E+02  0.34464968541E+03  0.34666677665E+03  0.00000000000E+00 0. -1.
         22    1    3    3    0    0  0.36592934192E+02 -0.41922158711E+02  0.13790855797E+03  0.14871207276E+03  0.00000000000E+00 0.  1.
         22    1    3    3    0    0 -0.91038331403E+02 -0.21332824770E+02  0.30419834336E+03  0.31824471606E+03  0.00000000000E+00 0.  1.
</event>
<event>
 7    1  0.6017574E-006  0.1019737E+03  0.7818608E-02  0.1384928E+00
          2   -1    0    0  502    0  0.00000000000E+00  0.00000000000E+00  0.21400605477E+04  0.21400605477E+04  0.00000000000E+00 0. -1.
          1   -1    0    0  501    0 -0.00000000000E+00 -0.00000000000E+00 -0.16333116541E+02  0.16333116541E+02  0.00000000000E+00 0. -1.
         25    2    1    2    0    0 -0.93443646840E+02  0.35481815506E+02  0.77742546059E+03  0.79372950917E+03  0.12500205028E+03 0.  0.
          2    1    1    2  501    0  0.77399486846E+02 -0.71195417081E+02  0.34677045292E+03  0.36236613390E+03  0.00000000000E+00 0. -1.
          1    1    1    2  502    0  0.16044159994E+02  0.35713601574E+02  0.99953151766E+03  0.10002980212E+04  0.00000000000E+00 0. -1.
         22    1    3    3    0    0 -0.15732136770E+02 -0.45284877360E+02  0.23987958710E+03  0.24462304992E+03  0.00000000000E+00 0. -1.
         22    1    3    3    0    0 -0.77711510070E+02  0.80766692867E+02  0.53754587349E+03  0.54910645924E+03  0.00000000000E+00 0. -1.
</event>
<event>
 7    1  0.6017574E-006  0.1902797E+03  0.7818608E-02  0.1269474E+00
          2   -1    0    0  502    0  0.00000000000E+00  0.00000000000E+00  0.22578540085E+04  0.22578540085E+04  0.00000000000E+00 0. -1.
          1   -1    0    0  501    0 -0.00000000000E+00 -0.00000000000E+00 -0.80417185273E+03  0.80417185273E+03  0.00000000000E+00 0. -1.
         25    2    1    2    0    0  0.14594680354E+03 -0.15181946901E+03 -0.59182341114E+03  0.64049132702E+03  0.12499827754E+03 0.  0.
          2    1    1    2  501    0 -0.56114905182E+02 -0.15826593137E+02 -0.17933721214E+03  0.18857677294E+03  0.00000000000E+00 0. -1.
          1    1    1    2  502    0 -0.89831898357E+02  0.16764606214E+03  0.22248427791E+04  0.22329577613E+04  0.00000000000E+00 0. -1.
         22    1    3    3    0    0  0.14136783806E+03 -0.67408716885E+02 -0.43499515448E+03  0.46233060160E+03  0.00000000000E+00 0. -1.
         22    1    3    3    0    0  0.45789654814E+01 -0.84410752121E+02 -0.15682825665E+03  0.17816072542E+03  0.00000000000E+00 0. -1.
</event>
<event>
 7    1  0.6017574E-006  0.3406956E+02  0.7818608E-02  0.1601955E+00
          2   -1    0    0  502    0  0.00000000000E+00  0.00000000000E+00  0.41118037378E+02  0.41118037378E+02  0.00000000000E+00 0. -1.
          1   -1    0    0  501    0 -0.00000000000E+00 -0.00000000000E+00 -0.15636060831E+04  0.15636060831E+04  0.00000000000E+00 0. -1.
         25    2    1    2    0    0 -0.10177034075E+02  0.84317366021E+01 -0.24491773997E+03  0.27528821658E+03  0.12499694650E+03 0.  0.
          2    1    1    2  501    0 -0.24928073521E+02 -0.66862222412E+01 -0.12914048777E+04  0.12916627549E+04  0.00000000000E+00 0. -1.
          1    1    1    2  502    0  0.35105107596E+02 -0.17455143610E+01  0.13834571938E+02  0.37773148934E+02  0.00000000000E+00 0. -1.
         22    1    3    3    0    0 -0.62931238981E+02 -0.15506457233E+02 -0.15860205392E+03  0.17133418387E+03  0.00000000000E+00 0. -1.
         22    1    3    3    0    0  0.52754204906E+02  0.23938193835E+02 -0.86315686051E+02  0.10395403272E+03  0.00000000000E+00 0. -1.
</event>
<event>
 7    1  0.6017574E-006  0.1041501E+03  0.7818608E-02  0.1373351E+00
          2   -1    0    0  502    0  0.00000000000E+00  0.00000000000E+00  0.25067349888E+03  0.25067349888E+03  0.00000000000E+00 0. -1.
          1   -1    0    0  501    0 -0.00000000000E+00 -0.00000000000E+00 -0.35359347226E+03  0.35359347226E+03  0.00000000000E+00 0. -1.
         25    2    1    2    0    0 -0.92854470644E+02  0.78374487018E+02 -0.79512017748E+02  0.19160182759E+03  0.12499834573E+03 0.  0.
          2    1    1    2  501    0 -0.35233501143E+01 -0.41986952755E+02 -0.20207763084E+03  0.20642356233E+03  0.00000000000E+00 0. -1.
          1    1    1    2  502    0  0.96377820759E+02 -0.36387534262E+02  0.17866967521E+03  0.20624158122E+03  0.00000000000E+00 0. -1.
         22    1    3    3    0    0 -0.69664384251E+02  0.10091066497E+03 -0.95599664994E+02  0.15548435512E+03  0.00000000000E+00 0.  1.
         22    1    3    3    0    0 -0.23190086393E+02 -0.22536177957E+02  0.16087647247E+02  0.36117472472E+02  0.00000000000E+00 0.  1.
</event>
<event>
 7    1  0.6017574E-006  0.1019400E+03  0.7818608E-02  0.1330808E+00
          2   -1    0    0  502    0  0.00000000000E+00  0.00000000000E+00  0.11221537610E+03  0.11221537610E+03  0.00000000000E+00 0. -1.
          1   -1    0    0  501    0 -0.00000000000E+00 -0.00000000000E+00 -0.17963498622E+04  0.17963498622E+04  0.00000000000E+00 0. -1.
         25    2    1    2    0    0  0.44041067379E+02  0.40115096836E+02 -0.40084774032E+03  0.42408972440E+03  0.12499738723E+03 0.  0.
          2    1    1    2  501    0  0.59019698219E+02 -0.18392344542E+02 -0.13554125433E+04  0.13568215674E+04  0.00000000000E+00 0. -1.
          1    1    1    2  502    0 -0.10306076560E+03 -0.21722752294E+02  0.72125797585E+02  0.12765394647E+03  0.00000000000E+00 0. -1.
         22    1    3    3    0    0  0.36771297732E+02  0.81462070081E+02 -0.20248416097E+03  0.22133240306E+03  0.00000000000E+00 0.  1.
         22    1    3    3    0    0  0.72697696469E+01 -0.41346973245E+02 -0.19836357935E+03  0.20275732134E+03  0.00000000000E+00 0.  1.
</event>
<event>
 7    1  0.6017574E-006  0.9147522E+02  0.7818608E-02  0.1458304E+00
          2   -1    0    0  502    0  0.00000000000E+00  0.00000000000E+00  0.52453858524E+03  0.52453858524E+03  0.00000000000E+00 0. -1.
          1   -1    0    0  501    0 -0.00000000000E+00 -0.00000000000E+00 -0.36792660488E+04  0.36792660488E+04  0.00000000000E+00 0. -1.
         25    2    1    2    0    0  0.10582415369E+03 -0.16959553830E+02 -0.58466236207E+03  0.60740572778E+03  0.12500105018E+03 0.  0.
          2    1    1    2  501    0 -0.90619336759E+02 -0.26916468340E+01 -0.30822643535E+04  0.30835973560E+04  0.00000000000E+00 0. -1.
          1    1    1    2  502    0 -0.15204816929E+02  0.19651200664E+02  0.51219925203E+03  0.51280155023E+03  0.00000000000E+00 0. -1.
         22    1    3    3    0    0 -0.16984606480E+02 -0.12437559042E+02 -0.18393217455E+02  0.27954967011E+02  0.00000000000E+00 0.  1.
         22    1    3    3    0    0  0.12280876017E+03 -0.45219947875E+01 -0.56626914461E+03  0.57945076077E+03  0.00000000000E+00 0.  1.
</event>
<event>
 7    1  0.6017574E-006  0.1024484E+03  0.7818608E-02  0.1351648E+00
          2   -1    0    0  502    0  0.00000000000E+00  0.00000000000E+00  0.65050749344E+03  0.65050749344E+03  0.00000000000E+00 0. -1.
          1   -1    0    0  501    0 -0.00000000000E+00 -0.00000000000E+00 -0.35301297520E+03  0.35301297520E+03  0.00000000000E+00 0. -1.
         25    2    1    2    0    0  0.12804047391E+03 -0.56251537289E+02  0.35082429029E+03  0.39781861108E+03  0.12499346485E+03 0.  0.
          2    1    1    2  501    0 -0.50585060658E+02  0.89426242339E+01 -0.31995488594E+03  0.32405238454E+03  0.00000000000E+00 0. -1.
          1    1    1    2  502    0 -0.77455413256E+02  0.47308913056E+02  0.26662511389E+03  0.28164947303E+03  0.00000000000E+00 0. -1.
         22    1    3    3    0    0  0.37465130962E+02 -0.13932849524E+02  0.80656258278E+01  0.40777624426E+02  0.00000000000E+00 0. -1.
         22    1    3    3    0    0  0.90575342952E+02 -0.42318687765E+02  0.34275866446E+03  0.35704098665E+03  0.00000000000E+00 0. -1.
</event>
<event>
 7    1  0.6017574E-006  0.1402819E+03  0.7818608E-02  0.1419392E+00
          2   -1    0    0  502    0  0.00000000000E+00  0.00000000000E+00  0.82394422295E+03  0.82394422295E+03  0.00000000000E+00 0. -1.
          1   -1    0    0  501    0 -0.00000000000E+00 -0.00000000000E+00 -0.20897890775E+03  0.20897890775E+03  0.00000000000E+00 0. -1.
         25    2    1    2    0    0  0.85702364967E+02 -0.92240754294E+02  0.16664540937E+03  0.24341566739E+03  0.12500896988E+03 0.  0.
          2    1    1    2  501    0  0.16403334137E+01 -0.21619165338E+02 -0.16154165762E+03  0.16299014127E+03  0.00000000000E+00 0. -1.
          1    1    1    2  502    0 -0.87342698380E+02  0.11385991963E+03  0.60986156345E+03  0.62651732205E+03  0.00000000000E+00 0. -1.
         22    1    3    3    0    0  0.24348808933E+02  0.26136055048E+02  0.87895715139E+01  0.36786063085E+02  0.00000000000E+00 0. -1.
         22    1    3    3    0    0  0.61353556034E+02 -0.11837680934E+03  0.15785583786E+03  0.20662960430E+03  0.00000000000E+00 0. -1.
</event>
<event>
 7    1  0.6017574E-006  0.1198261E+03  0.7818608E-02  0.1337369E+00
          2   -1    0    0  502    0  0.00000000000E+00  0.00000000000E+00  0.48633700324E+02  0.48633700324E+02  0.00000000000E+00 0. -1.
          1   -1    0    0  501    0 -0.00000000000E+00 -0.00000000000E+00 -0.14071095575E+04  0.14071095575E+04  0.00000000000E+00 0. -1.
         25    2    1    2    0    0  0.10797202257E+03 -0.17152224224E+02 -0.25660990459E+03  0.30565679065E+03  0.12500109634E+03 0.  0.
          2    1    1    2  501    0 -0.11836020214E+03 -0.31409475095E+02 -0.10927577399E+04  0.10995977313E+04  0.00000000000E+00 0. -1.
          1    1    1    2  502    0  0.10388179573E+02  0.48561699320E+02 -0.91082127446E+01  0.50488735923E+02  0.00000000000E+00 0. -1.
         22    1    3    3    0    0  0.42398664937E+02  0.51993973866E+02 -0.13852773494E+03  0.15391865856E+03  0.00000000000E+00 0.  1.
         22    1    3    3    0    0  0.65573357630E+02 -0.69146198091E+02 -0.11808216965E+03  0.15173813209E+03  0.00000000000E+00 0.  1.
</event>
<event>
 7    1  0.6017574E-006  0.1079063E+03  0.7818608E-02  0.1461589E+00
          2   -1    0    0  502    0  0.00000000000E+00  0.00000000000E+00  0.71428285976E+03  0.71428285976E+03  0.00000000000E+00 0. -1.
          1   -1    0    0  501    0 -0.00000000000E+00 -0.00000000000E+00 -0.40061837181E+03  0.40061837181E+03  0.00000000000E+00 0. -1.
         25    2    1    2    0    0 -0.10115781503E+03  0.76979113498E+02  0.13449003139E+03  0.22331845130E+03  0.12499949877E+03 0.  0.
          2    1    1    2  501    0  0.87617239940E+02 -0.61498875484E+02 -0.34795673814E+03  0.36405052402E+03  0.00000000000E+00 0. -1.
          1    1    1    2  502    0  0.13540575093E+02 -0.15480238014E+02  0.52713119471E+03  0.52753225624E+03  0.00000000000E+00 0. -1.
         22    1    3    3    0    0  0.26245252478E+02  0.22509489346E+02  0.50788219087E+02  0.61440488167E+02  0.00000000000E+00 0. -1.
         22    1    3    3    0    0 -0.12740306751E+03  0.54469624152E+02  0.83701812305E+02  0.16187796314E+03  0.00000000000E+00 0. -1.
</event>
<event>
 7    1  0.6017574E-006  0.5274155E+02  0.7818608E-02  0.1432252E+00
          2   -1    0    0  502    0  0.00000000000E+00  0.00000000000E+00  0.63414942016E+03  0.63414942016E+03  0.00000000000E+00 0. -1.
          1   -1    0    0  501    0 -0.00000000000E+00 -0.00000000000E+00 -0.59954273767E+03  0.59954273767E+03  0.00000000000E+00 0. -1.
         25    2    1    2    0    0  0.41990910899E+02 -0.24450120921E+02 -0.13795760378E+03  0.19240165529E+03  0.12500020602E+03 0.  0.
          2    1    1    2  501    0  0.31117250817E+01  0.52188138316E+02 -0.43162788568E+03  0.43478260811E+03  0.00000000000E+00 0. -1.
          1    1    1    2  502    0 -0.45102635980E+02 -0.27738017395E+02  0.60419217194E+03  0.60650789444E+03  0.00000000000E+00 0. -1.
         22    1    3    3    0    0  0.84788792149E+02 -0.76566961404E+01 -0.10803249633E+03  0.13754557257E+03  0.00000000000E+00 0. -1.
         22    1    3    3    0    0 -0.42797881251E+02 -0.16793424781E+02 -0.29925107446E+02  0.54856082717E+02  0.00000000000E+00 0. -1.
</event>
<event>
 7    1  0.6017574E-006  0.1401067E+03  0.7818608E-02  0.1257621E+00
          2   -1    0    0  502    0  0.00000000000E+00  0.00000000000E+00  0.36839225429E+04  0.36839225429E+04  0.00000000000E+00 0. -1.
          1   -1    0    0  501    0 -0.00000000000E+00 -0.00000000000E+00 -0.42277504619E+03  0.42277504619E+03  0.00000000000E+00 0. -1.
         25    2    1    2    0    0 -0.80774410635E+02  0.54162592872E+02 -0.80442383715E+02  0.17762116230E+03  0.12498083180E+03 0.  0.
          2    1    1    2  501    0 -0.59507109139E+02 -0.66053831592E+02 -0.28561914573E+03  0.29913625844E+03  0.00000000000E+00 0. -1.
          1    1    1    2  502    0  0.14028151977E+03  0.11891238720E+02  0.36272090262E+04  0.36299401684E+04  0.00000000000E+00 0. -1.
         22    1    3    3    0    0 -0.65793588093E+02  0.39830438512E+02  0.16353270306E+02  0.78630080223E+02  0.00000000000E+00 0. -1.
         22    1    3    3    0    0 -0.14980822541E+02  0.14332154360E+02 -0.96795654021E+02  0.98991082073E+02  0.00000000000E+00 0. -1.
</event>
<event>
 7    1  0.6017574E-006  0.8639953E+02  0.7818608E-02  0.1435412E+00
          2   -1    0    0  502    0  0.00000000000E+00  0.00000000000E+00  0.13673449522E+04  0.13673449522E+04  0.00000000000E+00 0. -1.
          1   -1    0    0  501    0 -0.00000000000E+00 -0.00000000000E+00 -0.11734838462E+03  0.11734838462E+03  0.00000000000E+00 0. -1.
         25    2    1    2    0    0 -0.45936917235E+02 -0.36869279971E+02  0.30766663113E+03  0.33727128158E+03  0.12499446907E+03 0.  0.
          2    1    1    2  501    0 -0.22813103532E+02 -0.21229193351E+02 -0.98189827342E+02  0.10301630229E+03  0.00000000000E+00 0. -1.
          1    1    1    2  502    0  0.68750020767E+02  0.58098473322E+02  0.10405197638E+04  0.10444057529E+04  0.00000000000E+00 0. -1.
         22    1    3    3    0    0  0.15021020918E+02 -0.66846888593E+02  0.18110580465E+03  0.19363225471E+03  0.00000000000E+00 0. -1.
         22    1    3    3    0    0 -0.60957938153E+02  0.29977608622E+02  0.12656082648E+03  0.14363902687E+03  0.00000000000E+00 0. -1.
</event>
<event>
 7    1  0.6017574E-006  0.3023249E+02  0.7818608E-02  0.1658098E+00
          2   -1    0    0  502    0  0.00000000000E+00  0.00000000000E+00  0.98268148687E+03  0.98268148687E+03  0.00000000000E+00 0. -1.
          1   -1    0    0  501    0 -0.00000000000E+00 -0.00000000000E+00 -0.22210763598E+02  0.22210763598E+02  0.00000000000E+00 0. -1.
         25    2    1    2    0    0 -0.25429684130E+02  0.97525942951E+01  0.44414407835E+03  0.46220356275E+03  0.12500555650E+03 0.  0.
          2    1    1    2  501    0  0.11462316423E+02  0.17608767186E+02 -0.40571457814E+01  0.21398920802E+02  0.00000000000E+00 0. -1.
          1    1    1    2  502    0  0.13967367707E+02 -0.27361361481E+02  0.52038379070E+03  0.52128976691E+03  0.00000000000E+00 0. -1.
         22    1    3    3    0    0 -0.23295998658E+02  0.64448822881E+02  0.30664953749E+03  0.31421376986E+03  0.00000000000E+00 0.  1.
         22    1    3    3    0    0 -0.21336854727E+01 -0.54696228586E+02  0.13749454086E+03  0.14798979289E+03  0.00000000000E+00 0.  1.
</event>
<event>
 7    1  0.6017574E-006  0.1061124E+03  0.7818608E-02  0.1365246E+00
          2   -1    0    0  502    0  0.00000000000E+00  0.00000000000E+00  0.47965014714E+03  0.47965014714E+03  0.00000000000E+00 0. -1.
          1   -1    0    0  501    0 -0.00000000000E+00 -0.00000000000E+00 -0.18456482027E+04  0.18456482027E+04  0.00000000000E+00 0. -1.
         25    2    1    2    0    0 -0.80097523945E+02 -0.38934553127E+01 -0.66333886159E+02  0.16265067111E+03  0.12499713606E+03 0.  0.
          2    1    1    2  501    0  0.10136310260E+03 -0.34886830625E+02 -0.17283575752E+04  0.17316788032E+04  0.00000000000E+00 0. -1.
          1    1    1    2  502    0 -0.21265578651E+02  0.38780285938E+02  0.42869340588E+03  0.43096887551E+03  0.00000000000E+00 0. -1.
         22    1    3    3    0    0  0.21013120739E+02 -0.27065127390E+02 -0.45314165493E+02  0.56810614837E+02  0.00000000000E+00 0. -1.
         22    1    3    3    0    0 -0.10111064468E+03  0.23171672078E+02 -0.21019720667E+02  0.10584005628E+03  0.00000000000E+00 0. -1.
</event>
<event>
 7    1  0.6017574E-006  0.4835381E+02  0.7818608E-02  0.1554457E+00
          2   -1    0    0  502    0  0.00000000000E+00  0.00000000000E+00  0.45627605297E+02  0.45627605297E+02  0.00000000000E+00 0. -1.
          1   -1    0    0  501    0 -0.00000000000E+00 -0.00000000000E+00 -0.14737331776E+04  0.14737331776E+04  0.00000000000E+00 0. -1.
         25    2    1    2    0    0  0.27433701107E+02 -0.65950319202E+02 -0.48989285012E+03  0.51061005067E+03  0.12500226673E+03 0.  0.
          2    1    1    2  501    0 -0.19286474140E+02  0.42949986144E+02 -0.96862002857E+03  0.96976359446E+03  0.00000000000E+00 0. -1.
          1    1    1    2  502    0 -0.81472269666E+01  0.23000333057E+02  0.30407306397E+02  0.38987137755E+02  0.00000000000E+00 0. -1.
         22    1    3    3    0    0  0.27488719880E+02  0.33946310209E+02 -0.16693633341E+03  0.17255642877E+03  0.00000000000E+00 0. -1.
         22    1    3    3    0    0 -0.55018773162E-01 -0.99896629411E+02 -0.32295651671E+03  0.33805362190E+03  0.00000000000E+00 0. -1.
</event>
<event>
 7    1  0.6017574E-006  0.7037379E+02  0.7818608E-02  0.1409497E+00
          2   -1    0    0  502    0  0.00000000000E+00  0.00000000000E+00  0.21822245483E+04  0.21822245483E+04  0.00000000000E+00 0. -1.
          1   -1    0    0  501    0 -0.00000000000E+00 -0.00000000000E+00 -0.11429137247E+04  0.11429137247E+04  0.00000000000E+00 0. -1.
         25    2    1    2    0    0 -0.86783486219E+02 -0.31098931791E+02  0.83149858563E+02  0.17617176299E+03  0.12499629617E+03 0.  0.
          2    1    1    2  501    0  0.17592071789E+02  0.43222143967E+02 -0.10953048064E+04  0.10962984328E+04  0.00000000000E+00 0. -1.
          1    1    1    2  502    0  0.69191414430E+02 -0.12123212176E+02  0.20514657714E+04  0.20526680773E+04  0.00000000000E+00 0. -1.
         22    1    3    3    0    0 -0.20919998939E+02 -0.26277024381E+02 -0.30081698917E+02  0.45089211301E+02  0.00000000000E+00 0.  1.
         22    1    3    3    0    0 -0.65863487280E+02 -0.48219074101E+01  0.11323155748E+03  0.13108255169E+03  0.00000000000E+00 0.  1.
</event>
<event>
 7    1  0.6017574E-006  0.3074308E+02  0.7818608E-02  0.1612083E+00
          2   -1    0    0  502    0  0.00000000000E+00  0.00000000000E+00  0.32398487683E+02  0.32398487683E+02  0.00000000000E+00 0. -1.
          1   -1    0    0  501    0 -0.00000000000E+00 -0.00000000000E+00 -0.14614435248E+04  0.14614435248E+04  0.00000000000E+00 0. -1.
         25    2    1    2    0    0 -0.29227472887E+01  0.17326338236E+02 -0.26989406059E+03  0.29795358790E+03  0.12499916860E+03 0.  0.
          2    1    1    2  501    0 -0.23882915075E+02 -0.19865533009E+02 -0.11673336052E+04  0.11677468813E+04  0.00000000000E+00 0. -1.
          1    1    1    2  502    0  0.26805662364E+02  0.25391947727E+01  0.81826286698E+01  0.28141543256E+02  0.00000000000E+00 0. -1.
         22    1    3    3    0    0  0.14008074569E+02  0.52114689795E+02 -0.46502946520E+02  0.71236866021E+02  0.00000000000E+00 0.  1.
         22    1    3    3    0    0 -0.16930821858E+02 -0.34788351558E+02 -0.22339111407E+03  0.22671672188E+03  0.00000000000E+00 0.  1.
</event>
<event>
 7    1  0.6017574E-006  0.2353843E+03  0.7818608E-02  0.1260395E+00
          2   -1    0    0  502    0  0.00000000000E+00  0.00000000000E+00  0.66925660372E+03  0.66925660372E+03  0.00000000000E+00 0. -1.
          1   -1    0    0  501    0 -0.00000000000E+00 -0.00000000000E+00 -0.16225752676E+04  0.16225752676E+04  0.00000000000E+00 0. -1.
         25    2    1    2    0    0  0.21118935802E+03  0.42949062394E+02 -0.10382093131E+04  0.10676839028E+04  0.12499908600E+03 0.  0.
          2    1    1    2  501    0  0.50679659432E+01  0.51243615289E+02 -0.54712836641E+03  0.54954621436E+03  0.00000000000E+00 0. -1.
          1    1    1    2  502    0 -0.21625732397E+03 -0.94192677682E+02  0.63201901561E+03  0.67460175422E+03  0.00000000000E+00 0. -1.
         22    1    3    3    0    0  0.46659741937E+02  0.67659823716E+02 -0.37823306085E+03  0.38705972612E+03  0.00000000000E+00 0. -1.
         22    1    3    3    0    0  0.16452961609E+03 -0.24710761322E+02 -0.65997625225E+03  0.68062417664E+03  0.00000000000E+00 0. -1.
</event>
<event>
 7    1  0.1135944E-005  0.9460016E+02  0.7818608E-02  0.1374701E+00
          2   -1    0    0  502    0  0.00000000000E+00  0.00000000000E+00  0.30771359437E+04  0.30771359437E+04  0.00000000000E+00 0. -1.
          1   -1    0    0  501    0 -0.00000000000E+00 -0.00000000000E+00 -0.63525848944E+03  0.63525848944E+03  0.00000000000E+00 0. -1.
         25    2    1    2    0    0  0.31775921471E+02 -0.13162138729E+03 -0.22380482604E+03  0.28990942394E+03  0.12499990061E+03 0.  0.
          2    1    1    2  501    0  0.68072772595E+01  0.45367586353E+02 -0.37627464467E+03  0.37906089898E+03  0.00000000000E+00 0. -1.
          1    1    1    2  502    0 -0.38583198731E+02  0.86253800932E+02  0.30419569249E+04  0.30434241102E+04  0.00000000000E+00 0. -1.
         22    1    3    3    0    0  0.68891855840E+02 -0.86309915097E+02 -0.19623086803E+03  0.22517114117E+03  0.00000000000E+00 0. -1.
         22    1    3    3    0    0 -0.37115934368E+02 -0.45311472189E+02 -0.27573958003E+02  0.64738282769E+02  0.00000000000E+00 0. -1.
</event>
<event>
 7    1  0.6017574E-006  0.8017543E+02  0.7818608E-02  0.1419170E+00
          2   -1    0    0  502    0  0.00000000000E+00  0.00000000000E+00  0.21796507974E+04  0.21796507974E+04  0.00000000000E+00 0. -1.
          1   -1    0    0  501    0 -0.00000000000E+00 -0.00000000000E+00 -0.45338027895E+02  0.45338027895E+02  0.00000000000E+00 0. -1.
         25    2    1    2    0    0  0.93579832679E+02  0.46325100484E+02  0.76995183770E+03  0.78698992606E+03  0.12499644523E+03 0.  0.
          2    1    1    2  501    0 -0.37325104468E+02  0.71327320880E+01 -0.25634725715E+02  0.45838613124E+02  0.00000000000E+00 0. -1.
          1    1    1    2  502    0 -0.56254728211E+02 -0.53457832572E+02  0.13899956575E+04  0.13921602861E+04  0.00000000000E+00 0. -1.
         22    1    3    3    0    0  0.11027698484E+03  0.21640683286E+02  0.38992940486E+03  0.40580078035E+03  0.00000000000E+00 0. -1.
         22    1    3    3    0    0 -0.16697152162E+02  0.24684417198E+02  0.38002243285E+03  0.38118914571E+03  0.00000000000E+00 0. -1.
</event>
<event>
 7    1  0.6017574E-006  0.4867609E+02  0.7818608E-02  0.1535326E+00
          2   -1    0    0  502    0  0.00000000000E+00  0.00000000000E+00  0.11485784659E+04  0.11485784659E+04  0.00000000000E+00 0. -1.
          1   -1    0    0  501    0 -0.00000000000E+00 -0.00000000000E+00 -0.23736502333E+03  0.23736502333E+03  0.00000000000E+00 0. -1.
         25    2    1    2    0    0  0.35451136276E+02  0.14490674072E+02 -0.26692370874E+02  0.13339394745E+03  0.12495879263E+03 0.  0.
          2    1    1    2  501    0 -0.83987623897E+01  0.26114065938E+02 -0.15557795063E+03  0.15797779075E+03  0.00000000000E+00 0. -1.
          1    1    1    2  502    0 -0.27052373887E+02 -0.40604740010E+02  0.10934837641E+04  0.10945717511E+04  0.00000000000E+00 0. -1.
         22    1    3    3    0    0  0.75345972886E+02  0.11896787357E+02  0.12629400847E+02  0.77317856575E+02  0.00000000000E+00 0. -1.
         22    1    3    3    0    0 -0.39894836610E+02  0.25938867158E+01 -0.39321771721E+02  0.56076090874E+02  0.00000000000E+00 0. -1.
</event>
<event>
 7    1  0.6017574E-006  0.4011023E+02  0.7818608E-02  0.1547289E+00
          2   -1    0    0  502    0  0.00000000000E+00  0.00000000000E+00  0.91487507131E+03  0.91487507131E+03  0.00000000000E+00 0. -1.
          1   -1    0    0  501    0 -0.00000000000E+00 -0.00000000000E+00 -0.94652385688E+02  0.94652385688E+02  0.00000000000E+00 0. -1.
         25    2    1    2    0    0  0.48920568172E+01  0.96282563294E+01  0.10272208566E+03  0.16215205031E+03  0.12499929999E+03 0.  0.
          2    1    1    2  501    0 -0.20075270340E+02 -0.36425650555E+02 -0.57940525752E+02  0.71322850630E+02  0.00000000000E+00 0. -1.
          1    1    1    2  502    0  0.15183213523E+02  0.26797394225E+02  0.77544112571E+03  0.77605255605E+03  0.00000000000E+00 0. -1.
         22    1    3    3    0    0 -0.35740322026E+02  0.31981584962E+02 -0.15995334558E+01  0.47986986804E+02  0.00000000000E+00 0. -1.
         22    1    3    3    0    0  0.40632378844E+02 -0.22353328633E+02  0.10432161912E+03  0.11416506351E+03  0.00000000000E+00 0. -1.
</event>
<event>
 7    1  0.6017574E-006  0.7000454E+02  0.7818608E-02  0.1363982E+00
          2   -1    0    0  502    0  0.00000000000E+00  0.00000000000E+00  0.45992960669E+03  0.45992960669E+03  0.00000000000E+00 0. -1.
          1   -1    0    0  501    0 -0.00000000000E+00 -0.00000000000E+00 -0.42338092984E+03  0.42338092984E+03  0.00000000000E+00 0. -1.
         25    2    1    2    0    0 -0.17485688164E+02 -0.65648000837E+02  0.39232901863E+02  0.14758081243E+03  0.12500186520E+03 0.  0.
          2    1    1    2  501    0 -0.51379901158E+02  0.44163657960E+02 -0.36248804110E+03  0.36876537645E+03  0.00000000000E+00 0. -1.
          1    1    1    2  502    0  0.68865589322E+02  0.21484342877E+02  0.35980381608E+03  0.36696434765E+03  0.00000000000E+00 0. -1.
         22    1    3    3    0    0 -0.36426034643E+02 -0.91114640724E+01 -0.35706485953E+02  0.51815325113E+02  0.00000000000E+00 0. -1.
         22    1    3    3    0    0  0.18940346479E+02 -0.56536536764E+02  0.74939387817E+02  0.95765487313E+02  0.00000000000E+00 0. -1.
</event>
<event>
 7    1  0.6017574E-006  0.1019572E+03  0.7818608E-02  0.1313319E+00
          2   -1    0    0  502    0  0.00000000000E+00  0.00000000000E+00  0.19457601527E+04  0.19457601527E+04  0.00000000000E+00 0. -1.
          1   -1    0    0  501    0 -0.00000000000E+00 -0.00000000000E+00 -0.13035380027E+03  0.13035380027E+03  0.00000000000E+00 0. -1.
         25    2    1    2    0    0 -0.85265025980E+02  0.99424083588E+02  0.59999529315E+02  0.19073633765E+03  0.12500053572E+03 0.  0.
          2    1    1    2  501    0  0.13079556034E+02 -0.97003951203E+02 -0.26976794533E+02  0.10153122071E+03  0.00000000000E+00 0. -1.
          1    1    1    2  502    0  0.72185469946E+02 -0.24201323851E+01  0.17823836176E+04  0.17838463946E+04  0.00000000000E+00 0. -1.
         22    1    3    3    0    0 -0.90135939911E+02  0.11410934434E+03  0.18673228948E+02  0.14660872965E+03  0.00000000000E+00 0.  1.
         22    1    3    3    0    0  0.48709139311E+01 -0.14685260756E+02  0.41326300367E+02  0.44127608002E+02  0.00000000000E+00 0.  1.
</event>
<event>
 7    1  0.6017574E-006  0.8627653E+02  0.7818608E-02  0.1463028E+00
          2   -1    0    0  502    0  0.00000000000E+00  0.00000000000E+00  0.40990586690E+03  0.40990586690E+03  0.00000000000E+00 0. -1.
          1   -1    0    0  501    0 -0.00000000000E+00 -0.00000000000E+00 -0.97970070372E+03  0.97970070372E+03  0.00000000000E+00 0. -1.
         25    2    1    2    0    0 -0.29923307477E+02  0.94838178362E+02 -0.27704207822E+03  0.31979837343E+03  0.12501600753E+03 0.  0.
          2    1    1    2  501    0  0.43197075425E+02 -0.73116885589E+02 -0.67821250966E+03  0.68350879625E+03  0.00000000000E+00 0. -1.
          1    1    1    2  502    0 -0.13273767947E+02 -0.21721292773E+02  0.38545975106E+03  0.38629940094E+03  0.00000000000E+00 0. -1.
         22    1    3    3    0    0 -0.25022397757E+02 -0.26763781242E+02 -0.47493042807E+02  0.59983410131E+02  0.00000000000E+00 0. -1.
         22    1    3    3    0    0 -0.49009097207E+01  0.12160195960E+03 -0.22954903541E+03  0.25981496330E+03  0.00000000000E+00 0. -1.
</event>
<event>
 7    1  0.6017574E-006  0.3910027E+02  0.7818608E-02  0.1547307E+00
          2   -1    0    0  502    0  0.00000000000E+00  0.00000000000E+00  0.12022163320E+03  0.12022163320E+03  0.00000000000E+00 0. -1.
          1   -1    0    0  501    0 -0.00000000000E+00 -0.00000000000E+00 -0.17610509196E+04  0.17610509196E+04  0.00000000000E+00 0. -1.
         25    2    1    2    0    0  0.24791701251E+02 -0.21531923487E+02 -0.17595632340E+03  0.21831858262E+03  0.12499649432E+03 0.  0.
          2    1    1    2  501    0 -0.26022780698E+02 -0.17912460665E+02 -0.15598160059E+04  0.15601358959E+04  0.00000000000E+00 0. -1.
          1    1    1    2  502    0  0.12310794466E+01  0.39444384152E+02  0.94943042923E+02  0.10281807427E+03  0.00000000000E+00 0. -1.
         22    1    3    3    0    0 -0.43402538546E+02  0.20471306143E+02 -0.52198495819E+02  0.70905131643E+02  0.00000000000E+00 0. -1.
         22    1    3    3    0    0  0.68194239797E+02 -0.42003229630E+02 -0.12375782758E+03  0.14741345097E+03  0.00000000000E+00 0. -1.
</event>
<event>
 7    1  0.6017574E-006  0.8628969E+02  0.7818608E-02  0.1359514E+00
          2   -1    0    0  502    0  0.00000000000E+00  0.00000000000E+00  0.45712811450E+03  0.45712811450E+03  0.00000000000E+00 0. -1.
          1   -1    0    0  501    0 -0.00000000000E+00 -0.00000000000E+00 -0.15641575688E+04  0.15641575688E+04  0.00000000000E+00 0. -1.
         25    2    1    2    0    0 -0.26141189737E+02 -0.64757419188E+02 -0.30930647051E+02  0.14648488108E+03  0.12499692123E+03 0.  0.
          2    1    1    2  501    0 -0.28140644820E+02  0.82352928248E+02 -0.14721197404E+04  0.14746899439E+04  0.00000000000E+00 0. -1.
          1    1    1    2  502    0  0.54281834558E+02 -0.17595509059E+02  0.39602093310E+03  0.40011085833E+03  0.00000000000E+00 0. -1.
         22    1    3    3    0    0 -0.52487084404E+02 -0.70794934403E+02 -0.60135741283E+02  0.10669172482E+03  0.00000000000E+00 0.  1.
         22    1    3    3    0    0  0.26345894666E+02  0.60375152145E+01  0.29205094232E+02  0.39793156256E+02  0.00000000000E+00 0.  1.
</event>
<event>
 7    1  0.6017574E-006  0.6147425E+02  0.7818608E-02  0.1420894E+00
          2   -1    0    0  502    0  0.00000000000E+00  0.00000000000E+00  0.53112256391E+03  0.53112256391E+03  0.00000000000E+00 0. -1.
          1   -1    0    0  501    0 -0.00000000000E+00 -0.00000000000E+00 -0.72203719702E+03  0.72203719702E+03  0.00000000000E+00 0. -1.
         25    2    1    2    0    0  0.73706882195E+02  0.72792624783E+02 -0.24696094194E+03  0.29554356895E+03  0.12499929440E+03 0.  0.
          2    1    1    2  501    0 -0.50130546590E+02 -0.29942571442E+02 -0.44770472498E+03  0.45149656705E+03  0.00000000000E+00 0. -1.
          1    1    1    2  502    0 -0.23576335604E+02 -0.42850053341E+02  0.50375103381E+03  0.50611962493E+03  0.00000000000E+00 0. -1.
         22    1    3    3    0    0 -0.14012834333E+02  0.70069786614E+02 -0.82600322682E+02  0.10921972271E+03  0.00000000000E+00 0.  1.
         22    1    3    3    0    0  0.87719716527E+02  0.27228381691E+01 -0.16436061926E+03  0.18632384624E+03  0.00000000000E+00 0.  1.
</event>
<event>
 7    1  0.6017574E-006  0.4293098E+02  0.7818608E-02  0.1495092E+00
          2   -1    0    0  502    0  0.00000000000E+00  0.00000000000E+00  0.84433482093E+02  0.84433482093E+02  0.00000000000E+00 0. -1.
          1   -1    0    0  501    0 -0.00000000000E+00 -0.00000000000E+00 -0.80523602102E+03  0.80523602102E+03  0.00000000000E+00 0. -1.
         25    2    1    2    0    0  0.55218541278E+02  0.62156397632E+02 -0.50287988842E+03  0.52481054345E+03  0.12500167707E+03 0.  0.
          2    1    1    2  501    0 -0.28399831698E+02 -0.29260796961E+02 -0.28367911784E+03  0.28659481255E+03  0.00000000000E+00 0. -1.
          1    1    1    2  502    0 -0.26818709580E+02 -0.32895600672E+02  0.65756467337E+02  0.78264147116E+02  0.00000000000E+00 0. -1.
         22    1    3    3    0    0 -0.40146195479E+02  0.19172325537E+02 -0.17960412774E+03  0.18503226145E+03  0.00000000000E+00 0. -1.
         22    1    3    3    0    0  0.95364736757E+02  0.42984072095E+02 -0.32327576068E+03  0.33977828199E+03  0.00000000000E+00 0. -1.
</event>
<event>
 7    1  0.6017574E-006  0.4945099E+02  0.7818608E-02  0.1554994E+00
          2   -1    0    0  502    0  0.00000000000E+00  0.00000000000E+00  0.31751391444E+04  0.31751391444E+04  0.00000000000E+00 0. -1.
          1   -1    0    0  501    0 -0.00000000000E+00 -0.00000000000E+00 -0.40603585506E+02  0.40603585506E+02  0.00000000000E+00 0. -1.
         25    2    1    2    0    0 -0.34378588484E+02  0.12596987959E+02  0.20059493465E+04  0.20101738101E+04  0.12500157878E+03 0.  0.
          2    1    1    2  501    0  0.49223595140E+02  0.59772398753E+01 -0.22348347167E+02  0.54388770313E+02  0.00000000000E+00 0. -1.
          1    1    1    2  502    0 -0.14845006656E+02 -0.18574227834E+02  0.11509345596E+04  0.11511801495E+04  0.00000000000E+00 0. -1.
         22    1    3    3    0    0  0.68432836234E+01 -0.37263049236E+02  0.23427111583E+03  0.23731481429E+03  0.00000000000E+00 0.  1.
         22    1    3    3    0    0 -0.41221872107E+02  0.49860037195E+02  0.17716782307E+04  0.17728589958E+04  0.00000000000E+00 0.  1.
</event>
<event>
 7    1  0.6017574E-006  0.1213913E+03  0.7818608E-02  0.1294318E+00
          2   -1    0    0  502    0  0.00000000000E+00  0.00000000000E+00  0.21981553239E+04  0.21981553239E+04  0.00000000000E+00 0. -1.
          1   -1    0    0  501    0 -0.00000000000E+00 -0.00000000000E+00 -0.20156259014E+03  0.20156259014E+03  0.00000000000E+00 0. -1.
         25    2    1    2    0    0  0.19025711148E+03 -0.24419203619E+02  0.54509084084E+02  0.23534198092E+03  0.12498216579E+03 0.  0.
          2    1    1    2  501    0 -0.72130245800E+02  0.31764685608E+01 -0.97467576500E+02  0.12129629335E+03  0.00000000000E+00 0. -1.
          1    1    1    2  502    0 -0.11812686568E+03  0.21242735058E+02  0.20395512262E+04  0.20430796398E+04  0.00000000000E+00 0. -1.
         22    1    3    3    0    0  0.18257517860E+03 -0.22837831779E+02  0.38075201560E+01  0.18403738645E+03  0.00000000000E+00 0. -1.
         22    1    3    3    0    0  0.76819328775E+01 -0.15813718398E+01  0.50701563928E+02  0.51304594476E+02  0.00000000000E+00 0. -1.
</event>
<event>
 7    1  0.6017574E-006  0.3013053E+02  0.7818608E-02  0.1626185E+00
          2   -1    0    0  502    0  0.00000000000E+00  0.00000000000E+00  0.26393521544E+03  0.26393521544E+03  0.00000000000E+00 0. -1.
          1   -1    0    0  501    0 -0.00000000000E+00 -0.00000000000E+00 -0.11876733994E+04  0.11876733994E+04  0.00000000000E+00 0. -1.
         25    2    1    2    0    0  0.10235274780E+02 -0.46431735465E+00  0.47469322811E+01  0.12551013767E+03  0.12500113940E+03 0.  0.
          2    1    1    2  501    0 -0.19497703257E+02 -0.23068730645E+02 -0.11262842099E+04  0.11266891534E+04  0.00000000000E+00 0. -1.
          1    1    1    2  502    0  0.92624284769E+01  0.23533047999E+02  0.19779909372E+03  0.19940932377E+03  0.00000000000E+00 0. -1.
         22    1    3    3    0    0 -0.56157269805E+01  0.61037788304E+02  0.85269419417E+01  0.61885836259E+02  0.00000000000E+00 0.  1.
         22    1    3    3    0    0  0.15851001761E+02 -0.61502105659E+02 -0.37800096606E+01  0.63624301413E+02  0.00000000000E+00 0.  1.
</event>
<event>
 7    1  0.6017574E-006  0.9800750E+02  0.7818608E-02  0.1413731E+00
          2   -1    0    0  502    0  0.00000000000E+00  0.00000000000E+00  0.24622332261E+04  0.24622332261E+04  0.00000000000E+00 0. -1.
          1   -1    0    0  501    0 -0.00000000000E+00 -0.00000000000E+00 -0.23556335188E+02  0.23556335188E+02  0.00000000000E+00 0. -1.
         25    2    1    2    0    0  0.65669217934E+02 -0.85573546558E+02  0.17756846238E+04  0.17833440347E+04  0.12499913961E+03 0.  0.
          2    1    1    2  501    0 -0.33811922401E+02  0.91593707130E+02  0.10450238578E+03  0.14301539049E+03  0.00000000000E+00 0. -1.
          1    1    1    2  502    0 -0.31857295533E+02 -0.60201605718E+01  0.55848988131E+03  0.55943013606E+03  0.00000000000E+00 0. -1.
         22    1    3    3    0    0  0.18440309145E+02 -0.16317827014E+02  0.13063555643E+04  0.13065876078E+04  0.00000000000E+00 0. -1.
         22    1    3    3    0    0  0.47228908789E+02 -0.69255719544E+02  0.46932905953E+03  0.47675642695E+03  0.00000000000E+00 0. -1.
</event>
<event>
 7    1  0.6017574E-006  0.1625470E+03  0.7818608E-02  0.1405577E+00
          2   -1    0    0  502    0  0.00000000000E+00  0.00000000000E+00  0.10545246280E+03  0.10545246280E+03  0.00000000000E+00 0. -1.
          1   -1    0    0  501    0 -0.00000000000E+00 -0.00000000000E+00 -0.24680194876E+04  0.24680194876E+04  0.00000000000E+00 0. -1.
         25    2    1    2    0    0 -0.14221198225E+03  0.44374252519E+02 -0.59592814448E+03  0.62685622426E+03  0.12500020133E+03 0.  0.
          2    1    1    2  501    0  0.15406584665E+03 -0.61506406317E+02 -0.18516616384E+04  0.18590777677E+04  0.00000000000E+00 0. -1.
          1    1    1    2  502    0 -0.11853864401E+02  0.17132153798E+02  0.85022758037E+02  0.87537958505E+02  0.00000000000E+00 0. -1.
         22    1    3    3    0    0 -0.29517845824E+02  0.72271037965E+02 -0.25705712714E+03  0.26864990743E+03  0.00000000000E+00 0.  1.
         22    1    3    3    0    0 -0.11269413643E+03 -0.27896785447E+02 -0.33887101733E+03  0.35820631682E+03  0.00000000000E+00 0.  1.
</event>
<event>
 7    1  0.6017574E-006  0.1848855E+03  0.7818608E-02  0.1209374E+00
          2   -1    0    0  502    0  0.00000000000E+00  0.00000000000E+00  0.85667725045E+03  0.85667725045E+03  0.00000000000E+00 0. -1.
          1   -1    0    0  501    0 -0.00000000000E+00 -0.00000000000E+00 -0.19887360198E+03  0.19887360198E+03  0.00000000000E+00 0. -1.
         25    2    1    2    0    0  0.14938901931E+03 -0.24087367185E+03  0.42215242586E+02  0.31263691469E+03  0.12499003497E+03 0.  0.
          2    1    1    2  501    0 -0.74576523222E+02  0.81638082597E+02  0.85598815397E+01  0.11090403923E+03  0.00000000000E+00 0. -1.
          1    1    1    2  502    0 -0.74812496089E+02  0.15923558925E+03  0.60702852434E+03  0.63200989851E+03  0.00000000000E+00 0. -1.
         22    1    3    3    0    0  0.44331190402E+02 -0.17951494747E+03  0.34261225677E+01  0.18493947421E+03  0.00000000000E+00 0. -1.
         22    1    3    3    0    0  0.10505782891E+03 -0.61358724378E+02  0.38789120018E+02  0.12769744048E+03  0.00000000000E+00 0. -1.
</event>
<event>
 7    1  0.6017574E-006  0.1055701E+03  0.7818608E-02  0.1455843E+00
          2   -1    0    0  502    0  0.00000000000E+00  0.00000000000E+00  0.20256803340E+04  0.20256803340E+04  0.00000000000E+00 0. -1.
          1   -1    0    0  501    0 -0.00000000000E+00 -0.00000000000E+00 -0.11657689566E+03  0.11657689566E+03  0.00000000000E+00 0. -1.
         25    2    1    2    0    0 -0.10287122812E+03 -0.23842584714E+01  0.79272384886E+03  0.80908841810E+03  0.12499917398E+03 0.  0.
          2    1    1    2  501    0  0.10289467468E+03  0.24303609110E+02 -0.82489825450E+02  0.13409903354E+03  0.00000000000E+00 0. -1.
          1    1    1    2  502    0 -0.23446566491E-01 -0.21919350639E+02  0.11988694149E+04  0.11990697780E+04  0.00000000000E+00 0. -1.
         22    1    3    3    0    0 -0.89674202772E+02  0.33028660410E+02  0.29855045660E+03  0.31347205647E+03  0.00000000000E+00 0. -1.
         22    1    3    3    0    0 -0.13197025344E+02 -0.35412918882E+02  0.49417339226E+03  0.49561636163E+03  0.00000000000E+00 0. -1.
</event>
<event>
 7    1  0.6017574E-006  0.1109862E+03  0.7818608E-02  0.1440827E+00
          2   -1    0    0  502    0  0.00000000000E+00  0.00000000000E+00  0.20431887531E+04  0.20431887531E+04  0.00000000000E+00 0. -1.
          1   -1    0    0  501    0 -0.00000000000E+00 -0.00000000000E+00 -0.12626731207E+03  0.12626731207E+03  0.00000000000E+00 0. -1.
         25    2    1    2    0    0  0.93487018238E+02 -0.87012762969E+02  0.57940617312E+03  0.60633905889E+03  0.12499798951E+03 0.  0.
          2    1    1    2  501    0 -0.89789637037E+02  0.64013291123E+02 -0.85732884735E+02  0.13967822982E+03  0.00000000000E+00 0. -1.
          1    1    1    2  502    0 -0.36973812002E+01  0.22999471845E+02  0.14232481526E+04  0.14234387764E+04  0.00000000000E+00 0. -1.
         22    1    3    3    0    0 -0.83880483798E+01  0.46661007106E+01 -0.12935431546E+01  0.96853035759E+01  0.00000000000E+00 0.  1.
         22    1    3    3    0    0  0.10187506662E+03 -0.91678863679E+02  0.58069971627E+03  0.59665375531E+03  0.00000000000E+00 0.  1.
</event>
<event>
 7    1  0.6017574E-006  0.5444901E+02  0.7818608E-02  0.1432773E+00
          2   -1    0    0  502    0  0.00000000000E+00  0.00000000000E+00  0.22892961586E+04  0.22892961586E+04  0.00000000000E+00 0. -1.
          1   -1    0    0  501    0 -0.00000000000E+00 -0.00000000000E+00 -0.36472594436E+03  0.36472594436E+03  0.00000000000E+00 0. -1.
         25    2    1    2    0    0  0.75210450171E+02 -0.61875762209E+02  0.40572058880E+03  0.43556790029E+03  0.12499991128E+03 0.  0.
          2    1    1    2  501    0 -0.47869803154E+02  0.15903257887E+02 -0.34759868282E+03  0.35123962755E+03  0.00000000000E+00 0. -1.
          1    1    1    2  502    0 -0.27340647017E+02  0.45972504322E+02  0.18664483083E+04  0.18672145752E+04  0.00000000000E+00 0. -1.
         22    1    3    3    0    0  0.98243786845E+02 -0.68655677712E+02  0.24155578239E+03  0.26965652178E+03  0.00000000000E+00 0. -1.
         22    1    3    3    0    0 -0.23033336674E+02  0.67799155031E+01  0.16416480642E+03  0.16591137851E+03  0.00000000000E+00 0. -1.
</event>
<event>
 7    1  0.6017574E-006  0.1652264E+03  0.7818608E-02  0.1199871E+00
          2   -1    0    0  502    0  0.00000000000E+00  0.00000000000E+00  0.88661138575E+03  0.88661138575E+03  0.00000000000E+00 0. -1.
          1   -1    0    0  501    0 -0.00000000000E+00 -0.00000000000E+00 -0.32184381592E+03  0.32184381592E+03  0.00000000000E+00 0. -1.
         25    2    1    2    0    0  0.82834671016E+00 -0.18591550385E+03  0.16531527366E+03  0.27842251661E+03  0.12499878927E+03 0.  0.
          2    1    1    2  501    0 -0.12015939152E+03  0.11847498923E+03 -0.23031774098E+03  0.28551858828E+03  0.00000000000E+00 0. -1.
          1    1    1    2  502    0  0.11933104481E+03  0.67440514621E+02  0.62977003714E+03  0.64451409678E+03  0.00000000000E+00 0. -1.
         22    1    3    3    0    0 -0.20271134303E+02 -0.18509052981E+03  0.10334698966E+03  0.21295544929E+03  0.00000000000E+00 0.  1.
         22    1    3    3    0    0  0.21099481013E+02 -0.82497404147E+00  0.61968284002E+02  0.65467067318E+02  0.00000000000E+00 0.  1.
</event>
<event>
 7    1  0.6017574E-006  0.1511759E+03  0.7818608E-02  0.1345597E+00
          2   -1    0    0  502    0  0.00000000000E+00  0.00000000000E+00  0.24264856849E+04  0.24264856849E+04  0.00000000000E+00 0. -1.
          1   -1    0    0  501    0 -0.00000000000E+00 -0.00000000000E+00 -0.14557527816E+04  0.14557527816E+04  0.00000000000E+00 0. -1.
         25    2    1    2    0    0 -0.16890990876E+02 -0.15494034636E+03  0.22382198305E+03  0.30001325698E+03  0.12497942935E+03 0.  0.
          2    1    1    2  501    0  0.51269768244E+02  0.14221044978E+03 -0.14134712323E+04  0.14215320347E+04  0.00000000000E+00 0. -1.
          1    1    1    2  502    0 -0.34378777368E+02  0.12729896585E+02  0.21603821525E+04  0.21606931748E+04  0.00000000000E+00 0. -1.
         22    1    3    3    0    0 -0.46397218285E+02 -0.13541875441E+03  0.10916552258E+03  0.18002236592E+03  0.00000000000E+00 0.  1.
         22    1    3    3    0    0  0.29506227409E+02 -0.19521591951E+02  0.11465646047E+03  0.11999089106E+03  0.00000000000E+00 0.  1.
</event>
<event>
 7    1  0.6017574E-006  0.5130193E+02  0.7818608E-02  0.1515465E+00
          2   -1    0    0  502    0  0.00000000000E+00  0.00000000000E+00  0.60643992807E+03  0.60643992807E+03  0.00000000000E+00 0. -1.
          1   -1    0    0  501    0 -0.00000000000E+00 -0.00000000000E+00 -0.16418496726E+03  0.16418496726E+03  0.00000000000E+00 0. -1.
         25    2    1    2    0    0  0.17390320984E+02  0.77504184340E+02  0.18587136720E+03  0.23766083166E+03  0.12500073562E+03 0.  0.
          2    1    1    2  501    0 -0.51991040541E+01 -0.50426734440E+02 -0.13306009500E+03  0.14238987012E+03  0.00000000000E+00 0. -1.
          1    1    1    2  502    0 -0.12191216930E+02 -0.27077449900E+02  0.38944368862E+03  0.39057419355E+03  0.00000000000E+00 0. -1.
         22    1    3    3    0    0 -0.34072777542E+02  0.39797244083E+01  0.12399223770E+03  0.12865017445E+03  0.00000000000E+00 0.  1.
         22    1    3    3    0    0  0.51463098527E+02  0.73524459932E+02  0.61879129499E+02  0.10901065721E+03  0.00000000000E+00 0.  1.
</event>
<event>
 7    1  0.6017574E-006  0.5778365E+02  0.7818608E-02  0.1429195E+00
          2   -1    0    0  502    0  0.00000000000E+00  0.00000000000E+00  0.20795569540E+04  0.20795569540E+04  0.00000000000E+00 0. -1.
          1   -1    0    0  501    0 -0.00000000000E+00 -0.00000000000E+00 -0.65293733454E+02  0.65293733454E+02  0.00000000000E+00 0. -1.
         25    2    1    2    0    0 -0.95284530084E+02  0.31086139959E+02  0.69343500422E+03  0.71170558315E+03  0.12500896863E+03 0.  0.
          2    1    1    2  501    0  0.56988497666E+02 -0.78114303922E+00 -0.41146809631E+02  0.70294800615E+02  0.00000000000E+00 0. -1.
          1    1    1    2  502    0  0.38296032418E+02 -0.30304996920E+02  0.13619750260E+04  0.13628503037E+04  0.00000000000E+00 0. -1.
         22    1    3    3    0    0  0.33447397984E+01  0.31378552256E+02  0.41718213861E+03  0.41837392079E+03  0.00000000000E+00 0.  1.
         22    1    3    3    0    0 -0.98629269882E+02 -0.29241229677E+00  0.27625286561E+03  0.29333166236E+03  0.00000000000E+00 0.  1.
</event>
<event>
 7    1  0.6017574E-006  0.5758109E+02  0.7818608E-02  0.1467155E+00
          2   -1    0    0  502    0  0.00000000000E+00  0.00000000000E+00  0.63164939063E+02  0.63164939063E+02  0.00000000000E+00 0. -1.
          1   -1    0    0  501    0 -0.00000000000E+00 -0.00000000000E+00 -0.33919856814E+04  0.33919856814E+04  0.00000000000E+00 0. -1.
         25    2    1    2    0    0  0.32817115348E+02  0.44500043769E+02 -0.31473092148E+04  0.31502755420E+04  0.12499391835E+03 0.  0.
          2    1    1    2  501    0 -0.34622981158E+02  0.13114489950E+02 -0.22789807199E+03  0.23088584168E+03  0.00000000000E+00 0. -1.
          1    1    1    2  502    0  0.18058658094E+01 -0.57614533719E+02  0.46386544518E+02  0.73989236780E+02  0.00000000000E+00 0. -1.
         22    1    3    3    0    0 -0.31127705290E+02  0.17422102855E+02 -0.29905768025E+03  0.30117762172E+03  0.00000000000E+00 0. -1.
         22    1    3    3    0    0  0.63944820639E+02  0.27077940914E+02 -0.28482515346E+04  0.28490979202E+04  0.00000000000E+00 0. -1.
</event>
<event>
 7    1  0.6017574E-006  0.8341068E+02  0.7818608E-02  0.1427058E+00
          2   -1    0    0  502    0  0.00000000000E+00  0.00000000000E+00  0.14107130302E+04  0.14107130302E+04  0.00000000000E+00 0. -1.
          1   -1    0    0  501    0 -0.00000000000E+00 -0.00000000000E+00 -0.13905377953E+03  0.13905377953E+03  0.00000000000E+00 0. -1.
         25    2    1    2    0    0  0.52634492595E+02  0.20965494144E+02  0.36643453026E+03  0.39129094452E+03  0.12499758611E+03 0.  0.
          2    1    1    2  501    0 -0.84181566922E+02 -0.72841323691E+01 -0.11220683452E+03  0.14046340629E+03  0.00000000000E+00 0. -1.
          1    1    1    2  502    0  0.31547074327E+02 -0.13681361775E+02  0.10174315550E+04  0.10180124590E+04  0.00000000000E+00 0. -1.
         22    1    3    3    0    0  0.75737447713E+02 -0.29852441184E+02  0.21545548495E+03  0.23032237239E+03  0.00000000000E+00 0.  1.
         22    1    3    3    0    0 -0.23102955118E+02  0.50817935329E+02  0.15097904532E+03  0.16096857212E+03  0.00000000000E+00 0.  1.
</event>
<event>
 7    1  0.6017574E-006  0.1215614E+03  0.7818608E-02  0.1344064E+00
          2   -1    0    0  502    0  0.00000000000E+00  0.00000000000E+00  0.34566686431E+04  0.34566686431E+04  0.00000000000E+00 0. -1.
          1   -1    0    0  501    0 -0.00000000000E+00 -0.00000000000E+00 -0.42405270732E+03  0.42405270732E+03  0.00000000000E+00 0. -1.
         25    2    1    2    0    0  0.14533982804E+03  0.61899086577E+02  0.29341995895E+03  0.35591363193E+03  0.12499631415E+03 0.  0.
          2    1    1    2  501    0 -0.11806912404E+03 -0.24611010124E+02 -0.38337322516E+03  0.40189681467E+03  0.00000000000E+00 0. -1.
          1    1    1    2  502    0 -0.27270704002E+02 -0.37288076453E+02  0.31225692020E+04  0.31229109038E+04  0.00000000000E+00 0. -1.
         22    1    3    3    0    0  0.16605723993E+03  0.57608741676E+02  0.23275558633E+03  0.29166579679E+03  0.00000000000E+00 0. -1.
         22    1    3    3    0    0 -0.20717411888E+02  0.42903449010E+01  0.60664372625E+02  0.64247835144E+02  0.00000000000E+00 0. -1.
</event>
<event>
 7    1  0.6017574E-006  0.8213343E+02  0.7818608E-02  0.1419247E+00
          2   -1    0    0  502    0  0.00000000000E+00  0.00000000000E+00  0.69792726626E+03  0.69792726626E+03  0.00000000000E+00 0. -1.
          1   -1    0    0  501    0 -0.00000000000E+00 -0.00000000000E+00 -0.31911601589E+03  0.31911601589E+03  0.00000000000E+00 0. -1.
         25    2    1    2    0    0  0.81552221004E+02 -0.14625544270E+02  0.62759971923E+01  0.15009821116E+03  0.12500165421E+03 0.  0.
          2    1    1    2  501    0 -0.79659940859E+02 -0.22398782196E+02 -0.23970363508E+03  0.25358478718E+03  0.00000000000E+00 0. -1.
          1    1    1    2  502    0 -0.18922801456E+01  0.37024326465E+02  0.61223888825E+03  0.61336028382E+03  0.00000000000E+00 0. -1.
         22    1    3    3    0    0  0.17776647496E+02 -0.41546689490E+02 -0.45136064696E+02  0.63870188194E+02  0.00000000000E+00 0.  1.
         22    1    3    3    0    0  0.63775573508E+02  0.26921145220E+02  0.51412061888E+02  0.86228022962E+02  0.00000000000E+00 0.  1.
</event>
<event>
 7    1  0.6017574E-006  0.5373069E+02  0.7818608E-02  0.1451720E+00
          2   -1    0    0  502    0  0.00000000000E+00  0.00000000000E+00  0.21999325661E+03  0.21999325661E+03  0.00000000000E+00 0. -1.
          1   -1    0    0  501    0 -0.00000000000E+00 -0.00000000000E+00 -0.12107678137E+04  0.12107678137E+04  0.00000000000E+00 0. -1.
         25    2    1    2    0    0  0.62114906579E+02 -0.46983407760E+02 -0.51396727470E+03  0.53464978103E+03  0.12498930625E+03 0.  0.
          2    1    1    2  501    0 -0.85686828138E+01  0.43553398581E+02 -0.68229322410E+03  0.68373559546E+03  0.00000000000E+00 0. -1.
          1    1    1    2  502    0 -0.53546223765E+02  0.34300091790E+01  0.20548594176E+03  0.21237569377E+03  0.00000000000E+00 0. -1.
         22    1    3    3    0    0  0.25567897032E+02 -0.76714654667E+02 -0.17940674263E+03  0.19678829971E+03  0.00000000000E+00 0.  1.
         22    1    3    3    0    0  0.36547009546E+02  0.29731246908E+02 -0.33456053207E+03  0.33786148133E+03  0.00000000000E+00 0.  1.
</event>
<event>
 7    1  0.6017574E-006  0.8323503E+02  0.7818608E-02  0.1374716E+00
          2   -1    0    0  502    0  0.00000000000E+00  0.00000000000E+00  0.29975713453E+04  0.29975713453E+04  0.00000000000E+00 0. -1.
          1   -1    0    0  501    0 -0.00000000000E+00 -0.00000000000E+00 -0.19232796902E+04  0.19232796902E+04  0.00000000000E+00 0. -1.
         25    2    1    2    0    0 -0.49172707051E+02  0.94610965230E+02  0.57777646895E+03  0.60068305513E+03  0.12500117910E+03 0.  0.
          2    1    1    2  501    0  0.50711416010E+02 -0.12091071160E+02 -0.19107636474E+04  0.19114747076E+04  0.00000000000E+00 0. -1.
          1    1    1    2  502    0 -0.15387089582E+01 -0.82519894070E+02  0.24072788335E+04  0.24086932728E+04  0.00000000000E+00 0. -1.
         22    1    3    3    0    0  0.29157073689E+02  0.24645948730E+02  0.51947446211E+02  0.64467781897E+02  0.00000000000E+00 0. -1.
         22    1    3    3    0    0 -0.78329780740E+02  0.69965016500E+02  0.52582902274E+03  0.53621527323E+03  0.00000000000E+00 0. -1.
</event>
<event>
 7    1  0.7824444E-006  0.5862213E+02  0.7818608E-02  0.1444281E+00
          2   -1    0    0  502    0  0.00000000000E+00  0.00000000000E+00  0.11833295326E+04  0.11833295326E+04  0.00000000000E+00 0. -1.
          1   -1    0    0  501    0 -0.00000000000E+00 -0.00000000000E+00 -0.18399274213E+04  0.18399274213E+04  0.00000000000E+00 0. -1.
         25    2    1    2    0    0  0.78879546619E+02  0.44219207327E+02 -0.15967253373E+03  0.22203191506E+03  0.12500212839E+03 0.  0.
          2    1    1    2  501    0 -0.35925773389E+02 -0.45800899289E+02 -0.16481603265E+04  0.16491879352E+04  0.00000000000E+00 0. -1.
          1    1    1    2  502    0 -0.42953773230E+02  0.15816919617E+01  0.11512349716E+04  0.11520371037E+04  0.00000000000E+00 0. -1.
         22    1    3    3    0    0  0.53473200080E+02  0.14689408984E+02 -0.17236137644E+03  0.18106243661E+03  0.00000000000E+00 0.  1.
         22    1    3    3    0    0  0.25406346539E+02  0.29529798343E+02  0.12688842708E+02  0.40969478443E+02  0.00000000000E+00 0.  1.
</event>
<event>
 7    1  0.6017574E-006  0.5144968E+02  0.7818608E-02  0.1520114E+00
          2   -1    0    0  502    0  0.00000000000E+00  0.00000000000E+00  0.24422810883E+04  0.24422810883E+04  0.00000000000E+00 0. -1.
          1   -1    0    0  501    0 -0.00000000000E+00 -0.00000000000E+00 -0.38788997161E+02  0.38788997161E+02  0.00000000000E+00 0. -1.
         25    2    1    2    0    0  0.33857328109E+02  0.83266530678E+01  0.10313971826E+04  0.10395292360E+04  0.12500092971E+03 0.  0.
          2    1    1    2  501    0  0.18473465109E+02 -0.21965384811E+02 -0.28179669172E+02  0.40222391745E+02  0.00000000000E+00 0. -1.
          1    1    1    2  502    0 -0.52330793218E+02  0.13638731744E+02  0.14002745777E+04  0.14013184577E+04  0.00000000000E+00 0. -1.
         22    1    3    3    0    0  0.31134924662E+01 -0.29199650906E+02  0.88125908692E+03  0.88174820199E+03  0.00000000000E+00 0. -1.
         22    1    3    3    0    0  0.30743835642E+02  0.37526303974E+02  0.15013809569E+03  0.15778103402E+03  0.00000000000E+00 0. -1.
</event>
<event>
 7    1  0.6017574E-006  0.4457020E+02  0.7818608E-02  0.1505067E+00
          2   -1    0    0  502    0  0.00000000000E+00  0.00000000000E+00  0.21316524120E+04  0.21316524120E+04  0.00000000000E+00 0. -1.
          1   -1    0    0  501    0 -0.00000000000E+00 -0.00000000000E+00 -0.45059136467E+03  0.45059136467E+03  0.00000000000E+00 0. -1.
         25    2    1    2    0    0 -0.70933397197E+02  0.26148389277E+02  0.36291859539E+03  0.39121585353E+03  0.12499860830E+03 0.  0.
          2    1    1    2  501    0  0.44483359673E+02 -0.74227909376E+00 -0.43511668176E+03  0.43738523867E+03  0.00000000000E+00 0. -1.
          1    1    1    2  502    0  0.26450037524E+02 -0.25406110184E+02  0.17532591337E+04  0.17536426845E+04  0.00000000000E+00 0. -1.
         22    1    3    3    0    0  0.35377320831E+02 -0.32601972909E+01  0.78880724100E+02  0.86512151460E+02  0.00000000000E+00 0. -1.
         22    1    3    3    0    0 -0.10631071803E+03  0.29408586568E+02  0.28403787129E+03  0.30470370208E+03  0.00000000000E+00 0. -1.
</event>
<event>
 7    1  0.6017574E-006  0.6024726E+02  0.7818608E-02  0.1496344E+00
          2   -1    0    0  502    0  0.00000000000E+00  0.00000000000E+00  0.72438233818E+03  0.72438233818E+03  0.00000000000E+00 0. -1.
          1   -1    0    0  501    0 -0.00000000000E+00 -0.00000000000E+00 -0.84837178344E+02  0.84837178344E+02  0.00000000000E+00 0. -1.
         25    2    1    2    0    0 -0.37141666106E+01  0.49446930872E+02  0.28596704387E+03  0.31600766174E+03  0.12499959236E+03 0.  0.
          2    1    1    2  501    0  0.32437965785E+02 -0.51624222629E+02 -0.55902876170E+02  0.82718882671E+02  0.00000000000E+00 0. -1.
          1    1    1    2  502    0 -0.28723799175E+02  0.21772917566E+01  0.40948099213E+03  0.41049297211E+03  0.00000000000E+00 0. -1.
         22    1    3    3    0    0 -0.13675969750E+02  0.34832717037E+02  0.90154893260E+01  0.38491939060E+02  0.00000000000E+00 0.  1.
         22    1    3    3    0    0  0.99618031393E+01  0.14614213835E+02  0.27695155455E+03  0.27751572268E+03  0.00000000000E+00 0.  1.
</event>
<event>
 7    1  0.6017574E-006  0.1008750E+03  0.7818608E-02  0.1352340E+00
          2   -1    0    0  502    0  0.00000000000E+00  0.00000000000E+00  0.37155324089E+03  0.37155324089E+03  0.00000000000E+00 0. -1.
          1   -1    0    0  501    0 -0.00000000000E+00 -0.00000000000E+00 -0.29498242102E+03  0.29498242102E+03  0.00000000000E+00 0. -1.
         25    2    1    2    0    0  0.71948114242E+02 -0.12762776460E+03  0.77605955014E+01  0.19274491028E+03  0.12499998463E+03 0.  0.
          2    1    1    2  501    0 -0.54188303933E+02  0.78898985816E+02 -0.18844487780E+03  0.21135963241E+03  0.00000000000E+00 0. -1.
          1    1    1    2  502    0 -0.17759810309E+02  0.48728778782E+02  0.25725510216E+03  0.26243111921E+03  0.00000000000E+00 0. -1.
         22    1    3    3    0    0 -0.30265115061E+02 -0.29701025064E+02 -0.22484985593E+02  0.47996902573E+02  0.00000000000E+00 0.  1.
         22    1    3    3    0    0  0.10221322930E+03 -0.97926739534E+02  0.30245581094E+02  0.14474800771E+03  0.00000000000E+00 0.  1.
</event>
<event>
 7    1  0.6017574E-006  0.1411577E+03  0.7818608E-02  0.1309814E+00
          2   -1    0    0  502    0  0.00000000000E+00  0.00000000000E+00  0.31526181242E+04  0.31526181242E+04  0.00000000000E+00 0. -1.
          1   -1    0    0  501    0 -0.00000000000E+00 -0.00000000000E+00 -0.60782408425E+03  0.60782408425E+03  0.00000000000E+00 0. -1.
         25    2    1    2    0    0 -0.77893412722E+02  0.76162983168E+02  0.95449798799E+03  0.96879205828E+03  0.12499383729E+03 0.  0.
          2    1    1    2  501    0 -0.55048776054E+01  0.53567579357E+02 -0.59674917181E+03  0.59917390071E+03  0.00000000000E+00 0. -1.
          1    1    1    2  502    0  0.83398290327E+02 -0.12973056253E+03  0.21870452237E+04  0.21924762495E+04  0.00000000000E+00 0. -1.
         22    1    3    3    0    0 -0.52548977879E+02  0.11050185923E+03  0.66473661766E+03  0.67590445096E+03  0.00000000000E+00 0. -1.
         22    1    3    3    0    0 -0.25344434843E+02 -0.34338876060E+02  0.28976137034E+03  0.29288760733E+03  0.00000000000E+00 0. -1.
</event>
<event>
 7    1  0.6017574E-006  0.3681130E+02  0.7818608E-02  0.1539687E+00
          2   -1    0    0  502    0  0.00000000000E+00  0.00000000000E+00  0.11275218689E+04  0.11275218689E+04  0.00000000000E+00 0. -1.
          1   -1    0    0  501    0 -0.00000000000E+00 -0.00000000000E+00 -0.30585556126E+03  0.30585556126E+03  0.00000000000E+00 0. -1.
         25    2    1    2    0    0  0.34132581307E+02 -0.18901984276E+02  0.55201740832E+03  0.56733601063E+03  0.12499844697E+03 0.  0.
          2    1    1    2  501    0 -0.33021618274E+02 -0.16334944855E+02 -0.29650798430E+03  0.29878795566E+03  0.00000000000E+00 0. -1.
          1    1    1    2  502    0 -0.11109630334E+01  0.35236929131E+02  0.56615688365E+03  0.56725346391E+03  0.00000000000E+00 0. -1.
         22    1    3    3    0    0  0.48675257400E+02 -0.53408950413E+02  0.18819405000E+03  0.20159066725E+03  0.00000000000E+00 0.  1.
         22    1    3    3    0    0 -0.14542676092E+02  0.34506966137E+02  0.36382335833E+03  0.36574534338E+03  0.00000000000E+00 0.  1.
</event>
<event>
 7    1  0.6017574E-006  0.5193202E+02  0.7818608E-02  0.1519577E+00
          2   -1    0    0  502    0  0.00000000000E+00  0.00000000000E+00  0.45506055332E+03  0.45506055332E+03  0.00000000000E+00 0. -1.
          1   -1    0    0  501    0 -0.00000000000E+00 -0.00000000000E+00 -0.34405253066E+03  0.34405253066E+03  0.00000000000E+00 0. -1.
         25    2    1    2    0    0  0.24781950583E+02  0.33554998817E+02  0.63266437700E+01  0.13194713718E+03  0.12501974872E+03 0.  0.
          2    1    1    2  501    0 -0.33677581184E+01 -0.52417037876E+02 -0.27825432442E+03  0.28316842464E+03  0.00000000000E+00 0. -1.
          1    1    1    2  502    0 -0.21414192464E+02  0.18862039059E+02  0.38293570330E+03  0.38399752215E+03  0.00000000000E+00 0. -1.
         22    1    3    3    0    0  0.61235068940E+02 -0.55534422053E+01  0.35544568093E+02  0.71021058210E+02  0.00000000000E+00 0. -1.
         22    1    3    3    0    0 -0.36453118358E+02  0.39108441023E+02 -0.29217924323E+02  0.60926078972E+02  0.00000000000E+00 0. -1.
</event>
<event>
 7    1  0.6017574E-006  0.5845497E+02  0.7818608E-02  0.1511459E+00
          2   -1    0    0  502    0  0.00000000000E+00  0.00000000000E+00  0.19715946903E+03  0.19715946903E+03  0.00000000000E+00 0. -1.
          1   -1    0    0  501    0 -0.00000000000E+00 -0.00000000000E+00 -0.79639270544E+03  0.79639270544E+03  0.00000000000E+00 0. -1.
         25    2    1    2    0    0  0.64222299356E+02 -0.29213439745E+02 -0.14159991854E+03  0.20163051573E+03  0.12500559646E+03 0.  0.
          2    1    1    2  501    0 -0.40517445571E+02  0.41663602665E+02 -0.62234258267E+03  0.62505024549E+03  0.00000000000E+00 0. -1.
          1    1    1    2  502    0 -0.23704853784E+02 -0.12450162920E+02  0.16470926480E+03  0.16687141326E+03  0.00000000000E+00 0. -1.
         22    1    3    3    0    0  0.93342643830E+02  0.10318863959E+02 -0.10105077030E+03  0.13795139103E+03  0.00000000000E+00 0.  1.
         22    1    3    3    0    0 -0.29120344474E+02 -0.39532303704E+02 -0.40549148244E+02  0.63679124693E+02  0.00000000000E+00 0.  1.
</event>
<event>
 7    1  0.7079299E-006  0.8329767E+02  0.7818608E-02  0.1333106E+00
          2   -1    0    0  502    0  0.00000000000E+00  0.00000000000E+00  0.73634266018E+03  0.73634266018E+03  0.00000000000E+00 0. -1.
          1   -1    0    0  501    0 -0.00000000000E+00 -0.00000000000E+00 -0.11233856603E+04  0.11233856603E+04  0.00000000000E+00 0. -1.
         25    2    1    2    0    0 -0.97230557596E+01  0.11416888919E+01 -0.49072143948E+03  0.50648646367E+03  0.12500066182E+03 0.  0.
          2    1    1    2  501    0 -0.73435462022E+02 -0.10233207695E+02 -0.62016448972E+03  0.62458104353E+03  0.00000000000E+00 0. -1.
          1    1    1    2  502    0  0.83158517781E+02  0.90915188035E+01  0.72384292909E+03  0.72866081327E+03  0.00000000000E+00 0. -1.
         22    1    3    3    0    0 -0.54813792295E+02 -0.22722438642E+02 -0.37965080933E+03  0.38425980543E+03  0.00000000000E+00 0. -1.
         22    1    3    3    0    0  0.45090736536E+02  0.23864127534E+02 -0.11107063015E+03  0.12222665825E+03  0.00000000000E+00 0. -1.
</event>
<event>
 7    1  0.6017574E-006  0.3749590E+02  0.7818608E-02  0.1594404E+00
          2   -1    0    0  502    0  0.00000000000E+00  0.00000000000E+00  0.65279794523E+03  0.65279794523E+03  0.00000000000E+00 0. -1.
          1   -1    0    0  501    0 -0.00000000000E+00 -0.00000000000E+00 -0.61389590887E+03  0.61389590887E+03  0.00000000000E+00 0. -1.
         25    2    1    2    0    0  0.27712037677E+02  0.50771998098E+01 -0.47462225132E+03  0.49161519511E+03  0.12500193449E+03 0.  0.
          2    1    1    2  501    0  0.46185037382E+01 -0.24104890342E+02 -0.12907377194E+03  0.13138650965E+03  0.00000000000E+00 0. -1.
          1    1    1    2  502    0 -0.32330541416E+02  0.19027690532E+02  0.64259805961E+03  0.64369214935E+03  0.00000000000E+00 0. -1.
         22    1    3    3    0    0  0.60920421631E+00  0.55836458308E+02 -0.12001310893E+03  0.13236777372E+03  0.00000000000E+00 0.  1.
         22    1    3    3    0    0  0.27102833461E+02 -0.50759258498E+02 -0.35460914239E+03  0.35924742138E+03  0.00000000000E+00 0.  1.
</event>
<event>
 7    1  0.6017574E-006  0.1904581E+03  0.7818608E-02  0.1225699E+00
          2   -1    0    0  502    0  0.00000000000E+00  0.00000000000E+00  0.21696070264E+04  0.21696070264E+04  0.00000000000E+00 0. -1.
          1   -1    0    0  501    0 -0.00000000000E+00 -0.00000000000E+00 -0.10361177973E+03  0.10361177973E+03  0.00000000000E+00 0. -1.
         25    2    1    2    0    0  0.67527688315E+02  0.12063716007E+03  0.24520688375E+03  0.30800188938E+03  0.12500173976E+03 0.  0.
          2    1    1    2  501    0 -0.79392997642E+02 -0.21022184561E+03  0.10672023024E+03  0.24876832593E+03  0.00000000000E+00 0. -1.
          1    1    1    2  502    0  0.11865309328E+02  0.89584685538E+02  0.17140681326E+04  0.17164485908E+04  0.00000000000E+00 0. -1.
         22    1    3    3    0    0  0.39349614037E+01  0.12094722983E+03  0.13982021122E+03  0.18491459594E+03  0.00000000000E+00 0. -1.
         22    1    3    3    0    0  0.63592726911E+02 -0.31006976484E+00  0.10538667253E+03  0.12308729344E+03  0.00000000000E+00 0. -1.
</event>
<event>
 7    1  0.6017574E-006  0.1086539E+03  0.7818608E-02  0.1362139E+00
          2   -1    0    0  502    0  0.00000000000E+00  0.00000000000E+00  0.17764779145E+04  0.17764779145E+04  0.00000000000E+00 0. -1.
          1   -1    0    0  501    0 -0.00000000000E+00 -0.00000000000E+00 -0.20676680394E+03  0.20676680394E+03  0.00000000000E+00 0. -1.
         25    2    1    2    0    0 -0.12746042626E+03  0.71618722724E+02  0.10576778473E+03  0.21951711605E+03  0.12500215296E+03 0.  0.
          2    1    1    2  501    0  0.84191959781E+02 -0.61976192808E+02 -0.13131804523E+03  0.16785042022E+03  0.00000000000E+00 0. -1.
          1    1    1    2  502    0  0.43268466478E+02 -0.96425299162E+01  0.15952613711E+04  0.15958771822E+04  0.00000000000E+00 0. -1.
         22    1    3    3    0    0 -0.12497005002E+03  0.11570944969E+02  0.43126039106E+02  0.13270740529E+03  0.00000000000E+00 0. -1.
         22    1    3    3    0    0 -0.24903762415E+01  0.60047777755E+02  0.62641745627E+02  0.86809710761E+02  0.00000000000E+00 0. -1.
</event>
<event>
 7    1  0.6017574E-006  0.1749055E+03  0.7818608E-02  0.1264494E+00
          2   -1    0    0  502    0  0.00000000000E+00  0.00000000000E+00  0.16815236603E+04  0.16815236603E+04  0.00000000000E+00 0. -1.
          1   -1    0    0  501    0 -0.00000000000E+00 -0.00000000000E+00 -0.49712995326E+03  0.49712995326E+03  0.00000000000E+00 0. -1.
         25    2    1    2    0    0 -0.49311533846E+02  0.20901809833E+03  0.59913776822E+03  0.64862297139E+03  0.12500200362E+03 0.  0.
          2    1    1    2  501    0  0.84235276029E+02 -0.15234037033E+03 -0.45525012179E+03  0.48739700815E+03  0.00000000000E+00 0. -1.
          1    1    1    2  502    0 -0.34923742183E+02 -0.56677728000E+02  0.10405060606E+04  0.10426336340E+04  0.00000000000E+00 0. -1.
         22    1    3    3    0    0 -0.71210862780E+02  0.15115878282E+03  0.30228992178E+03  0.34539710684E+03  0.00000000000E+00 0. -1.
         22    1    3    3    0    0  0.21899328934E+02  0.57859315511E+02  0.29684784643E+03  0.30322586455E+03  0.00000000000E+00 0. -1.
</event>
<event>
 7    1  0.6017574E-006  0.6532295E+02  0.7818608E-02  0.1405537E+00
          2   -1    0    0  502    0  0.00000000000E+00  0.00000000000E+00  0.33500941457E+02  0.33500941457E+02  0.00000000000E+00 0. -1.
          1   -1    0    0  501    0 -0.00000000000E+00 -0.00000000000E+00 -0.12589750128E+04  0.12589750128E+04  0.00000000000E+00 0. -1.
         25    2    1    2    0    0  0.10859078691E+02 -0.38407411806E+02 -0.58630794783E+03  0.60081112649E+03  0.12499580455E+03 0.  0.
          2    1    1    2  501    0 -0.62539608235E+02  0.42678469858E+02 -0.63515645360E+03  0.63965332402E+03  0.00000000000E+00 0. -1.
          1    1    1    2  502    0  0.51680529544E+02 -0.42710580517E+01 -0.40096699369E+01  0.52011503764E+02  0.00000000000E+00 0. -1.
         22    1    3    3    0    0  0.24874381433E+00  0.21001078135E+02 -0.46350797298E+03  0.46398356455E+03  0.00000000000E+00 0. -1.
         22    1    3    3    0    0  0.10610334877E+02 -0.59408489942E+02 -0.12279997485E+03  0.13682756194E+03  0.00000000000E+00 0. -1.
</event>
<event>
 7    1  0.6017574E-006  0.9598195E+02  0.7818608E-02  0.1408291E+00
          2   -1    0    0  502    0  0.00000000000E+00  0.00000000000E+00  0.22701397477E+03  0.22701397477E+03  0.00000000000E+00 0. -1.
          1   -1    0    0  501    0 -0.00000000000E+00 -0.00000000000E+00 -0.10337075630E+04  0.10337075630E+04  0.00000000000E+00 0. -1.
         25    2    1    2    0    0  0.46921540574E+02  0.77801241351E+02 -0.39301371220E+03  0.42230283236E+03  0.12500096048E+03 0.  0.
          2    1    1    2  501    0 -0.77236945201E+02 -0.61251208968E+02 -0.62072951124E+03  0.62850806075E+03  0.00000000000E+00 0. -1.
          1    1    1    2  502    0  0.30315404628E+02 -0.16550032383E+02  0.20704963517E+03  0.20991064469E+03  0.00000000000E+00 0. -1.
         22    1    3    3    0    0 -0.40888399720E+02  0.34749920235E+02 -0.10133014997E+03  0.11466131641E+03  0.00000000000E+00 0. -1.
         22    1    3    3    0    0  0.87809940293E+02  0.43051321117E+02 -0.29168356222E+03  0.30764151595E+03  0.00000000000E+00 0. -1.
</event>
<event>
 7    1  0.6017574E-006  0.1464633E+03  0.7818608E-02  0.1225269E+00
          2   -1    0    0  502    0  0.00000000000E+00  0.00000000000E+00  0.72423176401E+03  0.72423176401E+03  0.00000000000E+00 0. -1.
          1   -1    0    0  501    0 -0.00000000000E+00 -0.00000000000E+00 -0.19018592519E+04  0.19018592519E+04  0.00000000000E+00 0. -1.
         25    2    1    2    0    0  0.17786741006E+03 -0.98299764456E+02  0.27029579803E+03  0.36053382488E+03  0.12500064477E+03 0.  0.
          2    1    1    2  501    0 -0.40047019376E+02  0.11103751429E+03 -0.18430831809E+04  0.18468591460E+04  0.00000000000E+00 0. -1.
          1    1    1    2  502    0 -0.13782039069E+03 -0.12737749836E+02  0.39515989496E+03  0.41869804507E+03  0.00000000000E+00 0. -1.
         22    1    3    3    0    0  0.18841735759E+03 -0.11272144311E+03  0.25832215345E+03  0.33902442293E+03  0.00000000000E+00 0.  1.
         22    1    3    3    0    0 -0.10549947523E+02  0.14421678652E+02  0.11973644584E+02  0.21509401956E+02  0.00000000000E+00 0.  1.
</event>
<event>
 7    1  0.6017574E-006  0.2244833E+03  0.7818608E-02  0.1295325E+00
          2   -1    0    0  502    0  0.00000000000E+00  0.00000000000E+00  0.45451994282E+03  0.45451994282E+03  0.00000000000E+00 0. -1.
          1   -1    0    0  501    0 -0.00000000000E+00 -0.00000000000E+00 -0.18751418981E+03  0.18751418981E+03  0.00000000000E+00 0. -1.
         25    2    1    2    0    0 -0.40055941584E+02  0.19916190234E+03  0.60406364706E+02  0.24605633218E+03  0.12499939163E+03 0.  0.
          2    1    1    2  501    0  0.15850448078E+02  0.35282328288E+02 -0.39456378916E+02  0.55252920564E+02  0.00000000000E+00 0. -1.
          1    1    1    2  502    0  0.24205493507E+02 -0.23444423063E+03  0.24605576722E+03  0.34072487989E+03  0.00000000000E+00 0. -1.
         22    1    3    3    0    0 -0.31600073794E+02  0.14296046280E+03 -0.19811479619E+02  0.14774556952E+03  0.00000000000E+00 0. -1.
         22    1    3    3    0    0 -0.84558677904E+01  0.56201439539E+02  0.80217844325E+02  0.98310762658E+02  0.00000000000E+00 0. -1.
</event>
<event>
 7    1  0.6017574E-006  0.1449798E+03  0.7818608E-02  0.1264247E+00
          2   -1    0    0  502    0  0.00000000000E+00  0.00000000000E+00  0.17297867612E+04  0.17297867612E+04  0.00000000000E+00 0. -1.
          1   -1    0    0  501    0 -0.00000000000E+00 -0.00000000000E+00 -0.16656989638E+03  0.16656989638E+03  0.00000000000E+00 0. -1.
         25    2    1    2    0    0 -0.14605062598E+03  0.38479908853E+02  0.28767169860E+03  0.34811014562E+03  0.12495670681E+03 0.  0.
          2    1    1    2  501    0  0.14058801779E+03  0.41843723242E+02 -0.95375470148E+02  0.17496390550E+03  0.00000000000E+00 0. -1.
          1    1    1    2  502    0  0.54626081882E+01 -0.80323632095E+02  0.13709206364E+04  0.13732826065E+04  0.00000000000E+00 0. -1.
         22    1    3    3    0    0  0.13907140987E+02 -0.81849599517E+00 -0.27786232659E+01  0.14205606407E+02  0.00000000000E+00 0.  1.
         22    1    3    3    0    0 -0.15995776697E+03  0.39298404848E+02  0.29045032187E+03  0.33390453922E+03  0.00000000000E+00 0.  1.
</event>
<event>
 7    1  0.6017574E-006  0.5217258E+02  0.7818608E-02  0.1528963E+00
          2   -1    0    0  502    0  0.00000000000E+00  0.00000000000E+00  0.74959163444E+03  0.74959163444E+03  0.00000000000E+00 0. -1.
          1   -1    0    0  501    0 -0.00000000000E+00 -0.00000000000E+00 -0.21642918726E+02  0.21642918726E+02  0.00000000000E+00 0. -1.
         25    2    1    2    0    0 -0.28560947983E+02 -0.63843582560E+02  0.41742279966E+03  0.44131452272E+03  0.12499993403E+03 0.  0.
          2    1    1    2  501    0  0.22253618535E+02  0.14730016730E+02  0.15695609672E+02  0.30960444017E+02  0.00000000000E+00 0. -1.
          1    1    1    2  502    0  0.63073294474E+01  0.49113565830E+02  0.29483030638E+03  0.29895958642E+03  0.00000000000E+00 0. -1.
         22    1    3    3    0    0 -0.11600214218E+02  0.26062786692E+02  0.23661001697E+02  0.37063146404E+02  0.00000000000E+00 0. -1.
         22    1    3    3    0    0 -0.16960733765E+02 -0.89906369252E+02  0.39376179796E+03  0.40425137632E+03  0.00000000000E+00 0. -1.
</event>
<event>
 7    1  0.6017574E-006  0.1206485E+03  0.7818608E-02  0.1281670E+00
          2   -1    0    0  502    0  0.00000000000E+00  0.00000000000E+00  0.34481302729E+03  0.34481302729E+03  0.00000000000E+00 0. -1.
          1   -1    0    0  501    0 -0.00000000000E+00 -0.00000000000E+00 -0.13212714574E+04  0.13212714574E+04  0.00000000000E+00 0. -1.
         25    2    1    2    0    0  0.12937340914E+03 -0.84241735714E+02 -0.35053822472E+03  0.40291085284E+03  0.12500383721E+03 0.  0.
          2    1    1    2  501    0 -0.50837121796E+02  0.10715557716E+03 -0.93548883098E+03  0.94297724445E+03  0.00000000000E+00 0. -1.
          1    1    1    2  502    0 -0.78536287347E+02 -0.22913841451E+02  0.30956862558E+03  0.32019638740E+03  0.00000000000E+00 0. -1.
         22    1    3    3    0    0  0.27207334760E+02  0.30706349071E+02 -0.45279437980E+02  0.61101116534E+02  0.00000000000E+00 0. -1.
         22    1    3    3    0    0  0.10216607438E+03 -0.11494808478E+03 -0.30525878674E+03  0.34180973631E+03  0.00000000000E+00 0. -1.
</event>
<event>
 7    1  0.6017574E-006  0.1155692E+03  0.7818608E-02  0.1297040E+00
          2   -1    0    0  502    0  0.00000000000E+00  0.00000000000E+00  0.96489532847E+03  0.96489532847E+03  0.00000000000E+00 0. -1.
          1   -1    0    0  501    0 -0.00000000000E+00 -0.00000000000E+00 -0.63033597097E+02  0.63033597097E+02  0.00000000000E+00 0. -1.
         25    2    1    2    0    0  0.33725381605E+02  0.51605149955E+02  0.61682469526E+03  0.63237493087E+03  0.12499942254E+03 0.  0.
          2    1    1    2  501    0  0.10463042460E+03 -0.49078584168E+02  0.57111915746E+02  0.12891083777E+03  0.00000000000E+00 0. -1.
          1    1    1    2  502    0 -0.13835580620E+03 -0.25265657867E+01  0.22792512036E+03  0.26664315693E+03  0.00000000000E+00 0. -1.
         22    1    3    3    0    0  0.18487697739E+02  0.21714223541E+02  0.58637065426E+03  0.58706375007E+03  0.00000000000E+00 0. -1.
         22    1    3    3    0    0  0.15237683866E+02  0.29890926414E+02  0.30454041004E+02  0.45311180794E+02  0.00000000000E+00 0. -1.
</event>
<event>
 7    1  0.6017574E-006  0.1371397E+03  0.7818608E-02  0.1315825E+00
          2   -1    0    0  502    0  0.00000000000E+00  0.00000000000E+00  0.17756582390E+04  0.17756582390E+04  0.00000000000E+00 0. -1.
          1   -1    0    0  501    0 -0.00000000000E+00 -0.00000000000E+00 -0.40120695090E+02  0.40120695090E+02  0.00000000000E+00 0. -1.
         25    2    1    2    0    0  0.92869651022E+02 -0.14601536944E+03  0.94638393699E+03  0.97016187682E+03  0.12500500329E+03 0.  0.
          2    1    1    2  501    0 -0.16209954946E+02  0.49932762737E+02  0.59584355008E+01  0.52835086709E+02  0.00000000000E+00 0. -1.
          1    1    1    2  502    0 -0.76659696076E+02  0.96082606707E+02  0.78319517143E+03  0.79278197057E+03  0.00000000000E+00 0. -1.
         22    1    3    3    0    0 -0.60277669753E+01 -0.72359293985E+02  0.18293275976E+03  0.19681614770E+03  0.00000000000E+00 0. -1.
         22    1    3    3    0    0  0.98897417997E+02 -0.73656075458E+02  0.76345117723E+03  0.77334572913E+03  0.00000000000E+00 0. -1.
</event>
<event>
 7    1  0.6017574E-006  0.5969751E+02  0.7818608E-02  0.1421007E+00
          2   -1    0    0  502    0  0.00000000000E+00  0.00000000000E+00  0.10010233322E+04  0.10010233322E+04  0.00000000000E+00 0. -1.
          1   -1    0    0  501    0 -0.00000000000E+00 -0.00000000000E+00 -0.32644575400E+03  0.32644575400E+03  0.00000000000E+00 0. -1.
         25    2    1    2    0    0  0.31933176375E+02  0.53672747579E+01 -0.10362118846E+02  0.12954004730E+03  0.12499885982E+03 0.  0.
          2    1    1    2  501    0 -0.44721546949E+02  0.43300244445E+02 -0.25203278017E+03  0.25960633700E+03  0.00000000000E+00 0. -1.
          1    1    1    2  502    0  0.12788370573E+02 -0.48667519203E+02  0.93697247721E+03  0.93832270190E+03  0.00000000000E+00 0. -1.
         22    1    3    3    0    0  0.68781161941E+02  0.10381835666E+02  0.29023419731E+02  0.75372340037E+02  0.00000000000E+00 0.  1.
         22    1    3    3    0    0 -0.36847985565E+02 -0.50145609078E+01 -0.39385538577E+02  0.54167707265E+02  0.00000000000E+00 0.  1.
</event>
<event>
 7    1  0.6017574E-006  0.6482481E+02  0.7818608E-02  0.1519551E+00
          2   -1    0    0  502    0  0.00000000000E+00  0.00000000000E+00  0.92771129039E+03  0.92771129039E+03  0.00000000000E+00 0. -1.
          1   -1    0    0  501    0 -0.00000000000E+00 -0.00000000000E+00 -0.99532137215E+03  0.99532137215E+03  0.00000000000E+00 0. -1.
         25    2    1    2    0    0 -0.19515177332E+02  0.43037754968E+02 -0.14895470233E+03  0.20011338789E+03  0.12499909666E+03 0.  0.
          2    1    1    2  501    0  0.12117061676E+02 -0.64673032489E+02 -0.81932331762E+03  0.82196114452E+03  0.00000000000E+00 0. -1.
          1    1    1    2  502    0  0.73981156567E+01  0.21635277521E+02  0.90066793820E+03  0.90095813013E+03  0.00000000000E+00 0. -1.
         22    1    3    3    0    0  0.15923366859E+02  0.65466151161E+02 -0.29573527978E+02  0.73579644719E+02  0.00000000000E+00 0. -1.
         22    1    3    3    0    0 -0.35438544191E+02 -0.22428396193E+02 -0.11938117436E+03  0.12653374317E+03  0.00000000000E+00 0. -1.
</event>
<event>
 7    1  0.6017574E-006  0.5141911E+02  0.7818608E-02  0.1495000E+00
          2   -1    0    0  502    0  0.00000000000E+00  0.00000000000E+00  0.45959843514E+03  0.45959843514E+03  0.00000000000E+00 0. -1.
          1   -1    0    0  501    0 -0.00000000000E+00 -0.00000000000E+00 -0.97520712306E+02  0.97520712306E+02  0.00000000000E+00 0. -1.
         25    2    1    2    0    0  0.29247677294E+02  0.25371761935E+02  0.74824636372E+02  0.15072194887E+03  0.12497690479E+03 0.  0.
          2    1    1    2  501    0 -0.53664237687E+02 -0.16146414711E+01 -0.46429572733E+02  0.70980016186E+02  0.00000000000E+00 0. -1.
          1    1    1    2  502    0  0.24416560393E+02 -0.23757120464E+02  0.33368265920E+03  0.33541718239E+03  0.00000000000E+00 0. -1.
         22    1    3    3    0    0 -0.34623958723E+02  0.15264808669E+02 -0.14434958094E+02  0.40499394027E+02  0.00000000000E+00 0.  1.
         22    1    3    3    0    0  0.63871636018E+02  0.10106953266E+02  0.89259594466E+02  0.11022255484E+03  0.00000000000E+00 0.  1.
</event>
<event>
 7    1  0.1422401E-005  0.1076348E+03  0.7818608E-02  0.1310533E+00
          2   -1    0    0  502    0  0.00000000000E+00  0.00000000000E+00  0.17877597922E+04  0.17877597922E+04  0.00000000000E+00 0. -1.
          1   -1    0    0  501    0 -0.00000000000E+00 -0.00000000000E+00 -0.12255002314E+04  0.12255002314E+04  0.00000000000E+00 0. -1.
         25    2    1    2    0    0 -0.46161670925E+02 -0.11550103871E+02 -0.43455601048E+03  0.45467486559E+03  0.12500400951E+03 0.  0.
          2    1    1    2  501    0 -0.32670712185E+02 -0.62091776618E+02 -0.77766738502E+03  0.78082605353E+03  0.00000000000E+00 0. -1.
          1    1    1    2  502    0  0.78832383109E+02  0.73641880488E+02  0.17744829563E+04  0.17777591044E+04  0.00000000000E+00 0. -1.
         22    1    3    3    0    0  0.12936987828E+02 -0.56581721185E+02 -0.15843624273E+03  0.16873322091E+03  0.00000000000E+00 0. -1.
         22    1    3    3    0    0 -0.59098658752E+02  0.45031617314E+02 -0.27611976775E+03  0.28594164468E+03  0.00000000000E+00 0. -1.
</event>
<event>
 7    1  0.6191937E-006  0.5540115E+02  0.7818608E-02  0.1462101E+00
          2   -1    0    0  502    0  0.00000000000E+00  0.00000000000E+00  0.32505901628E+04  0.32505901628E+04  0.00000000000E+00 0. -1.
          1   -1    0    0  501    0 -0.00000000000E+00 -0.00000000000E+00 -0.93188768587E+03  0.93188768587E+03  0.00000000000E+00 0. -1.
         25    2    1    2    0    0  0.36248047978E+01  0.90931678121E+02  0.19273137114E+02  0.15581716049E+03  0.12500329752E+03 0.  0.
          2    1    1    2  501    0  0.12263747229E+02 -0.37978757057E+02 -0.86291285380E+03  0.86383527292E+03  0.00000000000E+00 0. -1.
          1    1    1    2  502    0 -0.15888552027E+02 -0.52952921065E+02  0.31623421936E+04  0.31628254152E+04  0.00000000000E+00 0. -1.
         22    1    3    3    0    0  0.57331255839E+02  0.61175798706E+02 -0.15490234351E+02  0.85260181818E+02  0.00000000000E+00 0.  1.
         22    1    3    3    0    0 -0.53706451041E+02  0.29755879415E+02  0.34763371465E+02  0.70556978669E+02  0.00000000000E+00 0.  1.
</event>
<event>
 7    1  0.6017574E-006  0.1173784E+03  0.7818608E-02  0.1345896E+00
          2   -1    0    0  502    0  0.00000000000E+00  0.00000000000E+00  0.10184571893E+04  0.10184571893E+04  0.00000000000E+00 0. -1.
          1   -1    0    0  501    0 -0.00000000000E+00 -0.00000000000E+00 -0.26360419008E+04  0.26360419008E+04  0.00000000000E+00 0. -1.
         25    2    1    2    0    0  0.67599997772E+02 -0.85699906164E+02  0.39585498194E+03  0.42923209364E+03  0.12499915946E+03 0.  0.
          2    1    1    2  501    0  0.39494484589E+02  0.25653561869E+02 -0.26129191165E+04  0.26133434961E+04  0.00000000000E+00 0. -1.
          1    1    1    2  502    0 -0.10709448236E+03  0.60046344295E+02  0.59947942300E+03  0.61192350030E+03  0.00000000000E+00 0. -1.
         22    1    3    3    0    0 -0.37140441105E+02 -0.18389522692E+02  0.99530176277E+02  0.10781392721E+03  0.00000000000E+00 0. -1.
         22    1    3    3    0    0  0.10474043888E+03 -0.67310383472E+02  0.29632480566E+03  0.32141816643E+03  0.00000000000E+00 0. -1.
</event>
<event>
 7    1  0.6017574E-006  0.1297509E+03  0.7818608E-02  0.1362784E+00
          2   -1    0    0  502    0  0.00000000000E+00  0.00000000000E+00  0.26224966558E+04  0.26224966558E+04  0.00000000000E+00 0. -1.
          1   -1    0    0  501    0 -0.00000000000E+00 -0.00000000000E+00 -0.28852755487E+02  0.28852755487E+02  0.00000000000E+00 0. -1.
         25    2    1    2    0    0  0.13608380359E+03  0.80074436490E+02  0.11737025859E+04  0.11908540914E+04  0.12499995945E+03 0.  0.
          2    1    1    2  501    0 -0.29511539888E+02 -0.22188151407E+02  0.15773921842E+01  0.36955827897E+02  0.00000000000E+00 0. -1.
          1    1    1    2  502    0 -0.10657226370E+03 -0.57886285083E+02  0.14183639222E+04  0.14235394919E+04  0.00000000000E+00 0. -1.
         22    1    3    3    0    0 -0.15174321527E+01  0.53860606746E+02  0.20014585473E+03  0.20727187635E+03  0.00000000000E+00 0. -1.
         22    1    3    3    0    0  0.13760123575E+03  0.26213829744E+02  0.97355673121E+03  0.98358221508E+03  0.00000000000E+00 0. -1.
</event>
<event>
 7    1  0.6017574E-006  0.8252784E+02  0.7818608E-02  0.1365282E+00
          2   -1    0    0  502    0  0.00000000000E+00  0.00000000000E+00  0.70285112582E+03  0.70285112582E+03  0.00000000000E+00 0. -1.
          1   -1    0    0  501    0 -0.00000000000E+00 -0.00000000000E+00 -0.95199265546E+02  0.95199265546E+02  0.00000000000E+00 0. -1.
         25    2    1    2    0    0  0.94401498431E+02  0.71696170689E+02  0.48265196327E+03  0.51247342881E+03  0.12499645513E+03 0.  0.
          2    1    1    2  501    0 -0.37553406070E+02 -0.72240241333E+02 -0.54045101465E+02  0.97722995082E+02  0.00000000000E+00 0. -1.
          1    1    1    2  502    0 -0.56848092361E+02  0.54407064446E+00  0.17904499847E+03  0.18785396747E+03  0.00000000000E+00 0. -1.
         22    1    3    3    0    0  0.11948885974E+03  0.61714960908E+02  0.45220477735E+03  0.47177906340E+03  0.00000000000E+00 0.  1.
         22    1    3    3    0    0 -0.25087361309E+02  0.99812097814E+01  0.30447185918E+02  0.40694365414E+02  0.00000000000E+00 0.  1.
</event>
<event>
 7    1  0.6017574E-006  0.7464566E+02  0.7818608E-02  0.1476811E+00
          2   -1    0    0  502    0  0.00000000000E+00  0.00000000000E+00  0.88831394008E+03  0.88831394008E+03  0.00000000000E+00 0. -1.
          1   -1    0    0  501    0 -0.00000000000E+00 -0.00000000000E+00 -0.22566181491E+02  0.22566181491E+02  0.00000000000E+00 0. -1.
         25    2    1    2    0    0  0.29529583268E+02  0.61407456260E+02  0.33225677478E+03  0.36147234543E+03  0.12499928058E+03 0.  0.
          2    1    1    2  501    0 -0.99877440596E+01 -0.79536710293E+02  0.20934711219E+03  0.22416970513E+03  0.00000000000E+00 0. -1.
          1    1    1    2  502    0 -0.19541839208E+02  0.18129254033E+02  0.32414387162E+03  0.32523807102E+03  0.00000000000E+00 0. -1.
         22    1    3    3    0    0 -0.10854496679E+02  0.90633333034E+02  0.19134240650E+03  0.21200032472E+03  0.00000000000E+00 0.  1.
         22    1    3    3    0    0  0.40384079947E+02 -0.29225876774E+02  0.14091436828E+03  0.14947202071E+03  0.00000000000E+00 0.  1.
</event>
<event>
 7    1  0.6017574E-006  0.2597192E+02  0.7818608E-02  0.1690563E+00
          2   -1    0    0  502    0  0.00000000000E+00  0.00000000000E+00  0.13589724282E+04  0.13589724282E+04  0.00000000000E+00 0. -1.
          1   -1    0    0  501    0 -0.00000000000E+00 -0.00000000000E+00 -0.21470894892E+03  0.21470894892E+03  0.00000000000E+00 0. -1.
         25    2    1    2    0    0 -0.84363012997E+01 -0.75533727586E+01  0.56893966732E+03  0.58261979355E+03  0.12500101666E+03 0.  0.
          2    1    1    2  501    0 -0.18049250952E+02  0.96604276935E+01 -0.20713881492E+03  0.20814799535E+03  0.00000000000E+00 0. -1.
          1    1    1    2  502    0  0.26485552252E+02 -0.21070549349E+01  0.78246262691E+03  0.78291358825E+03  0.00000000000E+00 0. -1.
         22    1    3    3    0    0  0.33270607963E+02 -0.43094549009E+02  0.14032131702E+03  0.15051294137E+03  0.00000000000E+00 0. -1.
         22    1    3    3    0    0 -0.41706909263E+02  0.35541176250E+02  0.42861835030E+03  0.43210685218E+03  0.00000000000E+00 0. -1.
</event>
<event>
 7    1  0.6017574E-006  0.1303069E+03  0.7818608E-02  0.1345542E+00
          2   -1    0    0  502    0  0.00000000000E+00  0.00000000000E+00  0.64710888049E+03  0.64710888049E+03  0.00000000000E+00 0. -1.
          1   -1    0    0  501    0 -0.00000000000E+00 -0.00000000000E+00 -0.14428182980E+04  0.14428182980E+04  0.00000000000E+00 0. -1.
         25    2    1    2    0    0  0.92998331762E+02  0.29283030765E+02 -0.15337747348E+03  0.22058232785E+03  0.12500291352E+03 0.  0.
          2    1    1    2  501    0 -0.11776109671E+03 -0.63886910257E+02 -0.12515209887E+04  0.12586715213E+04  0.00000000000E+00 0. -1.
          1    1    1    2  502    0  0.24762764945E+02  0.34603879492E+02  0.60918904471E+03  0.61067332937E+03  0.00000000000E+00 0. -1.
         22    1    3    3    0    0  0.39554615903E+01  0.25539921054E+02  0.15138008564E+02  0.29951503253E+02  0.00000000000E+00 0. -1.
         22    1    3    3    0    0  0.89042870171E+02  0.37431097114E+01 -0.16851548204E+03  0.19063082460E+03  0.00000000000E+00 0. -1.
</event>
<event>
 7    1  0.6017574E-006  0.7500366E+02  0.7818608E-02  0.1369574E+00
          2   -1    0    0  502    0  0.00000000000E+00  0.00000000000E+00  0.10548041705E+04  0.10548041705E+04  0.00000000000E+00 0. -1.
          1   -1    0    0  501    0 -0.00000000000E+00 -0.00000000000E+00 -0.20309982598E+03  0.20309982598E+03  0.00000000000E+00 0. -1.
         25    2    1    2    0    0  0.25979074325E+02 -0.51188401112E+02 -0.31085949531E+02  0.14102141680E+03  0.12500215609E+03 0.  0.
          2    1    1    2  501    0 -0.80271930849E+02  0.24808687923E+02 -0.10092340970E+03  0.13131865253E+03  0.00000000000E+00 0. -1.
          1    1    1    2  502    0  0.54292856524E+02  0.26379713189E+02  0.98371370379E+03  0.98556392718E+03  0.00000000000E+00 0. -1.
         22    1    3    3    0    0 -0.11763408771E+02  0.24252648046E+02  0.27351766242E+02  0.38401664544E+02  0.00000000000E+00 0. -1.
         22    1    3    3    0    0  0.37742483096E+02 -0.75441049159E+02 -0.58437715773E+02  0.10261975226E+03  0.00000000000E+00 0. -1.
</event>
<event>
 7    1  0.6017574E-006  0.1789359E+03  0.7818608E-02  0.1238716E+00
          2   -1    0    0  502    0  0.00000000000E+00  0.00000000000E+00  0.50400439172E+03  0.50400439172E+03  0.00000000000E+00 0. -1.
          1   -1    0    0  501    0 -0.00000000000E+00 -0.00000000000E+00 -0.60862440295E+03  0.60862440295E+03  0.00000000000E+00 0. -1.
         25    2    1    2    0    0 -0.36849389148E+02 -0.11515998859E+03  0.24028452262E+01  0.17392747021E+03  0.12500116309E+03 0.  0.
          2    1    1    2  501    0  0.25890881030E+02 -0.80047918698E+02 -0.49614208931E+03  0.50322458187E+03  0.00000000000E+00 0. -1.
          1    1    1    2  502    0  0.10958508118E+02  0.19520790729E+03  0.38911923286E+03  0.43547674260E+03  0.00000000000E+00 0. -1.
         22    1    3    3    0    0  0.19855337547E+02 -0.10273978655E+03  0.31110775435E+02  0.10916766242E+03  0.00000000000E+00 0. -1.
         22    1    3    3    0    0 -0.56704726695E+02 -0.12420202042E+02 -0.28707930208E+02  0.64759807791E+02  0.00000000000E+00 0. -1.
</event>
<event>
 7    1  0.6017574E-006  0.7052283E+02  0.7818608E-02  0.1369884E+00
          2   -1    0    0  502    0  0.00000000000E+00  0.00000000000E+00  0.26492823706E+03  0.26492823706E+03  0.00000000000E+00 0. -1.
          1   -1    0    0  501    0 -0.00000000000E+00 -0.00000000000E+00 -0.35350639953E+04  0.35350639953E+04  0.00000000000E+00 0. -1.
         25    2    1    2    0    0 -0.71870744035E+01 -0.10947880690E+03 -0.43969343797E+03  0.47009475518E+03  0.12498598423E+03 0.  0.
          2    1    1    2  501    0 -0.34484243692E+02  0.60860798891E+02 -0.30756609852E+04  0.30764563537E+04  0.00000000000E+00 0. -1.
          1    1    1    2  502    0  0.41671318095E+02  0.48618008006E+02  0.24521866495E+03  0.25344112353E+03  0.00000000000E+00 0. -1.
         22    1    3    3    0    0 -0.35481512645E+02  0.14535734599E+02 -0.12195124182E+03  0.12783712568E+03  0.00000000000E+00 0.  1.
         22    1    3    3    0    0  0.28294438241E+02 -0.12401454150E+03 -0.31774219615E+03  0.34225762950E+03  0.00000000000E+00 0.  1.
</event>
<event>
 7    1  0.6017574E-006  0.4036390E+02  0.7818608E-02  0.1548636E+00
          2   -1    0    0  502    0  0.00000000000E+00  0.00000000000E+00  0.49191638894E+03  0.49191638894E+03  0.00000000000E+00 0. -1.
          1   -1    0    0  501    0 -0.00000000000E+00 -0.00000000000E+00 -0.10107336132E+03  0.10107336132E+03  0.00000000000E+00 0. -1.
         25    2    1    2    0    0  0.33394401729E+01 -0.11691160197E+02  0.17296173973E+03  0.21375103060E+03  0.12500361828E+03 0.  0.
          2    1    1    2  501    0  0.10552873133E+02 -0.28447747389E+02 -0.76245394491E+02  0.82060938600E+02  0.00000000000E+00 0. -1.
          1    1    1    2  502    0 -0.13892313305E+02  0.40138907586E+02  0.29412668238E+03  0.29717778107E+03  0.00000000000E+00 0. -1.
         22    1    3    3    0    0 -0.53403792427E+02 -0.26641321154E+02  0.51383846156E+02  0.78752934448E+02  0.00000000000E+00 0. -1.
         22    1    3    3    0    0  0.56743232600E+02  0.14950160957E+02  0.12157789357E+03  0.13499809615E+03  0.00000000000E+00 0. -1.
</event>
<event>
 7    1  0.6017574E-006  0.6618398E+02  0.7818608E-02  0.1399778E+00
          2   -1    0    0  502    0  0.00000000000E+00  0.00000000000E+00  0.57057999562E+03  0.57057999562E+03  0.00000000000E+00 0. -1.
          1   -1    0    0  501    0 -0.00000000000E+00 -0.00000000000E+00 -0.71636195199E+03  0.71636195199E+03  0.00000000000E+00 0. -1.
         25    2    1    2    0    0  0.10643763631E+03 -0.51834227271E+02 -0.27611763165E+02  0.17437087629E+03  0.12500814170E+03 0.  0.
          2    1    1    2  501    0 -0.46325794490E+02  0.26882619942E+02 -0.61206616105E+03  0.61440519203E+03  0.00000000000E+00 0. -1.
          1    1    1    2  502    0 -0.60111841821E+02  0.24951607329E+02  0.49389596784E+03  0.49816587929E+03  0.00000000000E+00 0. -1.
         22    1    3    3    0    0 -0.13423346035E+02  0.58693551923E-01 -0.40936172674E+02  0.43080853020E+02  0.00000000000E+00 0. -1.
         22    1    3    3    0    0  0.11986098235E+03 -0.51892920823E+02  0.13324409509E+02  0.13129002327E+03  0.00000000000E+00 0. -1.
</event>
<event>
 7    1  0.6017574E-006  0.1019225E+03  0.7818608E-02  0.1309444E+00
          2   -1    0    0  502    0  0.00000000000E+00  0.00000000000E+00  0.73252008149E+03  0.73252008149E+03  0.00000000000E+00 0. -1.
          1   -1    0    0  501    0 -0.00000000000E+00 -0.00000000000E+00 -0.98365358801E+03  0.98365358801E+03  0.00000000000E+00 0. -1.
         25    2    1    2    0    0 -0.62625569258E+01 -0.67151025300E+02 -0.14768796152E+03  0.20490214687E+03  0.12499870398E+03 0.  0.
          2    1    1    2  501    0  0.80918666109E+02  0.72250615300E+02 -0.80170641870E+03  0.80901246203E+03  0.00000000000E+00 0. -1.
          1    1    1    2  502    0 -0.74656109184E+02 -0.50995899996E+01  0.69826087370E+03  0.70225906060E+03  0.00000000000E+00 0. -1.
         22    1    3    3    0    0 -0.33491525335E+02  0.77145415839E+01  0.29516965088E+01  0.34495056651E+02  0.00000000000E+00 0. -1.
         22    1    3    3    0    0  0.27228968409E+02 -0.74865566884E+02 -0.15063965803E+03  0.17040709022E+03  0.00000000000E+00 0. -1.
</event>
<event>
 7    1  0.6017574E-006  0.7514926E+02  0.7818608E-02  0.1389072E+00
          2   -1    0    0  502    0  0.00000000000E+00  0.00000000000E+00  0.73713064381E+03  0.73713064381E+03  0.00000000000E+00 0. -1.
          1   -1    0    0  501    0 -0.00000000000E+00 -0.00000000000E+00 -0.28110285949E+03  0.28110285949E+03  0.00000000000E+00 0. -1.
         25    2    1    2    0    0  0.46826915263E+02 -0.17621386242E+01 -0.11444182794E+03  0.17583659014E+03  0.12500283726E+03 0.  0.
          2    1    1    2  501    0  0.11461464384E+02  0.50085039849E+02 -0.12899261285E+03  0.13884873262E+03  0.00000000000E+00 0. -1.
          1    1    1    2  502    0 -0.58288379648E+02 -0.48322901224E+02  0.69946222511E+03  0.70354818054E+03  0.00000000000E+00 0. -1.
         22    1    3    3    0    0  0.81711787790E+02 -0.13317881612E+02 -0.11163023643E+03  0.13898018535E+03  0.00000000000E+00 0. -1.
         22    1    3    3    0    0 -0.34884872527E+02  0.11555742987E+02 -0.28115915133E+01  0.36856404791E+02  0.00000000000E+00 0. -1.
</event>
<event>
 7    1  0.6017574E-006  0.2023307E+03  0.7818608E-02  0.1188963E+00
          2   -1    0    0  502    0  0.00000000000E+00  0.00000000000E+00  0.16562556906E+04  0.16562556906E+04  0.00000000000E+00 0. -1.
          1   -1    0    0  501    0 -0.00000000000E+00 -0.00000000000E+00 -0.90804928587E+03  0.90804928587E+03  0.00000000000E+00 0. -1.
         25    2    1    2    0    0  0.23063635558E+03 -0.19166319784E+03 -0.69817067142E+02  0.33230311111E+03  0.12499209922E+03 0.  0.
          2    1    1    2  501    0 -0.17738387705E+03  0.77301228212E+02 -0.69106845880E+03  0.71764624604E+03  0.00000000000E+00 0. -1.
          1    1    1    2  502    0 -0.53252478534E+02  0.11436196963E+03  0.15090919307E+04  0.15143556194E+04  0.00000000000E+00 0. -1.
         22    1    3    3    0    0  0.24336579098E+03 -0.17499084100E+03 -0.50864193380E+02  0.30403267723E+03  0.00000000000E+00 0.  1.
         22    1    3    3    0    0 -0.12729435399E+02 -0.16672356833E+02 -0.18952873762E+02  0.28270433881E+02  0.00000000000E+00 0.  1.
</event>
<event>
 7    1  0.6017574E-006  0.1664794E+03  0.7818608E-02  0.1273389E+00
          2   -1    0    0  502    0  0.00000000000E+00  0.00000000000E+00  0.14021694460E+04  0.14021694460E+04  0.00000000000E+00 0. -1.
          1   -1    0    0  501    0 -0.00000000000E+00 -0.00000000000E+00 -0.35985201186E+03  0.35985201186E+03  0.00000000000E+00 0. -1.
         25    2    1    2    0    0  0.98183752907E+02 -0.16012010308E+03  0.41069842975E+03  0.46858887960E+03  0.12499536448E+03 0.  0.
          2    1    1    2  501    0  0.28821132942E+02  0.57332406874E+02 -0.32077239809E+03  0.32712779453E+03  0.00000000000E+00 0. -1.
          1    1    1    2  502    0 -0.12700488585E+03  0.10278769621E+03  0.95239140250E+03  0.96630478374E+03  0.00000000000E+00 0. -1.
         22    1    3    3    0    0  0.36983810713E+02 -0.22615097355E+02  0.16070329747E+02  0.46233109148E+02  0.00000000000E+00 0. -1.
         22    1    3    3    0    0  0.61199942194E+02 -0.13750500573E+03  0.39462810000E+03  0.42235577045E+03  0.00000000000E+00 0. -1.
</event>
<event>
 7    1  0.6017574E-006  0.1017746E+03  0.7818608E-02  0.1317093E+00
          2   -1    0    0  502    0  0.00000000000E+00  0.00000000000E+00  0.17271295570E+03  0.17271295570E+03  0.00000000000E+00 0. -1.
          1   -1    0    0  501    0 -0.00000000000E+00 -0.00000000000E+00 -0.99382272502E+03  0.99382272502E+03  0.00000000000E+00 0. -1.
         25    2    1    2    0    0  0.13587585446E+03  0.10030893239E+03 -0.77545332450E+03  0.80341002581E+03  0.12496271985E+03 0.  0.
          2    1    1    2  501    0 -0.62031993609E+02 -0.32303445987E+02 -0.18133023135E+03  0.19435054324E+03  0.00000000000E+00 0. -1.
          1    1    1    2  502    0 -0.73843860849E+02 -0.68005486404E+02  0.13567378654E+03  0.16877511167E+03  0.00000000000E+00 0. -1.
         22    1    3    3    0    0 -0.15223926581E+02  0.17396626564E+02 -0.23513178315E+03  0.23626545664E+03  0.00000000000E+00 0. -1.
         22    1    3    3    0    0  0.15109978104E+03  0.82912305827E+02 -0.54032154135E+03  0.56714456917E+03  0.00000000000E+00 0. -1.
</event>
<event>
 7    1  0.6017574E-006  0.8302666E+02  0.7818608E-02  0.1390468E+00
          2   -1    0    0  502    0  0.00000000000E+00  0.00000000000E+00  0.32661265040E+03  0.32661265040E+03  0.00000000000E+00 0. -1.
          1   -1    0    0  501    0 -0.00000000000E+00 -0.00000000000E+00 -0.28640294197E+04  0.28640294197E+04  0.00000000000E+00 0. -1.
         25    2    1    2    0    0  0.76992177765E+02 -0.92329905610E+01 -0.12703782800E+03  0.19436295445E+03  0.12500121907E+03 0.  0.
          2    1    1    2  501    0 -0.12613609157E+02 -0.44222094429E+02 -0.26971535702E+04  0.26975455655E+04  0.00000000000E+00 0. -1.
          1    1    1    2  502    0 -0.64378568608E+02  0.53455084990E+02  0.28677462889E+03  0.29873355015E+03  0.00000000000E+00 0. -1.
         22    1    3    3    0    0  0.20463531750E+02 -0.64265001932E+01  0.24522613935E+02  0.32579358966E+02  0.00000000000E+00 0. -1.
         22    1    3    3    0    0  0.56528646015E+02 -0.28064903678E+01 -0.15156044193E+03  0.16178359548E+03  0.00000000000E+00 0. -1.
</event>
<event>
 7    1  0.6017574E-006  0.7448981E+02  0.7818608E-02  0.1435659E+00
          2   -1    0    0  502    0  0.00000000000E+00  0.00000000000E+00  0.86157030187E+03  0.86157030187E+03  0.00000000000E+00 0. -1.
          1   -1    0    0  501    0 -0.00000000000E+00 -0.00000000000E+00 -0.50410320311E+03  0.50410320311E+03  0.00000000000E+00 0. -1.
         25    2    1    2    0    0 -0.27098736994E+02  0.88173524686E+02  0.59622757701E+03  0.61613400464E+03  0.12499950437E+03 0.  0.
          2    1    1    2  501    0 -0.61562242568E+01 -0.74182986420E+02 -0.49005101769E+03  0.49567228539E+03  0.00000000000E+00 0. -1.
          1    1    1    2  502    0  0.33254961250E+02 -0.13990538266E+02  0.25129053944E+03  0.25386721494E+03  0.00000000000E+00 0. -1.
         22    1    3    3    0    0 -0.39587852159E+02  0.10360399845E+03  0.31043229394E+03  0.32965011096E+03  0.00000000000E+00 0. -1.
         22    1    3    3    0    0  0.12489115166E+02 -0.15430473766E+02  0.28579528306E+03  0.28648389368E+03  0.00000000000E+00 0. -1.
</event>
<event>
 7    1  0.6017574E-006  0.7440250E+02  0.7818608E-02  0.1390675E+00
          2   -1    0    0  502    0  0.00000000000E+00  0.00000000000E+00  0.29192338812E+03  0.29192338812E+03  0.00000000000E+00 0. -1.
          1   -1    0    0  501    0 -0.00000000000E+00 -0.00000000000E+00 -0.17912785549E+04  0.17912785549E+04  0.00000000000E+00 0. -1.
         25    2    1    2    0    0 -0.95665483020E+02  0.53063396795E+02 -0.31750138632E+03  0.35832863660E+03  0.12499869107E+03 0.  0.
          2    1    1    2  501    0  0.50893063317E+02  0.58743359151E+01 -0.14478578399E+04  0.14487639340E+04  0.00000000000E+00 0. -1.
          1    1    1    2  502    0  0.44772419703E+02 -0.58937732710E+02  0.26600405947E+03  0.27610937245E+03  0.00000000000E+00 0. -1.
         22    1    3    3    0    0 -0.36228945955E+02 -0.88473739196E+01 -0.93482356367E+01  0.38447393407E+02  0.00000000000E+00 0. -1.
         22    1    3    3    0    0 -0.59436537065E+02  0.61910770715E+02 -0.30815315069E+03  0.31988124319E+03  0.00000000000E+00 0. -1.
</event>
<event>
 7    1  0.6017574E-006  0.6135194E+02  0.7818608E-02  0.1441270E+00
          2   -1    0    0  502    0  0.00000000000E+00  0.00000000000E+00  0.35571857531E+02  0.35571857531E+02  0.00000000000E+00 0. -1.
          1   -1    0    0  501    0 -0.00000000000E+00 -0.00000000000E+00 -0.16849980257E+04  0.16849980257E+04  0.00000000000E+00 0. -1.
         25    2    1    2    0    0  0.16949245754E+02 -0.34364372790E+02 -0.60506770920E+03  0.61903104870E+03  0.12499727791E+03 0.  0.
          2    1    1    2  501    0  0.40994225946E+02  0.91420842200E+01 -0.10370753527E+04  0.10379255231E+04  0.00000000000E+00 0. -1.
          1    1    1    2  502    0 -0.57943471700E+02  0.25222288570E+02 -0.72831062245E+01  0.63613311418E+02  0.00000000000E+00 0. -1.
         22    1    3    3    0    0 -0.16386073417E+02 -0.15652968059E+02 -0.55770744002E+03  0.55816763384E+03  0.00000000000E+00 0.  1.
         22    1    3    3    0    0  0.33335319171E+02 -0.18711404731E+02 -0.47360269175E+02  0.60863414853E+02  0.00000000000E+00 0.  1.
</event>
<event>
 7    1  0.6017574E-006  0.1073992E+03  0.7818608E-02  0.1339538E+00
          2   -1    0    0  502    0  0.00000000000E+00  0.00000000000E+00  0.44285087849E+03  0.44285087849E+03  0.00000000000E+00 0. -1.
          1   -1    0    0  501    0 -0.00000000000E+00 -0.00000000000E+00 -0.16283740009E+04  0.16283740009E+04  0.00000000000E+00 0. -1.
         25    2    1    2    0    0  0.76607547184E+02  0.29749502707E+02 -0.46218551253E+03  0.48579159426E+03  0.12499710344E+03 0.  0.
          2    1    1    2  501    0  0.30186435691E+02 -0.45223629473E+02 -0.11469777703E+04  0.11482658242E+04  0.00000000000E+00 0. -1.
          1    1    1    2  502    0 -0.10679398288E+03  0.15474126765E+02  0.42364016040E+03  0.43716746091E+03  0.00000000000E+00 0. -1.
         22    1    3    3    0    0  0.99502502712E+02  0.55896502356E+02 -0.37317623173E+03  0.39023796196E+03  0.00000000000E+00 0. -1.
         22    1    3    3    0    0 -0.22894955529E+02 -0.26146999649E+02 -0.89009280795E+02  0.95553632306E+02  0.00000000000E+00 0. -1.
</event>
<event>
 7    1  0.6017574E-006  0.6292423E+02  0.7818608E-02  0.1421183E+00
          2   -1    0    0  502    0  0.00000000000E+00  0.00000000000E+00  0.24134024248E+03  0.24134024248E+03  0.00000000000E+00 0. -1.
          1   -1    0    0  501    0 -0.00000000000E+00 -0.00000000000E+00 -0.29589835552E+04  0.29589835552E+04  0.00000000000E+00 0. -1.
         25    2    1    2    0    0 -0.87276629263E+01 -0.57545605054E+02 -0.15318377090E+04  0.15380310830E+04  0.12500070718E+03 0.  0.
          2    1    1    2  501    0 -0.42706659745E+02  0.21190685444E+02 -0.14194790265E+04  0.14202794129E+04  0.00000000000E+00 0. -1.
          1    1    1    2  502    0  0.51434322671E+02  0.36354919610E+02  0.23367342279E+03  0.24201330180E+03  0.00000000000E+00 0. -1.
         22    1    3    3    0    0  0.56451753286E+02 -0.43202524706E+02 -0.81308567020E+03  0.81618721239E+03  0.00000000000E+00 0.  1.
         22    1    3    3    0    0 -0.65179416212E+02 -0.14343080348E+02 -0.71875203881E+03  0.72184387061E+03  0.00000000000E+00 0.  1.
</event>
<event>
 7    1  0.6017574E-006  0.6273246E+02  0.7818608E-02  0.1401965E+00
          2   -1    0    0  502    0  0.00000000000E+00  0.00000000000E+00  0.10295537317E+04  0.10295537317E+04  0.00000000000E+00 0. -1.
          1   -1    0    0  501    0 -0.00000000000E+00 -0.00000000000E+00 -0.13648652677E+03  0.13648652677E+03  0.00000000000E+00 0. -1.
         25    2    1    2    0    0  0.27882056441E+02 -0.64876966529E+02  0.27643503013E+02  0.14619967532E+03  0.12499500769E+03 0.  0.
          2    1    1    2  501    0 -0.61373142480E+02  0.20572227341E+02 -0.62664056758E+02  0.90092525578E+02  0.00000000000E+00 0. -1.
          1    1    1    2  502    0  0.33491086039E+02  0.44304739188E+02  0.92808775869E+03  0.92974805758E+03  0.00000000000E+00 0. -1.
         22    1    3    3    0    0  0.77610423468E+02 -0.41407057373E+02  0.23526147772E+02  0.91057135142E+02  0.00000000000E+00 0.  1.
         22    1    3    3    0    0 -0.49728367027E+02 -0.23469909156E+02  0.41173552412E+01  0.55142540177E+02  0.00000000000E+00 0.  1.
</event>
<event>
 7    1  0.6017574E-006  0.6757847E+02  0.7818608E-02  0.1432943E+00
          2   -1    0    0  502    0  0.00000000000E+00  0.00000000000E+00  0.22258660731E+03  0.22258660731E+03  0.00000000000E+00 0. -1.
          1   -1    0    0  501    0 -0.00000000000E+00 -0.00000000000E+00 -0.12529513282E+04  0.12529513282E+04  0.00000000000E+00 0. -1.
         25    2    1    2    0    0 -0.41437844133E+02  0.11565595052E+02 -0.38837520038E+03  0.41025704494E+03  0.12499875495E+03 0.  0.
          2    1    1    2  501    0 -0.22997807747E+01  0.40524886822E+02 -0.84767221851E+03  0.84864347371E+03  0.00000000000E+00 0. -1.
          1    1    1    2  502    0  0.43737624908E+02 -0.52090481874E+02  0.20568269799E+03  0.21663741687E+03  0.00000000000E+00 0. -1.
         22    1    3    3    0    0 -0.33088118593E+02 -0.17663919729E+02 -0.37529329660E+03  0.37716295699E+03  0.00000000000E+00 0.  1.
         22    1    3    3    0    0 -0.83497255405E+01  0.29229514781E+02 -0.13081903782E+02  0.33094087954E+02  0.00000000000E+00 0.  1.
</event>
<event>
 7    1  0.6017574E-006  0.5400126E+02  0.7818608E-02  0.1458623E+00
          2   -1    0    0  502    0  0.00000000000E+00  0.00000000000E+00  0.49137757289E+03  0.49137757289E+03  0.00000000000E+00 0. -1.
          1   -1    0    0  501    0 -0.00000000000E+00 -0.00000000000E+00 -0.93979435627E+03  0.93979435627E+03  0.00000000000E+00 0. -1.
         25    2    1    2    0    0 -0.73346776201E+02 -0.47000137242E+01 -0.24287586948E+03  0.28286982544E+03  0.12499924185E+03 0.  0.
          2    1    1    2  501    0  0.30821844707E+02 -0.28518293287E+02 -0.67472235665E+03  0.67602776402E+03  0.00000000000E+00 0. -1.
          1    1    1    2  502    0  0.42524931494E+02  0.33218307011E+02  0.46918144275E+03  0.47227433970E+03  0.00000000000E+00 0. -1.
         22    1    3    3    0    0 -0.58639383043E+02 -0.32344701061E+02 -0.24247584520E+03  0.25155375655E+03  0.00000000000E+00 0.  1.
         22    1    3    3    0    0 -0.14707393158E+02  0.27644687337E+02 -0.40002428149E+00  0.31316068893E+02  0.00000000000E+00 0.  1.
</event>
<event>
 7    1  0.6017574E-006  0.2085995E+03  0.7818608E-02  0.1198308E+00
          2   -1    0    0  502    0  0.00000000000E+00  0.00000000000E+00  0.20000084491E+03  0.20000084491E+03  0.00000000000E+00 0. -1.
          1   -1    0    0  501    0 -0.00000000000E+00 -0.00000000000E+00 -0.17199528323E+04  0.17199528323E+04  0.00000000000E+00 0. -1.
         25    2    1    2    0    0 -0.76473206641E+02  0.19645443377E+03 -0.13845299286E+03  0.28148962854E+03  0.12499873542E+03 0.  0.
          2    1    1    2  501    0 -0.92173477749E+02 -0.60819787377E+02 -0.14151407593E+04  0.14194429771E+04  0.00000000000E+00 0. -1.
          1    1    1    2  502    0  0.16864668439E+03 -0.13563464640E+03  0.33641764785E+02  0.21902107158E+03  0.00000000000E+00 0. -1.
         22    1    3    3    0    0 -0.15522079809E+02  0.57198889945E+01 -0.66801636415E+02  0.68819406561E+02  0.00000000000E+00 0. -1.
         22    1    3    3    0    0 -0.60951126831E+02  0.19073454478E+03 -0.71651356449E+02  0.21267022197E+03  0.00000000000E+00 0. -1.
</event>
<event>
 7    1  0.6017574E-006  0.1006998E+03  0.7818608E-02  0.1359591E+00
          2   -1    0    0  502    0  0.00000000000E+00  0.00000000000E+00  0.57285856296E+03  0.57285856296E+03  0.00000000000E+00 0. -1.
          1   -1    0    0  501    0 -0.00000000000E+00 -0.00000000000E+00 -0.18708600968E+03  0.18708600968E+03  0.00000000000E+00 0. -1.
         25    2    1    2    0    0  0.46695984842E+02 -0.68760435692E+02  0.21720985421E+02  0.15166840170E+03  0.12499196114E+03 0.  0.
          2    1    1    2  501    0 -0.35489927959E+02 -0.33589771249E+02 -0.11148333035E+03  0.12172239180E+03  0.00000000000E+00 0. -1.
          1    1    1    2  502    0 -0.11206056883E+02  0.10235020694E+03  0.47553489822E+03  0.48655377914E+03  0.00000000000E+00 0. -1.
         22    1    3    3    0    0  0.87275939043E+02 -0.64726761659E+02  0.22117440122E+02  0.11088653826E+03  0.00000000000E+00 0.  1.
         22    1    3    3    0    0 -0.40579954201E+02 -0.40336740330E+01 -0.39645470089E+00  0.40781863438E+02  0.00000000000E+00 0.  1.
</event>
<event>
 7    1  0.6017574E-006  0.5419919E+02  0.7818608E-02  0.1447536E+00
          2   -1    0    0  502    0  0.00000000000E+00  0.00000000000E+00  0.17319334913E+03  0.17319334913E+03  0.00000000000E+00 0. -1.
          1   -1    0    0  501    0 -0.00000000000E+00 -0.00000000000E+00 -0.28441082383E+04  0.28441082383E+04  0.00000000000E+00 0. -1.
         25    2    1    2    0    0 -0.23722640136E+02 -0.13829968890E+02 -0.50373086745E+03  0.51973394257E+03  0.12499821018E+03 0.  0.
          2    1    1    2  501    0  0.51096822635E+02 -0.22367379627E+02 -0.23289186211E+04  0.23295864716E+04  0.00000000000E+00 0. -1.
          1    1    1    2  502    0 -0.27374182499E+02  0.36197348517E+02  0.16173459942E+03  0.16798117322E+03  0.00000000000E+00 0. -1.
         22    1    3    3    0    0 -0.36317398927E+02 -0.17771354130E+02 -0.50487128355E+03  0.50648769723E+03  0.00000000000E+00 0. -1.
         22    1    3    3    0    0  0.12594758791E+02  0.39413852401E+01  0.11404161084E+01  0.13246245336E+02  0.00000000000E+00 0. -1.
</event>
<event>
 7    1  0.6017574E-006  0.7992281E+02  0.7818608E-02  0.1435167E+00
          2   -1    0    0  502    0  0.00000000000E+00  0.00000000000E+00  0.69818815726E+03  0.69818815726E+03  0.00000000000E+00 0. -1.
          1   -1    0    0  501    0 -0.00000000000E+00 -0.00000000000E+00 -0.33746640988E+03  0.33746640988E+03  0.00000000000E+00 0. -1.
         25    2    1    2    0    0  0.72815217036E+02  0.84497036838E+02 -0.45998861862E+02  0.17373227686E+03  0.12500081466E+03 0.  0.
          2    1    1    2  501    0 -0.27572047885E+02 -0.19464258763E+02 -0.22385735568E+03  0.22638725866E+03  0.00000000000E+00 0. -1.
          1    1    1    2  502    0 -0.45243169151E+02 -0.65032778076E+02  0.63057796492E+03  0.63553503162E+03  0.00000000000E+00 0. -1.
         22    1    3    3    0    0  0.54676283747E+00 -0.31153276932E+02 -0.87304343592E+01  0.32358091682E+02  0.00000000000E+00 0. -1.
         22    1    3    3    0    0  0.72268454198E+02  0.11565031377E+03 -0.37268427503E+02  0.14137418518E+03  0.00000000000E+00 0. -1.
</event>
<event>
 7    1  0.6017574E-006  0.5712416E+02  0.7818608E-02  0.1467698E+00
          2   -1    0    0  502    0  0.00000000000E+00  0.00000000000E+00  0.20831658224E+04  0.20831658224E+04  0.00000000000E+00 0. -1.
          1   -1    0    0  501    0 -0.00000000000E+00 -0.00000000000E+00 -0.55536296410E+03  0.55536296410E+03  0.00000000000E+00 0. -1.
         25    2    1    2    0    0  0.61655563485E+02 -0.62699856046E+02  0.25677969365E+03  0.29881963286E+03  0.12499872582E+03 0.  0.
          2    1    1    2  501    0 -0.26575606175E+02  0.50398200419E+02 -0.53263212351E+03  0.53567081351E+03  0.00000000000E+00 0. -1.
          1    1    1    2  502    0 -0.35079957310E+02  0.12301655628E+02  0.18036552882E+04  0.18040383402E+04  0.00000000000E+00 0. -1.
         22    1    3    3    0    0  0.45860412007E+02 -0.87454565464E+02  0.10466533232E+03  0.14389687348E+03  0.00000000000E+00 0. -1.
         22    1    3    3    0    0  0.15795151478E+02  0.24754709418E+02  0.15211436134E+03  0.15492275938E+03  0.00000000000E+00 0. -1.
</event>
<event>
 7    1  0.6017574E-006  0.1854862E+03  0.7818608E-02  0.1261300E+00
          2   -1    0    0  502    0  0.00000000000E+00  0.00000000000E+00  0.16508234277E+03  0.16508234277E+03  0.00000000000E+00 0. -1.
          1   -1    0    0  501    0 -0.00000000000E+00 -0.00000000000E+00 -0.79347254592E+03  0.79347254592E+03  0.00000000000E+00 0. -1.
         25    2    1    2    0    0 -0.23409019052E+03  0.46508493287E+02 -0.32490347629E+03  0.42207594511E+03  0.12499830916E+03 0.  0.
          2    1    1    2  501    0  0.64759348971E+02  0.10787709472E+01 -0.34886723754E+03  0.35482853106E+03  0.00000000000E+00 0. -1.
          1    1    1    2  502    0  0.16933084154E+03 -0.47587264234E+02  0.45380510694E+02  0.18165041251E+03  0.00000000000E+00 0. -1.
         22    1    3    3    0    0 -0.14817928633E+03  0.55836481801E+02 -0.28684519284E+03  0.32765069549E+03  0.00000000000E+00 0.  1.
         22    1    3    3    0    0 -0.85910904185E+02 -0.93279885144E+01 -0.38058283452E+02  0.94425249626E+02  0.00000000000E+00 0.  1.
</event>
<event>
 7    1  0.6017574E-006  0.4408289E+02  0.7818608E-02  0.1520459E+00
          2   -1    0    0  502    0  0.00000000000E+00  0.00000000000E+00  0.10348625783E+03  0.10348625783E+03  0.00000000000E+00 0. -1.
          1   -1    0    0  501    0 -0.00000000000E+00 -0.00000000000E+00 -0.14269936607E+04  0.14269936607E+04  0.00000000000E+00 0. -1.
         25    2    1    2    0    0 -0.12328691551E+02 -0.44793053458E+01 -0.21697181876E+03  0.25074704167E+03  0.12500099183E+03 0.  0.
          2    1    1    2  501    0  0.31942559592E+02  0.31538758326E+02 -0.11894706193E+04  0.11903173419E+04  0.00000000000E+00 0. -1.
          1    1    1    2  502    0 -0.19613868040E+02 -0.27059452980E+02  0.82935035204E+02  0.89415534888E+02  0.00000000000E+00 0. -1.
         22    1    3    3    0    0 -0.10069326577E+02  0.59148967173E+02 -0.82998050289E+02  0.10241419827E+03  0.00000000000E+00 0. -1.
         22    1    3    3    0    0 -0.22593649743E+01 -0.63628272519E+02 -0.13397376847E+03  0.14833284340E+03  0.00000000000E+00 0. -1.
</event>
<event>
 7    1  0.6017574E-006  0.5627204E+02  0.7818608E-02  0.1432937E+00
          2   -1    0    0  502    0  0.00000000000E+00  0.00000000000E+00  0.64956198429E+02  0.64956198429E+02  0.00000000000E+00 0. -1.
          1   -1    0    0  501    0 -0.00000000000E+00 -0.00000000000E+00 -0.18293077311E+04  0.18293077311E+04  0.00000000000E+00 0. -1.
         25    2    1    2    0    0 -0.60508613110E+02 -0.30098105623E+02 -0.35123970618E+03  0.37889518527E+03  0.12500016802E+03 0.  0.
          2    1    1    2  501    0  0.68922661964E+01  0.48257982808E+02 -0.14480345840E+04  0.14488548901E+04  0.00000000000E+00 0. -1.
          1    1    1    2  502    0  0.53616346914E+02 -0.18159877186E+02  0.34922757513E+02  0.66513854106E+02  0.00000000000E+00 0. -1.
         22    1    3    3    0    0 -0.77881573832E+02 -0.43610369163E+02 -0.13690298055E+03  0.16343142269E+03  0.00000000000E+00 0.  1.
         22    1    3    3    0    0  0.17372960722E+02  0.13512263541E+02 -0.21433672563E+03  0.21546376258E+03  0.00000000000E+00 0.  1.
</event>
<event>
 7    1  0.6017574E-006  0.3456044E+02  0.7818608E-02  0.1630035E+00
          2   -1    0    0  502    0  0.00000000000E+00  0.00000000000E+00  0.66283890018E+03  0.66283890018E+03  0.00000000000E+00 0. -1.
          1   -1    0    0  501    0 -0.00000000000E+00 -0.00000000000E+00 -0.39875502578E+03  0.39875502578E+03  0.00000000000E+00 0. -1.
         25    2    1    2    0    0  0.42658245804E+01 -0.16422811019E+02 -0.20135212616E+03  0.23760258820E+03  0.12499762089E+03 0.  0.
          2    1    1    2  501    0  0.19869211778E+02 -0.83728804757E+01 -0.17816294597E+03  0.17946288201E+03  0.00000000000E+00 0. -1.
          1    1    1    2  502    0 -0.24135036358E+02  0.24795691494E+02  0.64359894653E+03  0.64452845575E+03  0.00000000000E+00 0. -1.
         22    1    3    3    0    0 -0.19488459723E+02 -0.30474988306E+02 -0.20639949378E+03  0.20954540321E+03  0.00000000000E+00 0. -1.
         22    1    3    3    0    0  0.23754284303E+02  0.14052177287E+02  0.50473676226E+01  0.28057184984E+02  0.00000000000E+00 0. -1.
</event>
<event>
 7    1  0.6017574E-006  0.7876283E+02  0.7818608E-02  0.1357054E+00
          2   -1    0    0  502    0  0.00000000000E+00  0.00000000000E+00  0.10396847960E+04  0.10396847960E+04  0.00000000000E+00 0. -1.
          1   -1    0    0  501    0 -0.00000000000E+00 -0.00000000000E+00 -0.19389899464E+03  0.19389899464E+03  0.00000000000E+00 0. -1.
         25    2    1    2    0    0  0.17618350208E+02 -0.13037224354E+03 -0.30374066888E+02  0.18399677649E+03  0.12499960668E+03 0.  0.
          2    1    1    2  501    0 -0.19322463793E+02  0.66570162263E+02 -0.71613734825E+02  0.99666800522E+02  0.00000000000E+00 0. -1.
          1    1    1    2  502    0  0.17041135848E+01  0.63802081281E+02  0.94777360308E+03  0.94992021364E+03  0.00000000000E+00 0. -1.
         22    1    3    3    0    0  0.57457592695E+02 -0.88299959002E+02 -0.57501084595E+02  0.12001930031E+03  0.00000000000E+00 0.  1.
         22    1    3    3    0    0 -0.39839242487E+02 -0.42072284542E+02  0.27127017707E+02  0.63977476179E+02  0.00000000000E+00 0.  1.
</event>
<event>
 7    1  0.6017574E-006  0.5767094E+02  0.7818608E-02  0.1484790E+00
          2   -1    0    0  502    0  0.00000000000E+00  0.00000000000E+00  0.12432806427E+03  0.12432806427E+03  0.00000000000E+00 0. -1.
          1   -1    0    0  501    0 -0.00000000000E+00 -0.00000000000E+00 -0.53632363767E+03  0.53632363767E+03  0.00000000000E+00 0. -1.
         25    2    1    2    0    0  0.43393537771E-01 -0.30749674385E+02 -0.21108491657E+03  0.24723932420E+03  0.12499958829E+03 0.  0.
          2    1    1    2  501    0  0.22762160762E+02 -0.23356481213E+02 -0.29809179227E+03  0.29987056840E+03  0.00000000000E+00 0. -1.
          1    1    1    2  502    0 -0.22805554300E+02  0.54106155598E+02  0.97181135445E+02  0.11354180933E+03  0.00000000000E+00 0. -1.
         22    1    3    3    0    0  0.55778503531E+02 -0.32552622834E+02 -0.15607106095E+03  0.16890556763E+03  0.00000000000E+00 0.  1.
         22    1    3    3    0    0 -0.55735109993E+02  0.18029484494E+01 -0.55013855614E+02  0.78333756571E+02  0.00000000000E+00 0.  1.
</event>
<event>
 7    1  0.1122873E-005  0.5867449E+02  0.7818608E-02  0.1493252E+00
          2   -1    0    0  502    0  0.00000000000E+00  0.00000000000E+00  0.19175216401E+04  0.19175216401E+04  0.00000000000E+00 0. -1.
          1   -1    0    0  501    0 -0.00000000000E+00 -0.00000000000E+00 -0.25037643292E+04  0.25037643292E+04  0.00000000000E+00 0. -1.
         25    2    1    2    0    0  0.14481183687E+02  0.83623905698E+02 -0.42601054530E+03  0.45200908658E+03  0.12499826942E+03 0.  0.
          2    1    1    2  501    0 -0.16936657975E+02 -0.25025805542E+02 -0.20641923738E+04  0.20644135480E+04  0.00000000000E+00 0. -1.
          1    1    1    2  502    0  0.24554742881E+01 -0.58598100156E+02  0.19039602299E+04  0.19048633347E+04  0.00000000000E+00 0. -1.
         22    1    3    3    0    0  0.52293792397E+02  0.39602907576E+02 -0.91979459883E+02  0.11297456374E+03  0.00000000000E+00 0. -1.
         22    1    3    3    0    0 -0.37812608710E+02  0.44020998121E+02 -0.33403108541E+03  0.33903452284E+03  0.00000000000E+00 0. -1.
</event>
<event>
 7    1  0.6017574E-006  0.1417789E+03  0.7818608E-02  0.1284831E+00
          2   -1    0    0  502    0  0.00000000000E+00  0.00000000000E+00  0.50516622098E+03  0.50516622098E+03  0.00000000000E+00 0. -1.
          1   -1    0    0  501    0 -0.00000000000E+00 -0.00000000000E+00 -0.12600090186E+03  0.12600090186E+03  0.00000000000E+00 0. -1.
         25    2    1    2    0    0  0.64899380348E+02  0.16809924223E+03  0.11541121002E+03  0.24782266749E+03  0.12500816900E+03 0.  0.
          2    1    1    2  501    0 -0.10889420664E+02 -0.12750351570E+03  0.18920248899E+02  0.12935881035E+03  0.00000000000E+00 0. -1.
          1    1    1    2  502    0 -0.54009959685E+02 -0.40595726532E+02  0.24483386021E+03  0.25398564499E+03  0.00000000000E+00 0. -1.
         22    1    3    3    0    0  0.21949672841E+02 -0.77954689840E+01  0.50260155655E+02  0.55395313167E+02  0.00000000000E+00 0.  1.
         22    1    3    3    0    0  0.42949707508E+02  0.17589471121E+03  0.65151054363E+02  0.19242735432E+03  0.00000000000E+00 0.  1.
</event>
<event>
 7    1  0.6017574E-006  0.5646654E+02  0.7818608E-02  0.1448719E+00
          2   -1    0    0  502    0  0.00000000000E+00  0.00000000000E+00  0.59292013264E+03  0.59292013264E+03  0.00000000000E+00 0. -1.
          1   -1    0    0  501    0 -0.00000000000E+00 -0.00000000000E+00 -0.42978829483E+03  0.42978829483E+03  0.00000000000E+00 0. -1.
         25    2    1    2    0    0 -0.29056368194E+02  0.25514861115E+02  0.12024338383E+02  0.13139822345E+03  0.12500251094E+03 0.  0.
          2    1    1    2  501    0 -0.27720087082E+02 -0.33109475838E+02 -0.36725872140E+03  0.36978860051E+03  0.00000000000E+00 0. -1.
          1    1    1    2  502    0  0.56776455276E+02  0.75946147228E+01  0.51836622082E+03  0.52152160352E+03  0.00000000000E+00 0. -1.
         22    1    3    3    0    0 -0.72412947606E+02 -0.12044945537E+02  0.45290340586E+01  0.73547453005E+02  0.00000000000E+00 0.  1.
         22    1    3    3    0    0  0.43356579412E+02  0.37559806651E+02  0.74953043246E+01  0.57850770444E+02  0.00000000000E+00 0.  1.
</event>
<event>
 7    1  0.6017574E-006  0.1397314E+03  0.7818608E-02  0.1240956E+00
          2   -1    0    0  502    0  0.00000000000E+00  0.00000000000E+00  0.19367282382E+04  0.19367282382E+04  0.00000000000E+00 0. -1.
          1   -1    0    0  501    0 -0.00000000000E+00 -0.00000000000E+00 -0.38755304033E+02  0.38755304033E+02  0.00000000000E+00 0. -1.
         25    2    1    2    0    0  0.93140003814E+02  0.42673138492E+02  0.72856155923E+03  0.74627198340E+03  0.12499548214E+03 0.  0.
          2    1    1    2  501    0  0.91968556752E+01  0.10491005974E+03  0.10136012883E+03  0.14616627007E+03  0.00000000000E+00 0. -1.
          1    1    1    2  502    0 -0.10233685949E+03 -0.14758319823E+03  0.10680512461E+04  0.10830452887E+04  0.00000000000E+00 0. -1.
         22    1    3    3    0    0  0.86659885210E+02  0.76528329719E+02  0.41441017255E+03  0.43023518227E+03  0.00000000000E+00 0.  1.
         22    1    3    3    0    0  0.64801186043E+01 -0.33855191228E+02  0.31415138669E+03  0.31603680113E+03  0.00000000000E+00 0.  1.
</event>
<event>
 7    1  0.6017574E-006  0.1199945E+03  0.7818608E-02  0.1322750E+00
          2   -1    0    0  502    0  0.00000000000E+00  0.00000000000E+00  0.30471848649E+03  0.30471848649E+03  0.00000000000E+00 0. -1.
          1   -1    0    0  501    0 -0.00000000000E+00 -0.00000000000E+00 -0.91014393591E+03  0.91014393591E+03  0.00000000000E+00 0. -1.
         25    2    1    2    0    0  0.14042309730E+03  0.29020899360E+02 -0.44501955094E+02  0.19536516971E+03  0.12500506660E+03 0.  0.
          2    1    1    2  501    0 -0.42455907150E+02  0.37120777137E+02 -0.77388130666E+03  0.77593345909E+03  0.00000000000E+00 0. -1.
          1    1    1    2  502    0 -0.97967190146E+02 -0.66141676497E+02  0.21295781234E+03  0.24356379360E+03  0.00000000000E+00 0. -1.
         22    1    3    3    0    0  0.13135321282E+03  0.42260746797E+02 -0.77796698069E+02  0.15840443008E+03  0.00000000000E+00 0. -1.
         22    1    3    3    0    0  0.90698844787E+01 -0.13239847437E+02  0.33294742975E+02  0.36960739635E+02  0.00000000000E+00 0. -1.
</event>
<event>
 7    1  0.6017574E-006  0.4665234E+02  0.7818608E-02  0.1510637E+00
          2   -1    0    0  502    0  0.00000000000E+00  0.00000000000E+00  0.73191886733E+03  0.73191886733E+03  0.00000000000E+00 0. -1.
          1   -1    0    0  501    0 -0.00000000000E+00 -0.00000000000E+00 -0.49642966122E+02  0.49642966122E+02  0.00000000000E+00 0. -1.
         25    2    1    2    0    0 -0.21786634063E+02  0.26593981879E+02  0.41990363048E+03  0.43945956364E+03  0.12499500746E+03 0.  0.
          2    1    1    2  501    0  0.47196774845E+02 -0.44020443492E+01 -0.24427162488E+02  0.53325414367E+02  0.00000000000E+00 0. -1.
          1    1    1    2  502    0 -0.25410140782E+02 -0.22191937530E+02  0.28679943322E+03  0.28877685544E+03  0.00000000000E+00 0. -1.
         22    1    3    3    0    0 -0.50960216316E+02  0.26956194895E+02  0.81658399709E+02  0.99958362998E+02  0.00000000000E+00 0. -1.
         22    1    3    3    0    0  0.29173582254E+02 -0.36221301518E+00  0.33824523077E+03  0.33950120064E+03  0.00000000000E+00 0. -1.
</event>
<event>
 7    1  0.6017574E-006  0.1134677E+03  0.7818608E-02  0.1293694E+00
          2   -1    0    0  502    0  0.00000000000E+00  0.00000000000E+00  0.12193035042E+04  0.12193035042E+04  0.00000000000E+00 0. -1.
          1   -1    0    0  501    0 -0.00000000000E+00 -0.00000000000E+00 -0.23835890288E+03  0.23835890288E+03  0.00000000000E+00 0. -1.
         25    2    1    2    0    0 -0.10208201807E+03  0.83415487873E+02  0.88697273833E+02  0.20217533899E+03  0.12501511620E+03 0.  0.
          2    1    1    2  501    0  0.11374818120E+03 -0.66046639824E+01 -0.16217884802E+03  0.19820254554E+03  0.00000000000E+00 0. -1.
          1    1    1    2  502    0 -0.11666163128E+02 -0.76810823890E+02  0.10544261755E+04  0.10572845225E+04  0.00000000000E+00 0. -1.
         22    1    3    3    0    0 -0.63436281774E+02  0.11329013708E+03  0.80148417676E+02  0.15258632265E+03  0.00000000000E+00 0.  1.
         22    1    3    3    0    0 -0.38645736300E+02 -0.29874649209E+02  0.85488561568E+01  0.49589016335E+02  0.00000000000E+00 0.  1.
</event>
<event>
 7    1  0.6017574E-006  0.1650700E+03  0.7818608E-02  0.1296082E+00
          2   -1    0    0  502    0  0.00000000000E+00  0.00000000000E+00  0.10884205797E+04  0.10884205797E+04  0.00000000000E+00 0. -1.
          1   -1    0    0  501    0 -0.00000000000E+00 -0.00000000000E+00 -0.32207237641E+04  0.32207237641E+04  0.00000000000E+00 0. -1.
         25    2    1    2    0    0  0.20332031054E+03 -0.60575253023E+02  0.14376199915E+03  0.28513383851E+03  0.12500113401E+03 0.  0.
          2    1    1    2  501    0 -0.48552537806E+02  0.19258862527E+02 -0.31424789126E+04  0.31429129751E+04  0.00000000000E+00 0. -1.
          1    1    1    2  502    0 -0.15476777274E+03  0.41316390496E+02  0.86641372909E+03  0.88109753010E+03  0.00000000000E+00 0. -1.
         22    1    3    3    0    0  0.11199650011E+03 -0.89959495113E+02  0.53143081923E+02  0.15316694798E+03  0.00000000000E+00 0.  1.
         22    1    3    3    0    0  0.91323810436E+02  0.29384242090E+02  0.90618917227E+02  0.13196689053E+03  0.00000000000E+00 0.  1.
</event>
<event>
 7    1  0.6017574E-006  0.3555880E+02  0.7818608E-02  0.1596780E+00
          2   -1    0    0  502    0  0.00000000000E+00  0.00000000000E+00  0.80922269251E+03  0.80922269251E+03  0.00000000000E+00 0. -1.
          1   -1    0    0  501    0 -0.00000000000E+00 -0.00000000000E+00 -0.57665245087E+02  0.57665245087E+02  0.00000000000E+00 0. -1.
         25    2    1    2    0    0 -0.16113781132E+02 -0.29167107518E+02  0.57842297076E+03  0.59271283687E+03  0.12499999912E+03 0.  0.
          2    1    1    2  501    0 -0.88175551861E+01  0.34574443338E+02 -0.43376485439E+02  0.56166368056E+02  0.00000000000E+00 0. -1.
          1    1    1    2  502    0  0.24931336318E+02 -0.54073358199E+01  0.21651096210E+03  0.21800873267E+03  0.00000000000E+00 0. -1.
         22    1    3    3    0    0  0.49114335042E+02  0.13321468850E+02  0.20065826461E+03  0.20701067266E+03  0.00000000000E+00 0. -1.
         22    1    3    3    0    0 -0.65228116174E+02 -0.42488576367E+02  0.37776470615E+03  0.38570216421E+03  0.00000000000E+00 0. -1.
</event>
<event>
 7    1  0.6017574E-006  0.4190723E+02  0.7818608E-02  0.1507897E+00
          2   -1    0    0  502    0  0.00000000000E+00  0.00000000000E+00  0.11418101164E+03  0.11418101164E+03  0.00000000000E+00 0. -1.
          1   -1    0    0  501    0 -0.00000000000E+00 -0.00000000000E+00 -0.59233834374E+03  0.59233834374E+03  0.00000000000E+00 0. -1.
         25    2    1    2    0    0 -0.92458722970E+01  0.14648405967E+02 -0.99883830369E+02  0.16094043848E+03  0.12499993286E+03 0.  0.
          2    1    1    2  501    0  0.30432566022E+02  0.23190039697E+02 -0.45544931739E+03  0.45705360706E+03  0.00000000000E+00 0. -1.
          1    1    1    2  502    0 -0.21186693725E+02 -0.37838445664E+02  0.77175815657E+02  0.88525309847E+02  0.00000000000E+00 0. -1.
         22    1    3    3    0    0 -0.12975531316E+02  0.68041844379E+02 -0.74421092672E+02  0.10166885479E+03  0.00000000000E+00 0.  1.
         22    1    3    3    0    0  0.37296590195E+01 -0.53393438412E+02 -0.25462737697E+02  0.59271583688E+02  0.00000000000E+00 0.  1.
</event>
<event>
 7    1  0.6017574E-006  0.4719502E+02  0.7818608E-02  0.1507667E+00
          2   -1    0    0  502    0  0.00000000000E+00  0.00000000000E+00  0.24329972652E+03  0.24329972652E+03  0.00000000000E+00 0. -1.
          1   -1    0    0  501    0 -0.00000000000E+00 -0.00000000000E+00 -0.10130849187E+04  0.10130849187E+04  0.00000000000E+00 0. -1.
         25    2    1    2    0    0 -0.62893039593E+02  0.48517974965E+02 -0.45623824402E+02  0.15497105760E+03  0.12499986807E+03 0.  0.
          2    1    1    2  501    0  0.41204730837E+02 -0.22297792115E+02 -0.91064573651E+03  0.91185014053E+03  0.00000000000E+00 0. -1.
          1    1    1    2  502    0  0.21688308756E+02 -0.26220182850E+02  0.18648436868E+03  0.18956344713E+03  0.00000000000E+00 0. -1.
         22    1    3    3    0    0 -0.49173211922E+02 -0.24446946189E+01 -0.78594290140E+02  0.92741812281E+02  0.00000000000E+00 0. -1.
         22    1    3    3    0    0 -0.13719827671E+02  0.50962669584E+02  0.32970465738E+02  0.62229245323E+02  0.00000000000E+00 0. -1.
</event>
<event>
 7    1  0.6017574E-006  0.2157364E+03  0.7818608E-02  0.1283504E+00
          2   -1    0    0  502    0  0.00000000000E+00  0.00000000000E+00  0.32624295165E+04  0.32624295165E+04  0.00000000000E+00 0. -1.
          1   -1    0    0  501    0 -0.00000000000E+00 -0.00000000000E+00 -0.31288735575E+03  0.31288735575E+03  0.00000000000E+00 0. -1.
         25    2    1    2    0    0 -0.38140057319E+02 -0.24731234025E+03  0.59767314310E+03  0.65989123847E+03  0.12500081204E+03 0.  0.
          2    1    1    2  501    0  0.85738270479E+01  0.21343692636E+03 -0.24107245934E+03  0.32209433819E+03  0.00000000000E+00 0. -1.
          1    1    1    2  502    0  0.29566230271E+02  0.33875413889E+02  0.25929414770E+04  0.25933312956E+04  0.00000000000E+00 0. -1.
         22    1    3    3    0    0  0.71662871509E+01 -0.36114470008E+02  0.17407821928E+02  0.40726439566E+02  0.00000000000E+00 0. -1.
         22    1    3    3    0    0 -0.45306344470E+02 -0.21119787025E+03  0.58026532117E+03  0.61916479890E+03  0.00000000000E+00 0. -1.
</event>
<event>
 7    1  0.6017574E-006  0.1859537E+03  0.7818608E-02  0.1276188E+00
          2   -1    0    0  502    0  0.00000000000E+00  0.00000000000E+00  0.11006481584E+04  0.11006481584E+04  0.00000000000E+00 0. -1.
          1   -1    0    0  501    0 -0.00000000000E+00 -0.00000000000E+00 -0.12121002585E+03  0.12121002585E+03  0.00000000000E+00 0. -1.
         25    2    1    2    0    0 -0.45671666452E+01 -0.14808557023E+03  0.12664911314E+03  0.23154833089E+03  0.12499774621E+03 0.  0.
          2    1    1    2  501    0 -0.37972947290E+02 -0.41058892710E+02 -0.45027632571E+02  0.71800174731E+02  0.00000000000E+00 0. -1.
          1    1    1    2  502    0  0.42540113935E+02  0.18914446294E+03  0.89781665196E+03  0.91850967860E+03  0.00000000000E+00 0. -1.
         22    1    3    3    0    0  0.13265673597E+02 -0.16352565866E+03  0.87748791042E+02  0.18605501731E+03  0.00000000000E+00 0.  1.
         22    1    3    3    0    0 -0.17832840242E+02  0.15440088426E+02  0.38900322099E+02  0.45493313587E+02  0.00000000000E+00 0.  1.
</event>
<event>
 7    1  0.6017574E-006  0.9565078E+02  0.7818608E-02  0.1353974E+00
          2   -1    0    0  502    0  0.00000000000E+00  0.00000000000E+00  0.20766670276E+03  0.20766670276E+03  0.00000000000E+00 0. -1.
          1   -1    0    0  501    0 -0.00000000000E+00 -0.00000000000E+00 -0.15118403251E+04  0.15118403251E+04  0.00000000000E+00 0. -1.
         25    2    1    2    0    0 -0.24369258807E+02 -0.40310413863E+02 -0.26347451513E+03  0.29540798067E+03  0.12501305805E+03 0.  0.
          2    1    1    2  501    0 -0.46662289528E+02 -0.27065622062E+02 -0.12192636900E+04  0.12204564158E+04  0.00000000000E+00 0. -1.
          1    1    1    2  502    0  0.71031548335E+02  0.67376035925E+02  0.17856458280E+03  0.20364263136E+03  0.00000000000E+00 0. -1.
         22    1    3    3    0    0  0.24715666364E+02 -0.16443320868E+02 -0.36461000734E+01  0.29908878459E+02  0.00000000000E+00 0.  1.
         22    1    3    3    0    0 -0.49084925171E+02 -0.23867092995E+02 -0.25982841505E+03  0.26549910221E+03  0.00000000000E+00 0.  1.
</event>
<event>
 7    1  0.6017574E-006  0.5845273E+02  0.7818608E-02  0.1440962E+00
          2   -1    0    0  502    0  0.00000000000E+00  0.00000000000E+00  0.49897159224E+03  0.49897159224E+03  0.00000000000E+00 0. -1.
          1   -1    0    0  501    0 -0.00000000000E+00 -0.00000000000E+00 -0.29055410292E+03  0.29055410292E+03  0.00000000000E+00 0. -1.
         25    2    1    2    0    0  0.66042251075E+02 -0.60695848568E+01  0.14452657716E+03  0.20226726601E+03  0.12500278639E+03 0.  0.
          2    1    1    2  501    0 -0.47655728170E+02 -0.34109147253E+02 -0.25686895657E+03  0.26346947300E+03  0.00000000000E+00 0. -1.
          1    1    1    2  502    0 -0.18386522905E+02  0.40178732110E+02  0.32075986873E+03  0.32378895615E+03  0.00000000000E+00 0. -1.
         22    1    3    3    0    0  0.45358166938E+02 -0.33869772926E+02  0.15585062060E+03  0.16581296924E+03  0.00000000000E+00 0.  1.
         22    1    3    3    0    0  0.20684084137E+02  0.27800188070E+02 -0.11324043438E+02  0.36454296771E+02  0.00000000000E+00 0.  1.
</event>
<event>
 7    1  0.6017574E-006  0.1254193E+03  0.7818608E-02  0.1349783E+00
          2   -1    0    0  502    0  0.00000000000E+00  0.00000000000E+00  0.32255611529E+03  0.32255611529E+03  0.00000000000E+00 0. -1.
          1   -1    0    0  501    0 -0.00000000000E+00 -0.00000000000E+00 -0.13431191901E+04  0.13431191901E+04  0.00000000000E+00 0. -1.
         25    2    1    2    0    0 -0.35195530747E+02 -0.16036813117E+03 -0.92045350917E+03  0.94330088426E+03  0.12500093129E+03 0.  0.
          2    1    1    2  501    0  0.22706026829E+02  0.36083666370E+02 -0.39751912059E+03  0.39979875672E+03  0.00000000000E+00 0. -1.
          1    1    1    2  502    0  0.12489503918E+02  0.12428446480E+03  0.29740955495E+03  0.32257566442E+03  0.00000000000E+00 0. -1.
         22    1    3    3    0    0 -0.40614322219E+02 -0.17943761548E+03 -0.77698624760E+03  0.79847041897E+03  0.00000000000E+00 0. -1.
         22    1    3    3    0    0  0.54187914721E+01  0.19069484304E+02 -0.14346726158E+03  0.14483046529E+03  0.00000000000E+00 0. -1.
</event>
<event>
 7    1  0.6017574E-006  0.5498543E+02  0.7818608E-02  0.1512611E+00
          2   -1    0    0  502    0  0.00000000000E+00  0.00000000000E+00  0.23867379091E+03  0.23867379091E+03  0.00000000000E+00 0. -1.
          1   -1    0    0  501    0 -0.00000000000E+00 -0.00000000000E+00 -0.20665993069E+04  0.20665993069E+04  0.00000000000E+00 0. -1.
         25    2    1    2    0    0 -0.51624371351E+02 -0.55505654716E+02 -0.12251633787E+03  0.19073825936E+03  0.12499950845E+03 0.  0.
          2    1    1    2  501    0  0.47327533968E+02  0.27590203228E+02 -0.19086021818E+04  0.19093882275E+04  0.00000000000E+00 0. -1.
          1    1    1    2  502    0  0.42968373831E+01  0.27915451488E+02  0.20319300370E+03  0.20514661098E+03  0.00000000000E+00 0. -1.
         22    1    3    3    0    0 -0.42187499712E+02 -0.93990362956E+02 -0.68388623359E+02  0.12365669115E+03  0.00000000000E+00 0.  1.
         22    1    3    3    0    0 -0.94368716388E+01  0.38484708240E+02 -0.54127714515E+02  0.67081568208E+02  0.00000000000E+00 0.  1.
</event>
<event>
 7    1  0.6017574E-006  0.3468360E+02  0.7818608E-02  0.1622926E+00
          2   -1    0    0  502    0  0.00000000000E+00  0.00000000000E+00  0.87790707080E+03  0.87790707080E+03  0.00000000000E+00 0. -1.
          1   -1    0    0  501    0 -0.00000000000E+00 -0.00000000000E+00 -0.12048003283E+02  0.12048003283E+02  0.00000000000E+00 0. -1.
         25    2    1    2    0    0  0.23336339495E+02 -0.25483450024E+02  0.44510724020E+03  0.46361636128E+03  0.12500273677E+03 0.  0.
          2    1    1    2  501    0 -0.37002796756E+02  0.77460173408E+01  0.35218591553E+03  0.35420915692E+03  0.00000000000E+00 0. -1.
          1    1    1    2  502    0  0.13666457260E+02  0.17737432683E+02  0.68565911798E+02  0.72129555891E+02  0.00000000000E+00 0. -1.
         22    1    3    3    0    0 -0.51300335524E+02 -0.17092973931E+01  0.17132912283E+03  0.17885277312E+03  0.00000000000E+00 0. -1.
         22    1    3    3    0    0  0.74636675019E+02 -0.23774152631E+02  0.27377811737E+03  0.28476358816E+03  0.00000000000E+00 0. -1.
</event>
<event>
 7    1  0.6017574E-006  0.7569202E+02  0.7818608E-02  0.1372515E+00
          2   -1    0    0  502    0  0.00000000000E+00  0.00000000000E+00  0.32091567530E+03  0.32091567530E+03  0.00000000000E+00 0. -1.
          1   -1    0    0  501    0 -0.00000000000E+00 -0.00000000000E+00 -0.21832443783E+03  0.21832443783E+03  0.00000000000E+00 0. -1.
         25    2    1    2    0    0 -0.78684194488E+02 -0.18839012378E+01 -0.46388293535E+02  0.15482647923E+03  0.12499845339E+03 0.  0.
          2    1    1    2  501    0  0.24887387103E+02 -0.52805998782E+02 -0.10443428929E+03  0.11964270276E+03  0.00000000000E+00 0. -1.
          1    1    1    2  502    0  0.53796807385E+02  0.54689900019E+02  0.25341382030E+03  0.26477093113E+03  0.00000000000E+00 0. -1.
         22    1    3    3    0    0 -0.10765130845E+03 -0.22193923343E+02 -0.46756269683E+02  0.11944673792E+03  0.00000000000E+00 0.  1.
         22    1    3    3    0    0  0.28967113962E+02  0.20310022105E+02  0.36797614801E+00  0.35379741317E+02  0.00000000000E+00 0.  1.
</event>
<event>
 7    1  0.6017574E-006  0.3561228E+02  0.7818608E-02  0.1555299E+00
          2   -1    0    0  502    0  0.00000000000E+00  0.00000000000E+00  0.14461884959E+04  0.14461884959E+04  0.00000000000E+00 0. -1.
          1   -1    0    0  501    0 -0.00000000000E+00 -0.00000000000E+00 -0.78962811554E+01  0.78962811554E+01  0.00000000000E+00 0. -1.
         25    2    1    2    0    0 -0.30117592626E+01  0.17130602133E+02  0.10035144022E+04  0.10114168832E+04  0.12498171103E+03 0.  0.
          2    1    1    2  501    0 -0.31454901135E+02  0.98244316153E+01  0.10635666260E+03  0.11134482449E+03  0.00000000000E+00 0. -1.
          1    1    1    2  502    0  0.34466660398E+02 -0.26955033748E+02  0.32842115003E+03  0.33132306939E+03  0.00000000000E+00 0. -1.
         22    1    3    3    0    0 -0.50299707258E+02  0.37375378105E+02  0.75719699258E+03  0.75978567045E+03  0.00000000000E+00 0. -1.
         22    1    3    3    0    0  0.47287947996E+02 -0.20244775972E+02  0.24631740957E+03  0.25163121276E+03  0.00000000000E+00 0. -1.
</event>
<event>
 7    1  0.6017574E-006  0.6843361E+02  0.7818608E-02  0.1443113E+00
          2   -1    0    0  502    0  0.00000000000E+00  0.00000000000E+00  0.63252764896E+02  0.63252764896E+02  0.00000000000E+00 0. -1.
          1   -1    0    0  501    0 -0.00000000000E+00 -0.00000000000E+00 -0.21845956958E+04  0.21845956958E+04  0.00000000000E+00 0. -1.
         25    2    1    2    0    0 -0.55149298716E+02  0.23108544930E+02 -0.12518726787E+03  0.18673780472E+03  0.12499482260E+03 0.  0.
          2    1    1    2  501    0  0.11986449790E+02  0.35154094492E+02 -0.19877714955E+04  0.19881184581E+04  0.00000000000E+00 0. -1.
          1    1    1    2  502    0  0.43162848926E+02 -0.58262639422E+02 -0.83841675464E+01  0.72992197838E+02  0.00000000000E+00 0. -1.
         22    1    3    3    0    0  0.12708300072E+02  0.24487195805E+02 -0.11480911453E+03  0.11807733240E+03  0.00000000000E+00 0.  1.
         22    1    3    3    0    0 -0.67857598788E+02 -0.13786508753E+01 -0.10378153346E+02  0.68660472314E+02  0.00000000000E+00 0.  1.
</event>
<event>
 7    1  0.6017574E-006  0.6112521E+02  0.7818608E-02  0.1433650E+00
          2   -1    0    0  502    0  0.00000000000E+00  0.00000000000E+00  0.28314077826E+04  0.28314077826E+04  0.00000000000E+00 0. -1.
          1   -1    0    0  501    0 -0.00000000000E+00 -0.00000000000E+00 -0.99459979511E+02  0.99459979511E+02  0.00000000000E+00 0. -1.
         25    2    1    2    0    0  0.21695694801E+02 -0.93155570127E+01  0.58291845158E+03  0.59663726604E+03  0.12499849304E+03 0.  0.
          2    1    1    2  501    0  0.41791974788E+02  0.15680172130E+02 -0.86739745221E+02  0.97551116630E+02  0.00000000000E+00 0. -1.
          1    1    1    2  502    0 -0.63487669589E+02 -0.63646151176E+01  0.22357690967E+04  0.22366793794E+04  0.00000000000E+00 0. -1.
         22    1    3    3    0    0  0.10437046924E+02  0.17053067295E+02  0.88691271779E+01  0.21872367717E+02  0.00000000000E+00 0.  1.
         22    1    3    3    0    0  0.11258647877E+02 -0.26368624308E+02  0.57404932440E+03  0.57476489832E+03  0.00000000000E+00 0.  1.
</event>
<event>
 7    1  0.6017574E-006  0.6376695E+02  0.7818608E-02  0.1396062E+00
          2   -1    0    0  502    0  0.00000000000E+00  0.00000000000E+00  0.16776221527E+03  0.16776221527E+03  0.00000000000E+00 0. -1.
          1   -1    0    0  501    0 -0.00000000000E+00 -0.00000000000E+00 -0.54283069336E+03  0.54283069336E+03  0.00000000000E+00 0. -1.
         25    2    1    2    0    0  0.16930671108E+02 -0.27591115320E+02 -0.27346617068E+03  0.30241791796E+03  0.12499973332E+03 0.  0.
          2    1    1    2  501    0  0.47906786944E+02  0.31355458181E+02 -0.24455102986E+03  0.25116415190E+03  0.00000000000E+00 0. -1.
          1    1    1    2  502    0 -0.64837458052E+02 -0.37643428612E+01  0.14294872244E+03  0.15701083877E+03  0.00000000000E+00 0. -1.
         22    1    3    3    0    0  0.40096147561E+02  0.37213454051E+02 -0.16621153992E+03  0.17498233687E+03  0.00000000000E+00 0. -1.
         22    1    3    3    0    0 -0.23165476453E+02 -0.64804569371E+02 -0.10725463076E+03  0.12743558110E+03  0.00000000000E+00 0. -1.
</event>
<event>
 7    1  0.6017574E-006  0.5609555E+02  0.7818608E-02  0.1415719E+00
          2   -1    0    0  502    0  0.00000000000E+00  0.00000000000E+00  0.12005843208E+04  0.12005843208E+04  0.00000000000E+00 0. -1.
          1   -1    0    0  501    0 -0.00000000000E+00 -0.00000000000E+00 -0.17864365472E+04  0.17864365472E+04  0.00000000000E+00 0. -1.
         25    2    1    2    0    0 -0.68495728037E+02  0.19668038026E+02  0.52357215228E+03  0.54298334189E+03  0.12499845776E+03 0.  0.
          2    1    1    2  501    0  0.22591176594E+02 -0.51354918214E+02 -0.17751213687E+04  0.17760077597E+04  0.00000000000E+00 0. -1.
          1    1    1    2  502    0  0.45904551443E+02  0.31686880188E+02  0.66569699005E+03  0.66802976639E+03  0.00000000000E+00 0. -1.
         22    1    3    3    0    0 -0.13965763635E+02 -0.35726620254E+01 -0.15750961978E+01  0.14501289456E+02  0.00000000000E+00 0.  1.
         22    1    3    3    0    0 -0.54529964402E+02  0.23240700051E+02  0.52514724848E+03  0.52848205243E+03  0.00000000000E+00 0.  1.
</event>
<event>
 7    1  0.6017574E-006  0.1251039E+03  0.7818608E-02  0.1245799E+00
          2   -1    0    0  502    0  0.00000000000E+00  0.00000000000E+00  0.19449968485E+03  0.19449968485E+03  0.00000000000E+00 0. -1.
          1   -1    0    0  501    0 -0.00000000000E+00 -0.00000000000E+00 -0.22223201016E+04  0.22223201016E+04  0.00000000000E+00 0. -1.
         25    2    1    2    0    0 -0.83895930596E+02 -0.16720573372E+03 -0.75645021376E+03  0.78920372917E+03  0.12501726155E+03 0.  0.
          2    1    1    2  501    0 -0.25908774974E+02  0.10897390911E+03 -0.14253434166E+04  0.14297378895E+04  0.00000000000E+00 0. -1.
          1    1    1    2  502    0  0.10980470557E+03  0.58231824611E+02  0.15397321361E+03  0.19787816775E+03  0.00000000000E+00 0. -1.
         22    1    3    3    0    0 -0.76610193530E+02 -0.15513869346E+03 -0.44528561876E+03  0.47772002076E+03  0.00000000000E+00 0.  1.
         22    1    3    3    0    0 -0.72857370659E+01 -0.12067040261E+02 -0.31116459500E+03  0.31148370841E+03  0.00000000000E+00 0.  1.
</event>
<event>
 7    1  0.6017574E-006  0.7202936E+02  0.7818608E-02  0.1469543E+00
          2   -1    0    0  502    0  0.00000000000E+00  0.00000000000E+00  0.12685994580E+04  0.12685994580E+04  0.00000000000E+00 0. -1.
          1   -1    0    0  501    0 -0.00000000000E+00 -0.00000000000E+00 -0.18294947177E+03  0.18294947177E+03  0.00000000000E+00 0. -1.
         25    2    1    2    0    0 -0.13308253699E+01  0.46712885746E+02  0.17647472476E+03  0.22125203735E+03  0.12500108303E+03 0.  0.
          2    1    1    2  501    0 -0.13168350276E+02 -0.71936427521E+02 -0.15202363006E+03  0.16869925652E+03  0.00000000000E+00 0. -1.
          1    1    1    2  502    0  0.14499175646E+02  0.25223541775E+02  0.10611988915E+04  0.10615976359E+04  0.00000000000E+00 0. -1.
         22    1    3    3    0    0  0.48893387981E+02  0.25734642493E+02  0.25668055445E+02  0.60923593811E+02  0.00000000000E+00 0. -1.
         22    1    3    3    0    0 -0.50224213350E+02  0.20978243253E+02  0.15080666932E+03  0.16032844354E+03  0.00000000000E+00 0. -1.
</event>
<event>
 7    1  0.6017574E-006  0.8774156E+02  0.7818608E-02  0.1324330E+00
          2   -1    0    0  502    0  0.00000000000E+00  0.00000000000E+00  0.12173088034E+04  0.12173088034E+04  0.00000000000E+00 0. -1.
          1   -1    0    0  501    0 -0.00000000000E+00 -0.00000000000E+00 -0.62695035390E+03  0.62695035390E+03  0.00000000000E+00 0. -1.
         25    2    1    2    0    0 -0.30894598456E+01 -0.37668159155E+02  0.77145086899E+00  0.13059012872E+03  0.12499900642E+03 0.  0.
          2    1    1    2  501    0  0.78592327843E+02  0.46782467085E+02 -0.55705204646E+03  0.56451070467E+03  0.00000000000E+00 0. -1.
          1    1    1    2  502    0 -0.75502867997E+02 -0.91143079297E+01  0.11466390451E+04  0.11491583239E+04  0.00000000000E+00 0. -1.
         22    1    3    3    0    0 -0.18047940343E+02 -0.64964527083E+02  0.41618493233E+02  0.79235199935E+02  0.00000000000E+00 0.  1.
         22    1    3    3    0    0  0.14958480497E+02  0.27296367928E+02 -0.40847042364E+02  0.51354928788E+02  0.00000000000E+00 0.  1.
</event>
<event>
 7    1  0.6017574E-006  0.1093745E+03  0.7818608E-02  0.1422598E+00
          2   -1    0    0  502    0  0.00000000000E+00  0.00000000000E+00  0.37885423165E+03  0.37885423165E+03  0.00000000000E+00 0. -1.
          1   -1    0    0  501    0 -0.00000000000E+00 -0.00000000000E+00 -0.14946653270E+04  0.14946653270E+04  0.00000000000E+00 0. -1.
         25    2    1    2    0    0 -0.12318972730E+03 -0.43693933674E+02 -0.43221948434E+03  0.46853078822E+03  0.12499019207E+03 0.  0.
          2    1    1    2  501    0  0.26369331707E+02 -0.63869869763E+01 -0.10358728954E+04  0.10362281557E+04  0.00000000000E+00 0. -1.
          1    1    1    2  502    0  0.96820395589E+02  0.50080920650E+02  0.35228128440E+03  0.36876061470E+03  0.00000000000E+00 0. -1.
         22    1    3    3    0    0  0.16484546236E+02  0.19928579679E+02 -0.43497466832E+02  0.50605515247E+02  0.00000000000E+00 0. -1.
         22    1    3    3    0    0 -0.13967427353E+03 -0.63622513353E+02 -0.38872201751E+03  0.41792527298E+03  0.00000000000E+00 0. -1.
</event>
<event>
 7    1  0.6017574E-006  0.1116881E+03  0.7818608E-02  0.1362569E+00
          2   -1    0    0  502    0  0.00000000000E+00  0.00000000000E+00  0.47616868624E+03  0.47616868624E+03  0.00000000000E+00 0. -1.
          1   -1    0    0  501    0 -0.00000000000E+00 -0.00000000000E+00 -0.79284233356E+03  0.79284233356E+03  0.00000000000E+00 0. -1.
         25    2    1    2    0    0  0.49768217517E+02 -0.68111382335E+02 -0.24815882753E+03  0.29038409772E+03  0.12499633853E+03 0.  0.
          2    1    1    2  501    0 -0.16917091718E+02 -0.39500341050E+02 -0.51570872390E+03  0.51749584814E+03  0.00000000000E+00 0. -1.
          1    1    1    2  502    0 -0.32851125798E+02  0.10761172338E+03  0.44719390411E+03  0.46113107394E+03  0.00000000000E+00 0. -1.
         22    1    3    3    0    0 -0.36424674569E+02 -0.26704658720E+02 -0.13433738289E+03  0.14172659650E+03  0.00000000000E+00 0. -1.
         22    1    3    3    0    0  0.86192892085E+02 -0.41406723614E+02 -0.11382144465E+03  0.14865750122E+03  0.00000000000E+00 0. -1.
</event>
<event>
 7    1  0.6017574E-006  0.4605890E+02  0.7818608E-02  0.1502754E+00
          2   -1    0    0  502    0  0.00000000000E+00  0.00000000000E+00  0.80789098830E+02  0.80789098830E+02  0.00000000000E+00 0. -1.
          1   -1    0    0  501    0 -0.00000000000E+00 -0.00000000000E+00 -0.70482956120E+03  0.70482956120E+03  0.00000000000E+00 0. -1.
         25    2    1    2    0    0 -0.19547142918E+02  0.16037618072E+02 -0.16097253030E+03  0.20536885912E+03  0.12499966718E+03 0.  0.
          2    1    1    2  501    0  0.46902737088E+02  0.74500868116E+01 -0.51491381056E+03  0.51709921953E+03  0.00000000000E+00 0. -1.
          1    1    1    2  502    0 -0.27355594170E+02 -0.23487704884E+02  0.51845878481E+02  0.63150581379E+02  0.00000000000E+00 0. -1.
         22    1    3    3    0    0  0.12797693181E+02 -0.27782245627E+02 -0.14559754324E+03  0.14877593462E+03  0.00000000000E+00 0. -1.
         22    1    3    3    0    0 -0.32344836099E+02  0.43819863699E+02 -0.15374987054E+02  0.56592924503E+02  0.00000000000E+00 0. -1.
</event>
<event>
 7    1  0.6017574E-006  0.1839387E+03  0.7818608E-02  0.1241931E+00
          2   -1    0    0  502    0  0.00000000000E+00  0.00000000000E+00  0.47503931047E+03  0.47503931047E+03  0.00000000000E+00 0. -1.
          1   -1    0    0  501    0 -0.00000000000E+00 -0.00000000000E+00 -0.40850004021E+03  0.40850004021E+03  0.00000000000E+00 0. -1.
         25    2    1    2    0    0  0.11112368936E+03 -0.70396991730E+02 -0.61749844679E+02  0.19168134037E+03  0.12499792857E+03 0.  0.
          2    1    1    2  501    0  0.15027809697E+02 -0.77776704752E+02 -0.25227810853E+03  0.26442256884E+03  0.00000000000E+00 0. -1.
          1    1    1    2  502    0 -0.12615149905E+03  0.14817369648E+03  0.38056722347E+03  0.42743544147E+03  0.00000000000E+00 0. -1.
         22    1    3    3    0    0 -0.93586319731E+01  0.19365690992E+02  0.11655892137E+02  0.24463724195E+02  0.00000000000E+00 0. -1.
         22    1    3    3    0    0  0.12048232133E+03 -0.89762682722E+02 -0.73405736816E+02  0.16721761618E+03  0.00000000000E+00 0. -1.
</event>
<event>
 7    1  0.6017574E-006  0.1680655E+03  0.7818608E-02  0.1323999E+00
          2   -1    0    0  502    0  0.00000000000E+00  0.00000000000E+00  0.24194367938E+04  0.24194367938E+04  0.00000000000E+00 0. -1.
          1   -1    0    0  501    0 -0.00000000000E+00 -0.00000000000E+00 -0.11288184389E+04  0.11288184389E+04  0.00000000000E+00 0. -1.
         25    2    1    2    0    0  0.45842419821E+02  0.20256184341E+03  0.15182045642E+04  0.15374337187E+04  0.12499805099E+03 0.  0.
          2    1    1    2  501    0 -0.35531035539E+02 -0.16409963150E+03 -0.11124564316E+04  0.11250557567E+04  0.00000000000E+00 0. -1.
          1    1    1    2  502    0 -0.10311384282E+02 -0.38462211908E+02  0.88487022229E+03  0.88576575723E+03  0.00000000000E+00 0. -1.
         22    1    3    3    0    0 -0.19046828517E+02  0.13424111646E+03  0.64098018609E+03  0.65516338266E+03  0.00000000000E+00 0.  1.
         22    1    3    3    0    0  0.64889248338E+02  0.68320726946E+02  0.87722437814E+03  0.88227033606E+03  0.00000000000E+00 0.  1.
</event>
<event>
 7    1  0.6017574E-006  0.3227848E+02  0.7818608E-02  0.1578215E+00
          2   -1    0    0  502    0  0.00000000000E+00  0.00000000000E+00  0.11753782933E+04  0.11753782933E+04  0.00000000000E+00 0. -1.
          1   -1    0    0  501    0 -0.00000000000E+00 -0.00000000000E+00 -0.71865161427E+03  0.71865161427E+03  0.00000000000E+00 0. -1.
         25    2    1    2    0    0  0.43096499662E+02  0.36903613809E+02  0.20401104446E+03  0.24589593207E+03  0.12500047261E+03 0.  0.
          2    1    1    2  501    0 -0.30598974473E+02 -0.74035940521E+01 -0.69708380688E+03  0.69779434238E+03  0.00000000000E+00 0. -1.
          1    1    1    2  502    0 -0.12497525188E+02 -0.29500019757E+02  0.94979944148E+03  0.95033963315E+03  0.00000000000E+00 0. -1.
         22    1    3    3    0    0  0.67297663369E+02  0.41486413814E+02  0.58584943217E+02  0.98398646321E+02  0.00000000000E+00 0. -1.
         22    1    3    3    0    0 -0.24201163707E+02 -0.45828000046E+01  0.14542610124E+03  0.14749728575E+03  0.00000000000E+00 0. -1.
</event>
<event>
 7    1  0.9631080E-006  0.8019091E+02  0.7818608E-02  0.1337740E+00
          2   -1    0    0  502    0  0.00000000000E+00  0.00000000000E+00  0.93712153191E+03  0.93712153191E+03  0.00000000000E+00 0. -1.
          1   -1    0    0  501    0 -0.00000000000E+00 -0.00000000000E+00 -0.29120387507E+04  0.29120387507E+04  0.00000000000E+00 0. -1.
         25    2    1    2    0    0 -0.44763854395E+02 -0.11262755306E+03 -0.76753023567E+03  0.78703022959E+03  0.12500060502E+03 0.  0.
          2    1    1    2  501    0  0.65107610652E+02  0.35100319068E+02 -0.21323842224E+04  0.21336666810E+04  0.00000000000E+00 0. -1.
          1    1    1    2  502    0 -0.20343756257E+02  0.77527233995E+02  0.92499723934E+03  0.92846337204E+03  0.00000000000E+00 0. -1.
         22    1    3    3    0    0 -0.30809837137E+02 -0.95511822662E+02 -0.25519557597E+03  0.27421986859E+03  0.00000000000E+00 0.  1.
         22    1    3    3    0    0 -0.13954017258E+02 -0.17115730400E+02 -0.51233465970E+03  0.51281036100E+03  0.00000000000E+00 0.  1.
</event>
<event>
 7    1  0.6017574E-006  0.1233665E+03  0.7818608E-02  0.1370608E+00
          2   -1    0    0  502    0  0.00000000000E+00  0.00000000000E+00  0.12901689969E+04  0.12901689969E+04  0.00000000000E+00 0. -1.
          1   -1    0    0  501    0 -0.00000000000E+00 -0.00000000000E+00 -0.24184723158E+04  0.24184723158E+04  0.00000000000E+00 0. -1.
         25    2    1    2    0    0  0.90328855729E+02 -0.37971176919E+02 -0.11223768329E+03  0.19448392531E+03  0.12500234877E+03 0.  0.
          2    1    1    2  501    0  0.98083994803E+01 -0.35038808991E+02 -0.22618908998E+04  0.22621835392E+04  0.00000000000E+00 0. -1.
          1    1    1    2  502    0 -0.10013725521E+03  0.73009985911E+02  0.12458252641E+04  0.12519738482E+04  0.00000000000E+00 0. -1.
         22    1    3    3    0    0  0.80730136940E+02 -0.81168347417E+02 -0.77847053383E+02  0.13844067088E+03  0.00000000000E+00 0.  1.
         22    1    3    3    0    0  0.95987187894E+01  0.43197170498E+02 -0.34390629910E+02  0.56043254429E+02  0.00000000000E+00 0.  1.
</event>
<event>
 7    1  0.6017574E-006  0.8302606E+02  0.7818608E-02  0.1320924E+00
          2   -1    0    0  502    0  0.00000000000E+00  0.00000000000E+00  0.96456209764E+02  0.96456209764E+02  0.00000000000E+00 0. -1.
          1   -1    0    0  501    0 -0.00000000000E+00 -0.00000000000E+00 -0.15766012798E+04  0.15766012798E+04  0.00000000000E+00 0. -1.
         25    2    1    2    0    0 -0.75831067652E+02  0.94011755975E+01 -0.14701358004E+03  0.20754382955E+03  0.12499086185E+03 0.  0.
          2    1    1    2  501    0  0.31077651563E+02 -0.79115545247E+02 -0.13715601873E+04  0.13741915577E+04  0.00000000000E+00 0. -1.
          1    1    1    2  502    0  0.44753416089E+02  0.69714369649E+02  0.38428697315E+02  0.91322102278E+02  0.00000000000E+00 0. -1.
         22    1    3    3    0    0 -0.65325928349E+02  0.57582533991E+01 -0.16989035166E+03  0.18210811620E+03  0.00000000000E+00 0.  1.
         22    1    3    3    0    0 -0.10505139303E+02  0.36429221985E+01  0.22876771624E+02  0.25435713354E+02  0.00000000000E+00 0.  1.
</event>
<event>
 7    1  0.6017574E-006  0.2519377E+02  0.7818608E-02  0.1687627E+00
          2   -1    0    0  502    0  0.00000000000E+00  0.00000000000E+00  0.55530373512E+03  0.55530373512E+03  0.00000000000E+00 0. -1.
          1   -1    0    0  501    0 -0.00000000000E+00 -0.00000000000E+00 -0.15964640718E+03  0.15964640718E+03  0.00000000000E+00 0. -1.
         25    2    1    2    0    0  0.36341484355E+02 -0.27701142822E+02 -0.70783684243E+01  0.13327618112E+03  0.12499752140E+03 0.  0.
          2    1    1    2  501    0 -0.19359571057E+02  0.92136556493E+01 -0.87859113897E+02  0.90437317169E+02  0.00000000000E+00 0. -1.
          1    1    1    2  502    0 -0.16981913298E+02  0.18487487173E+02  0.49059481026E+03  0.49123664400E+03  0.00000000000E+00 0. -1.
         22    1    3    3    0    0 -0.44775823632E+02  0.61371042154E+01 -0.26928408612E+01  0.45274604603E+02  0.00000000000E+00 0. -1.
         22    1    3    3    0    0  0.81117307986E+02 -0.33838247038E+02 -0.43855275631E+01  0.88001576517E+02  0.00000000000E+00 0. -1.
</event>
<event>
 7    1  0.6017574E-006  0.1029070E+03  0.7818608E-02  0.1299506E+00
          2   -1    0    0  502    0  0.00000000000E+00  0.00000000000E+00  0.23240696470E+04  0.23240696470E+04  0.00000000000E+00 0. -1.
          1   -1    0    0  501    0 -0.00000000000E+00 -0.00000000000E+00 -0.37080310550E+03  0.37080310550E+03  0.00000000000E+00 0. -1.
         25    2    1    2    0    0  0.10441497728E+03 -0.73143414252E+02  0.97931419608E+03  0.99545537767E+03  0.12499067064E+03 0.  0.
          2    1    1    2  501    0 -0.77029779226E+02 -0.25600466610E+02 -0.35619590240E+03  0.36532792346E+03  0.00000000000E+00 0. -1.
          1    1    1    2  502    0 -0.27385198050E+02  0.98743880863E+02  0.13301482478E+04  0.13340894514E+04  0.00000000000E+00 0. -1.
         22    1    3    3    0    0  0.10255999709E+03 -0.43834843022E+01  0.71527311327E+03  0.72260182293E+03  0.00000000000E+00 0.  1.
         22    1    3    3    0    0  0.18549801893E+01 -0.68759929950E+02  0.26404108281E+03  0.27285355473E+03  0.00000000000E+00 0.  1.
</event>
<event>
 7    1  0.6017574E-006  0.7717991E+02  0.7818608E-02  0.1425535E+00
          2   -1    0    0  502    0  0.00000000000E+00  0.00000000000E+00  0.15332568528E+04  0.15332568528E+04  0.00000000000E+00 0. -1.
          1   -1    0    0  501    0 -0.00000000000E+00 -0.00000000000E+00 -0.12913158570E+04  0.12913158570E+04  0.00000000000E+00 0. -1.
         25    2    1    2    0    0  0.12241383128E+02 -0.10396569215E+03  0.53625484423E+03  0.56049494506E+03  0.12500643533E+03 0.  0.
          2    1    1    2  501    0  0.14587904204E+02  0.34650165679E+02 -0.12775165598E+04  0.12780696388E+04  0.00000000000E+00 0. -1.
          1    1    1    2  502    0 -0.26829287332E+02  0.69315526474E+02  0.98320271139E+03  0.98600812600E+03  0.00000000000E+00 0. -1.
         22    1    3    3    0    0  0.48456833005E+02 -0.70313635949E+02  0.16331682658E+03  0.18429448692E+03  0.00000000000E+00 0. -1.
         22    1    3    3    0    0 -0.36215449877E+02 -0.33652056204E+02  0.37293801765E+03  0.37620045814E+03  0.00000000000E+00 0. -1.
</event>
<event>
 7    1  0.6017574E-006  0.6327235E+02  0.7818608E-02  0.1457099E+00
          2   -1    0    0  502    0  0.00000000000E+00  0.00000000000E+00  0.14289089470E+04  0.14289089470E+04  0.00000000000E+00 0. -1.
          1   -1    0    0  501    0 -0.00000000000E+00 -0.00000000000E+00 -0.48453409945E+03  0.48453409945E+03  0.00000000000E+00 0. -1.
         25    2    1    2    0    0 -0.54786876100E+02  0.28549583661E+02  0.67063595570E+03  0.68497741349E+03  0.12499916557E+03 0.  0.
          2    1    1    2  501    0  0.30522189970E+02 -0.55465511208E+02 -0.47482406623E+03  0.47902601274E+03  0.00000000000E+00 0. -1.
          1    1    1    2  502    0  0.24264686130E+02  0.26915927547E+02  0.74856295806E+03  0.74943962020E+03  0.00000000000E+00 0. -1.
         22    1    3    3    0    0 -0.57342044060E+02 -0.37999741791E+02  0.42231385846E+03  0.42787975582E+03  0.00000000000E+00 0.  1.
         22    1    3    3    0    0  0.25551679600E+01  0.66549325452E+02  0.24832209724E+03  0.25709765767E+03  0.00000000000E+00 0.  1.
</event>
<event>
 7    1  0.6017574E-006  0.8474026E+02  0.7818608E-02  0.1373015E+00
          2   -1    0    0  502    0  0.00000000000E+00  0.00000000000E+00  0.24478299739E+04  0.24478299739E+04  0.00000000000E+00 0. -1.
          1   -1    0    0  501    0 -0.00000000000E+00 -0.00000000000E+00 -0.36843751279E+03  0.36843751279E+03  0.00000000000E+00 0. -1.
         25    2    1    2    0    0 -0.24594602796E+02 -0.25625470853E+02  0.22251109422E+03  0.25767696538E+03  0.12499868878E+03 0.  0.
          2    1    1    2  501    0 -0.41640348975E+02 -0.31027659901E+02 -0.34806739302E+03  0.35191979828E+03  0.00000000000E+00 0. -1.
          1    1    1    2  502    0  0.66234951770E+02  0.56653130754E+02  0.22049487599E+04  0.22066707230E+04  0.00000000000E+00 0. -1.
         22    1    3    3    0    0 -0.58741974407E+02 -0.19838825409E+02  0.21288479298E+03  0.22172986635E+03  0.00000000000E+00 0. -1.
         22    1    3    3    0    0  0.34147371611E+02 -0.57866454440E+01  0.96263012448E+01  0.35947099036E+02  0.00000000000E+00 0. -1.
</event>
<event>
 7    1  0.6017574E-006  0.1447233E+03  0.7818608E-02  0.1237519E+00
          2   -1    0    0  502    0  0.00000000000E+00  0.00000000000E+00  0.81048620420E+03  0.81048620420E+03  0.00000000000E+00 0. -1.
          1   -1    0    0  501    0 -0.00000000000E+00 -0.00000000000E+00 -0.95627787523E+03  0.95627787523E+03  0.00000000000E+00 0. -1.
         25    2    1    2    0    0 -0.19971686221E+03 -0.13095736153E+03  0.48090053340E+02  0.27381707495E+03  0.12500592673E+03 0.  0.
          2    1    1    2  501    0  0.98674884152E+02  0.10132893348E+03 -0.83314743112E+03  0.84506741004E+03  0.00000000000E+00 0. -1.
          1    1    1    2  502    0  0.10104197805E+03  0.29628428044E+02  0.63926570675E+03  0.64787959445E+03  0.00000000000E+00 0. -1.
         22    1    3    3    0    0 -0.20534011149E+03 -0.14673723032E+03  0.41285439582E+02  0.25573592565E+03  0.00000000000E+00 0.  1.
         22    1    3    3    0    0  0.56232492823E+01  0.15779868794E+02  0.68046137578E+01  0.18081149301E+02  0.00000000000E+00 0.  1.
</event>
<event>
 7    1  0.6017574E-006  0.5793569E+02  0.7818608E-02  0.1512126E+00
          2   -1    0    0  502    0  0.00000000000E+00  0.00000000000E+00  0.33434970792E+04  0.33434970792E+04  0.00000000000E+00 0. -1.
          1   -1    0    0  501    0 -0.00000000000E+00 -0.00000000000E+00 -0.98314616905E+03  0.98314616905E+03  0.00000000000E+00 0. -1.
         25    2    1    2    0    0 -0.33619043169E+02  0.18355416220E+02  0.16003996242E+04  0.16057303639E+04  0.12499553158E+03 0.  0.
          2    1    1    2  501    0  0.57614046315E+02 -0.62097692026E+01 -0.97952056682E+03  0.98123314273E+03  0.00000000000E+00 0. -1.
          1    1    1    2  502    0 -0.23995003145E+02 -0.12145647017E+02  0.17394718528E+04  0.17396797417E+04  0.00000000000E+00 0. -1.
         22    1    3    3    0    0 -0.48383617821E+00  0.69395006402E+02  0.78343961676E+03  0.78650717360E+03  0.00000000000E+00 0.  1.
         22    1    3    3    0    0 -0.33135206991E+02 -0.51039590183E+02  0.81696000747E+03  0.81922319029E+03  0.00000000000E+00 0.  1.
</event>
<event>
 7    1  0.6017574E-006  0.5718486E+02  0.7818608E-02  0.1432661E+00
          2   -1    0    0  502    0  0.00000000000E+00  0.00000000000E+00  0.31202251060E+03  0.31202251060E+03  0.00000000000E+00 0. -1.
          1   -1    0    0  501    0 -0.00000000000E+00 -0.00000000000E+00 -0.22424181473E+03  0.22424181473E+03  0.00000000000E+00 0. -1.
         25    2    1    2    0    0 -0.87448381820E+02  0.55238319324E+02 -0.26845599944E+02  0.16446020973E+03  0.12501193120E+03 0.  0.
          2    1    1    2  501    0  0.42479411859E+02 -0.22498659355E+02 -0.12073849043E+03  0.12995565850E+03  0.00000000000E+00 0. -1.
          1    1    1    2  502    0  0.44968969961E+02 -0.32739659969E+02  0.23536478625E+03  0.24184845710E+03  0.00000000000E+00 0. -1.
         22    1    3    3    0    0 -0.81761195230E+02  0.51218123503E+02 -0.70982160213E+02  0.11977752831E+03  0.00000000000E+00 0. -1.
         22    1    3    3    0    0 -0.56871865905E+01  0.40201958213E+01  0.44136560269E+02  0.44682681412E+02  0.00000000000E+00 0. -1.
</event>
<event>
 7    1  0.6017574E-006  0.3914452E+02  0.7818608E-02  0.1529834E+00
          2   -1    0    0  502    0  0.00000000000E+00  0.00000000000E+00  0.16219561983E+04  0.16219561983E+04  0.00000000000E+00 0. -1.
          1   -1    0    0  501    0 -0.00000000000E+00 -0.00000000000E+00 -0.75925452276E+03  0.75925452276E+03  0.00000000000E+00 0. -1.
         25    2    1    2    0    0 -0.29336605515E+01  0.80871740225E+01 -0.22450607618E+02  0.12728770691E+03  0.12499648716E+03 0.  0.
          2    1    1    2  501    0  0.26779175176E+02  0.23098660454E+02 -0.68368278962E+03  0.68459683695E+03  0.00000000000E+00 0. -1.
          1    1    1    2  502    0 -0.23845514625E+02 -0.31185834477E+02  0.15688350728E+04  0.15693261772E+04  0.00000000000E+00 0. -1.
         22    1    3    3    0    0  0.30519168243E+02 -0.34642281298E+02  0.27326270071E+02  0.53649159544E+02  0.00000000000E+00 0.  1.
         22    1    3    3    0    0 -0.33452828795E+02  0.42729455321E+02 -0.49776877689E+02  0.73638547371E+02  0.00000000000E+00 0.  1.
</event>
<event>
 7    1  0.6017574E-006  0.1060433E+03  0.7818608E-02  0.1454721E+00
          2   -1    0    0  502    0  0.00000000000E+00  0.00000000000E+00  0.12241257595E+03  0.12241257595E+03  0.00000000000E+00 0. -1.
          1   -1    0    0  501    0 -0.00000000000E+00 -0.00000000000E+00 -0.47057035209E+03  0.47057035209E+03  0.00000000000E+00 0. -1.
         25    2    1    2    0    0  0.23588900604E+02 -0.12059422492E+03  0.71421096727E+00  0.17528736965E+03  0.12500299415E+03 0.  0.
          2    1    1    2  501    0 -0.87530856721E+01  0.10434760428E+03 -0.37159465806E+03  0.38606687106E+03  0.00000000000E+00 0. -1.
          1    1    1    2  502    0 -0.14835814932E+02  0.16246620646E+02  0.22722670954E+02  0.31628687332E+02  0.00000000000E+00 0. -1.
         22    1    3    3    0    0 -0.40990158241E+02 -0.98517060481E+02  0.57046809583E+01  0.10685666878E+03  0.00000000000E+00 0.  1.
         22    1    3    3    0    0  0.64579058845E+02 -0.22077164442E+02 -0.49904699910E+01  0.68430700872E+02  0.00000000000E+00 0.  1.
</event>
<event>
 7    1  0.6017574E-006  0.9291201E+02  0.7818608E-02  0.1322716E+00
          2   -1    0    0  502    0  0.00000000000E+00  0.00000000000E+00  0.30109830173E+03  0.30109830173E+03  0.00000000000E+00 0. -1.
          1   -1    0    0  501    0 -0.00000000000E+00 -0.00000000000E+00 -0.11208405422E+04  0.11208405422E+04  0.00000000000E+00 0. -1.
         25    2    1    2    0    0  0.66771759066E+02 -0.48847890455E+02 -0.12548366283E+03  0.19548902564E+03  0.12500090119E+03 0.  0.
          2    1    1    2  501    0 -0.10236171414E+02  0.94801115004E+02 -0.95294299291E+03  0.95770161237E+03  0.00000000000E+00 0. -1.
          1    1    1    2  502    0 -0.56535587653E+02 -0.45953224549E+02  0.25868441523E+03  0.26874820595E+03  0.00000000000E+00 0. -1.
         22    1    3    3    0    0  0.12736240453E+02  0.39888531806E+02 -0.16746890213E+02  0.45097285088E+02  0.00000000000E+00 0. -1.
         22    1    3    3    0    0  0.54035518614E+02 -0.88736422260E+02 -0.10873677262E+03  0.15039174055E+03  0.00000000000E+00 0. -1.
</event>
<event>
 7    1  0.6017574E-006  0.9913030E+02  0.7818608E-02  0.1419697E+00
          2   -1    0    0  502    0  0.00000000000E+00  0.00000000000E+00  0.28721015274E+04  0.28721015274E+04  0.00000000000E+00 0. -1.
          1   -1    0    0  501    0 -0.00000000000E+00 -0.00000000000E+00 -0.43875860318E+02  0.43875860318E+02  0.00000000000E+00 0. -1.
         25    2    1    2    0    0  0.54258446311E+02 -0.50012049855E+02  0.91271972123E+03  0.92419051340E+03  0.12500252556E+03 0.  0.
          2    1    1    2  501    0 -0.62324964583E+02  0.79539893345E+02  0.29132508306E+02  0.10516510298E+03  0.00000000000E+00 0. -1.
          1    1    1    2  502    0  0.80665182726E+01 -0.29527843490E+02  0.18863734376E+04  0.18866217714E+04  0.00000000000E+00 0. -1.
         22    1    3    3    0    0  0.58973213682E+02 -0.17061548953E+02  0.17034658275E+03  0.18107151802E+03  0.00000000000E+00 0.  1.
         22    1    3    3    0    0 -0.47147673716E+01 -0.32950500902E+02  0.74237313849E+03  0.74311899537E+03  0.00000000000E+00 0.  1.
</event>
<event>
 7    1  0.6017574E-006  0.5373146E+02  0.7818608E-02  0.1469756E+00
          2   -1    0    0  502    0  0.00000000000E+00  0.00000000000E+00  0.64453471517E+03  0.64453471517E+03  0.00000000000E+00 0. -1.
          1   -1    0    0  501    0 -0.00000000000E+00 -0.00000000000E+00 -0.83956994064E+03  0.83956994064E+03  0.00000000000E+00 0. -1.
         25    2    1    2    0    0 -0.89308098437E+02  0.11416712937E+02 -0.45460247947E+02  0.16061632774E+03  0.12499877125E+03 0.  0.
          2    1    1    2  501    0  0.38607034599E+02  0.50971406320E+01 -0.73480396427E+03  0.73583513769E+03  0.00000000000E+00 0. -1.
          1    1    1    2  502    0  0.50701063837E+02 -0.16513853569E+02  0.58522898674E+03  0.58765319037E+03  0.00000000000E+00 0. -1.
         22    1    3    3    0    0  0.51229383432E-01  0.32648348368E+02  0.27996040947E+02  0.43008087429E+02  0.00000000000E+00 0.  1.
         22    1    3    3    0    0 -0.89359327820E+02 -0.21231635431E+02 -0.73456288894E+02  0.11760824031E+03  0.00000000000E+00 0.  1.
</event>
<event>
 7    1  0.6017574E-006  0.7100099E+02  0.7818608E-02  0.1398298E+00
          2   -1    0    0  502    0  0.00000000000E+00  0.00000000000E+00  0.55494791218E+03  0.55494791218E+03  0.00000000000E+00 0. -1.
          1   -1    0    0  501    0 -0.00000000000E+00 -0.00000000000E+00 -0.22688002339E+04  0.22688002339E+04  0.00000000000E+00 0. -1.
         25    2    1    2    0    0  0.28554613684E+02  0.10431015242E+03 -0.53418666983E+02  0.17370997445E+03  0.12500250950E+03 0.  0.
          2    1    1    2  501    0 -0.43225960937E+02 -0.55971618340E+02 -0.21533645823E+04  0.21545255464E+04  0.00000000000E+00 0. -1.
          1    1    1    2  502    0  0.14671347253E+02 -0.48338534080E+02  0.49293092761E+03  0.49551262517E+03  0.00000000000E+00 0. -1.
         22    1    3    3    0    0 -0.19414708357E+02  0.33444679382E+02  0.33917033326E+02  0.51437754901E+02  0.00000000000E+00 0. -1.
         22    1    3    3    0    0  0.47969322041E+02  0.70865473038E+02 -0.87335700309E+02  0.12227221955E+03  0.00000000000E+00 0. -1.
</event>
<event>
 7    1  0.6017574E-006  0.6746966E+02  0.7818608E-02  0.1404824E+00
          2   -1    0    0  502    0  0.00000000000E+00  0.00000000000E+00  0.10445977403E+04  0.10445977403E+04  0.00000000000E+00 0. -1.
          1   -1    0    0  501    0 -0.00000000000E+00 -0.00000000000E+00 -0.47709710924E+03  0.47709710924E+03  0.00000000000E+00 0. -1.
         25    2    1    2    0    0  0.41317955879E+02 -0.98408220164E+02 -0.26216267941E+03  0.30942563231E+03  0.12499440058E+03 0.  0.
          2    1    1    2  501    0 -0.35819858224E+02  0.48219689541E+02 -0.18594505078E+03  0.19540665959E+03  0.00000000000E+00 0. -1.
          1    1    1    2  502    0 -0.54980976550E+01  0.50188530623E+02  0.10156083613E+04  0.10168625577E+04  0.00000000000E+00 0. -1.
         22    1    3    3    0    0  0.31337822887E+02 -0.10573825037E+03 -0.27206673417E+03  0.29356931817E+03  0.00000000000E+00 0. -1.
         22    1    3    3    0    0  0.99801329921E+01  0.73300302019E+01  0.99040547522E+01  0.15856314131E+02  0.00000000000E+00 0. -1.
</event>
<event>
 7    1  0.6017574E-006  0.1176118E+03  0.7818608E-02  0.1354103E+00
          2   -1    0    0  502    0  0.00000000000E+00  0.00000000000E+00  0.19073907832E+04  0.19073907832E+04  0.00000000000E+00 0. -1.
          1   -1    0    0  501    0 -0.00000000000E+00 -0.00000000000E+00 -0.11871250871E+04  0.11871250871E+04  0.00000000000E+00 0. -1.
         25    2    1    2    0    0  0.86389754605E+01  0.73653839125E+02  0.73231725488E+03  0.74660329579E+03  0.12501359758E+03 0.  0.
          2    1    1    2  501    0 -0.18899323763E+02 -0.11625873579E+03 -0.11766296236E+04  0.11825102745E+04  0.00000000000E+00 0. -1.
          1    1    1    2  502    0  0.10260348302E+02  0.42604896665E+02  0.11645780648E+04  0.11654023001E+04  0.00000000000E+00 0. -1.
         22    1    3    3    0    0 -0.27890799645E+02 -0.20531439203E+02  0.90798459331E+02  0.97179200025E+02  0.00000000000E+00 0.  1.
         22    1    3    3    0    0  0.36529775106E+02  0.94185278329E+02  0.64151879555E+03  0.64942409577E+03  0.00000000000E+00 0.  1.
</event>
<event>
 7    1  0.6017574E-006  0.6830186E+02  0.7818608E-02  0.1477865E+00
          2   -1    0    0  502    0  0.00000000000E+00  0.00000000000E+00  0.68287002625E+03  0.68287002625E+03  0.00000000000E+00 0. -1.
          1   -1    0    0  501    0 -0.00000000000E+00 -0.00000000000E+00 -0.83341008827E+03  0.83341008827E+03  0.00000000000E+00 0. -1.
         25    2    1    2    0    0 -0.88889238524E+02  0.38442802288E+02 -0.38095227978E+03  0.41246554527E+03  0.12499616311E+03 0.  0.
          2    1    1    2  501    0  0.27634253056E+02 -0.85109675877E+01 -0.43447749733E+03  0.43543861128E+03  0.00000000000E+00 0. -1.
          1    1    1    2  502    0  0.61254985469E+02 -0.29931834700E+02  0.66488971508E+03  0.66837595797E+03  0.00000000000E+00 0. -1.
         22    1    3    3    0    0 -0.56252444659E+02  0.82803686914E+02 -0.28169858759E+03  0.29895632180E+03  0.00000000000E+00 0. -1.
         22    1    3    3    0    0 -0.32636793865E+02 -0.44360884626E+02 -0.99253692192E+02  0.11350922347E+03  0.00000000000E+00 0. -1.
</event>
<event>
 7    1  0.6017574E-006  0.8551070E+02  0.7818608E-02  0.1388462E+00
          2   -1    0    0  502    0  0.00000000000E+00  0.00000000000E+00  0.12486406852E+04  0.12486406852E+04  0.00000000000E+00 0. -1.
          1   -1    0    0  501    0 -0.00000000000E+00 -0.00000000000E+00 -0.43070597896E+03  0.43070597896E+03  0.00000000000E+00 0. -1.
         25    2    1    2    0    0  0.63703266387E+02 -0.54569419332E+01 -0.20870957199E+03  0.25154093114E+03  0.12500108093E+03 0.  0.
          2    1    1    2  501    0 -0.90292934502E+02  0.42226172603E+02 -0.18774691553E+03  0.21256709050E+03  0.00000000000E+00 0. -1.
          1    1    1    2  502    0  0.26589668114E+02 -0.36769230670E+02  0.12143911937E+04  0.12152386425E+04  0.00000000000E+00 0. -1.
         22    1    3    3    0    0  0.84593508210E+02  0.12884054276E+02 -0.71398778151E+02  0.11144436283E+03  0.00000000000E+00 0. -1.
         22    1    3    3    0    0 -0.20890241823E+02 -0.18340996210E+02 -0.13731079384E+03  0.14009656830E+03  0.00000000000E+00 0. -1.
</event>
<event>
 7    1  0.1123471E-005  0.1065705E+03  0.7818608E-02  0.1352321E+00
          2   -1    0    0  502    0  0.00000000000E+00  0.00000000000E+00  0.18707875446E+04  0.18707875446E+04  0.00000000000E+00 0. -1.
          1   -1    0    0  501    0 -0.00000000000E+00 -0.00000000000E+00 -0.99937438841E+03  0.99937438841E+03  0.00000000000E+00 0. -1.
         25    2    1    2    0    0  0.12113614226E+03  0.95285801940E+02 -0.22908357944E+03  0.30308099102E+03  0.12500180692E+03 0.  0.
          2    1    1    2  501    0 -0.43612148370E+02 -0.22557655189E+02 -0.73092730899E+03  0.73257463668E+03  0.00000000000E+00 0. -1.
          1    1    1    2  502    0 -0.77523993894E+02 -0.72728146751E+02  0.18314240446E+04  0.18345063053E+04  0.00000000000E+00 0. -1.
         22    1    3    3    0    0  0.10099781532E+03  0.52271301242E+02 -0.22889084663E+03  0.25558534250E+03  0.00000000000E+00 0.  1.
         22    1    3    3    0    0  0.20138326946E+02  0.43014500698E+02 -0.19273281829E+00  0.47495648521E+02  0.00000000000E+00 0.  1.
</event>
<event>
 7    1  0.6017574E-006  0.5662464E+02  0.7818608E-02  0.1438636E+00
          2   -1    0    0  502    0  0.00000000000E+00  0.00000000000E+00  0.19342802120E+03  0.19342802120E+03  0.00000000000E+00 0. -1.
          1   -1    0    0  501    0 -0.00000000000E+00 -0.00000000000E+00 -0.73146836058E+03  0.73146836058E+03  0.00000000000E+00 0. -1.
         25    2    1    2    0    0  0.44717565573E+02 -0.80660690244E+02  0.59887436518E+02  0.16648432476E+03  0.12499887087E+03 0.  0.
          2    1    1    2  501    0 -0.44725148319E+02  0.34248222768E+02 -0.67017664040E+03  0.67253996832E+03  0.00000000000E+00 0. -1.
          1    1    1    2  502    0  0.75827465728E-02  0.46412467476E+02  0.72248864500E+02  0.85872088692E+02  0.00000000000E+00 0. -1.
         22    1    3    3    0    0  0.20696837998E+02 -0.32596461430E+02  0.94829966186E+02  0.10238950575E+03  0.00000000000E+00 0. -1.
         22    1    3    3    0    0  0.24020727575E+02 -0.48064228815E+02 -0.34942529669E+02  0.64094819014E+02  0.00000000000E+00 0. -1.
</event>
<event>
 7    1  0.6017574E-006  0.6830849E+02  0.7818608E-02  0.1457956E+00
          2   -1    0    0  502    0  0.00000000000E+00  0.00000000000E+00  0.18498364491E+02  0.18498364491E+02  0.00000000000E+00 0. -1.
          1   -1    0    0  501    0 -0.00000000000E+00 -0.00000000000E+00 -0.22825482334E+04  0.22825482334E+04  0.00000000000E+00 0. -1.
         25    2    1    2    0    0 -0.15249543649E+02 -0.71901474214E+02 -0.79365267255E+03  0.80679046726E+03  0.12499569131E+03 0.  0.
          2    1    1    2  501    0  0.42991034569E+02  0.53376795482E+02 -0.14565121115E+04  0.14581237404E+04  0.00000000000E+00 0. -1.
          1    1    1    2  502    0 -0.27741490919E+02  0.18524678731E+02 -0.13885084815E+02  0.36132390190E+02  0.00000000000E+00 0. -1.
         22    1    3    3    0    0 -0.60372757491E+02 -0.28984825556E+02 -0.59108817066E+03  0.59486991474E+03  0.00000000000E+00 0. -1.
         22    1    3    3    0    0  0.45123213842E+02 -0.42916648658E+02 -0.20256450189E+03  0.21192055253E+03  0.00000000000E+00 0. -1.
</event>
<event>
 7    1  0.6017574E-006  0.9123685E+02  0.7818608E-02  0.1347943E+00
          2   -1    0    0  502    0  0.00000000000E+00  0.00000000000E+00  0.36340656622E+04  0.36340656622E+04  0.00000000000E+00 0. -1.
          1   -1    0    0  501    0 -0.00000000000E+00 -0.00000000000E+00 -0.68514184904E+03  0.68514184904E+03  0.00000000000E+00 0. -1.
         25    2    1    2    0    0  0.53251095303E+02  0.41414146297E+02  0.16969760728E+03  0.22129769562E+03  0.12499832601E+03 0.  0.
          2    1    1    2  501    0 -0.34149374963E+02  0.48766780816E+02 -0.65737858798E+03  0.66006892569E+03  0.00000000000E+00 0. -1.
          1    1    1    2  502    0 -0.19101720340E+02 -0.90180927113E+02  0.34366047939E+04  0.34378408899E+04  0.00000000000E+00 0. -1.
         22    1    3    3    0    0  0.65171769354E+02  0.14548609808E+02  0.17852859631E+03  0.19060818783E+03  0.00000000000E+00 0.  1.
         22    1    3    3    0    0 -0.11920674050E+02  0.26865536488E+02 -0.88309890347E+01  0.30689507783E+02  0.00000000000E+00 0.  1.
</event>
<event>
 7    1  0.6017574E-006  0.4462115E+02  0.7818608E-02  0.1502812E+00
          2   -1    0    0  502    0  0.00000000000E+00  0.00000000000E+00  0.14344110325E+04  0.14344110325E+04  0.00000000000E+00 0. -1.
          1   -1    0    0  501    0 -0.00000000000E+00 -0.00000000000E+00 -0.41165410849E+02  0.41165410849E+02  0.00000000000E+00 0. -1.
         25    2    1    2    0    0 -0.43965921769E+02  0.12309238815E+02  0.12704188193E+03  0.18398187364E+03  0.12500068170E+03 0.  0.
          2    1    1    2  501    0  0.22024480049E+02 -0.42352529854E+02  0.33474290733E+02  0.58303881917E+02  0.00000000000E+00 0. -1.
          1    1    1    2  502    0  0.21941441720E+02  0.30043291039E+02  0.12327294490E+04  0.12332906878E+04  0.00000000000E+00 0. -1.
         22    1    3    3    0    0 -0.81753961627E+02  0.33141378961E+02  0.70916701604E+02  0.11318674749E+03  0.00000000000E+00 0.  1.
         22    1    3    3    0    0  0.37788039859E+02 -0.20832140146E+02  0.56125180325E+02  0.70795126145E+02  0.00000000000E+00 0.  1.
</event>
<event>
 7    1  0.6017574E-006  0.3778200E+02  0.7818608E-02  0.1526438E+00
          2   -1    0    0  502    0  0.00000000000E+00  0.00000000000E+00  0.28006052541E+04  0.28006052541E+04  0.00000000000E+00 0. -1.
          1   -1    0    0  501    0 -0.00000000000E+00 -0.00000000000E+00 -0.29240090815E+03  0.29240090815E+03  0.00000000000E+00 0. -1.
         25    2    1    2    0    0 -0.29807116348E+01  0.29002142110E+02  0.12460354148E+04  0.12526289390E+04  0.12499998066E+03 0.  0.
          2    1    1    2  501    0 -0.34173382781E+02 -0.16113961791E+02 -0.28761924616E+03  0.29009017670E+03  0.00000000000E+00 0. -1.
          1    1    1    2  502    0  0.37154094416E+02 -0.12888180319E+02  0.15497881773E+04  0.15502870465E+04  0.00000000000E+00 0. -1.
         22    1    3    3    0    0 -0.61380247192E+02  0.28792254980E+02  0.55382479612E+03  0.55795916829E+03  0.00000000000E+00 0.  1.
         22    1    3    3    0    0  0.58399535557E+02  0.20988712963E+00  0.69221061866E+03  0.69466977075E+03  0.00000000000E+00 0.  1.
</event>
<event>
 7    1  0.6017574E-006  0.2574057E+03  0.7818608E-02  0.1170091E+00
          2   -1    0    0  502    0  0.00000000000E+00  0.00000000000E+00  0.25205878676E+04  0.25205878676E+04  0.00000000000E+00 0. -1.
          1   -1    0    0  501    0 -0.00000000000E+00 -0.00000000000E+00 -0.11142002287E+03  0.11142002287E+03  0.00000000000E+00 0. -1.
         25    2    1    2    0    0 -0.16263623971E+03 -0.10024474934E+03  0.82624747250E+03  0.85721068633E+03  0.12500287482E+03 0.  0.
          2    1    1    2  501    0  0.16360388216E+03  0.22285612885E+03  0.11121537673E+03  0.29799319530E+03  0.00000000000E+00 0. -1.
          1    1    1    2  502    0 -0.96764245743E+00 -0.12261137952E+03  0.14717049955E+04  0.14768040089E+04  0.00000000000E+00 0. -1.
         22    1    3    3    0    0 -0.13724964315E+03 -0.23464363180E+02  0.40489987497E+03  0.42817280348E+03  0.00000000000E+00 0.  1.
         22    1    3    3    0    0 -0.25386596559E+02 -0.76780386155E+02  0.42134759753E+03  0.42903788286E+03  0.00000000000E+00 0.  1.
</event>
<event>
 7    1  0.6017574E-006  0.5695679E+02  0.7818608E-02  0.1436661E+00
          2   -1    0    0  502    0  0.00000000000E+00  0.00000000000E+00  0.92142355221E+03  0.92142355221E+03  0.00000000000E+00 0. -1.
          1   -1    0    0  501    0 -0.00000000000E+00 -0.00000000000E+00 -0.20063316534E+03  0.20063316534E+03  0.00000000000E+00 0. -1.
         25    2    1    2    0    0  0.28401327141E+02  0.15538301739E+02 -0.11412709354E+03  0.17232624232E+03  0.12499306424E+03 0.  0.
          2    1    1    2  501    0  0.22898953006E+02 -0.40849756188E+02 -0.46772266569E+02  0.66186928841E+02  0.00000000000E+00 0. -1.
          1    1    1    2  502    0 -0.51300280147E+02  0.25311454448E+02  0.88168974697E+03  0.88354354640E+03  0.00000000000E+00 0. -1.
         22    1    3    3    0    0  0.13734964000E+02 -0.48376068810E+02 -0.88758810005E+02  0.10201480100E+03  0.00000000000E+00 0. -1.
         22    1    3    3    0    0  0.14666363142E+02  0.63914370549E+02 -0.25368283531E+02  0.70311441315E+02  0.00000000000E+00 0. -1.
</event>
<event>
 7    1  0.6017574E-006  0.3154456E+02  0.7818608E-02  0.1603897E+00
          2   -1    0    0  502    0  0.00000000000E+00  0.00000000000E+00  0.32066901255E+02  0.32066901255E+02  0.00000000000E+00 0. -1.
          1   -1    0    0  501    0 -0.00000000000E+00 -0.00000000000E+00 -0.15698499773E+04  0.15698499773E+04  0.00000000000E+00 0. -1.
         25    2    1    2    0    0  0.69051866203E+01  0.55967471850E+01 -0.14875965460E+03  0.19450890055E+03  0.12500108949E+03 0.  0.
          2    1    1    2  501    0  0.23567697817E+02  0.14272360918E+02 -0.13615306363E+04  0.13618093884E+04  0.00000000000E+00 0. -1.
          1    1    1    2  502    0 -0.30472884437E+02 -0.19869108104E+02 -0.27492785155E+02  0.45598589653E+02  0.00000000000E+00 0. -1.
         22    1    3    3    0    0  0.11791326546E+01 -0.55402567005E+02 -0.35709755485E+02  0.65924361365E+02  0.00000000000E+00 0.  1.
         22    1    3    3    0    0  0.57260539657E+01  0.60999314190E+02 -0.11304989912E+03  0.12858453918E+03  0.00000000000E+00 0.  1.
</event>
<event>
 7    1  0.6017574E-006  0.2283045E+03  0.7818608E-02  0.1328651E+00
          2   -1    0    0  502    0  0.00000000000E+00  0.00000000000E+00  0.27265300756E+04  0.27265300756E+04  0.00000000000E+00 0. -1.
          1   -1    0    0  501    0 -0.00000000000E+00 -0.00000000000E+00 -0.26394479014E+03  0.26394479014E+03  0.00000000000E+00 0. -1.
         25    2    1    2    0    0  0.14162550877E+03 -0.14630329650E+03 -0.11891707264E+01  0.23893124818E+03  0.12499715169E+03 0.  0.
          2    1    1    2  501    0  0.26345194667E+02 -0.98656798031E+01 -0.13741367084E+03  0.14026374390E+03  0.00000000000E+00 0. -1.
          1    1    1    2  502    0 -0.16797070343E+03  0.15616897630E+03  0.26011881270E+04  0.26112798736E+04  0.00000000000E+00 0. -1.
         22    1    3    3    0    0  0.20089509881E+02 -0.68803279828E+02  0.48410538090E+02  0.86493120654E+02  0.00000000000E+00 0.  1.
         22    1    3    3    0    0  0.12153599889E+03 -0.77500016671E+02 -0.49599708817E+02  0.15243812753E+03  0.00000000000E+00 0.  1.
</event>
<event>
 7    1  0.6017574E-006  0.9264571E+02  0.7818608E-02  0.1334376E+00
          2   -1    0    0  502    0  0.00000000000E+00  0.00000000000E+00  0.35248236206E+04  0.35248236206E+04  0.00000000000E+00 0. -1.
          1   -1    0    0  501    0 -0.00000000000E+00 -0.00000000000E+00 -0.57361807031E+02  0.57361807031E+02  0.00000000000E+00 0. -1.
         25    2    1    2    0    0  0.75227001433E+02  0.72024510248E+02  0.27556626824E+03  0.32001452950E+03  0.12500359625E+03 0.  0.
          2    1    1    2  501    0 -0.93746275571E+02 -0.87517242550E+01  0.28901513897E+02  0.98489869360E+02  0.00000000000E+00 0. -1.
          1    1    1    2  502    0  0.18519274139E+02 -0.63272785993E+02  0.31629940315E+04  0.31636810288E+04  0.00000000000E+00 0. -1.
         22    1    3    3    0    0  0.83730026659E+02 -0.62483216341E+01  0.14376110043E+03  0.16648427219E+03  0.00000000000E+00 0.  1.
         22    1    3    3    0    0 -0.85030252267E+01  0.78272831882E+02  0.13180516781E+03  0.15353025731E+03  0.00000000000E+00 0.  1.
</event>
<event>
 7    1  0.6017574E-006  0.5017866E+02  0.7818608E-02  0.1501430E+00
          2   -1    0    0  502    0  0.00000000000E+00  0.00000000000E+00  0.22890187820E+04  0.22890187820E+04  0.00000000000E+00 0. -1.
          1   -1    0    0  501    0 -0.00000000000E+00 -0.00000000000E+00 -0.36741149656E+03  0.36741149656E+03  0.00000000000E+00 0. -1.
         25    2    1    2    0    0  0.28360866955E+02 -0.23792950563E+02 -0.28412986804E+03  0.31259361663E+03  0.12495816890E+03 0.  0.
          2    1    1    2  501    0 -0.61756920047E+02  0.24022084607E+02 -0.52999964865E+02  0.84852660526E+02  0.00000000000E+00 0. -1.
          1    1    1    2  502    0  0.33396053092E+02 -0.22913404441E+00  0.22587371183E+04  0.22589840014E+04  0.00000000000E+00 0. -1.
         22    1    3    3    0    0 -0.34013198849E+02 -0.47139890241E+02 -0.88014147210E+02  0.10547775622E+03  0.00000000000E+00 0. -1.
         22    1    3    3    0    0  0.62374065804E+02  0.23346939678E+02 -0.19611572083E+03  0.20711586041E+03  0.00000000000E+00 0. -1.
</event>
<event>
 7    1  0.6017574E-006  0.9556670E+02  0.7818608E-02  0.1311812E+00
          2   -1    0    0  502    0  0.00000000000E+00  0.00000000000E+00  0.67453280446E+02  0.67453280446E+02  0.00000000000E+00 0. -1.
          1   -1    0    0  501    0 -0.00000000000E+00 -0.00000000000E+00 -0.14414363013E+04  0.14414363013E+04  0.00000000000E+00 0. -1.
         25    2    1    2    0    0  0.24037969377E+02 -0.34343555085E+02 -0.17213879526E+03  0.21682943995E+03  0.12500374974E+03 0.  0.
          2    1    1    2  501    0 -0.10032407803E+03  0.17551338348E+02 -0.12093104972E+04  0.12135917142E+04  0.00000000000E+00 0. -1.
          1    1    1    2  502    0  0.76286108651E+02  0.16792216738E+02  0.74662716240E+01  0.78468427588E+02  0.00000000000E+00 0. -1.
         22    1    3    3    0    0  0.34629773804E+02 -0.98593625034E+01 -0.18410408790E+03  0.18759195997E+03  0.00000000000E+00 0.  1.
         22    1    3    3    0    0 -0.10591804427E+02 -0.24484192582E+02  0.11965292646E+02  0.29237479979E+02  0.00000000000E+00 0.  1.
</event>
<event>
 7    1  0.6017574E-006  0.1117457E+03  0.7818608E-02  0.1338003E+00
          2   -1    0    0  502    0  0.00000000000E+00  0.00000000000E+00  0.51582759257E+03  0.51582759257E+03  0.00000000000E+00 0. -1.
          1   -1    0    0  501    0 -0.00000000000E+00 -0.00000000000E+00 -0.21420857253E+04  0.21420857253E+04  0.00000000000E+00 0. -1.
         25    2    1    2    0    0 -0.96657306233E+02  0.23970383916E+02 -0.87426545360E+03  0.88875315878E+03  0.12499951896E+03 0.  0.
          2    1    1    2  501    0  0.91653648974E+02 -0.76692051601E+02 -0.12563544866E+04  0.12620256171E+04  0.00000000000E+00 0. -1.
          1    1    1    2  502    0  0.50036572598E+01  0.52721667684E+02  0.50436180748E+03  0.50713454199E+03  0.00000000000E+00 0. -1.
         22    1    3    3    0    0 -0.47252488399E+02  0.35919781873E+01 -0.77121056685E+03  0.77266515282E+03  0.00000000000E+00 0.  1.
         22    1    3    3    0    0 -0.49404817834E+02  0.20378405729E+02 -0.10305488675E+03  0.11608800596E+03  0.00000000000E+00 0.  1.
</event>
<event>
 7    1  0.6017574E-006  0.1856345E+03  0.7818608E-02  0.1360215E+00
          2   -1    0    0  502    0  0.00000000000E+00  0.00000000000E+00  0.77094680420E+03  0.77094680420E+03  0.00000000000E+00 0. -1.
          1   -1    0    0  501    0 -0.00000000000E+00 -0.00000000000E+00 -0.99004265800E+02  0.99004265800E+02  0.00000000000E+00 0. -1.
         25    2    1    2    0    0  0.55357005048E+02 -0.17099627005E+03  0.16589730295E+03  0.27468444706E+03  0.12500203180E+03 0.  0.
          2    1    1    2  501    0 -0.35717418295E+02  0.18859187149E+03  0.16474619590E+03  0.25295046358E+03  0.00000000000E+00 0. -1.
          1    1    1    2  502    0 -0.19639586753E+02 -0.17595601445E+02  0.34129903955E+03  0.34231615936E+03  0.00000000000E+00 0. -1.
         22    1    3    3    0    0  0.32349332996E+02 -0.10340867016E+03  0.17162712940E+02  0.10970137248E+03  0.00000000000E+00 0. -1.
         22    1    3    3    0    0  0.23007672051E+02 -0.67587599891E+02  0.14873459001E+03  0.16498307458E+03  0.00000000000E+00 0. -1.
</event>
<event>
 7    1  0.6017574E-006  0.5070663E+02  0.7818608E-02  0.1472007E+00
          2   -1    0    0  502    0  0.00000000000E+00  0.00000000000E+00  0.20658374345E+04  0.20658374345E+04  0.00000000000E+00 0. -1.
          1   -1    0    0  501    0 -0.00000000000E+00 -0.00000000000E+00 -0.24000585908E+03  0.24000585908E+03  0.00000000000E+00 0. -1.
         25    2    1    2    0    0  0.45288996331E+02  0.18962851300E+02 -0.32787686149E+02  0.13824104295E+03  0.12499948270E+03 0.  0.
          2    1    1    2  501    0 -0.17865730198E+02 -0.48909832084E+02 -0.14989289709E+03  0.15867966659E+03  0.00000000000E+00 0. -1.
          1    1    1    2  502    0 -0.27423266133E+02  0.29946980783E+02  0.20085121586E+04  0.20089225840E+04  0.00000000000E+00 0. -1.
         22    1    3    3    0    0 -0.43383159956E+02  0.12965468743E+02 -0.80655439920E+01  0.45991900889E+02  0.00000000000E+00 0. -1.
         22    1    3    3    0    0  0.88672156287E+02  0.59973825579E+01 -0.24722142157E+02  0.92249142061E+02  0.00000000000E+00 0. -1.
</event>
<event>
 7    1  0.6017574E-006  0.1869851E+03  0.7818608E-02  0.1358178E+00
          2   -1    0    0  502    0  0.00000000000E+00  0.00000000000E+00  0.45178826930E+03  0.45178826930E+03  0.00000000000E+00 0. -1.
          1   -1    0    0  501    0 -0.00000000000E+00 -0.00000000000E+00 -0.74026234132E+03  0.74026234132E+03  0.00000000000E+00 0. -1.
         25    2    1    2    0    0 -0.28347671391E+02  0.18957465742E+03 -0.32963321199E+02  0.23120424782E+03  0.12500672965E+03 0.  0.
          2    1    1    2  501    0  0.26439366965E+02 -0.31896888266E+01 -0.58322477214E+03  0.58383246662E+03  0.00000000000E+00 0. -1.
          1    1    1    2  502    0  0.19083044254E+01 -0.18638496859E+03  0.32771402132E+03  0.37701389618E+03  0.00000000000E+00 0. -1.
         22    1    3    3    0    0 -0.61462495038E+01  0.18982084242E+03  0.18313602798E+01  0.18992915121E+03  0.00000000000E+00 0. -1.
         22    1    3    3    0    0 -0.22201421887E+02 -0.24618500303E+00 -0.34794681479E+02  0.41275096609E+02  0.00000000000E+00 0. -1.
</event>
<event>
 7    1  0.6017574E-006  0.1584927E+03  0.7818608E-02  0.1251951E+00
          2   -1    0    0  502    0  0.00000000000E+00  0.00000000000E+00  0.48001952991E+03  0.48001952991E+03  0.00000000000E+00 0. -1.
          1   -1    0    0  501    0 -0.00000000000E+00 -0.00000000000E+00 -0.76760783581E+03  0.76760783581E+03  0.00000000000E+00 0. -1.
         25    2    1    2    0    0  0.38612929870E+02 -0.14923063507E+03 -0.28812698138E+03  0.34986066415E+03  0.12499834447E+03 0.  0.
          2    1    1    2  501    0 -0.83035300896E+02 -0.40803017695E+01 -0.43032788510E+03  0.43828483747E+03  0.00000000000E+00 0. -1.
          1    1    1    2  502    0  0.44422371025E+02  0.15331093684E+03  0.43086656059E+03  0.45948186410E+03  0.00000000000E+00 0. -1.
         22    1    3    3    0    0 -0.43622612604E+02 -0.73393034518E+02 -0.10581561092E+03  0.13596475043E+03  0.00000000000E+00 0. -1.
         22    1    3    3    0    0  0.82235542474E+02 -0.75837600555E+02 -0.18231137047E+03  0.21389591372E+03  0.00000000000E+00 0. -1.
</event>
<event>
 7    1  0.6017574E-006  0.8420871E+02  0.7818608E-02  0.1470972E+00
          2   -1    0    0  502    0  0.00000000000E+00  0.00000000000E+00  0.51016852710E+03  0.51016852710E+03  0.00000000000E+00 0. -1.
          1   -1    0    0  501    0 -0.00000000000E+00 -0.00000000000E+00 -0.42889046044E+03  0.42889046044E+03  0.00000000000E+00 0. -1.
         25    2    1    2    0    0 -0.26206322510E+02 -0.68310395690E+02 -0.15050777239E+03  0.20888141674E+03  0.12500310080E+03 0.  0.
          2    1    1    2  501    0  0.18845008603E+02 -0.15862925615E+02 -0.24486233866E+03  0.24609821546E+03  0.00000000000E+00 0. -1.
          1    1    1    2  502    0  0.73613139076E+01  0.84173321305E+02  0.47664817771E+03  0.48407935535E+03  0.00000000000E+00 0. -1.
         22    1    3    3    0    0 -0.62209106584E+02 -0.50410393566E+02 -0.14839521341E+03  0.16861886040E+03  0.00000000000E+00 0. -1.
         22    1    3    3    0    0  0.36002784074E+02 -0.17900002124E+02 -0.21125589862E+01  0.40262556334E+02  0.00000000000E+00 0. -1.
</event>
<event>
 7    1  0.6017574E-006  0.3913688E+02  0.7818608E-02  0.1614938E+00
          2   -1    0    0  502    0  0.00000000000E+00  0.00000000000E+00  0.10840481938E+04  0.10840481938E+04  0.00000000000E+00 0. -1.
          1   -1    0    0  501    0 -0.00000000000E+00 -0.00000000000E+00 -0.21323064003E+03  0.21323064003E+03  0.00000000000E+00 0. -1.
         25    2    1    2    0    0 -0.58334348005E+01  0.42924728198E+02  0.82628176942E+03  0.83680419945E+03  0.12499257777E+03 0.  0.
          2    1    1    2  501    0 -0.17363988806E+02 -0.11445612271E+02 -0.20592865284E+03  0.20697613439E+03  0.00000000000E+00 0. -1.
          1    1    1    2  502    0  0.23197423606E+02 -0.31479115927E+02  0.25046443717E+03  0.25349849997E+03  0.00000000000E+00 0. -1.
         22    1    3    3    0    0 -0.13799385797E+02  0.11765246219E+02  0.11684920635E+02  0.21572701203E+02  0.00000000000E+00 0.  1.
         22    1    3    3    0    0  0.79659509966E+01  0.31159481980E+02  0.81459684878E+03  0.81523149825E+03  0.00000000000E+00 0.  1.
</event>
<event>
 7    1  0.6017574E-006  0.7823215E+02  0.7818608E-02  0.1353122E+00
          2   -1    0    0  502    0  0.00000000000E+00  0.00000000000E+00  0.68124204386E+03  0.68124204386E+03  0.00000000000E+00 0. -1.
          1   -1    0    0  501    0 -0.00000000000E+00 -0.00000000000E+00 -0.73806734330E+03  0.73806734330E+03  0.00000000000E+00 0. -1.
         25    2    1    2    0    0 -0.11109065946E+03  0.44992630486E+02 -0.29953511968E+03  0.34599403135E+03  0.12500044155E+03 0.  0.
          2    1    1    2  501    0  0.33978948100E+02 -0.57085348220E+02 -0.41030698406E+03  0.41565024608E+03  0.00000000000E+00 0. -1.
          1    1    1    2  502    0  0.77111711360E+02  0.12092717734E+02  0.65301680431E+03  0.65766510973E+03  0.00000000000E+00 0. -1.
         22    1    3    3    0    0 -0.50254376325E+02  0.78434640692E+02 -0.22807448982E+03  0.24636450253E+03  0.00000000000E+00 0. -1.
         22    1    3    3    0    0 -0.60836283135E+02 -0.33442010206E+02 -0.71460629863E+02  0.99629528819E+02  0.00000000000E+00 0. -1.
</event>
<event>
 7    1  0.6017574E-006  0.4602514E+02  0.7818608E-02  0.1470884E+00
          2   -1    0    0  502    0  0.00000000000E+00  0.00000000000E+00  0.49969211691E+03  0.49969211691E+03  0.00000000000E+00 0. -1.
          1   -1    0    0  501    0 -0.00000000000E+00 -0.00000000000E+00 -0.13515984882E+03  0.13515984882E+03  0.00000000000E+00 0. -1.
         25    2    1    2    0    0  0.51521360892E+02  0.42682200613E+02 -0.39395187879E+02  0.14714910981E+03  0.12499863525E+03 0.  0.
          2    1    1    2  501    0 -0.45008174358E+02  0.28294537677E+01 -0.28166138394E+02  0.53170225876E+02  0.00000000000E+00 0. -1.
          1    1    1    2  502    0 -0.65131865342E+01 -0.45511654380E+02  0.43209359436E+03  0.43453263004E+03  0.00000000000E+00 0. -1.
         22    1    3    3    0    0  0.45144835239E+02  0.85538177702E+02 -0.16411880012E+02  0.98102934711E+02  0.00000000000E+00 0.  1.
         22    1    3    3    0    0  0.63765256531E+01 -0.42855977090E+02 -0.22983307867E+02  0.49046175103E+02  0.00000000000E+00 0.  1.
</event>
<event>
 7    1  0.6017574E-006  0.2390986E+03  0.7818608E-02  0.1286252E+00
          2   -1    0    0  502    0  0.00000000000E+00  0.00000000000E+00  0.10543605288E+04  0.10543605288E+04  0.00000000000E+00 0. -1.
          1   -1    0    0  501    0 -0.00000000000E+00 -0.00000000000E+00 -0.14237071602E+04  0.14237071602E+04  0.00000000000E+00 0. -1.
         25    2    1    2    0    0  0.14025326791E+03  0.15480913686E+03 -0.48592218597E+02  0.24824254219E+03  0.12500523200E+03 0.  0.
          2    1    1    2  501    0 -0.17863480738E+03 -0.16427204833E+03 -0.12633261826E+04  0.12864247914E+04  0.00000000000E+00 0. -1.
          1    1    1    2  502    0  0.38381539470E+02  0.94629114670E+01  0.94257176983E+03  0.94340035539E+03  0.00000000000E+00 0. -1.
         22    1    3    3    0    0  0.61878755109E+02 -0.77803488962E+01 -0.50425085814E+01  0.62569489814E+02  0.00000000000E+00 0.  1.
         22    1    3    3    0    0  0.78374512806E+02  0.16258948576E+03 -0.43549710016E+02  0.18567305237E+03  0.00000000000E+00 0.  1.
</event>
<event>
 7    1  0.6017574E-006  0.7646644E+02  0.7818608E-02  0.1437137E+00
          2   -1    0    0  502    0  0.00000000000E+00  0.00000000000E+00  0.26626955425E+03  0.26626955425E+03  0.00000000000E+00 0. -1.
          1   -1    0    0  501    0 -0.00000000000E+00 -0.00000000000E+00 -0.33946916404E+03  0.33946916404E+03  0.00000000000E+00 0. -1.
         25    2    1    2    0    0 -0.10424424370E+03 -0.22433737334E+02 -0.24040485606E+03  0.29118674363E+03  0.12500035973E+03 0.  0.
          2    1    1    2  501    0  0.28470953930E+02  0.19936982779E+02 -0.63127072746E+02  0.72063207072E+02  0.00000000000E+00 0. -1.
          1    1    1    2  502    0  0.75773289775E+02  0.24967545543E+01  0.23033231901E+03  0.24248876759E+03  0.00000000000E+00 0. -1.
         22    1    3    3    0    0 -0.83061014397E+02 -0.61251869466E+02 -0.21891001482E+03  0.24201759897E+03  0.00000000000E+00 0. -1.
         22    1    3    3    0    0 -0.21183229308E+02  0.38818132133E+02 -0.21494841243E+02  0.49169144657E+02  0.00000000000E+00 0. -1.
</event>
<event>
 7    1  0.6017574E-006  0.8140882E+02  0.7818608E-02  0.1363616E+00
          2   -1    0    0  502    0  0.00000000000E+00  0.00000000000E+00  0.11137347274E+04  0.11137347274E+04  0.00000000000E+00 0. -1.
          1   -1    0    0  501    0 -0.00000000000E+00 -0.00000000000E+00 -0.43826145655E+03  0.43826145655E+03  0.00000000000E+00 0. -1.
         25    2    1    2    0    0 -0.27443398788E+02  0.17925507940E+02  0.29139984707E+03  0.31876887369E+03  0.12500103997E+03 0.  0.
          2    1    1    2  501    0  0.82072073898E+02  0.28311590783E+01 -0.41953504154E+03  0.42749677409E+03  0.00000000000E+00 0. -1.
          1    1    1    2  502    0 -0.54628675110E+02 -0.20756667019E+02  0.80360846532E+03  0.80573053617E+03  0.00000000000E+00 0. -1.
         22    1    3    3    0    0  0.28168266224E+02 -0.76431066983E+00  0.79041108016E+01  0.29266198257E+02  0.00000000000E+00 0.  1.
         22    1    3    3    0    0 -0.55611665012E+02  0.18689818610E+02  0.28349573627E+03  0.28950267544E+03  0.00000000000E+00 0.  1.
</event>
<event>
 7    1  0.6017574E-006  0.1150849E+03  0.7818608E-02  0.1376143E+00
          2   -1    0    0  502    0  0.00000000000E+00  0.00000000000E+00  0.76609461679E+03  0.76609461679E+03  0.00000000000E+00 0. -1.
          1   -1    0    0  501    0 -0.00000000000E+00 -0.00000000000E+00 -0.40434116905E+03  0.40434116905E+03  0.00000000000E+00 0. -1.
         25    2    1    2    0    0 -0.49177917794E+02  0.95109231657E+02 -0.10711857641E+03  0.19637405863E+03  0.12499659174E+03 0.  0.
          2    1    1    2  501    0  0.19256710147E+02 -0.11732371280E+03 -0.23808639110E+03  0.26612178434E+03  0.00000000000E+00 0. -1.
          1    1    1    2  502    0  0.29921207648E+02  0.22214481146E+02  0.70695841524E+03  0.70793994288E+03  0.00000000000E+00 0. -1.
         22    1    3    3    0    0  0.33381420039E+02  0.53733657340E+02 -0.13123979796E+02  0.64605448536E+02  0.00000000000E+00 0.  1.
         22    1    3    3    0    0 -0.82559337833E+02  0.41375574318E+02 -0.93994596609E+02  0.13176861009E+03  0.00000000000E+00 0.  1.
</event>
<event>
 7    1  0.6017574E-006  0.1927671E+03  0.7818608E-02  0.1204601E+00
          2   -1    0    0  502    0  0.00000000000E+00  0.00000000000E+00  0.10484844113E+04  0.10484844113E+04  0.00000000000E+00 0. -1.
          1   -1    0    0  501    0 -0.00000000000E+00 -0.00000000000E+00 -0.71647532035E+03  0.71647532035E+03  0.00000000000E+00 0. -1.
         25    2    1    2    0    0  0.39571637419E+02 -0.26181254575E+03 -0.29652462376E+03  0.41672900655E+03  0.12499795519E+03 0.  0.
          2    1    1    2  501    0 -0.71643785974E+02  0.15489310937E+03 -0.33621371996E+03  0.37704691073E+03  0.00000000000E+00 0. -1.
          1    1    1    2  502    0  0.32072148555E+02  0.10691943638E+03  0.96474743462E+03  0.97118381432E+03  0.00000000000E+00 0. -1.
         22    1    3    3    0    0  0.81266697607E+02 -0.18843149660E+03 -0.23674597946E+03  0.31330394801E+03  0.00000000000E+00 0.  1.
         22    1    3    3    0    0 -0.41695060188E+02 -0.73381049155E+02 -0.59778644305E+02  0.10342505854E+03  0.00000000000E+00 0.  1.
</event>
<event>
 7    1  0.6017574E-006  0.5738713E+02  0.7818608E-02  0.1452705E+00
          2   -1    0    0  502    0  0.00000000000E+00  0.00000000000E+00  0.14736582930E+04  0.14736582930E+04  0.00000000000E+00 0. -1.
          1   -1    0    0  501    0 -0.00000000000E+00 -0.00000000000E+00 -0.40599597545E+02  0.40599597545E+02  0.00000000000E+00 0. -1.
         25    2    1    2    0    0 -0.28272677922E+02 -0.46573633903E+02  0.53705636694E+03  0.55409286915E+03  0.12498367366E+03 0.  0.
          2    1    1    2  501    0  0.39624258879E+02 -0.11503392137E+02 -0.17449517056E+02  0.44798388005E+02  0.00000000000E+00 0. -1.
          1    1    1    2  502    0 -0.11351580957E+02  0.58077026040E+02  0.91345184557E+03  0.91536663338E+03  0.00000000000E+00 0. -1.
         22    1    3    3    0    0 -0.57489547933E+02  0.19195545067E+02  0.18233279763E+03  0.19214256728E+03  0.00000000000E+00 0.  1.
         22    1    3    3    0    0  0.29216870011E+02 -0.65769178970E+02  0.35472356931E+03  0.36195030186E+03  0.00000000000E+00 0.  1.
</event>
<event>
 7    1  0.6017574E-006  0.1592503E+03  0.7818608E-02  0.1361563E+00
          2   -1    0    0  502    0  0.00000000000E+00  0.00000000000E+00  0.13806463263E+04  0.13806463263E+04  0.00000000000E+00 0. -1.
          1   -1    0    0  501    0 -0.00000000000E+00 -0.00000000000E+00 -0.18539892488E+04  0.18539892488E+04  0.00000000000E+00 0. -1.
         25    2    1    2    0    0 -0.56300038525E+02 -0.11862822056E+03  0.74616970515E+02  0.19604911262E+03  0.12500085288E+03 0.  0.
          2    1    1    2  501    0 -0.14502971844E+02 -0.26708306338E+02 -0.17878966602E+04  0.17881549534E+04  0.00000000000E+00 0. -1.
          1    1    1    2  502    0  0.70803010368E+02  0.14533652689E+03  0.12399367672E+04  0.12504315091E+04  0.00000000000E+00 0. -1.
         22    1    3    3    0    0  0.33815443151E+02 -0.67628383853E+02  0.16801426159E+02  0.77455602890E+02  0.00000000000E+00 0. -1.
         22    1    3    3    0    0 -0.90115481676E+02 -0.50999836702E+02  0.57815544356E+02  0.11859350973E+03  0.00000000000E+00 0. -1.
</event>
<event>
 7    1  0.6017574E-006  0.6264534E+02  0.7818608E-02  0.1403567E+00
          2   -1    0    0  502    0  0.00000000000E+00  0.00000000000E+00  0.25002517352E+03  0.25002517352E+03  0.00000000000E+00 0. -1.
          1   -1    0    0  501    0 -0.00000000000E+00 -0.00000000000E+00 -0.68323512445E+03  0.68323512445E+03  0.00000000000E+00 0. -1.
         25    2    1    2    0    0 -0.46497043734E+02  0.43157501914E+02 -0.52175758896E+03  0.54025767900E+03  0.12499133186E+03 0.  0.
          2    1    1    2  501    0 -0.15608372871E+02 -0.52652826890E+02 -0.14294734267E+03  0.15313355040E+03  0.00000000000E+00 0. -1.
          1    1    1    2  502    0  0.62105416605E+02  0.94953249757E+01  0.23149498070E+03  0.23986906857E+03  0.00000000000E+00 0. -1.
         22    1    3    3    0    0 -0.85431197468E+01  0.41090806955E+02 -0.43333521635E+02  0.60326059117E+02  0.00000000000E+00 0.  1.
         22    1    3    3    0    0 -0.37953923987E+02  0.20666949592E+01 -0.47842406732E+03  0.47993161989E+03  0.00000000000E+00 0.  1.
</event>
<event>
 7    1  0.6017574E-006  0.1200722E+03  0.7818608E-02  0.1333442E+00
          2   -1    0    0  502    0  0.00000000000E+00  0.00000000000E+00  0.33140666472E+03  0.33140666472E+03  0.00000000000E+00 0. -1.
          1   -1    0    0  501    0 -0.00000000000E+00 -0.00000000000E+00 -0.36299511848E+03  0.36299511848E+03  0.00000000000E+00 0. -1.
         25    2    1    2    0    0  0.71353383857E+02  0.11119997213E+03 -0.58381192149E+02  0.19102121288E+03  0.12499600388E+03 0.  0.
          2    1    1    2  501    0 -0.98249205025E+02 -0.67532446118E+02 -0.22058557125E+03  0.25074196261E+03  0.00000000000E+00 0. -1.
          1    1    1    2  502    0  0.26895821167E+02 -0.43667526008E+02  0.24737830965E+03  0.25263860772E+03  0.00000000000E+00 0. -1.
         22    1    3    3    0    0 -0.34602243537E+02  0.35877707982E+02 -0.36780228436E+01  0.49980526607E+02  0.00000000000E+00 0.  1.
         22    1    3    3    0    0  0.10595562739E+03  0.75322264144E+02 -0.54703169305E+02  0.14104068627E+03  0.00000000000E+00 0.  1.
</event>
<event>
 7    1  0.6017574E-006  0.1012288E+03  0.7818608E-02  0.1428290E+00
          2   -1    0    0  502    0  0.00000000000E+00  0.00000000000E+00  0.90992237486E+03  0.90992237486E+03  0.00000000000E+00 0. -1.
          1   -1    0    0  501    0 -0.00000000000E+00 -0.00000000000E+00 -0.45712277207E+03  0.45712277207E+03  0.00000000000E+00 0. -1.
         25    2    1    2    0    0  0.10270819253E+03 -0.73746804762E+02  0.14109184053E+03  0.22697785153E+03  0.12499789436E+03 0.  0.
          2    1    1    2  501    0 -0.86662791506E+02  0.50716069272E+02 -0.40781624102E+03  0.41999600660E+03  0.00000000000E+00 0. -1.
          1    1    1    2  502    0 -0.16045401019E+02  0.23030735491E+02  0.71952400328E+03  0.72007128881E+03  0.00000000000E+00 0. -1.
         22    1    3    3    0    0  0.62823136820E+02 -0.72365971841E+01  0.13513123600E+03  0.14919640009E+03  0.00000000000E+00 0. -1.
         22    1    3    3    0    0  0.39885055706E+02 -0.66510207578E+02  0.59606045328E+01  0.77781451434E+02  0.00000000000E+00 0. -1.
</event>
<event>
 7    1  0.6017574E-006  0.6782925E+02  0.7818608E-02  0.1390027E+00
          2   -1    0    0  502    0  0.00000000000E+00  0.00000000000E+00  0.11092335315E+04  0.11092335315E+04  0.00000000000E+00 0. -1.
          1   -1    0    0  501    0 -0.00000000000E+00 -0.00000000000E+00 -0.39315361981E+02  0.39315361981E+02  0.00000000000E+00 0. -1.
         25    2    1    2    0    0 -0.40573850781E+02 -0.10183631604E+03  0.81117522683E+03  0.82803825196E+03  0.12500090182E+03 0.  0.
          2    1    1    2  501    0  0.47854895415E+02  0.45818445716E+02  0.11933103905E+02  0.67318793452E+02  0.00000000000E+00 0. -1.
          1    1    1    2  502    0 -0.72810446337E+01  0.56017870327E+02  0.24680983877E+03  0.25319184806E+03  0.00000000000E+00 0. -1.
         22    1    3    3    0    0 -0.64857217258E+02 -0.37127405189E+02  0.20996157741E+03  0.22286490714E+03  0.00000000000E+00 0. -1.
         22    1    3    3    0    0  0.24283366477E+02 -0.64708910854E+02  0.60121364942E+03  0.60517334482E+03  0.00000000000E+00 0. -1.
</event>
<event>
 7    1  0.6017574E-006  0.1902547E+03  0.7818608E-02  0.1211124E+00
          2   -1    0    0  502    0  0.00000000000E+00  0.00000000000E+00  0.13001223540E+04  0.13001223540E+04  0.00000000000E+00 0. -1.
          1   -1    0    0  501    0 -0.00000000000E+00 -0.00000000000E+00 -0.77991121756E+03  0.77991121756E+03  0.00000000000E+00 0. -1.
         25    2    1    2    0    0 -0.27990923111E+03  0.42441244114E+02  0.26998704273E+02  0.31065135162E+03  0.12499958148E+03 0.  0.
          2    1    1    2  501    0  0.18321072578E+03 -0.34368814874E+00 -0.62239525113E+03  0.64880053698E+03  0.00000000000E+00 0. -1.
          1    1    1    2  502    0  0.96698505333E+02 -0.42097555966E+02  0.11156076833E+04  0.11205816830E+04  0.00000000000E+00 0. -1.
         22    1    3    3    0    0 -0.19647007937E+03 -0.28460013159E+02  0.29287933847E+01  0.19854229339E+03  0.00000000000E+00 0.  1.
         22    1    3    3    0    0 -0.83439151745E+02  0.70901257274E+02  0.24069910888E+02  0.11210905823E+03  0.00000000000E+00 0.  1.
</event>
<event>
 7    1  0.6017574E-006  0.5561145E+02  0.7818608E-02  0.1421732E+00
          2   -1    0    0  502    0  0.00000000000E+00  0.00000000000E+00  0.41961260892E+04  0.41961260892E+04  0.00000000000E+00 0. -1.
          1   -1    0    0  501    0 -0.00000000000E+00 -0.00000000000E+00 -0.70838425283E+01  0.70838425283E+01  0.00000000000E+00 0. -1.
         25    2    1    2    0    0 -0.77122735810E+01 -0.25438582632E+02  0.18478764434E+04  0.18522897502E+04  0.12499347233E+03 0.  0.
          2    1    1    2  501    0 -0.53378113568E+02  0.60257147840E+01  0.15930275504E+03  0.16811573398E+03  0.00000000000E+00 0. -1.
          1    1    1    2  502    0  0.61090387149E+02  0.19412867848E+02  0.21818630482E+04  0.21828044475E+04  0.00000000000E+00 0. -1.
         22    1    3    3    0    0 -0.32765580983E+02  0.30420846312E+02  0.13386543051E+04  0.13394007465E+04  0.00000000000E+00 0.  1.
         22    1    3    3    0    0  0.25053307402E+02 -0.55859428944E+02  0.50922213825E+03  0.51288900369E+03  0.00000000000E+00 0.  1.
</event>
<event>
 7    1  0.6017574E-006  0.9815472E+02  0.7818608E-02  0.1471798E+00
          2   -1    0    0  502    0  0.00000000000E+00  0.00000000000E+00  0.27424638160E+03  0.27424638160E+03  0.00000000000E+00 0. -1.
          1   -1    0    0  501    0 -0.00000000000E+00 -0.00000000000E+00 -0.50104153482E+03  0.50104153482E+03  0.00000000000E+00 0. -1.
         25    2    1    2    0    0  0.10720230940E+03 -0.50025363986E+02 -0.35658699046E+03  0.39594714342E+03  0.12499994574E+03 0.  0.
          2    1    1    2  501    0 -0.20258612673E+02  0.55623555918E+01 -0.11441769434E+03  0.11633039141E+03  0.00000000000E+00 0. -1.
          1    1    1    2  502    0 -0.86943696729E+02  0.44463008394E+02  0.24420953157E+03  0.26301038160E+03  0.00000000000E+00 0. -1.
         22    1    3    3    0    0  0.12837019583E+03 -0.60785565669E+02 -0.25770998200E+03  0.29425877556E+03  0.00000000000E+00 0.  1.
         22    1    3    3    0    0 -0.21167886432E+02  0.10760201683E+02 -0.98877008459E+02  0.10168836786E+03  0.00000000000E+00 0.  1.
</event>
<event>
 7    1  0.6017574E-006  0.4395603E+02  0.7818608E-02  0.1566453E+00
          2   -1    0    0  502    0  0.00000000000E+00  0.00000000000E+00  0.25135913467E+03  0.25135913467E+03  0.00000000000E+00 0. -1.
          1   -1    0    0  501    0 -0.00000000000E+00 -0.00000000000E+00 -0.14558486561E+03  0.14558486561E+03  0.00000000000E+00 0. -1.
         25    2    1    2    0    0 -0.29506815272E+02 -0.44347747496E+02  0.85485452690E+02  0.16052790611E+03  0.12499628459E+03 0.  0.
          2    1    1    2  501    0  0.38405526946E+02  0.21115996686E+02 -0.10231859824E+03  0.11131022128E+03  0.00000000000E+00 0. -1.
          1    1    1    2  502    0 -0.88987116744E+01  0.23231750810E+02  0.12260741461E+03  0.12510587289E+03  0.00000000000E+00 0. -1.
         22    1    3    3    0    0 -0.73347564304E+02 -0.19833262043E+02  0.21080354930E+02  0.78851790319E+02  0.00000000000E+00 0.  1.
         22    1    3    3    0    0  0.43840749032E+02 -0.24514485453E+02  0.64405097760E+02  0.81676115788E+02  0.00000000000E+00 0.  1.
</event>
<event>
 7    1  0.6017574E-006  0.8351688E+02  0.7818608E-02  0.1367074E+00
          2   -1    0    0  502    0  0.00000000000E+00  0.00000000000E+00  0.11760053299E+04  0.11760053299E+04  0.00000000000E+00 0. -1.
          1   -1    0    0  501    0 -0.00000000000E+00 -0.00000000000E+00 -0.72810871020E+03  0.72810871020E+03  0.00000000000E+00 0. -1.
         25    2    1    2    0    0 -0.13500358732E+03 -0.30071301913E+02 -0.47965066488E+03  0.51460748110E+03  0.12500338995E+03 0.  0.
          2    1    1    2  501    0  0.52695865416E+02  0.16919085495E+02 -0.22613901891E+03  0.23281315590E+03  0.00000000000E+00 0. -1.
          1    1    1    2  502    0  0.82307721901E+02  0.13152216419E+02  0.11536863035E+04  0.11566934031E+04  0.00000000000E+00 0. -1.
         22    1    3    3    0    0 -0.15433228880E+03 -0.28094714017E+02 -0.35048854282E+03  0.38399217045E+03  0.00000000000E+00 0. -1.
         22    1    3    3    0    0  0.19328701481E+02 -0.19765878965E+01 -0.12916212207E+03  0.13061531066E+03  0.00000000000E+00 0. -1.
</event>
<event>
 7    1  0.6017574E-006  0.9204575E+02  0.7818608E-02  0.1387571E+00
          2   -1    0    0  502    0  0.00000000000E+00  0.00000000000E+00  0.13926677843E+04  0.13926677843E+04  0.00000000000E+00 0. -1.
          1   -1    0    0  501    0 -0.00000000000E+00 -0.00000000000E+00 -0.18811936354E+03  0.18811936354E+03  0.00000000000E+00 0. -1.
         25    2    1    2    0    0 -0.38854294243E+02 -0.40307851596E+02  0.10529668158E+03  0.17275481035E+03  0.12498981665E+03 0.  0.
          2    1    1    2  501    0  0.78651612877E+02  0.55102815761E+02 -0.13905760762E+03  0.16899530984E+03  0.00000000000E+00 0. -1.
          1    1    1    2  502    0 -0.39797318633E+02 -0.14794964166E+02  0.12383093468E+04  0.12390370276E+04  0.00000000000E+00 0. -1.
         22    1    3    3    0    0  0.32044412835E+02  0.92136578660E+01 -0.37779973746E+01  0.33556059801E+02  0.00000000000E+00 0. -1.
         22    1    3    3    0    0 -0.70898707079E+02 -0.49521509462E+02  0.10907467895E+03  0.13919875055E+03  0.00000000000E+00 0. -1.
</event>
<event>
 7    1  0.6017574E-006  0.4944475E+02  0.7818608E-02  0.1563435E+00
          2   -1    0    0  502    0  0.00000000000E+00  0.00000000000E+00  0.71519802016E+03  0.71519802016E+03  0.00000000000E+00 0. -1.
          1   -1    0    0  501    0 -0.00000000000E+00 -0.00000000000E+00 -0.34370544660E+03  0.34370544660E+03  0.00000000000E+00 0. -1.
         25    2    1    2    0    0  0.34199472030E+01 -0.26861173598E+02 -0.19319620329E+03  0.23169640739E+03  0.12500093418E+03 0.  0.
          2    1    1    2  501    0  0.27094223418E+00 -0.22538975829E+02 -0.12940212088E+03  0.13135062896E+03  0.00000000000E+00 0. -1.
          1    1    1    2  502    0 -0.36908894372E+01  0.49400149427E+02  0.69409089773E+03  0.69585643040E+03  0.00000000000E+00 0. -1.
         22    1    3    3    0    0 -0.22384002807E+02  0.17522016836E+02  0.32877663369E+01  0.28615975663E+02  0.00000000000E+00 0.  1.
         22    1    3    3    0    0  0.25803950010E+02 -0.44383190434E+02 -0.19648396963E+03  0.20308043173E+03  0.00000000000E+00 0.  1.
</event>
<event>
 7    1  0.6017574E-006  0.1736589E+03  0.7818608E-02  0.1220848E+00
          2   -1    0    0  502    0  0.00000000000E+00  0.00000000000E+00  0.70352305687E+03  0.70352305687E+03  0.00000000000E+00 0. -1.
          1   -1    0    0  501    0 -0.00000000000E+00 -0.00000000000E+00 -0.20195221907E+03  0.20195221907E+03  0.00000000000E+00 0. -1.
         25    2    1    2    0    0 -0.22247606327E+03 -0.52579194899E+00  0.23699098032E+03  0.34826079077E+03  0.12499991381E+03 0.  0.
          2    1    1    2  501    0  0.15080147098E+03 -0.75187217932E+02 -0.87607727248E+02  0.18991923353E+03  0.00000000000E+00 0. -1.
          1    1    1    2  502    0  0.71674592287E+02  0.75713009881E+02  0.35218758473E+03  0.36729525164E+03  0.00000000000E+00 0. -1.
         22    1    3    3    0    0 -0.19863398166E+03 -0.31334509527E+02  0.14368585009E+03  0.24714961799E+03  0.00000000000E+00 0.  1.
         22    1    3    3    0    0 -0.23842081611E+02  0.30808717578E+02  0.93305130230E+02  0.10111117278E+03  0.00000000000E+00 0.  1.
</event>
<event>
 7    1  0.6017574E-006  0.6771096E+02  0.7818608E-02  0.1417665E+00
          2   -1    0    0  502    0  0.00000000000E+00  0.00000000000E+00  0.14840523024E+04  0.14840523024E+04  0.00000000000E+00 0. -1.
          1   -1    0    0  501    0 -0.00000000000E+00 -0.00000000000E+00 -0.19559161382E+03  0.19559161382E+03  0.00000000000E+00 0. -1.
         25    2    1    2    0    0  0.16830775315E+02  0.15805418063E+02 -0.58249113416E+02  0.13982604060E+03  0.12500110470E+03 0.  0.
          2    1    1    2  501    0  0.40163383975E+02  0.21425343069E+02 -0.90337847510E+02  0.10115863498E+03  0.00000000000E+00 0. -1.
          1    1    1    2  502    0 -0.56994159290E+02 -0.37230761132E+02  0.14370476495E+04  0.14386592406E+04  0.00000000000E+00 0. -1.
         22    1    3    3    0    0  0.34756644318E+02  0.62055234786E+02 -0.12240790764E+02  0.72171417106E+02  0.00000000000E+00 0. -1.
         22    1    3    3    0    0 -0.17925869003E+02 -0.46249816723E+02 -0.46008322653E+02  0.67654623491E+02  0.00000000000E+00 0. -1.
</event>
<event>
 7    1  0.6017574E-006  0.5495870E+02  0.7818608E-02  0.1471372E+00
          2   -1    0    0  502    0  0.00000000000E+00  0.00000000000E+00  0.11193351471E+04  0.11193351471E+04  0.00000000000E+00 0. -1.
          1   -1    0    0  501    0 -0.00000000000E+00 -0.00000000000E+00 -0.27638175659E+02  0.27638175659E+02  0.00000000000E+00 0. -1.
         25    2    1    2    0    0 -0.17590894670E+02  0.85148754643E+02  0.39131102749E+03  0.41989364574E+03  0.12500641386E+03 0.  0.
          2    1    1    2  501    0  0.16678955498E+01 -0.51048449868E+02  0.38088709346E+02  0.63714016426E+02  0.00000000000E+00 0. -1.
          1    1    1    2  502    0  0.15922999121E+02 -0.34100304775E+02  0.66229723457E+03  0.66336566056E+03  0.00000000000E+00 0. -1.
         22    1    3    3    0    0  0.12882802076E+02  0.41958200936E+02  0.26495530069E+02  0.51268609585E+02  0.00000000000E+00 0. -1.
         22    1    3    3    0    0 -0.30473696747E+02  0.43190553707E+02  0.36481549742E+03  0.36862503615E+03  0.00000000000E+00 0. -1.
</event>
<event>
 7    1  0.6017574E-006  0.5146883E+02  0.7818608E-02  0.1525151E+00
          2   -1    0    0  502    0  0.00000000000E+00  0.00000000000E+00  0.69757623936E+03  0.69757623936E+03  0.00000000000E+00 0. -1.
          1   -1    0    0  501    0 -0.00000000000E+00 -0.00000000000E+00 -0.76422673508E+03  0.76422673508E+03  0.00000000000E+00 0. -1.
         25    2    1    2    0    0  0.58367627670E+02  0.40376322670E+02  0.53519665997E+02  0.15338332129E+03  0.12500024484E+03 0.  0.
          2    1    1    2  501    0 -0.49341085020E+02 -0.14142354065E+02 -0.71304802498E+03  0.71489302331E+03  0.00000000000E+00 0. -1.
          1    1    1    2  502    0 -0.90265426498E+01 -0.26233968606E+02  0.59287786326E+03  0.59352662984E+03  0.00000000000E+00 0. -1.
         22    1    3    3    0    0  0.34488316579E+02  0.79314986334E+02  0.48328682593E+01  0.86623712996E+02  0.00000000000E+00 0. -1.
         22    1    3    3    0    0  0.23879311091E+02 -0.38938663663E+02  0.48686797738E+02  0.66759608297E+02  0.00000000000E+00 0. -1.
</event>
<event>
 7    1  0.6017574E-006  0.2139915E+03  0.7818608E-02  0.1242776E+00
          2   -1    0    0  502    0  0.00000000000E+00  0.00000000000E+00  0.20445856880E+04  0.20445856880E+04  0.00000000000E+00 0. -1.
          1   -1    0    0  501    0 -0.00000000000E+00 -0.00000000000E+00 -0.26532214924E+04  0.26532214924E+04  0.00000000000E+00 0. -1.
         25    2    1    2    0    0  0.21700061030E+03 -0.12359638093E+03  0.68656657288E+03  0.74119515609E+03  0.12502507817E+03 0.  0.
          2    1    1    2  501    0 -0.20608981225E+03  0.56972980779E+02 -0.26206940247E+04  0.26294022329E+04  0.00000000000E+00 0. -1.
          1    1    1    2  502    0 -0.10910798050E+02  0.66623400156E+02  0.13254916474E+04  0.13272097914E+04  0.00000000000E+00 0. -1.
         22    1    3    3    0    0  0.14842422605E+02  0.24366050418E+02  0.61576351147E+02  0.67864931609E+02  0.00000000000E+00 0. -1.
         22    1    3    3    0    0  0.20215818769E+03 -0.14796243135E+03  0.62499022173E+03  0.67333022448E+03  0.00000000000E+00 0. -1.
</event>
<event>
 7    1  0.6017574E-006  0.1493494E+03  0.7818608E-02  0.1291245E+00
          2   -1    0    0  502    0  0.00000000000E+00  0.00000000000E+00  0.31401769217E+03  0.31401769217E+03  0.00000000000E+00 0. -1.
          1   -1    0    0  501    0 -0.00000000000E+00 -0.00000000000E+00 -0.30213963267E+04  0.30213963267E+04  0.00000000000E+00 0. -1.
         25    2    1    2    0    0 -0.18606770115E+03  0.61074962222E+02 -0.10484447831E+03  0.25489035466E+03  0.12500155138E+03 0.  0.
          2    1    1    2  501    0  0.59811422970E+02  0.83377318533E+01 -0.28194614882E+04  0.28201081553E+04  0.00000000000E+00 0. -1.
          1    1    1    2  502    0  0.12625627818E+03 -0.69412694076E+02  0.21692733203E+03  0.26041550887E+03  0.00000000000E+00 0. -1.
         22    1    3    3    0    0 -0.13377152180E+03  0.73633217389E+02 -0.12512008610E+03  0.19741252922E+03  0.00000000000E+00 0.  1.
         22    1    3    3    0    0 -0.52296179344E+02 -0.12558255167E+02  0.20275607783E+02  0.57477825444E+02  0.00000000000E+00 0.  1.
</event>
<event>
 7    1  0.6017574E-006  0.9350017E+02  0.7818608E-02  0.1397005E+00
          2   -1    0    0  502    0  0.00000000000E+00  0.00000000000E+00  0.18830409415E+04  0.18830409415E+04  0.00000000000E+00 0. -1.
          1   -1    0    0  501    0 -0.00000000000E+00 -0.00000000000E+00 -0.41585388760E+03  0.41585388760E+03  0.00000000000E+00 0. -1.
         25    2    1    2    0    0  0.70770026768E+02 -0.24281784297E+02  0.16388503507E+03  0.21927224756E+03  0.12499604830E+03 0.  0.
          2    1    1    2  501    0  0.23677707465E+02  0.30682644044E+02 -0.38586428817E+03  0.38780575983E+03  0.00000000000E+00 0. -1.
          1    1    1    2  502    0 -0.94447734234E+02 -0.64008597478E+01  0.16891663070E+04  0.16918168217E+04  0.00000000000E+00 0. -1.
         22    1    3    3    0    0 -0.34687628630E+02  0.10069211104E+01  0.23642915057E+02  0.41990866894E+02  0.00000000000E+00 0.  1.
         22    1    3    3    0    0  0.10545765540E+03 -0.25288705407E+02  0.14024212002E+03  0.17728138066E+03  0.00000000000E+00 0.  1.
</event>
<event>
 7    1  0.6017574E-006  0.1907510E+03  0.7818608E-02  0.1270000E+00
          2   -1    0    0  502    0  0.00000000000E+00  0.00000000000E+00  0.76873955387E+03  0.76873955387E+03  0.00000000000E+00 0. -1.
          1   -1    0    0  501    0 -0.00000000000E+00 -0.00000000000E+00 -0.21565659240E+03  0.21565659240E+03  0.00000000000E+00 0. -1.
         25    2    1    2    0    0  0.47862472266E+02  0.21268694273E+03  0.24128922396E+03  0.34838423387E+03  0.12499813179E+03 0.  0.
          2    1    1    2  501    0  0.32189357861E+02 -0.48085363336E+02 -0.13841210322E+03  0.15002088936E+03  0.00000000000E+00 0. -1.
          1    1    1    2  502    0 -0.80051830126E+02 -0.16460157939E+03  0.45020584074E+03  0.48599102304E+03  0.00000000000E+00 0. -1.
         22    1    3    3    0    0 -0.30093096179E+02  0.64735860389E+02  0.26452744635E+02  0.76131949644E+02  0.00000000000E+00 0.  1.
         22    1    3    3    0    0  0.77955568445E+02  0.14795108234E+03  0.21483647933E+03  0.27225228422E+03  0.00000000000E+00 0.  1.
</event>
<event>
 7    1  0.6017574E-006  0.3804314E+02  0.7818608E-02  0.1575458E+00
          2   -1    0    0  502    0  0.00000000000E+00  0.00000000000E+00  0.21711053663E+03  0.21711053663E+03  0.00000000000E+00 0. -1.
          1   -1    0    0  501    0 -0.00000000000E+00 -0.00000000000E+00 -0.28388871707E+03  0.28388871707E+03  0.00000000000E+00 0. -1.
         25    2    1    2    0    0  0.32345490968E+02  0.37150484986E+02  0.23554471451E+02  0.13640017973E+03  0.12499522624E+03 0.  0.
          2    1    1    2  501    0  0.41048219739E+01 -0.26860049500E+02 -0.22401397260E+03  0.22565587017E+03  0.00000000000E+00 0. -1.
          1    1    1    2  502    0 -0.36450312942E+02 -0.10290435485E+02  0.13368132071E+03  0.13894320380E+03  0.00000000000E+00 0. -1.
         22    1    3    3    0    0 -0.15008094060E+02 -0.34935307090E+02 -0.16324502739E+02  0.41378834668E+02  0.00000000000E+00 0.  1.
         22    1    3    3    0    0  0.47353585028E+02  0.72085792075E+02  0.39878974190E+02  0.95021345058E+02  0.00000000000E+00 0.  1.
</event>
<event>
 7    1  0.6017574E-006  0.4270469E+02  0.7818608E-02  0.1505500E+00
          2   -1    0    0  502    0  0.00000000000E+00  0.00000000000E+00  0.16442882139E+03  0.16442882139E+03  0.00000000000E+00 0. -1.
          1   -1    0    0  501    0 -0.00000000000E+00 -0.00000000000E+00 -0.15285849057E+04  0.15285849057E+04  0.00000000000E+00 0. -1.
         25    2    1    2    0    0 -0.51252045432E+02  0.34869353888E+02 -0.65731431861E+02  0.15423307408E+03  0.12499830400E+03 0.  0.
          2    1    1    2  501    0  0.37781080237E+02  0.53967565797E+01 -0.14145869117E+04  0.14151016450E+04  0.00000000000E+00 0. -1.
          1    1    1    2  502    0  0.13470965195E+02 -0.40266110468E+02  0.11616225923E+03  0.12367900802E+03  0.00000000000E+00 0. -1.
         22    1    3    3    0    0 -0.23612019273E+02  0.76569571063E+02 -0.66607135169E+02  0.10419662721E+03  0.00000000000E+00 0. -1.
         22    1    3    3    0    0 -0.27640026159E+02 -0.41700217174E+02  0.87570330771E+00  0.50036446864E+02  0.00000000000E+00 0. -1.
</event>
<event>
 7    1  0.6017574E-006  0.1440306E+03  0.7818608E-02  0.1288404E+00
          2   -1    0    0  502    0  0.00000000000E+00  0.00000000000E+00  0.13922093671E+04  0.13922093671E+04  0.00000000000E+00 0. -1.
          1   -1    0    0  501    0 -0.00000000000E+00 -0.00000000000E+00 -0.59703048370E+02  0.59703048370E+02  0.00000000000E+00 0. -1.
         25    2    1    2    0    0 -0.98458157634E+01  0.10994760967E+03  0.14177029044E+03  0.21888480123E+03  0.12500529588E+03 0.  0.
          2    1    1    2  501    0  0.55720875446E+02  0.32106344338E+02  0.47155088602E+02  0.79744816059E+02  0.00000000000E+00 0. -1.
          1    1    1    2  502    0 -0.45875059683E+02 -0.14205395401E+03  0.11435809397E+04  0.11532827982E+04  0.00000000000E+00 0. -1.
         22    1    3    3    0    0  0.18580257629E+02  0.70905903955E+02  0.45804130677E+01  0.73442857877E+02  0.00000000000E+00 0. -1.
         22    1    3    3    0    0 -0.28426073392E+02  0.39041705719E+02  0.13718987737E+03  0.14544194336E+03  0.00000000000E+00 0. -1.
</event>
<event>
 7    1  0.1246966E-005  0.7361049E+02  0.7818608E-02  0.1483548E+00
          2   -1    0    0  502    0  0.00000000000E+00  0.00000000000E+00  0.23437684243E+04  0.23437684243E+04  0.00000000000E+00 0. -1.
          1   -1    0    0  501    0 -0.00000000000E+00 -0.00000000000E+00 -0.93623237208E+03  0.93623237208E+03  0.00000000000E+00 0. -1.
         25    2    1    2    0    0  0.88572116143E+02 -0.24217214318E+01 -0.38759012479E+03  0.41677572315E+03  0.12500005631E+03 0.  0.
          2    1    1    2  501    0 -0.16965365816E+02  0.19404648861E+02 -0.53315671258E+03  0.53377939657E+03  0.00000000000E+00 0. -1.
          1    1    1    2  502    0 -0.71606750328E+02 -0.16982927430E+02  0.23282828896E+04  0.23294456767E+04  0.00000000000E+00 0. -1.
         22    1    3    3    0    0  0.12003406304E+03 -0.54249798639E+01 -0.32812883531E+03  0.34943688881E+03  0.00000000000E+00 0.  1.
         22    1    3    3    0    0 -0.31461946899E+02  0.30032584322E+01 -0.59461289484E+02  0.67338834346E+02  0.00000000000E+00 0.  1.
</event>
<event>
 7    1  0.6017574E-006  0.7938545E+02  0.7818608E-02  0.1377918E+00
          2   -1    0    0  502    0  0.00000000000E+00  0.00000000000E+00  0.13383796600E+04  0.13383796600E+04  0.00000000000E+00 0. -1.
          1   -1    0    0  501    0 -0.00000000000E+00 -0.00000000000E+00 -0.61032417910E+03  0.61032417910E+03  0.00000000000E+00 0. -1.
         25    2    1    2    0    0 -0.98570856577E+02  0.72283322952E+02  0.80507025769E+03  0.82383461948E+03  0.12499707153E+03 0.  0.
          2    1    1    2  501    0  0.42822280104E+02 -0.31642232665E+02 -0.59748186308E+03  0.59984961055E+03  0.00000000000E+00 0. -1.
          1    1    1    2  502    0  0.55748576473E+02 -0.40641090287E+02  0.52046708633E+03  0.52501960911E+03  0.00000000000E+00 0. -1.
         22    1    3    3    0    0 -0.20845495441E+02  0.39852641788E+02  0.60620111563E+03  0.60786722262E+03  0.00000000000E+00 0.  1.
         22    1    3    3    0    0 -0.77725361136E+02  0.32430681164E+02  0.19886914206E+03  0.21596739686E+03  0.00000000000E+00 0.  1.
</event>
<event>
 7    1  0.6017574E-006  0.8232085E+02  0.7818608E-02  0.1346404E+00
          2   -1    0    0  502    0  0.00000000000E+00  0.00000000000E+00  0.21266845457E+04  0.21266845457E+04  0.00000000000E+00 0. -1.
          1   -1    0    0  501    0 -0.00000000000E+00 -0.00000000000E+00 -0.16659721507E+04  0.16659721507E+04  0.00000000000E+00 0. -1.
         25    2    1    2    0    0 -0.14006794852E+02  0.12985832616E+03  0.28105484889E+03  0.33418199865E+03  0.12500561974E+03 0.  0.
          2    1    1    2  501    0 -0.28190853091E+02 -0.60624626297E+02 -0.16378227239E+04  0.16391867936E+04  0.00000000000E+00 0. -1.
          1    1    1    2  502    0  0.42197647943E+02 -0.69233699859E+02  0.18174802699E+04  0.18192879042E+04  0.00000000000E+00 0. -1.
         22    1    3    3    0    0 -0.27080786332E+02 -0.12423216219E+02  0.95196909793E+02  0.99750473301E+02  0.00000000000E+00 0. -1.
         22    1    3    3    0    0  0.13073991480E+02  0.14228154238E+03  0.18585793909E+03  0.23443152535E+03  0.00000000000E+00 0. -1.
</event>
<event>
 7    1  0.6017574E-006  0.1856172E+03  0.7818608E-02  0.1289876E+00
          2   -1    0    0  502    0  0.00000000000E+00  0.00000000000E+00  0.14627174859E+04  0.14627174859E+04  0.00000000000E+00 0. -1.
          1   -1    0    0  501    0 -0.00000000000E+00 -0.00000000000E+00 -0.30171712151E+03  0.30171712151E+03  0.00000000000E+00 0. -1.
         25    2    1    2    0    0  0.10225367170E+03  0.10639790402E+03  0.16152169769E+03  0.25197377008E+03  0.12500077850E+03 0.  0.
          2    1    1    2  501    0 -0.14900675380E+03 -0.12177396693E+03 -0.21982990465E+03  0.29215937205E+03  0.00000000000E+00 0. -1.
          1    1    1    2  502    0  0.46753082091E+02  0.15376062901E+02  0.12193085714E+04  0.12203014653E+04  0.00000000000E+00 0. -1.
         22    1    3    3    0    0  0.10737677057E+03  0.12949409207E+03  0.13020037428E+03  0.21272195045E+03  0.00000000000E+00 0. -1.
         22    1    3    3    0    0 -0.51230988638E+01 -0.23096188049E+02  0.31321323415E+02  0.39251819637E+02  0.00000000000E+00 0. -1.
</event>
<event>
 7    1  0.6017574E-006  0.4089086E+03  0.7818608E-02  0.1235092E+00
          2   -1    0    0  502    0  0.00000000000E+00  0.00000000000E+00  0.88352214219E+03  0.88352214219E+03  0.00000000000E+00 0. -1.
          1   -1    0    0  501    0 -0.00000000000E+00 -0.00000000000E+00 -0.73127094608E+03  0.73127094608E+03  0.00000000000E+00 0. -1.
         25    2    1    2    0    0  0.41943941530E+03  0.12256565037E+03  0.43001299273E+03  0.62568976279E+03  0.12499897431E+03 0.  0.
          2    1    1    2  501    0 -0.38286887750E+03 -0.13361272734E+03 -0.56714758989E+03  0.69720680360E+03  0.00000000000E+00 0. -1.
          1    1    1    2  502    0 -0.36570537804E+02  0.11047076966E+02  0.28938579327E+03  0.29189652189E+03  0.00000000000E+00 0. -1.
         22    1    3    3    0    0  0.51050575963E+02 -0.25531586567E+02  0.45778734870E+02  0.73169090367E+02  0.00000000000E+00 0. -1.
         22    1    3    3    0    0  0.36838883934E+03  0.14809723694E+03  0.38423425786E+03  0.55252067242E+03  0.00000000000E+00 0. -1.
</event>
<event>
 7    1  0.6017574E-006  0.7673316E+02  0.7818608E-02  0.1401261E+00
          2   -1    0    0  502    0  0.00000000000E+00  0.00000000000E+00  0.18045598028E+02  0.18045598028E+02  0.00000000000E+00 0. -1.
          1   -1    0    0  501    0 -0.00000000000E+00 -0.00000000000E+00 -0.15968156657E+04  0.15968156657E+04  0.00000000000E+00 0. -1.
         25    2    1    2    0    0  0.95526211735E+02 -0.95376120244E+01 -0.95403165556E+03  0.96696325789E+03  0.12500127655E+03 0.  0.
          2    1    1    2  501    0 -0.67519398050E+02 -0.26521850339E+02 -0.57808999497E+03  0.58262365206E+03  0.00000000000E+00 0. -1.
          1    1    1    2  502    0 -0.28006813684E+02  0.36059462364E+02 -0.46648417160E+02  0.65274353787E+02  0.00000000000E+00 0. -1.
         22    1    3    3    0    0  0.85961837832E+02 -0.45099104700E+02 -0.86759777385E+03  0.87301160588E+03  0.00000000000E+00 0.  1.
         22    1    3    3    0    0  0.95643739023E+01  0.35561492676E+02 -0.86433881707E+02  0.93951652015E+02  0.00000000000E+00 0.  1.
</event>
<event>
 7    1  0.6017574E-006  0.7463521E+02  0.7818608E-02  0.1412238E+00
          2   -1    0    0  502    0  0.00000000000E+00  0.00000000000E+00  0.42486307391E+03  0.42486307391E+03  0.00000000000E+00 0. -1.
          1   -1    0    0  501    0 -0.00000000000E+00 -0.00000000000E+00 -0.53900301667E+02  0.53900301667E+02  0.00000000000E+00 0. -1.
         25    2    1    2    0    0 -0.61050918852E+02  0.12981917671E+02  0.16775666532E+03  0.21832778177E+03  0.12501590561E+03 0.  0.
          2    1    1    2  501    0  0.28209154320E+01  0.42978174650E+02  0.14265597133E+01  0.43094270301E+02  0.00000000000E+00 0. -1.
          1    1    1    2  502    0  0.58230003420E+02 -0.55960092322E+02  0.20177954720E+03  0.21734132350E+03  0.00000000000E+00 0. -1.
         22    1    3    3    0    0 -0.69522437257E+02  0.26873745929E+02  0.18202019352E+03  0.19668990404E+03  0.00000000000E+00 0.  1.
         22    1    3    3    0    0  0.84715184049E+01 -0.13891828257E+02 -0.14263528193E+02  0.21637877736E+02  0.00000000000E+00 0.  1.
</event>
<event>
 7    1  0.6017574E-006  0.2314351E+03  0.7818608E-02  0.1194500E+00
          2   -1    0    0  502    0  0.00000000000E+00  0.00000000000E+00  0.52409412845E+03  0.52409412845E+03  0.00000000000E+00 0. -1.
          1   -1    0    0  501    0 -0.00000000000E+00 -0.00000000000E+00 -0.87285102238E+03  0.87285102238E+03  0.00000000000E+00 0. -1.
         25    2    1    2    0    0 -0.12235681581E+03  0.25933881327E+03 -0.10807749854E+03  0.33095752699E+03  0.12499731413E+03 0.  0.
          2    1    1    2  501    0  0.15565145401E+03 -0.16106198199E+03 -0.62708846451E+03  0.66588908949E+03  0.00000000000E+00 0. -1.
          1    1    1    2  502    0 -0.33294638204E+02 -0.98276831278E+02  0.38640906911E+03  0.40009853435E+03  0.00000000000E+00 0. -1.
         22    1    3    3    0    0 -0.51464516020E+02  0.14117681769E+03 -0.12048450945E+03  0.19260323798E+03  0.00000000000E+00 0. -1.
         22    1    3    3    0    0 -0.70892299788E+02  0.11816199558E+03  0.12407010916E+02  0.13835428902E+03  0.00000000000E+00 0. -1.
</event>
<event>
 7    1  0.6017574E-006  0.8839127E+02  0.7818608E-02  0.1474682E+00
          2   -1    0    0  502    0  0.00000000000E+00  0.00000000000E+00  0.34512644709E+03  0.34512644709E+03  0.00000000000E+00 0. -1.
          1   -1    0    0  501    0 -0.00000000000E+00 -0.00000000000E+00 -0.11509104047E+03  0.11509104047E+03  0.00000000000E+00 0. -1.
         25    2    1    2    0    0  0.78238378414E+02  0.62301688179E+01  0.19258833601E+03  0.24264229148E+03  0.12499982236E+03 0.  0.
          2    1    1    2  501    0  0.15034501805E+02  0.17212540726E+02 -0.69844703571E+02  0.73488709471E+02  0.00000000000E+00 0. -1.
          1    1    1    2  502    0 -0.93272880220E+02 -0.23442709544E+02  0.10729177419E+03  0.14408648661E+03  0.00000000000E+00 0. -1.
         22    1    3    3    0    0  0.12346425670E+02 -0.55018559840E+02  0.89909432277E+02  0.10612814031E+03  0.00000000000E+00 0.  1.
         22    1    3    3    0    0  0.65891952744E+02  0.61248728658E+02  0.10267890373E+03  0.13651415117E+03  0.00000000000E+00 0.  1.
</event>
<event>
 7    1  0.6017574E-006  0.1455241E+03  0.7818608E-02  0.1263036E+00
          2   -1    0    0  502    0  0.00000000000E+00  0.00000000000E+00  0.21785698085E+04  0.21785698085E+04  0.00000000000E+00 0. -1.
          1   -1    0    0  501    0 -0.00000000000E+00 -0.00000000000E+00 -0.26755343587E+03  0.26755343587E+03  0.00000000000E+00 0. -1.
         25    2    1    2    0    0  0.96770185564E+02  0.13157636226E+03  0.73775345771E+02  0.21850546003E+03  0.12500010600E+03 0.  0.
          2    1    1    2  501    0 -0.16659278062E+02 -0.14460126064E+03 -0.16711573600E+03  0.22161842284E+03  0.00000000000E+00 0. -1.
          1    1    1    2  502    0 -0.80110907501E+02  0.13024898379E+02  0.20043567628E+04  0.20059993615E+04  0.00000000000E+00 0. -1.
         22    1    3    3    0    0  0.12379151081E+03  0.80921676792E+02  0.47213834786E+02  0.15524755109E+03  0.00000000000E+00 0.  1.
         22    1    3    3    0    0 -0.27021325248E+02  0.50654685469E+02  0.26561510985E+02  0.63257908944E+02  0.00000000000E+00 0.  1.
</event>
<event>
 7    1  0.6017574E-006  0.4183722E+02  0.7818608E-02  0.1537070E+00
          2   -1    0    0  502    0  0.00000000000E+00  0.00000000000E+00  0.34046086176E+03  0.34046086176E+03  0.00000000000E+00 0. -1.
          1   -1    0    0  501    0 -0.00000000000E+00 -0.00000000000E+00 -0.71462054881E+02  0.71462054881E+02  0.00000000000E+00 0. -1.
         25    2    1    2    0    0 -0.12706688584E+02 -0.24302766555E+01  0.10908524610E+03  0.16640620946E+03  0.12499627775E+03 0.  0.
          2    1    1    2  501    0 -0.31542047532E+02 -0.84302018161E+00 -0.34120752604E+02  0.46474048713E+02  0.00000000000E+00 0. -1.
          1    1    1    2  502    0  0.44248736117E+02  0.32732968371E+01  0.19403431338E+03  0.19904265847E+03  0.00000000000E+00 0. -1.
         22    1    3    3    0    0  0.12202263928E+02  0.40273431276E+02  0.10913678223E+03  0.11696872123E+03  0.00000000000E+00 0.  1.
         22    1    3    3    0    0 -0.24908952512E+02 -0.42703707931E+02 -0.51536127248E-01  0.49437488228E+02  0.00000000000E+00 0.  1.
</event>
<event>
 7    1  0.6017574E-006  0.9787334E+02  0.7818608E-02  0.1380878E+00
          2   -1    0    0  502    0  0.00000000000E+00  0.00000000000E+00  0.85137676441E+03  0.85137676441E+03  0.00000000000E+00 0. -1.
          1   -1    0    0  501    0 -0.00000000000E+00 -0.00000000000E+00 -0.95671589326E+03  0.95671589326E+03  0.00000000000E+00 0. -1.
         25    2    1    2    0    0  0.55862023250E+02  0.90095705496E+02  0.12006645140E+01  0.16390420875E+03  0.12500138503E+03 0.  0.
          2    1    1    2  501    0 -0.80406193116E+02 -0.55821795137E+02 -0.87204601802E+03  0.87752235655E+03  0.00000000000E+00 0. -1.
          1    1    1    2  502    0  0.24544169866E+02 -0.34273910359E+02  0.76550622466E+03  0.76666609238E+03  0.00000000000E+00 0. -1.
         22    1    3    3    0    0  0.51005473451E+02  0.11971716162E+03  0.14765024990E+02  0.13096473980E+03  0.00000000000E+00 0. -1.
         22    1    3    3    0    0  0.48565497991E+01 -0.29621456127E+02 -0.13564360476E+02  0.32939468942E+02  0.00000000000E+00 0. -1.
</event>
<event>
 7    1  0.6017574E-006  0.6851311E+02  0.7818608E-02  0.1460199E+00
          2   -1    0    0  502    0  0.00000000000E+00  0.00000000000E+00  0.51947432995E+03  0.51947432995E+03  0.00000000000E+00 0. -1.
          1   -1    0    0  501    0 -0.00000000000E+00 -0.00000000000E+00 -0.96303605960E+02  0.96303605960E+02  0.00000000000E+00 0. -1.
         25    2    1    2    0    0  0.51062703279E+02 -0.72658929358E+02  0.16897716037E+03  0.22817803591E+03  0.12500086266E+03 0.  0.
          2    1    1    2  501    0 -0.31441029840E+02  0.90590753578E+01 -0.58971186833E+02  0.67440389087E+02  0.00000000000E+00 0. -1.
          1    1    1    2  502    0 -0.19621673439E+02  0.63599854000E+02  0.31316475046E+03  0.32015951091E+03  0.00000000000E+00 0. -1.
         22    1    3    3    0    0  0.79557822052E+02 -0.69130067889E+02  0.73543859996E+02  0.12851891954E+03  0.00000000000E+00 0.  1.
         22    1    3    3    0    0 -0.28495118773E+02 -0.35288614689E+01  0.95433300372E+02  0.99659116377E+02  0.00000000000E+00 0.  1.
</event>
<event>
 7    1  0.6017574E-006  0.8341114E+02  0.7818608E-02  0.1471854E+00
          2   -1    0    0  502    0  0.00000000000E+00  0.00000000000E+00  0.89380173536E+02  0.89380173536E+02  0.00000000000E+00 0. -1.
          1   -1    0    0  501    0 -0.00000000000E+00 -0.00000000000E+00 -0.13818305887E+04  0.13818305887E+04  0.00000000000E+00 0. -1.
         25    2    1    2    0    0  0.52735593467E+02  0.86048525588E+02 -0.50378877739E+03  0.52878249646E+03  0.12498961865E+03 0.  0.
          2    1    1    2  501    0 -0.52782443737E+02 -0.61336618337E+02 -0.86161320929E+03  0.86540481253E+03  0.00000000000E+00 0. -1.
          1    1    1    2  502    0  0.46850269799E-01 -0.24711907250E+02  0.72951571545E+02  0.77023453218E+02  0.00000000000E+00 0. -1.
         22    1    3    3    0    0 -0.25700626784E+02  0.31596778981E+01 -0.22992784626E+02  0.34629090753E+02  0.00000000000E+00 0.  1.
         22    1    3    3    0    0  0.78436220252E+02  0.82888847689E+02 -0.48079599276E+03  0.49415340571E+03  0.00000000000E+00 0.  1.
</event>
<event>
 7    1  0.6017574E-006  0.1606015E+03  0.7818608E-02  0.1262120E+00
          2   -1    0    0  502    0  0.00000000000E+00  0.00000000000E+00  0.17470941496E+04  0.17470941496E+04  0.00000000000E+00 0. -1.
          1   -1    0    0  501    0 -0.00000000000E+00 -0.00000000000E+00 -0.12404631151E+04  0.12404631151E+04  0.00000000000E+00 0. -1.
         25    2    1    2    0    0 -0.75341406941E+02  0.77489215695E+02  0.41765647215E+03  0.44915784251E+03  0.12499973043E+03 0.  0.
          2    1    1    2  501    0 -0.41927506679E+02  0.61225109510E+02 -0.12172983742E+04  0.12195580190E+04  0.00000000000E+00 0. -1.
          1    1    1    2  502    0  0.11726891362E+03 -0.13871432521E+03  0.13062729365E+04  0.13188414032E+04  0.00000000000E+00 0. -1.
         22    1    3    3    0    0 -0.30731989519E+02  0.10242176121E+03  0.21455860707E+03  0.23972915596E+03  0.00000000000E+00 0. -1.
         22    1    3    3    0    0 -0.44609417422E+02 -0.24932545517E+02  0.20309786508E+03  0.20942868655E+03  0.00000000000E+00 0. -1.
</event>
<event>
 7    1  0.6017574E-006  0.1482061E+03  0.7818608E-02  0.1355670E+00
          2   -1    0    0  502    0  0.00000000000E+00  0.00000000000E+00  0.12872516148E+04  0.12872516148E+04  0.00000000000E+00 0. -1.
          1   -1    0    0  501    0 -0.00000000000E+00 -0.00000000000E+00 -0.11394188499E+04  0.11394188499E+04  0.00000000000E+00 0. -1.
         25    2    1    2    0    0 -0.10061242714E+03 -0.70589129987E+02 -0.19224104816E+03  0.26016618681E+03  0.12499655353E+03 0.  0.
          2    1    1    2  501    0  0.13487698118E+03  0.72507774673E+02 -0.90655803171E+03  0.91940015352E+03  0.00000000000E+00 0. -1.
          1    1    1    2  502    0 -0.34264554041E+02 -0.19186446856E+01  0.12466318447E+04  0.12471041244E+04  0.00000000000E+00 0. -1.
         22    1    3    3    0    0 -0.74582268129E+02  0.10120789205E+02 -0.14429980981E+03  0.16274943995E+03  0.00000000000E+00 0. -1.
         22    1    3    3    0    0 -0.26030159013E+02 -0.80709919192E+02 -0.47941238355E+02  0.97416746862E+02  0.00000000000E+00 0. -1.
</event>
<event>
 7    1  0.6017574E-006  0.3593497E+02  0.7818608E-02  0.1596574E+00
          2   -1    0    0  502    0  0.00000000000E+00  0.00000000000E+00  0.25997907888E+03  0.25997907888E+03  0.00000000000E+00 0. -1.
          1   -1    0    0  501    0 -0.00000000000E+00 -0.00000000000E+00 -0.12568063148E+03  0.12568063148E+03  0.00000000000E+00 0. -1.
         25    2    1    2    0    0 -0.17564522854E+01  0.51271593059E+02  0.83533201664E+02  0.15885240173E+03  0.12499771348E+03 0.  0.
          2    1    1    2  501    0  0.16468331290E+02 -0.19173801641E+02 -0.83882125970E+02  0.87607372191E+02  0.00000000000E+00 0. -1.
          1    1    1    2  502    0 -0.14711879005E+02 -0.32097791418E+02  0.13464737171E+03  0.13919993644E+03  0.00000000000E+00 0. -1.
         22    1    3    3    0    0  0.37861176968E+02 -0.26245799560E+02  0.42234228262E+02  0.62498326000E+02  0.00000000000E+00 0. -1.
         22    1    3    3    0    0 -0.39617629253E+02  0.77517392619E+02  0.41298973402E+02  0.96354075732E+02  0.00000000000E+00 0. -1.
</event>
<event>
 7    1  0.6017574E-006  0.1333745E+03  0.7818608E-02  0.1386255E+00
          2   -1    0    0  502    0  0.00000000000E+00  0.00000000000E+00  0.15118049056E+04  0.15118049056E+04  0.00000000000E+00 0. -1.
          1   -1    0    0  501    0 -0.00000000000E+00 -0.00000000000E+00 -0.16403386542E+04  0.16403386542E+04  0.00000000000E+00 0. -1.
         25    2    1    2    0    0  0.48337597884E+02  0.97976834813E+02  0.30441850959E+03  0.34674420979E+03  0.12499973805E+03 0.  0.
          2    1    1    2  501    0  0.19853102490E+02  0.21974732524E+02 -0.16150272080E+04  0.16152987084E+04  0.00000000000E+00 0. -1.
          1    1    1    2  502    0 -0.68190700374E+02 -0.11995156734E+03  0.11820749499E+04  0.11901006416E+04  0.00000000000E+00 0. -1.
         22    1    3    3    0    0 -0.42307904072E+02  0.40769748308E+02  0.11270706722E+03  0.12710237655E+03  0.00000000000E+00 0.  1.
         22    1    3    3    0    0  0.90645501957E+02  0.57207086505E+02  0.19171144237E+03  0.21964183324E+03  0.00000000000E+00 0.  1.
</event>
<event>
 7    1  0.6017574E-006  0.9417011E+02  0.7818608E-02  0.1420823E+00
          2   -1    0    0  502    0  0.00000000000E+00  0.00000000000E+00  0.26627510997E+04  0.26627510997E+04  0.00000000000E+00 0. -1.
          1   -1    0    0  501    0 -0.00000000000E+00 -0.00000000000E+00 -0.72954281483E+02  0.72954281483E+02  0.00000000000E+00 0. -1.
         25    2    1    2    0    0 -0.10958250067E+03  0.43572903066E+02  0.30237858176E+03  0.34779520254E+03  0.12498709480E+03 0.  0.
          2    1    1    2  501    0  0.31176418872E+02  0.69622902979E+01 -0.44140092949E+02  0.54486607395E+02  0.00000000000E+00 0. -1.
          1    1    1    2  502    0  0.78406081802E+02 -0.50535193363E+02  0.23315583294E+04  0.23334235712E+04  0.00000000000E+00 0. -1.
         22    1    3    3    0    0 -0.13517497784E+03  0.21258050603E+02  0.22579556420E+03  0.26402237815E+03  0.00000000000E+00 0. -1.
         22    1    3    3    0    0  0.25592477170E+02  0.22314852462E+02  0.76583017560E+02  0.83772824392E+02  0.00000000000E+00 0. -1.
</event>
<event>
 7    1  0.6017574E-006  0.7679334E+02  0.7818608E-02  0.1452005E+00
          2   -1    0    0  502    0  0.00000000000E+00  0.00000000000E+00  0.79118953602E+03  0.79118953602E+03  0.00000000000E+00 0. -1.
          1   -1    0    0  501    0 -0.00000000000E+00 -0.00000000000E+00 -0.52781048200E+03  0.52781048200E+03  0.00000000000E+00 0. -1.
         25    2    1    2    0    0 -0.50886394847E+02 -0.94779589191E+02 -0.27078076978E+03  0.31704890831E+03  0.12500075708E+03 0.  0.
          2    1    1    2  501    0  0.14082421373E+02  0.27608381059E+02 -0.23094839949E+03  0.23301866990E+03  0.00000000000E+00 0. -1.
          1    1    1    2  502    0  0.36803973474E+02  0.67171208132E+02  0.76510822328E+03  0.76893243982E+03  0.00000000000E+00 0. -1.
         22    1    3    3    0    0 -0.43193578118E+02 -0.67020639567E+02 -0.49388501328E+02  0.93790593249E+02  0.00000000000E+00 0. -1.
         22    1    3    3    0    0 -0.76928167284E+01 -0.27758949624E+02 -0.22139226845E+03  0.22325831506E+03  0.00000000000E+00 0. -1.
</event>
<event>
 7    1  0.6017574E-006  0.4397931E+02  0.7818608E-02  0.1482075E+00
          2   -1    0    0  502    0  0.00000000000E+00  0.00000000000E+00  0.13926628249E+04  0.13926628249E+04  0.00000000000E+00 0. -1.
          1   -1    0    0  501    0 -0.00000000000E+00 -0.00000000000E+00 -0.32618889620E+02  0.32618889620E+02  0.00000000000E+00 0. -1.
         25    2    1    2    0    0  0.25989380212E+01 -0.37057041115E+01  0.18302819190E+03  0.22169134894E+03  0.12500899344E+03 0.  0.
          2    1    1    2  501    0  0.40824822425E+02  0.15280252362E+02  0.24119732794E+02  0.49818809182E+02  0.00000000000E+00 0. -1.
          1    1    1    2  502    0 -0.43423760446E+02 -0.11574548251E+02  0.11528960106E+04  0.11537715564E+04  0.00000000000E+00 0. -1.
         22    1    3    3    0    0  0.36919297807E+02  0.47436460632E+02  0.64831987064E+02  0.88410626593E+02  0.00000000000E+00 0.  1.
         22    1    3    3    0    0 -0.34320359786E+02 -0.51142164744E+02  0.11819620484E+03  0.13328072235E+03  0.00000000000E+00 0.  1.
</event>
<event>
 7    1  0.6017574E-006  0.6606701E+02  0.7818608E-02  0.1536492E+00
          2   -1    0    0  502    0  0.00000000000E+00  0.00000000000E+00  0.64570791976E+03  0.64570791976E+03  0.00000000000E+00 0. -1.
          1   -1    0    0  501    0 -0.00000000000E+00 -0.00000000000E+00 -0.16237996909E+04  0.16237996909E+04  0.00000000000E+00 0. -1.
         25    2    1    2    0    0 -0.56112354957E+02 -0.44289402621E+02  0.34216455547E+03  0.37123129588E+03  0.12500377778E+03 0.  0.
          2    1    1    2  501    0  0.38421438092E+02  0.53740011003E+02 -0.16082393930E+04  0.16095956451E+04  0.00000000000E+00 0. -1.
          1    1    1    2  502    0  0.17690916864E+02 -0.94506083820E+01  0.28798306635E+03  0.28868066967E+03  0.00000000000E+00 0. -1.
         22    1    3    3    0    0  0.84275721837E+00 -0.77443614862E+02  0.20229774659E+03  0.21661625516E+03  0.00000000000E+00 0.  1.
         22    1    3    3    0    0 -0.56955112175E+02  0.33154212241E+02  0.13986680888E+03  0.15461504073E+03  0.00000000000E+00 0.  1.
</event>
<event>
 7    1  0.6017574E-006  0.3412891E+02  0.7818608E-02  0.1581688E+00
          2   -1    0    0  502    0  0.00000000000E+00  0.00000000000E+00  0.27715361047E+03  0.27715361047E+03  0.00000000000E+00 0. -1.
          1   -1    0    0  501    0 -0.00000000000E+00 -0.00000000000E+00 -0.12014164117E+03  0.12014164117E+03  0.00000000000E+00 0. -1.
         25    2    1    2    0    0  0.21390151625E+02  0.58340037837E+02  0.48218939062E+02  0.14768477095E+03  0.12499850754E+03 0.  0.
          2    1    1    2  501    0 -0.10855346036E+02 -0.31167621579E+02 -0.65261910763E+02  0.73132593069E+02  0.00000000000E+00 0. -1.
          1    1    1    2  502    0 -0.10534805589E+02 -0.27172416258E+02  0.17405494100E+03  0.17647788762E+03  0.00000000000E+00 0. -1.
         22    1    3    3    0    0  0.54621951837E+02  0.81916019799E+02  0.29033831224E+02  0.10264869837E+03  0.00000000000E+00 0. -1.
         22    1    3    3    0    0 -0.33231800212E+02 -0.23575981962E+02  0.19185107838E+02  0.45036072581E+02  0.00000000000E+00 0. -1.
</event>
<event>
 7    1  0.6017574E-006  0.5313819E+02  0.7818608E-02  0.1510133E+00
          2   -1    0    0  502    0  0.00000000000E+00  0.00000000000E+00  0.49020033971E+03  0.49020033971E+03  0.00000000000E+00 0. -1.
          1   -1    0    0  501    0 -0.00000000000E+00 -0.00000000000E+00 -0.17664418724E+03  0.17664418724E+03  0.00000000000E+00 0. -1.
         25    2    1    2    0    0  0.34276479853E+02 -0.15535364644E+01 -0.43941695939E+02  0.13687529604E+03  0.12500673373E+03 0.  0.
          2    1    1    2  501    0 -0.53652682407E+02 -0.20982034772E+02 -0.76048381400E+02  0.95405515701E+02  0.00000000000E+00 0. -1.
          1    1    1    2  502    0  0.19376202554E+02  0.22535571236E+02  0.43354622981E+03  0.43456371521E+03  0.00000000000E+00 0. -1.
         22    1    3    3    0    0 -0.33230494159E+02 -0.23715832503E+02  0.16066963713E+02  0.43873155531E+02  0.00000000000E+00 0. -1.
         22    1    3    3    0    0  0.67506974011E+02  0.22162296038E+02 -0.60008659652E+02  0.93002140508E+02  0.00000000000E+00 0. -1.
</event>
<event>
 7    1  0.6017574E-006  0.1014610E+03  0.7818608E-02  0.1381568E+00
          2   -1    0    0  502    0  0.00000000000E+00  0.00000000000E+00  0.12427458272E+04  0.12427458272E+04  0.00000000000E+00 0. -1.
          1   -1    0    0  501    0 -0.00000000000E+00 -0.00000000000E+00 -0.25953893741E+03  0.25953893741E+03  0.00000000000E+00 0. -1.
         25    2    1    2    0    0 -0.81034796410E+02 -0.83103803556E+02  0.78263614125E+02  0.18768010329E+03  0.12500298989E+03 0.  0.
          2    1    1    2  501    0  0.41526242243E+02  0.91722625973E+02 -0.19206263691E+03  0.21685369585E+03  0.00000000000E+00 0. -1.
          1    1    1    2  502    0  0.39508554167E+02 -0.86188224166E+01  0.10970059126E+04  0.10977509654E+04  0.00000000000E+00 0. -1.
         22    1    3    3    0    0 -0.44403948366E+02  0.28664276599E+02  0.27448529660E+02  0.59554791276E+02  0.00000000000E+00 0.  1.
         22    1    3    3    0    0 -0.36630848044E+02 -0.11176808016E+03  0.50815084465E+02  0.12812531202E+03  0.00000000000E+00 0.  1.
</event>
<event>
 7    1  0.6017574E-006  0.2214035E+03  0.7818608E-02  0.1338501E+00
          2   -1    0    0  502    0  0.00000000000E+00  0.00000000000E+00  0.83099174359E+03  0.83099174359E+03  0.00000000000E+00 0. -1.
          1   -1    0    0  501    0 -0.00000000000E+00 -0.00000000000E+00 -0.21433798741E+03  0.21433798741E+03  0.00000000000E+00 0. -1.
         25    2    1    2    0    0  0.74390351835E+01 -0.20183698602E+03  0.12080726987E+03  0.26648135242E+03  0.12499762624E+03 0.  0.
          2    1    1    2  501    0  0.10938716595E+02 -0.24261619074E+02 -0.11980990039E+03  0.12273016708E+03  0.00000000000E+00 0. -1.
          1    1    1    2  502    0 -0.18377751778E+02  0.22609860509E+03  0.61565638669E+03  0.65611821150E+03  0.00000000000E+00 0. -1.
         22    1    3    3    0    0  0.23682076719E+02 -0.56895877416E+01  0.52967655502E+02  0.58299096870E+02  0.00000000000E+00 0.  1.
         22    1    3    3    0    0 -0.16243041536E+02 -0.19614739828E+03  0.67839614368E+02  0.20818225555E+03  0.00000000000E+00 0.  1.
</event>
<event>
 7    1  0.6017574E-006  0.1073029E+03  0.7818608E-02  0.1365755E+00
          2   -1    0    0  502    0  0.00000000000E+00  0.00000000000E+00  0.20418924034E+04  0.20418924034E+04  0.00000000000E+00 0. -1.
          1   -1    0    0  501    0 -0.00000000000E+00 -0.00000000000E+00 -0.11026055328E+04  0.11026055328E+04  0.00000000000E+00 0. -1.
         25    2    1    2    0    0  0.38899640135E+02  0.57035136596E+02  0.12241703252E+03  0.18808721159E+03  0.12499872202E+03 0.  0.
          2    1    1    2  501    0  0.40687603281E+01  0.43361998591E+02 -0.10677458336E+04  0.10686336991E+04  0.00000000000E+00 0. -1.
          1    1    1    2  502    0 -0.42968400463E+02 -0.10039713519E+03  0.18846156716E+04  0.18877770255E+04  0.00000000000E+00 0. -1.
         22    1    3    3    0    0  0.68418671664E+01 -0.21550047484E+02 -0.14599401488E+02  0.26913903781E+02  0.00000000000E+00 0. -1.
         22    1    3    3    0    0  0.32057772968E+02  0.78585184081E+02  0.13701643400E+03  0.16117330781E+03  0.00000000000E+00 0. -1.
</event>
<event>
 7    1  0.6017574E-006  0.3150974E+02  0.7818608E-02  0.1633462E+00
          2   -1    0    0  502    0  0.00000000000E+00  0.00000000000E+00  0.28786773921E+02  0.28786773921E+02  0.00000000000E+00 0. -1.
          1   -1    0    0  501    0 -0.00000000000E+00 -0.00000000000E+00 -0.63122482570E+03  0.63122482570E+03  0.00000000000E+00 0. -1.
         25    2    1    2    0    0  0.26925335999E+02  0.13387013952E+02 -0.34147223966E+03  0.36487335231E+03  0.12500034762E+03 0.  0.
          2    1    1    2  501    0 -0.16128570356E+02  0.16655870258E+02 -0.26216835402E+03  0.26319155504E+03  0.00000000000E+00 0. -1.
          1    1    1    2  502    0 -0.10796765642E+02 -0.30042884210E+02  0.12025419007E+01  0.31946692270E+02  0.00000000000E+00 0. -1.
         22    1    3    3    0    0  0.47598383314E+02 -0.45589436209E+01 -0.40512159521E+02  0.62670767748E+02  0.00000000000E+00 0.  1.
         22    1    3    3    0    0 -0.20673047316E+02  0.17945957573E+02 -0.30096008014E+03  0.30220258456E+03  0.00000000000E+00 0.  1.
</event>
<event>
 7    1  0.6017574E-006  0.5318693E+02  0.7818608E-02  0.1469189E+00
          2   -1    0    0  502    0  0.00000000000E+00  0.00000000000E+00  0.31302114568E+03  0.31302114568E+03  0.00000000000E+00 0. -1.
          1   -1    0    0  501    0 -0.00000000000E+00 -0.00000000000E+00 -0.16401054875E+03  0.16401054875E+03  0.00000000000E+00 0. -1.
         25    2    1    2    0    0  0.21215716865E+02 -0.81722639559E+02  0.17089884798E+03  0.22794643579E+03  0.12499785953E+03 0.  0.
          2    1    1    2  501    0 -0.29859976546E+02  0.43178944019E+02 -0.12666310043E+03  0.13711156194E+03  0.00000000000E+00 0. -1.
          1    1    1    2  502    0  0.86442596812E+01  0.38543695539E+02  0.10477484938E+03  0.11197369671E+03  0.00000000000E+00 0. -1.
         22    1    3    3    0    0 -0.28887077314E+02 -0.93764536518E+02  0.97991111642E+02  0.13866690126E+03  0.00000000000E+00 0. -1.
         22    1    3    3    0    0  0.50102794179E+02  0.12041896960E+02  0.72907736342E+02  0.89279534528E+02  0.00000000000E+00 0. -1.
</event>
<event>
 7    1  0.6415791E-006  0.5037683E+02  0.7818608E-02  0.1465443E+00
          2   -1    0    0  502    0  0.00000000000E+00  0.00000000000E+00  0.37890970687E+03  0.37890970687E+03  0.00000000000E+00 0. -1.
          1   -1    0    0  501    0 -0.00000000000E+00 -0.00000000000E+00 -0.19855130637E+04  0.19855130637E+04  0.00000000000E+00 0. -1.
         25    2    1    2    0    0  0.23944270400E+02 -0.72653573848E+01 -0.54122480872E+03  0.55603567409E+03  0.12500105513E+03 0.  0.
          2    1    1    2  501    0 -0.10748271075E+02 -0.41472726715E+02 -0.14348459220E+04  0.14354853995E+04  0.00000000000E+00 0. -1.
          1    1    1    2  502    0 -0.13195999325E+02  0.48738084099E+02  0.36946737388E+03  0.37290169696E+03  0.00000000000E+00 0. -1.
         22    1    3    3    0    0  0.38683190478E+02  0.36136954896E+01 -0.44910949803E+02  0.59383848249E+02  0.00000000000E+00 0. -1.
         22    1    3    3    0    0 -0.14738920078E+02 -0.10879052874E+02 -0.49631385892E+03  0.49665182584E+03  0.00000000000E+00 0. -1.
</event>
<event>
 7    1  0.6017574E-006  0.1763847E+03  0.7818608E-02  0.1219186E+00
          2   -1    0    0  502    0  0.00000000000E+00  0.00000000000E+00  0.97493229239E+03  0.97493229239E+03  0.00000000000E+00 0. -1.
          1   -1    0    0  501    0 -0.00000000000E+00 -0.00000000000E+00 -0.22159994861E+03  0.22159994861E+03  0.00000000000E+00 0. -1.
         25    2    1    2    0    0  0.56072977426E+02 -0.69848707390E+01  0.30665930201E+03  0.33593880168E+03  0.12498793440E+03 0.  0.
          2    1    1    2  501    0 -0.34861321889E+02 -0.17290537092E+03 -0.15341170458E+03  0.23376640083E+03  0.00000000000E+00 0. -1.
          1    1    1    2  502    0 -0.21211655537E+02  0.17989024166E+03  0.60008474636E+03  0.62682703849E+03  0.00000000000E+00 0. -1.
         22    1    3    3    0    0  0.85851270995E+02  0.26377266262E+02  0.17181312571E+03  0.19387096501E+03  0.00000000000E+00 0. -1.
         22    1    3    3    0    0 -0.29778293569E+02 -0.33362137001E+02  0.13484617630E+03  0.14206783667E+03  0.00000000000E+00 0. -1.
</event>
<event>
 7    1  0.6017574E-006  0.1302760E+03  0.7818608E-02  0.1318421E+00
          2   -1    0    0  502    0  0.00000000000E+00  0.00000000000E+00  0.22422071893E+04  0.22422071893E+04  0.00000000000E+00 0. -1.
          1   -1    0    0  501    0 -0.00000000000E+00 -0.00000000000E+00 -0.58891513255E+03  0.58891513255E+03  0.00000000000E+00 0. -1.
         25    2    1    2    0    0  0.16965914965E+03 -0.64726353583E+02  0.53204703192E+03  0.57591230348E+03  0.12500883655E+03 0.  0.
          2    1    1    2  501    0 -0.12492511949E+03  0.34495524934E+02 -0.55913728210E+03  0.57396056219E+03  0.00000000000E+00 0. -1.
          1    1    1    2  502    0 -0.44734030157E+02  0.30230828648E+02  0.16803823069E+04  0.16812494562E+04  0.00000000000E+00 0. -1.
         22    1    3    3    0    0  0.14875323401E+03 -0.88552347423E+02  0.34283552609E+03  0.38406411029E+03  0.00000000000E+00 0. -1.
         22    1    3    3    0    0  0.20905915633E+02  0.23825993840E+02  0.18921150584E+03  0.19184819320E+03  0.00000000000E+00 0. -1.
</event>
<event>
 7    1  0.6017574E-006  0.6851545E+02  0.7818608E-02  0.1375667E+00
          2   -1    0    0  502    0  0.00000000000E+00  0.00000000000E+00  0.32520922382E+04  0.32520922382E+04  0.00000000000E+00 0. -1.
          1   -1    0    0  501    0 -0.00000000000E+00 -0.00000000000E+00 -0.49385847809E+02  0.49385847809E+02  0.00000000000E+00 0. -1.
         25    2    1    2    0    0  0.49492558410E+01  0.13077498354E+02  0.15566919892E+04  0.15617652460E+04  0.12500087299E+03 0.  0.
          2    1    1    2  501    0  0.25326564139E+02  0.63662639094E+02 -0.20220520863E+02  0.71436936745E+02  0.00000000000E+00 0. -1.
          1    1    1    2  502    0 -0.30275819980E+02 -0.76740137448E+02  0.16662349221E+04  0.16682759033E+04  0.00000000000E+00 0. -1.
         22    1    3    3    0    0 -0.62712404043E+01  0.27844211933E+01  0.15363018177E+04  0.15363171406E+04  0.00000000000E+00 0. -1.
         22    1    3    3    0    0  0.11220496245E+02  0.10293077160E+02  0.20390171466E+02  0.25448105348E+02  0.00000000000E+00 0. -1.
</event>
<event>
 7    1  0.6017574E-006  0.1226847E+03  0.7818608E-02  0.1372244E+00
          2   -1    0    0  502    0  0.00000000000E+00  0.00000000000E+00  0.24196525768E+03  0.24196525768E+03  0.00000000000E+00 0. -1.
          1   -1    0    0  501    0 -0.00000000000E+00 -0.00000000000E+00 -0.15622236206E+04  0.15622236206E+04  0.00000000000E+00 0. -1.
         25    2    1    2    0    0  0.12042987205E+03 -0.10054123641E+03 -0.10377096901E+04  0.10569191920E+04  0.12499953232E+03 0.  0.
          2    1    1    2  501    0 -0.21302417243E+02  0.29140806297E+02 -0.49815363510E+03  0.49945973185E+03  0.00000000000E+00 0. -1.
          1    1    1    2  502    0 -0.99127454807E+02  0.71400430111E+02  0.21560496236E+03  0.24780995442E+03  0.00000000000E+00 0. -1.
         22    1    3    3    0    0  0.61014840724E+01 -0.10314864716E+02 -0.49088818774E+03  0.49103445643E+03  0.00000000000E+00 0.  1.
         22    1    3    3    0    0  0.11432838798E+03 -0.90226371691E+02 -0.54682150239E+03  0.56588473554E+03  0.00000000000E+00 0.  1.
</event>
<event>
 7    1  0.6017574E-006  0.5332452E+02  0.7818608E-02  0.1507017E+00
          2   -1    0    0  502    0  0.00000000000E+00  0.00000000000E+00  0.32760261828E+03  0.32760261828E+03  0.00000000000E+00 0. -1.
          1   -1    0    0  501    0 -0.00000000000E+00 -0.00000000000E+00 -0.31455218421E+03  0.31455218421E+03  0.00000000000E+00 0. -1.
         25    2    1    2    0    0 -0.28818921132E+02  0.42897459773E+02 -0.14106877066E+03  0.19543770025E+03  0.12499909742E+03 0.  0.
          2    1    1    2  501    0  0.28343485545E+02  0.10568034522E+02 -0.14231766006E+03  0.14549691712E+03  0.00000000000E+00 0. -1.
          1    1    1    2  502    0  0.47543558660E+00 -0.53465494294E+02  0.29643686479E+03  0.30122018512E+03  0.00000000000E+00 0. -1.
         22    1    3    3    0    0 -0.35270281158E+02  0.84567446776E+02 -0.82689896664E+02  0.12342311290E+03  0.00000000000E+00 0. -1.
         22    1    3    3    0    0  0.64513600263E+01 -0.41669987003E+02 -0.58378873997E+02  0.72014587357E+02  0.00000000000E+00 0. -1.
</event>
<event>
 7    1  0.6017574E-006  0.7927615E+02  0.7818608E-02  0.1338170E+00
          2   -1    0    0  502    0  0.00000000000E+00  0.00000000000E+00  0.28453008652E+03  0.28453008652E+03  0.00000000000E+00 0. -1.
          1   -1    0    0  501    0 -0.00000000000E+00 -0.00000000000E+00 -0.82505315814E+03  0.82505315814E+03  0.00000000000E+00 0. -1.
         25    2    1    2    0    0 -0.26633182516E+02 -0.45778692505E+02 -0.13557948205E+03  0.19186387124E+03  0.12499973614E+03 0.  0.
          2    1    1    2  501    0 -0.42931509723E+02  0.72557108956E+02 -0.65314642033E+03  0.65856502715E+03  0.00000000000E+00 0. -1.
          1    1    1    2  502    0  0.69564692239E+02 -0.26778416451E+02  0.24820283076E+03  0.25915434627E+03  0.00000000000E+00 0. -1.
         22    1    3    3    0    0 -0.29856406833E+02 -0.15537432552E+02  0.15997664323E+02  0.37265830234E+02  0.00000000000E+00 0. -1.
         22    1    3    3    0    0  0.32232243169E+01 -0.30241259953E+02 -0.15157714637E+03  0.15459804100E+03  0.00000000000E+00 0. -1.
</event>
<event>
 7    1  0.6017574E-006  0.5649338E+02  0.7818608E-02  0.1448067E+00
          2   -1    0    0  502    0  0.00000000000E+00  0.00000000000E+00  0.58044952409E+03  0.58044952409E+03  0.00000000000E+00 0. -1.
          1   -1    0    0  501    0 -0.00000000000E+00 -0.00000000000E+00 -0.10247626458E+03  0.10247626458E+03  0.00000000000E+00 0. -1.
         25    2    1    2    0    0 -0.54036232722E+02 -0.79587872613E+02  0.16538963743E+03  0.22854495655E+03  0.12499968434E+03 0.  0.
          2    1    1    2  501    0  0.22970934238E+02  0.49325286981E+02 -0.59008679396E+02  0.80266256918E+02  0.00000000000E+00 0. -1.
          1    1    1    2  502    0  0.31065298485E+02  0.30262585633E+02  0.37159230148E+03  0.37411457520E+03  0.00000000000E+00 0. -1.
         22    1    3    3    0    0 -0.12038858793E+02 -0.91690825247E+02  0.15959979975E+03  0.18445660095E+03  0.00000000000E+00 0.  1.
         22    1    3    3    0    0 -0.41997373929E+02  0.12102952633E+02  0.57898376816E+01  0.44088355603E+02  0.00000000000E+00 0.  1.
</event>
<event>
 7    1  0.6017574E-006  0.1679078E+03  0.7818608E-02  0.1251147E+00
          2   -1    0    0  502    0  0.00000000000E+00  0.00000000000E+00  0.14827275836E+04  0.14827275836E+04  0.00000000000E+00 0. -1.
          1   -1    0    0  501    0 -0.00000000000E+00 -0.00000000000E+00 -0.16574034204E+03  0.16574034204E+03  0.00000000000E+00 0. -1.
         25    2    1    2    0    0  0.98006078709E+02  0.21509937882E+03  0.44285859237E+03  0.51732161680E+03  0.12499995255E+03 0.  0.
          2    1    1    2  501    0 -0.83692449781E+02 -0.13730026125E+03 -0.75913639940E+02  0.17781639019E+03  0.00000000000E+00 0. -1.
          1    1    1    2  502    0 -0.14313628928E+02 -0.77799117570E+02  0.95004228916E+03  0.95332991869E+03  0.00000000000E+00 0. -1.
         22    1    3    3    0    0  0.95083989055E+02  0.91557517615E+02  0.15209281710E+03  0.20138512611E+03  0.00000000000E+00 0.  1.
         22    1    3    3    0    0  0.29220896537E+01  0.12354186121E+03  0.29076577527E+03  0.31593649068E+03  0.00000000000E+00 0.  1.
</event>
<event>
 7    1  0.6017574E-006  0.6197082E+02  0.7818608E-02  0.1396859E+00
          2   -1    0    0  502    0  0.00000000000E+00  0.00000000000E+00  0.23960923081E+04  0.23960923081E+04  0.00000000000E+00 0. -1.
          1   -1    0    0  501    0 -0.00000000000E+00 -0.00000000000E+00 -0.37126938128E+02  0.37126938128E+02  0.00000000000E+00 0. -1.
         25    2    1    2    0    0 -0.57606492079E+02  0.10378825890E+03  0.10574305402E+04  0.10713891356E+04  0.12499928721E+03 0.  0.
          2    1    1    2  501    0  0.32014065705E+02 -0.51135970090E+02  0.13682173192E+01  0.60346166893E+02  0.00000000000E+00 0. -1.
          1    1    1    2  502    0  0.25592426374E+02 -0.52652288813E+02  0.13001666125E+04  0.13014839438E+04  0.00000000000E+00 0. -1.
         22    1    3    3    0    0 -0.17565156142E+00  0.32871997661E+02  0.74952458370E+03  0.75024509372E+03  0.00000000000E+00 0.  1.
         22    1    3    3    0    0 -0.57430840517E+02  0.70916261242E+02  0.30790595652E+03  0.32114404185E+03  0.00000000000E+00 0.  1.
</event>
<event>
 7    1  0.6017574E-006  0.3314400E+02  0.7818608E-02  0.1640883E+00
          2   -1    0    0  502    0  0.00000000000E+00  0.00000000000E+00  0.72351912582E+03  0.72351912582E+03  0.00000000000E+00 0. -1.
          1   -1    0    0  501    0 -0.00000000000E+00 -0.00000000000E+00 -0.73089687763E+03  0.73089687763E+03  0.00000000000E+00 0. -1.
         25    2    1    2    0    0  0.41022213641E+01  0.19351973904E+02 -0.43225042948E+02  0.13373536890E+03  0.12500166976E+03 0.  0.
          2    1    1    2  501    0  0.20982491185E+02  0.24328182777E+01 -0.64183596774E+03  0.64218345745E+03  0.00000000000E+00 0. -1.
          1    1    1    2  502    0 -0.25084712549E+02 -0.21784792182E+02  0.67768325888E+03  0.67849717710E+03  0.00000000000E+00 0. -1.
         22    1    3    3    0    0  0.35802755054E+02  0.60902677177E+02 -0.88919641834E+01  0.71204216054E+02  0.00000000000E+00 0.  1.
         22    1    3    3    0    0 -0.31700533690E+02 -0.41550703273E+02 -0.34333078765E+02  0.62531152846E+02  0.00000000000E+00 0.  1.
</event>
<event>
 7    1  0.6017574E-006  0.6349996E+02  0.7818608E-02  0.1428528E+00
          2   -1    0    0  502    0  0.00000000000E+00  0.00000000000E+00  0.60703693216E+02  0.60703693216E+02  0.00000000000E+00 0. -1.
          1   -1    0    0  501    0 -0.00000000000E+00 -0.00000000000E+00 -0.51258447160E+03  0.51258447160E+03  0.00000000000E+00 0. -1.
         25    2    1    2    0    0 -0.49201950936E+02  0.48589128969E+02 -0.61617845753E+02  0.15557648589E+03  0.12500219444E+03 0.  0.
          2    1    1    2  501    0  0.41445060695E+02  0.16653310070E+02 -0.31352066043E+03  0.31668632795E+03  0.00000000000E+00 0. -1.
          1    1    1    2  502    0  0.77568902414E+01 -0.65242439039E+02 -0.76742272194E+02  0.10102535097E+03  0.00000000000E+00 0. -1.
         22    1    3    3    0    0  0.10968801556E+01  0.34854352797E+02  0.32700649663E+02  0.47805455163E+02  0.00000000000E+00 0.  1.
         22    1    3    3    0    0 -0.50298831092E+02  0.13734776173E+02 -0.94318495416E+02  0.10777103072E+03  0.00000000000E+00 0.  1.
</event>
<event>
 7    1  0.6017574E-006  0.6307602E+02  0.7818608E-02  0.1410171E+00
          2   -1    0    0  502    0  0.00000000000E+00  0.00000000000E+00  0.42482042882E+02  0.42482042882E+02  0.00000000000E+00 0. -1.
          1   -1    0    0  501    0 -0.00000000000E+00 -0.00000000000E+00 -0.12956547702E+04  0.12956547702E+04  0.00000000000E+00 0. -1.
         25    2    1    2    0    0  0.84701061490E+02  0.66650968632E+02 -0.53051492564E+03  0.55559622082E+03  0.12499781127E+03 0.  0.
          2    1    1    2  501    0 -0.37322932355E+02 -0.45731251161E+02 -0.72807771205E+03  0.73046663401E+03  0.00000000000E+00 0. -1.
          1    1    1    2  502    0 -0.47378129135E+02 -0.20919717471E+02  0.54199103794E+01  0.52073958251E+02  0.00000000000E+00 0. -1.
         22    1    3    3    0    0 -0.10366401530E+01  0.76468179669E+02 -0.29557785993E+03  0.30531087175E+03  0.00000000000E+00 0.  1.
         22    1    3    3    0    0  0.85737701643E+02 -0.98172110372E+01 -0.23493706571E+03  0.25028534907E+03  0.00000000000E+00 0.  1.
</event>
<event>
 7    1  0.6017574E-006  0.4387873E+02  0.7818608E-02  0.1539557E+00
          2   -1    0    0  502    0  0.00000000000E+00  0.00000000000E+00  0.63741709146E+02  0.63741709146E+02  0.00000000000E+00 0. -1.
          1   -1    0    0  501    0 -0.00000000000E+00 -0.00000000000E+00 -0.13061593190E+04  0.13061593190E+04  0.00000000000E+00 0. -1.
         25    2    1    2    0    0  0.38979000030E+02 -0.61936112522E+02 -0.90554088535E+02  0.17082242934E+03  0.12499925974E+03 0.  0.
          2    1    1    2  501    0 -0.23014386190E+02  0.37009173421E+02 -0.11656219253E+04  0.11664363736E+04  0.00000000000E+00 0. -1.
          1    1    1    2  502    0 -0.15964613840E+02  0.24926939101E+02  0.13758403973E+02  0.32642225229E+02  0.00000000000E+00 0. -1.
         22    1    3    3    0    0  0.46506001617E+01 -0.93819042103E+02 -0.40589930325E+02  0.10232879940E+03  0.00000000000E+00 0. -1.
         22    1    3    3    0    0  0.34328399868E+02  0.31882929581E+02 -0.49964158210E+02  0.68493629936E+02  0.00000000000E+00 0. -1.
</event>
<event>
 7    1  0.6017574E-006  0.6539793E+02  0.7818608E-02  0.1387175E+00
          2   -1    0    0  502    0  0.00000000000E+00  0.00000000000E+00  0.10218354560E+04  0.10218354560E+04  0.00000000000E+00 0. -1.
          1   -1    0    0  501    0 -0.00000000000E+00 -0.00000000000E+00 -0.23116645216E+02  0.23116645216E+02  0.00000000000E+00 0. -1.
         25    2    1    2    0    0  0.16205755050E+02  0.23620127593E+01  0.76440226645E+03  0.77472828675E+03  0.12499955093E+03 0.  0.
          2    1    1    2  501    0 -0.72090096063E+02  0.19339147955E+02  0.13151013828E+03  0.15121475148E+03  0.00000000000E+00 0. -1.
          1    1    1    2  502    0  0.55884341013E+02 -0.21701160715E+02  0.10280640602E+03  0.11900906295E+03  0.00000000000E+00 0. -1.
         22    1    3    3    0    0  0.46911289260E+02 -0.32908834457E+02  0.62644927008E+03  0.62906466157E+03  0.00000000000E+00 0.  1.
         22    1    3    3    0    0 -0.30705534210E+02  0.35270847216E+02  0.13795299637E+03  0.14566362519E+03  0.00000000000E+00 0.  1.
</event>
<event>
 7    1  0.6017574E-006  0.7026084E+02  0.7818608E-02  0.1449933E+00
          2   -1    0    0  502    0  0.00000000000E+00  0.00000000000E+00  0.31351623332E+03  0.31351623332E+03  0.00000000000E+00 0. -1.
          1   -1    0    0  501    0 -0.00000000000E+00 -0.00000000000E+00 -0.56683934236E+03  0.56683934236E+03  0.00000000000E+00 0. -1.
         25    2    1    2    0    0 -0.29745001306E+02  0.25780653596E+02 -0.11823250710E+03  0.17650279735E+03  0.12499961814E+03 0.  0.
          2    1    1    2  501    0  0.57343058897E+02 -0.46306522504E+02 -0.41517388151E+03  0.42166559299E+03  0.00000000000E+00 0. -1.
          1    1    1    2  502    0 -0.27598057591E+02  0.20525868909E+02  0.28008327956E+03  0.28218718533E+03  0.00000000000E+00 0. -1.
         22    1    3    3    0    0 -0.24863121530E+02  0.40495069468E+02 -0.14109370305E+03  0.14888068546E+03  0.00000000000E+00 0.  1.
         22    1    3    3    0    0 -0.48818797763E+01 -0.14714415873E+02  0.22861195953E+02  0.27622111886E+02  0.00000000000E+00 0.  1.
</event>
<event>
 7    1  0.6017574E-006  0.4904421E+02  0.7818608E-02  0.1508039E+00
          2   -1    0    0  502    0  0.00000000000E+00  0.00000000000E+00  0.20593038968E+04  0.20593038968E+04  0.00000000000E+00 0. -1.
          1   -1    0    0  501    0 -0.00000000000E+00 -0.00000000000E+00 -0.16059562645E+04  0.16059562645E+04  0.00000000000E+00 0. -1.
         25    2    1    2    0    0 -0.18333665287E+02  0.62292607171E+02  0.29356992456E+03  0.32561360863E+03  0.12499771731E+03 0.  0.
          2    1    1    2  501    0 -0.10936693918E+02 -0.47799716061E+02 -0.15894038588E+04  0.15901600707E+04  0.00000000000E+00 0. -1.
          1    1    1    2  502    0  0.29270359205E+02 -0.14492891110E+02  0.17491815666E+04  0.17494864820E+04  0.00000000000E+00 0. -1.
         22    1    3    3    0    0 -0.14357399397E+02 -0.36099604130E+02  0.11905260210E+03  0.12523113991E+03  0.00000000000E+00 0.  1.
         22    1    3    3    0    0 -0.39762658901E+01  0.98392211301E+02  0.17451732245E+03  0.20038246872E+03  0.00000000000E+00 0.  1.
</event>
<event>
 7    1  0.6017574E-006  0.9814435E+02  0.7818608E-02  0.1364647E+00
          2   -1    0    0  502    0  0.00000000000E+00  0.00000000000E+00  0.20980188728E+03  0.20980188728E+03  0.00000000000E+00 0. -1.
          1   -1    0    0  501    0 -0.00000000000E+00 -0.00000000000E+00 -0.18449389644E+04  0.18449389644E+04  0.00000000000E+00 0. -1.
         25    2    1    2    0    0 -0.27713725477E+02 -0.94850752693E+02 -0.16034875644E+03  0.22605876090E+03  0.12500449520E+03 0.  0.
          2    1    1    2  501    0  0.48020101047E+02 -0.19215629889E+01 -0.16375413082E+04  0.16382463669E+04  0.00000000000E+00 0. -1.
          1    1    1    2  502    0 -0.20306375570E+02  0.96772315682E+02  0.16275298756E+03  0.19043572388E+03  0.00000000000E+00 0. -1.
         22    1    3    3    0    0 -0.26416156987E+02 -0.77087217113E+02 -0.19106224139E+02  0.83697671371E+02  0.00000000000E+00 0.  1.
         22    1    3    3    0    0 -0.12975684896E+01 -0.17763535580E+02 -0.14124253231E+03  0.14236108953E+03  0.00000000000E+00 0.  1.
</event>
<event>
 7    1  0.6017574E-006  0.2956543E+03  0.7818608E-02  0.1143691E+00
          2   -1    0    0  502    0  0.00000000000E+00  0.00000000000E+00  0.22353505281E+04  0.22353505281E+04  0.00000000000E+00 0. -1.
          1   -1    0    0  501    0 -0.00000000000E+00 -0.00000000000E+00 -0.11174498316E+04  0.11174498316E+04  0.00000000000E+00 0. -1.
         25    2    1    2    0    0 -0.15670210396E+03 -0.46329703241E+02 -0.17432177993E+03  0.26965666632E+03  0.12499857576E+03 0.  0.
          2    1    1    2  501    0 -0.11044079087E+03 -0.94580039370E+02 -0.87903528026E+03  0.89098012103E+03  0.00000000000E+00 0. -1.
          1    1    1    2  502    0  0.26714289483E+03  0.14090974261E+03  0.21712577567E+04  0.21921635724E+04  0.00000000000E+00 0. -1.
         22    1    3    3    0    0 -0.50818169111E+02  0.32216617162E+02 -0.13431971698E+02  0.61650746928E+02  0.00000000000E+00 0.  1.
         22    1    3    3    0    0 -0.10588393485E+03 -0.78546320403E+02 -0.16088980823E+03  0.20800591939E+03  0.00000000000E+00 0.  1.
</event>
<event>
 7    1  0.6563240E-006  0.8396484E+02  0.7818608E-02  0.1365794E+00
          2   -1    0    0  502    0  0.00000000000E+00  0.00000000000E+00  0.14582054306E+04  0.14582054306E+04  0.00000000000E+00 0. -1.
          1   -1    0    0  501    0 -0.00000000000E+00 -0.00000000000E+00 -0.88954159149E+03  0.88954159149E+03  0.00000000000E+00 0. -1.
         25    2    1    2    0    0 -0.43225681439E+02 -0.53003677865E+02 -0.66345780637E+03  0.67858531002E+03  0.12499565088E+03 0.  0.
          2    1    1    2  501    0 -0.39631988586E+02  0.39052672102E+02 -0.21373866451E+03  0.22086199859E+03  0.00000000000E+00 0. -1.
          1    1    1    2  502    0  0.82857670025E+02  0.13951005764E+02  0.14458603100E+04  0.14482997135E+04  0.00000000000E+00 0. -1.
         22    1    3    3    0    0 -0.86175649311E+02 -0.35176826076E+02 -0.37356142850E+03  0.38498284701E+03  0.00000000000E+00 0. -1.
         22    1    3    3    0    0  0.42949967872E+02 -0.17826851789E+02 -0.28989637787E+03  0.29360246302E+03  0.00000000000E+00 0. -1.
</event>
<event>
 7    1  0.6017574E-006  0.8531450E+02  0.7818608E-02  0.1426424E+00
          2   -1    0    0  502    0  0.00000000000E+00  0.00000000000E+00  0.54723696090E+03  0.54723696090E+03  0.00000000000E+00 0. -1.
          1   -1    0    0  501    0 -0.00000000000E+00 -0.00000000000E+00 -0.41314401002E+04  0.41314401002E+04  0.00000000000E+00 0. -1.
         25    2    1    2    0    0 -0.41796649217E+02 -0.69823813386E+02 -0.12051456174E+04  0.12143412076E+04  0.12500513858E+03 0.  0.
          2    1    1    2  501    0  0.12043122302E+02  0.85820916360E+02 -0.29205275651E+04  0.29218130545E+04  0.00000000000E+00 0. -1.
          1    1    1    2  502    0  0.29753526915E+02 -0.15997102974E+02  0.54147004325E+03  0.54252279897E+03  0.00000000000E+00 0. -1.
         22    1    3    3    0    0  0.32435748442E+02  0.11952036077E+02 -0.42700654608E+03  0.42840345393E+03  0.00000000000E+00 0. -1.
         22    1    3    3    0    0 -0.74232397659E+02 -0.81775849463E+02 -0.77813907130E+03  0.78593775371E+03  0.00000000000E+00 0. -1.
</event>
<event>
 7    1  0.6017574E-006  0.1611426E+03  0.7818608E-02  0.1393931E+00
          2   -1    0    0  502    0  0.00000000000E+00  0.00000000000E+00  0.46549662077E+02  0.46549662077E+02  0.00000000000E+00 0. -1.
          1   -1    0    0  501    0 -0.00000000000E+00 -0.00000000000E+00 -0.86646707482E+03  0.86646707482E+03  0.00000000000E+00 0. -1.
         25    2    1    2    0    0  0.13227666399E+03  0.75443939081E+02 -0.31812957299E+03  0.37419280873E+03  0.12499971644E+03 0.  0.
          2    1    1    2  501    0  0.12776829233E+02  0.19179337988E+02 -0.54042811740E+02  0.58751339318E+02  0.00000000000E+00 0. -1.
          1    1    1    2  502    0 -0.14505349322E+03 -0.94623277069E+02 -0.44774502801E+03  0.48007258885E+03  0.00000000000E+00 0. -1.
         22    1    3    3    0    0  0.11999610527E+02 -0.22502390953E+02 -0.68483743980E+01  0.26405463134E+02  0.00000000000E+00 0.  1.
         22    1    3    3    0    0  0.12027705346E+03  0.97946330034E+02 -0.31128119859E+03  0.34778734559E+03  0.00000000000E+00 0.  1.
</event>
<event>
 7    1  0.6017574E-006  0.8289723E+02  0.7818608E-02  0.1443855E+00
          2   -1    0    0  502    0  0.00000000000E+00  0.00000000000E+00  0.55378483779E+03  0.55378483779E+03  0.00000000000E+00 0. -1.
          1   -1    0    0  501    0 -0.00000000000E+00 -0.00000000000E+00 -0.47188716084E+03  0.47188716084E+03  0.00000000000E+00 0. -1.
         25    2    1    2    0    0 -0.32505691275E+02 -0.97621269658E+02 -0.75245219936E+02  0.17853335950E+03  0.12500314027E+03 0.  0.
          2    1    1    2  501    0  0.42980157163E+02  0.68984364722E+02 -0.33973691915E+03  0.34932407693E+03  0.00000000000E+00 0. -1.
          1    1    1    2  502    0 -0.10474465887E+02  0.28636904936E+02  0.49687981603E+03  0.49781456220E+03  0.00000000000E+00 0. -1.
         22    1    3    3    0    0  0.36532773196E+02 -0.80077256166E+02 -0.57464239301E+02  0.10511493363E+03  0.00000000000E+00 0. -1.
         22    1    3    3    0    0 -0.69038464472E+02 -0.17544013491E+02 -0.17780980635E+02  0.73418425877E+02  0.00000000000E+00 0. -1.
</event>
<event>
 7    1  0.6017574E-006  0.6393679E+02  0.7818608E-02  0.1512550E+00
          2   -1    0    0  502    0  0.00000000000E+00  0.00000000000E+00  0.11766667308E+04  0.11766667308E+04  0.00000000000E+00 0. -1.
          1   -1    0    0  501    0 -0.00000000000E+00 -0.00000000000E+00 -0.64079196849E+03  0.64079196849E+03  0.00000000000E+00 0. -1.
         25    2    1    2    0    0 -0.60518507906E+02 -0.29363546789E+02  0.20357003383E+03  0.24817608851E+03  0.12500361817E+03 0.  0.
          2    1    1    2  501    0 -0.32476586538E+01  0.24081913154E+02 -0.61717309903E+03  0.61765129320E+03  0.00000000000E+00 0. -1.
          1    1    1    2  502    0  0.63766166560E+02  0.52816336350E+01  0.94947782749E+03  0.95163131755E+03  0.00000000000E+00 0. -1.
         22    1    3    3    0    0 -0.28579316209E+02 -0.54637309073E+02  0.27602954650E+02  0.67556909070E+02  0.00000000000E+00 0.  1.
         22    1    3    3    0    0 -0.31939191697E+02  0.25273762283E+02  0.17596707918E+03  0.18061917944E+03  0.00000000000E+00 0.  1.
</event>
<event>
 7    1  0.6017574E-006  0.5719527E+02  0.7818608E-02  0.1427013E+00
          2   -1    0    0  502    0  0.00000000000E+00  0.00000000000E+00  0.25247427345E+04  0.25247427345E+04  0.00000000000E+00 0. -1.
          1   -1    0    0  501    0 -0.00000000000E+00 -0.00000000000E+00 -0.62936278433E+02  0.62936278433E+02  0.00000000000E+00 0. -1.
         25    2    1    2    0    0 -0.43838188665E+02  0.32213735548E+02  0.87687570627E+02  0.16208590193E+03  0.12499287187E+03 0.  0.
          2    1    1    2  501    0 -0.11101501175E+02 -0.48920064684E+02 -0.61241398382E+00  0.50167630081E+02  0.00000000000E+00 0. -1.
          1    1    1    2  502    0  0.54939689840E+02  0.16706329136E+02  0.23747312994E+04  0.23754254809E+04  0.00000000000E+00 0. -1.
         22    1    3    3    0    0 -0.87549145119E+02  0.12786175382E+02  0.56146846357E+02  0.10478934797E+03  0.00000000000E+00 0.  1.
         22    1    3    3    0    0  0.43710956455E+02  0.19427560166E+02  0.31540724271E+02  0.57296553960E+02  0.00000000000E+00 0.  1.
</event>
<event>
 7    1  0.7281286E-006  0.4327125E+02  0.7818608E-02  0.1490616E+00
          2   -1    0    0  502    0  0.00000000000E+00  0.00000000000E+00  0.16592008418E+04  0.16592008418E+04  0.00000000000E+00 0. -1.
          1   -1    0    0  501    0 -0.00000000000E+00 -0.00000000000E+00 -0.26890684227E+04  0.26890684227E+04  0.00000000000E+00 0. -1.
         25    2    1    2    0    0 -0.45609335802E+02 -0.57912004062E+02 -0.61697202936E+03  0.63380876871E+03  0.12500023425E+03 0.  0.
          2    1    1    2  501    0  0.38874314348E+02  0.15177761345E+02 -0.20631835410E+04  0.20636055584E+04  0.00000000000E+00 0. -1.
          1    1    1    2  502    0  0.67350214536E+01  0.42734242717E+02  0.16502879895E+04  0.16508549374E+04  0.00000000000E+00 0. -1.
         22    1    3    3    0    0  0.18981506035E+02 -0.74645455638E+02 -0.28678638133E+03  0.29694893523E+03  0.00000000000E+00 0.  1.
         22    1    3    3    0    0 -0.64590841837E+02  0.16733451576E+02 -0.33018564802E+03  0.33685983348E+03  0.00000000000E+00 0.  1.
</event>
<event>
 7    1  0.6017574E-006  0.4339950E+02  0.7818608E-02  0.1509099E+00
          2   -1    0    0  502    0  0.00000000000E+00  0.00000000000E+00  0.26996955151E+02  0.26996955151E+02  0.00000000000E+00 0. -1.
          1   -1    0    0  501    0 -0.00000000000E+00 -0.00000000000E+00 -0.87512155817E+03  0.87512155817E+03  0.00000000000E+00 0. -1.
         25    2    1    2    0    0  0.57193720084E+02  0.22264810435E+02 -0.53541214985E+03  0.55322244118E+03  0.12498822268E+03 0.  0.
          2    1    1    2  501    0 -0.22924037205E+02 -0.35243869486E+02 -0.30924201864E+03  0.31208695569E+03  0.00000000000E+00 0. -1.
          1    1    1    2  502    0 -0.34269682880E+02  0.12979059051E+02 -0.34704345240E+01  0.36809116457E+02  0.00000000000E+00 0. -1.
         22    1    3    3    0    0  0.10633434969E+02 -0.48052742748E+02 -0.12718744185E+03  0.13637734926E+03  0.00000000000E+00 0. -1.
         22    1    3    3    0    0  0.46560285115E+02  0.70317553184E+02 -0.40822470800E+03  0.41684509192E+03  0.00000000000E+00 0. -1.
</event>
<event>
 7    1  0.6017574E-006  0.4250035E+02  0.7818608E-02  0.1519653E+00
          2   -1    0    0  502    0  0.00000000000E+00  0.00000000000E+00  0.40187855484E+04  0.40187855484E+04  0.00000000000E+00 0. -1.
          1   -1    0    0  501    0 -0.00000000000E+00 -0.00000000000E+00 -0.42461665732E+03  0.42461665732E+03  0.00000000000E+00 0. -1.
         25    2    1    2    0    0  0.31216769066E+00 -0.15313138846E+02  0.11287244825E+04  0.11357280661E+04  0.12499877194E+03 0.  0.
          2    1    1    2  501    0  0.31317857327E+02 -0.15292219201E+02 -0.42022566528E+03  0.42166843599E+03  0.00000000000E+00 0. -1.
          1    1    1    2  502    0 -0.31630025017E+02  0.30605358047E+02  0.28856700739E+04  0.28860057037E+04  0.00000000000E+00 0. -1.
         22    1    3    3    0    0 -0.59533371847E+02 -0.19696928396E+02  0.70373185165E+03  0.70652014153E+03  0.00000000000E+00 0.  1.
         22    1    3    3    0    0  0.59845539538E+02  0.43837895500E+01  0.42499263086E+03  0.42920792455E+03  0.00000000000E+00 0.  1.
</event>
<event>
 7    1  0.1134629E-005  0.1395260E+03  0.7818608E-02  0.1241640E+00
          2   -1    0    0  502    0  0.00000000000E+00  0.00000000000E+00  0.13616530899E+04  0.13616530899E+04  0.00000000000E+00 0. -1.
          1   -1    0    0  501    0 -0.00000000000E+00 -0.00000000000E+00 -0.16821958771E+04  0.16821958771E+04  0.00000000000E+00 0. -1.
         25    2    1    2    0    0  0.55719160516E+02  0.38752950782E+02 -0.37606933444E+03  0.40206859072E+03  0.12499836517E+03 0.  0.
          2    1    1    2  501    0 -0.12267708527E+03 -0.11929447595E+03 -0.12854149502E+04  0.12967545772E+04  0.00000000000E+00 0. -1.
          1    1    1    2  502    0  0.66957924750E+02  0.80541525171E+02  0.13409414974E+04  0.13450257992E+04  0.00000000000E+00 0. -1.
         22    1    3    3    0    0 -0.40147965030E+02  0.53141543594E+01 -0.11723613693E+03  0.12403391123E+03  0.00000000000E+00 0. -1.
         22    1    3    3    0    0  0.95867125546E+02  0.33438796423E+02 -0.25883319751E+03  0.27803467949E+03  0.00000000000E+00 0. -1.
</event>
<event>
 7    1  0.6017574E-006  0.5548219E+02  0.7818608E-02  0.1419500E+00
          2   -1    0    0  502    0  0.00000000000E+00  0.00000000000E+00  0.39154595172E+04  0.39154595172E+04  0.00000000000E+00 0. -1.
          1   -1    0    0  501    0 -0.00000000000E+00 -0.00000000000E+00 -0.45961523257E+03  0.45961523257E+03  0.00000000000E+00 0. -1.
         25    2    1    2    0    0 -0.91957140511E+01  0.59324319471E+02  0.64600081954E+03  0.66071662156E+03  0.12500183652E+03 0.  0.
          2    1    1    2  501    0  0.50430102434E+02 -0.23270575442E+02 -0.45032124214E+03  0.45373333141E+03  0.00000000000E+00 0. -1.
          1    1    1    2  502    0 -0.41234388383E+02 -0.36053744029E+02  0.32601647072E+04  0.32606247968E+04  0.00000000000E+00 0. -1.
         22    1    3    3    0    0  0.56379808238E+02  0.11737363962E+02  0.25895460308E+03  0.26528086050E+03  0.00000000000E+00 0.  1.
         22    1    3    3    0    0 -0.65575522289E+02  0.47586955509E+02  0.38704621645E+03  0.39543576106E+03  0.00000000000E+00 0.  1.
</event>
<event>
 7    1  0.6017574E-006  0.6482404E+02  0.7818608E-02  0.1389032E+00
          2   -1    0    0  502    0  0.00000000000E+00  0.00000000000E+00  0.64755671310E+03  0.64755671310E+03  0.00000000000E+00 0. -1.
          1   -1    0    0  501    0 -0.00000000000E+00 -0.00000000000E+00 -0.10477919629E+03  0.10477919629E+03  0.00000000000E+00 0. -1.
         25    2    1    2    0    0  0.24132430087E+02 -0.63393145717E+02  0.16990405250E+03  0.22157053066E+03  0.12500019158E+03 0.  0.
          2    1    1    2  501    0 -0.63716078090E+02  0.18859468420E+02 -0.62565963067E+02  0.91268383850E+02  0.00000000000E+00 0. -1.
          1    1    1    2  502    0  0.39583648002E+02  0.44533677296E+02  0.43543942737E+03  0.43949699488E+03  0.00000000000E+00 0. -1.
         22    1    3    3    0    0 -0.31055748931E+02 -0.22277480645E+02  0.14243009177E+03  0.14746890088E+03  0.00000000000E+00 0.  1.
         22    1    3    3    0    0  0.55188179018E+02 -0.41115665071E+02  0.27473960733E+02  0.74101629779E+02  0.00000000000E+00 0.  1.
</event>
<event>
 7    1  0.6017574E-006  0.9196327E+02  0.7818608E-02  0.1309735E+00
          2   -1    0    0  502    0  0.00000000000E+00  0.00000000000E+00  0.12831824982E+03  0.12831824982E+03  0.00000000000E+00 0. -1.
          1   -1    0    0  501    0 -0.00000000000E+00 -0.00000000000E+00 -0.40386223213E+03  0.40386223213E+03  0.00000000000E+00 0. -1.
         25    2    1    2    0    0 -0.16161995636E+02 -0.77197495042E+01 -0.96652676398E+02  0.15902202701E+03  0.12500184232E+03 0.  0.
          2    1    1    2  501    0  0.10709265639E+03 -0.60228076935E+01 -0.23990774729E+03  0.26279428928E+03  0.00000000000E+00 0. -1.
          1    1    1    2  502    0 -0.90930660755E+02  0.13742557198E+02  0.61016441382E+02  0.11036416566E+03  0.00000000000E+00 0. -1.
         22    1    3    3    0    0  0.21555744763E+02 -0.51887649337E+02 -0.13830757225E+02  0.57864221514E+02  0.00000000000E+00 0.  1.
         22    1    3    3    0    0 -0.37717740399E+02  0.44167899833E+02 -0.82821919173E+02  0.10115780549E+03  0.00000000000E+00 0.  1.
</event>
<event>
 7    1  0.6017574E-006  0.1220932E+03  0.7818608E-02  0.1271275E+00
          2   -1    0    0  502    0  0.00000000000E+00  0.00000000000E+00  0.13288235349E+03  0.13288235349E+03  0.00000000000E+00 0. -1.
          1   -1    0    0  501    0 -0.00000000000E+00 -0.00000000000E+00 -0.10048613323E+04  0.10048613323E+04  0.00000000000E+00 0. -1.
         25    2    1    2    0    0  0.17858867552E+03  0.17970366203E+02 -0.22324654022E+03  0.31253995487E+03  0.12500142633E+03 0.  0.
          2    1    1    2  501    0 -0.79185596376E+02  0.41276973702E+02 -0.69489972261E+03  0.70061385350E+03  0.00000000000E+00 0. -1.
          1    1    1    2  502    0 -0.99403079146E+02 -0.59247339904E+02  0.46167284058E+02  0.12458987738E+03  0.00000000000E+00 0. -1.
         22    1    3    3    0    0  0.82790102257E+01  0.43428229109E+02 -0.28603677929E+02  0.52656656606E+02  0.00000000000E+00 0.  1.
         22    1    3    3    0    0  0.17030966530E+03 -0.25457862906E+02 -0.19464286229E+03  0.25988329826E+03  0.00000000000E+00 0.  1.
</event>
<event>
 7    1  0.6017574E-006  0.8443322E+02  0.7818608E-02  0.1395406E+00
          2   -1    0    0  502    0  0.00000000000E+00  0.00000000000E+00  0.18172321057E+04  0.18172321057E+04  0.00000000000E+00 0. -1.
          1   -1    0    0  501    0 -0.00000000000E+00 -0.00000000000E+00 -0.10567404411E+03  0.10567404411E+03  0.00000000000E+00 0. -1.
         25    2    1    2    0    0 -0.47202876238E+02  0.96852112162E+01  0.46460364800E+02  0.14179382825E+03  0.12500003756E+03 0.  0.
          2    1    1    2  501    0 -0.25207413276E+02  0.35412999707E+02 -0.48651336623E+02  0.65241449919E+02  0.00000000000E+00 0. -1.
          1    1    1    2  502    0  0.72410289514E+02 -0.45098210924E+02  0.17137490334E+04  0.17158708716E+04  0.00000000000E+00 0. -1.
         22    1    3    3    0    0 -0.88830761284E+02  0.13617422932E+02  0.19251602199E+02  0.91907358491E+02  0.00000000000E+00 0. -1.
         22    1    3    3    0    0  0.41627885046E+02 -0.39322117157E+01  0.27208762601E+02  0.49886469756E+02  0.00000000000E+00 0. -1.
</event>
<event>
 7    1  0.6017574E-006  0.1340284E+03  0.7818608E-02  0.1327507E+00
          2   -1    0    0  502    0  0.00000000000E+00  0.00000000000E+00  0.18210970125E+04  0.18210970125E+04  0.00000000000E+00 0. -1.
          1   -1    0    0  501    0 -0.00000000000E+00 -0.00000000000E+00 -0.77479281039E+03  0.77479281039E+03  0.00000000000E+00 0. -1.
         25    2    1    2    0    0  0.12351483147E+03  0.12320036570E+03 -0.23723350525E+03  0.31990443994E+03  0.12499948390E+03 0.  0.
          2    1    1    2  501    0 -0.87122848822E+02 -0.91282241845E+02 -0.48786585679E+03  0.50392056188E+03  0.00000000000E+00 0. -1.
          1    1    1    2  502    0 -0.36391982649E+02 -0.31918123856E+02  0.17714035641E+04  0.17720648211E+04  0.00000000000E+00 0. -1.
         22    1    3    3    0    0  0.34036149970E+02  0.11908452598E+03 -0.12087079251E+03  0.17305875394E+03  0.00000000000E+00 0. -1.
         22    1    3    3    0    0  0.89478681501E+02  0.41158397230E+01 -0.11636271274E+03  0.14684568600E+03  0.00000000000E+00 0. -1.
</event>
<event>
 7    1  0.6017574E-006  0.1710623E+03  0.7818608E-02  0.1396238E+00
          2   -1    0    0  502    0  0.00000000000E+00  0.00000000000E+00  0.11107785029E+04  0.11107785029E+04  0.00000000000E+00 0. -1.
          1   -1    0    0  501    0 -0.00000000000E+00 -0.00000000000E+00 -0.20368288436E+04  0.20368288436E+04  0.00000000000E+00 0. -1.
         25    2    1    2    0    0  0.95141909226E+02 -0.12926392648E+03 -0.74759723757E+02  0.21673880185E+03  0.12500218539E+03 0.  0.
          2    1    1    2  501    0 -0.11625447047E+03  0.12634503551E+03 -0.18870727218E+04  0.18948671794E+04  0.00000000000E+00 0. -1.
          1    1    1    2  502    0  0.21112561245E+02  0.29188909757E+01  0.10357821049E+04  0.10360013653E+04  0.00000000000E+00 0. -1.
         22    1    3    3    0    0  0.13642712373E+01 -0.46759209595E+02  0.28413918164E+02  0.54732400490E+02  0.00000000000E+00 0. -1.
         22    1    3    3    0    0  0.93777637988E+02 -0.82504716886E+02 -0.10317364192E+03  0.16200640136E+03  0.00000000000E+00 0. -1.
</event>
<event>
 7    1  0.6017574E-006  0.9988758E+02  0.7818608E-02  0.1427346E+00
          2   -1    0    0  502    0  0.00000000000E+00  0.00000000000E+00  0.10901568740E+04  0.10901568740E+04  0.00000000000E+00 0. -1.
          1   -1    0    0  501    0 -0.00000000000E+00 -0.00000000000E+00 -0.66370056557E+02  0.66370056557E+02  0.00000000000E+00 0. -1.
         25    2    1    2    0    0  0.55695068639E+02 -0.47405781139E+02  0.76050959523E+02  0.16357853350E+03  0.12499975769E+03 0.  0.
          2    1    1    2  501    0  0.18623202890E+02 -0.21772733544E+02 -0.96205493711E+01  0.30223014113E+02  0.00000000000E+00 0. -1.
          1    1    1    2  502    0 -0.74318271529E+02  0.69178514682E+02  0.95735640733E+03  0.96272538298E+03  0.00000000000E+00 0. -1.
         22    1    3    3    0    0  0.14022158314E+02 -0.85266249176E+02  0.59422144147E+02  0.10487108938E+03  0.00000000000E+00 0.  1.
         22    1    3    3    0    0  0.41672910325E+02  0.37860468037E+02  0.16628815375E+02  0.58707444125E+02  0.00000000000E+00 0.  1.
</event>
<event>
 7    1  0.6017574E-006  0.1249969E+03  0.7818608E-02  0.1346133E+00
          2   -1    0    0  502    0  0.00000000000E+00  0.00000000000E+00  0.17288051518E+04  0.17288051518E+04  0.00000000000E+00 0. -1.
          1   -1    0    0  501    0 -0.00000000000E+00 -0.00000000000E+00 -0.11342889402E+03  0.11342889402E+03  0.00000000000E+00 0. -1.
         25    2    1    2    0    0  0.87056631739E+02 -0.83042772616E+02  0.68514104408E+03  0.70676592087E+03  0.12499942962E+03 0.  0.
          2    1    1    2  501    0  0.30938285333E+02  0.31474791817E+02 -0.93643940776E+02  0.10352307793E+03  0.00000000000E+00 0. -1.
          1    1    1    2  502    0 -0.11799491707E+03  0.51567980799E+02  0.10238791544E+04  0.10319450470E+04  0.00000000000E+00 0. -1.
         22    1    3    3    0    0  0.72450341290E+02 -0.44113916160E+02  0.17036813162E+03  0.19031655163E+03  0.00000000000E+00 0. -1.
         22    1    3    3    0    0  0.14606290449E+02 -0.38928856456E+02  0.51477291247E+03  0.51644936925E+03  0.00000000000E+00 0. -1.
</event>
<event>
 7    1  0.6017574E-006  0.5938521E+02  0.7818608E-02  0.1517638E+00
          2   -1    0    0  502    0  0.00000000000E+00  0.00000000000E+00  0.14149149192E+04  0.14149149192E+04  0.00000000000E+00 0. -1.
          1   -1    0    0  501    0 -0.00000000000E+00 -0.00000000000E+00 -0.10556372824E+03  0.10556372824E+03  0.00000000000E+00 0. -1.
         25    2    1    2    0    0  0.28050400687E+01  0.75502981702E+02  0.15269641554E+03  0.21130257439E+03  0.12499605646E+03 0.  0.
          2    1    1    2  501    0 -0.17461021856E+02 -0.18282975887E+02 -0.73437028988E+02  0.77666928085E+02  0.00000000000E+00 0. -1.
          1    1    1    2  502    0  0.14655981787E+02 -0.57220005814E+02  0.12300918045E+04  0.12315091450E+04  0.00000000000E+00 0. -1.
         22    1    3    3    0    0 -0.49552756732E+02  0.40556613414E+02  0.24640621250E+02  0.68611039978E+02  0.00000000000E+00 0. -1.
         22    1    3    3    0    0  0.52357796800E+02  0.34946368288E+02  0.12805579429E+03  0.14269153441E+03  0.00000000000E+00 0. -1.
</event>
<event>
 7    1  0.6017574E-006  0.7362826E+02  0.7818608E-02  0.1377242E+00
          2   -1    0    0  502    0  0.00000000000E+00  0.00000000000E+00  0.46395792411E+02  0.46395792411E+02  0.00000000000E+00 0. -1.
          1   -1    0    0  501    0 -0.00000000000E+00 -0.00000000000E+00 -0.15883777103E+04  0.15883777103E+04  0.00000000000E+00 0. -1.
         25    2    1    2    0    0  0.20338878194E+02 -0.62555723909E+02 -0.37630831309E+03  0.40194591212E+03  0.12500272479E+03 0.  0.
          2    1    1    2  501    0 -0.69283456325E+02  0.31948650176E+02 -0.11722476486E+04  0.11747278252E+04  0.00000000000E+00 0. -1.
          1    1    1    2  502    0  0.48944578131E+02  0.30607073732E+02  0.65740438046E+01  0.58099765428E+02  0.00000000000E+00 0. -1.
         22    1    3    3    0    0 -0.44606017007E+02  0.80433656164E+01 -0.12135591083E+03  0.12954400634E+03  0.00000000000E+00 0. -1.
         22    1    3    3    0    0  0.64944895201E+02 -0.70599089525E+02 -0.25495240226E+03  0.27240190578E+03  0.00000000000E+00 0. -1.
</event>
<event>
 7    1  0.6017574E-006  0.4527156E+02  0.7818608E-02  0.1522902E+00
          2   -1    0    0  502    0  0.00000000000E+00  0.00000000000E+00  0.24563226099E+04  0.24563226099E+04  0.00000000000E+00 0. -1.
          1   -1    0    0  501    0 -0.00000000000E+00 -0.00000000000E+00 -0.12977378127E+03  0.12977378127E+03  0.00000000000E+00 0. -1.
         25    2    1    2    0    0 -0.12912700185E+02 -0.18350339201E+01  0.19909751161E+04  0.19949373186E+04  0.12499154902E+03 0.  0.
          2    1    1    2  501    0 -0.13354061481E+02  0.43257178121E+02 -0.12243230603E+03  0.13053422531E+03  0.00000000000E+00 0. -1.
          1    1    1    2  502    0  0.26266761666E+02 -0.41422144201E+02  0.45800601856E+03  0.46062484718E+03  0.00000000000E+00 0. -1.
         22    1    3    3    0    0  0.22410976208E+02 -0.42972721151E+02  0.15326253508E+04  0.15333914609E+04  0.00000000000E+00 0. -1.
         22    1    3    3    0    0 -0.35323676393E+02  0.41137687231E+02  0.45834976529E+03  0.46154585770E+03  0.00000000000E+00 0. -1.
</event>
<event>
 7    1  0.6017574E-006  0.5652986E+02  0.7818608E-02  0.1438264E+00
          2   -1    0    0  502    0  0.00000000000E+00  0.00000000000E+00  0.23782159499E+04  0.23782159499E+04  0.00000000000E+00 0. -1.
          1   -1    0    0  501    0 -0.00000000000E+00 -0.00000000000E+00 -0.23906434638E+04  0.23906434638E+04  0.00000000000E+00 0. -1.
         25    2    1    2    0    0  0.17085880869E+02  0.77789103094E+01  0.67833999496E+03  0.69001530293E+03  0.12499412287E+03 0.  0.
          2    1    1    2  501    0 -0.51216513373E+02  0.23978146940E+02 -0.23841497011E+04  0.23848203035E+04  0.00000000000E+00 0. -1.
          1    1    1    2  502    0  0.34130632504E+02 -0.31757057249E+02  0.16933821923E+04  0.16940238073E+04  0.00000000000E+00 0. -1.
         22    1    3    3    0    0 -0.47113066598E+02  0.24000605710E+02  0.42038233028E+03  0.42369443439E+03  0.00000000000E+00 0. -1.
         22    1    3    3    0    0  0.64198947466E+02 -0.16221695400E+02  0.25795766468E+03  0.26632086855E+03  0.00000000000E+00 0. -1.
</event>
<event>
 7    1  0.6017574E-006  0.6652144E+02  0.7818608E-02  0.1416410E+00
          2   -1    0    0  502    0  0.00000000000E+00  0.00000000000E+00  0.64877382720E+03  0.64877382720E+03  0.00000000000E+00 0. -1.
          1   -1    0    0  501    0 -0.00000000000E+00 -0.00000000000E+00 -0.26047034833E+03  0.26047034833E+03  0.00000000000E+00 0. -1.
         25    2    1    2    0    0  0.20377418236E+02 -0.15725313562E+02  0.21545726002E+03  0.25042398124E+03  0.12501125879E+03 0.  0.
          2    1    1    2  501    0 -0.66743211542E+02  0.94702287552E+01 -0.23695470830E+03  0.24635721079E+03  0.00000000000E+00 0. -1.
          1    1    1    2  502    0  0.46365793305E+02  0.62550848071E+01  0.40980092715E+03  0.41246298351E+03  0.00000000000E+00 0. -1.
         22    1    3    3    0    0  0.57905456258E+02  0.22913700065E+02  0.62368805831E+02  0.88135960061E+02  0.00000000000E+00 0.  1.
         22    1    3    3    0    0 -0.37528038022E+02 -0.38639013627E+02  0.15308845419E+03  0.16228802118E+03  0.00000000000E+00 0.  1.
</event>
<event>
 7    1  0.6017574E-006  0.7798134E+02  0.7818608E-02  0.1401205E+00
          2   -1    0    0  502    0  0.00000000000E+00  0.00000000000E+00  0.15455933019E+04  0.15455933019E+04  0.00000000000E+00 0. -1.
          1   -1    0    0  501    0 -0.00000000000E+00 -0.00000000000E+00 -0.10548872751E+04  0.10548872751E+04  0.00000000000E+00 0. -1.
         25    2    1    2    0    0  0.24104248824E+02 -0.34535339956E+01  0.10749792509E+04  0.10824959400E+04  0.12499651486E+03 0.  0.
          2    1    1    2  501    0 -0.22706896358E+02 -0.74602186442E+02 -0.10464042463E+04  0.10493059306E+04  0.00000000000E+00 0. -1.
          1    1    1    2  502    0 -0.13973524661E+01  0.78055720438E+02  0.46213102220E+03  0.46867870633E+03  0.00000000000E+00 0. -1.
         22    1    3    3    0    0  0.12038442918E+02  0.24215720984E+02  0.48161110928E+02  0.55234209115E+02  0.00000000000E+00 0. -1.
         22    1    3    3    0    0  0.12065805906E+02 -0.27669254980E+02  0.10268181399E+04  0.10272617309E+04  0.00000000000E+00 0. -1.
</event>
<event>
 7    1  0.6017574E-006  0.2192646E+02  0.7818608E-02  0.1719052E+00
          2   -1    0    0  502    0  0.00000000000E+00  0.00000000000E+00  0.42045935765E+03  0.42045935765E+03  0.00000000000E+00 0. -1.
          1   -1    0    0  501    0 -0.00000000000E+00 -0.00000000000E+00 -0.85382048502E+03  0.85382048502E+03  0.00000000000E+00 0. -1.
         25    2    1    2    0    0  0.66910223830E+01  0.41872286799E+02 -0.14938113350E+03  0.19934478276E+03  0.12500224472E+03 0.  0.
          2    1    1    2  501    0 -0.56700190712E+01 -0.21034067969E+02 -0.67900755976E+03  0.67935693663E+03  0.00000000000E+00 0. -1.
          1    1    1    2  502    0 -0.10210033119E+01 -0.20838218830E+02  0.39502756589E+03  0.39557812329E+03  0.00000000000E+00 0. -1.
         22    1    3    3    0    0 -0.11755344739E+02  0.63774286804E+02 -0.15687095607E+03  0.16974641276E+03  0.00000000000E+00 0. -1.
         22    1    3    3    0    0  0.18446367122E+02 -0.21902000005E+02  0.74898225705E+01  0.29598369995E+02  0.00000000000E+00 0. -1.
</event>
<event>
 7    1  0.6017574E-006  0.2959732E+03  0.7818608E-02  0.1173062E+00
          2   -1    0    0  502    0  0.00000000000E+00  0.00000000000E+00  0.23107889887E+04  0.23107889887E+04  0.00000000000E+00 0. -1.
          1   -1    0    0  501    0 -0.00000000000E+00 -0.00000000000E+00 -0.23558400681E+03  0.23558400681E+03  0.00000000000E+00 0. -1.
         25    2    1    2    0    0  0.20369036354E+03  0.58742698521E+02  0.11374016113E+03  0.27111289238E+03  0.12499962933E+03 0.  0.
          2    1    1    2  501    0  0.77308335707E+02  0.68189836436E+02 -0.12733172056E+03  0.16382856779E+03  0.00000000000E+00 0. -1.
          1    1    1    2  502    0 -0.28099869925E+03 -0.12693253496E+03  0.20887965413E+04  0.21114315353E+04  0.00000000000E+00 0. -1.
         22    1    3    3    0    0  0.21841939009E+03  0.53197468453E+02  0.88978615652E+02  0.24177302302E+03  0.00000000000E+00 0.  1.
         22    1    3    3    0    0 -0.14729026551E+02  0.55452300675E+01  0.24761545478E+02  0.29339869360E+02  0.00000000000E+00 0.  1.
</event>
<event>
 7    1  0.6017574E-006  0.9647003E+02  0.7818608E-02  0.1443301E+00
          2   -1    0    0  502    0  0.00000000000E+00  0.00000000000E+00  0.67915989342E+02  0.67915989342E+02  0.00000000000E+00 0. -1.
          1   -1    0    0  501    0 -0.00000000000E+00 -0.00000000000E+00 -0.99470460067E+03  0.99470460067E+03  0.00000000000E+00 0. -1.
         25    2    1    2    0    0 -0.50998892577E+02 -0.10834039384E+03 -0.27185779302E+03  0.32228965799E+03  0.12500174416E+03 0.  0.
          2    1    1    2  501    0  0.41902468357E+02  0.83652396713E+02 -0.69009771739E+03  0.69641108541E+03  0.00000000000E+00 0. -1.
          1    1    1    2  502    0  0.90964242196E+01  0.24687997131E+02  0.35166899078E+02  0.43919846615E+02  0.00000000000E+00 0. -1.
         22    1    3    3    0    0 -0.12208140222E+02 -0.88639726358E+02 -0.64206383008E+02  0.11012946652E+03  0.00000000000E+00 0.  1.
         22    1    3    3    0    0 -0.38790752354E+02 -0.19700667485E+02 -0.20765141001E+03  0.21216019147E+03  0.00000000000E+00 0.  1.
</event>
<event>
 7    1  0.6017574E-006  0.6587379E+02  0.7818608E-02  0.1417451E+00
          2   -1    0    0  502    0  0.00000000000E+00  0.00000000000E+00  0.43563828799E+03  0.43563828799E+03  0.00000000000E+00 0. -1.
          1   -1    0    0  501    0 -0.00000000000E+00 -0.00000000000E+00 -0.26765725194E+03  0.26765725194E+03  0.00000000000E+00 0. -1.
         25    2    1    2    0    0  0.15457127507E+02  0.89594380714E+02  0.26010676410E+02  0.15672029336E+03  0.12497447427E+03 0.  0.
          2    1    1    2  501    0 -0.37433943824E+02 -0.28200441065E+02 -0.19643283136E+03  0.20194658270E+03  0.00000000000E+00 0. -1.
          1    1    1    2  502    0  0.21976816316E+02 -0.61393939649E+02  0.33840319100E+03  0.34462866386E+03  0.00000000000E+00 0. -1.
         22    1    3    3    0    0 -0.46456040915E+02  0.34782721746E+01  0.19362851557E+02  0.50449798168E+02  0.00000000000E+00 0. -1.
         22    1    3    3    0    0  0.61913168422E+02  0.86116108540E+02  0.66478248527E+01  0.10627049520E+03  0.00000000000E+00 0. -1.
</event>
<event>
 7    1  0.6017574E-006  0.5956937E+02  0.7818608E-02  0.1469324E+00
          2   -1    0    0  502    0  0.00000000000E+00  0.00000000000E+00  0.82531433121E+03  0.82531433121E+03  0.00000000000E+00 0. -1.
          1   -1    0    0  501    0 -0.00000000000E+00 -0.00000000000E+00 -0.31549721690E+03  0.31549721690E+03  0.00000000000E+00 0. -1.
         25    2    1    2    0    0 -0.52299872279E+02  0.74198120948E+02  0.16391673783E+03  0.22524356528E+03  0.12500131585E+03 0.  0.
          2    1    1    2  501    0  0.43425385059E+02 -0.40099456009E+02 -0.28126752260E+03  0.28741111619E+03  0.00000000000E+00 0. -1.
          1    1    1    2  502    0  0.88744872205E+01 -0.34098664939E+02  0.62716789908E+03  0.62815686664E+03  0.00000000000E+00 0. -1.
         22    1    3    3    0    0 -0.31380189577E+02 -0.77967178552E+01 -0.82801120936E+01  0.33377617703E+02  0.00000000000E+00 0.  1.
         22    1    3    3    0    0 -0.20919682702E+02  0.81994838803E+02  0.17219684993E+03  0.19186594758E+03  0.00000000000E+00 0.  1.
</event>
<event>
 7    1  0.6017574E-006  0.1096175E+03  0.7818608E-02  0.1336743E+00
          2   -1    0    0  502    0  0.00000000000E+00  0.00000000000E+00  0.27318719088E+03  0.27318719088E+03  0.00000000000E+00 0. -1.
          1   -1    0    0  501    0 -0.00000000000E+00 -0.00000000000E+00 -0.12908190946E+04  0.12908190946E+04  0.00000000000E+00 0. -1.
         25    2    1    2    0    0 -0.73170101633E+02 -0.15865351645E+02 -0.59591740522E+02  0.15742126013E+03  0.12499881778E+03 0.  0.
          2    1    1    2  501    0 -0.20942279570E+02 -0.50404317474E+02 -0.11668638717E+04  0.11681397474E+04  0.00000000000E+00 0. -1.
          1    1    1    2  502    0  0.94112381202E+02  0.66269669119E+02  0.20882370852E+03  0.23844527796E+03  0.00000000000E+00 0. -1.
         22    1    3    3    0    0  0.31124208658E+02 -0.26475450688E+02 -0.15808718680E+02  0.43813028200E+02  0.00000000000E+00 0. -1.
         22    1    3    3    0    0 -0.10429431029E+03  0.10610099043E+02 -0.43783021841E+02  0.11360823193E+03  0.00000000000E+00 0. -1.
</event>
<event>
 7    1  0.6017574E-006  0.8076204E+02  0.7818608E-02  0.1458826E+00
          2   -1    0    0  502    0  0.00000000000E+00  0.00000000000E+00  0.70427321925E+03  0.70427321925E+03  0.00000000000E+00 0. -1.
          1   -1    0    0  501    0 -0.00000000000E+00 -0.00000000000E+00 -0.16267344266E+03  0.16267344266E+03  0.00000000000E+00 0. -1.
         25    2    1    2    0    0  0.43903497215E+01  0.89576676373E+02  0.27417216124E+02  0.15627089018E+03  0.12500252500E+03 0.  0.
          2    1    1    2  501    0 -0.28149268128E+02 -0.74692982704E+02 -0.81649583962E+02  0.11418440140E+03  0.00000000000E+00 0. -1.
          1    1    1    2  502    0  0.23758918406E+02 -0.14883693670E+02  0.59583214443E+03  0.59649137033E+03  0.00000000000E+00 0. -1.
         22    1    3    3    0    0 -0.32927230462E+02 -0.52743182014E+01  0.41649046378E+02  0.53354137633E+02  0.00000000000E+00 0.  1.
         22    1    3    3    0    0  0.37317580183E+02  0.94850994575E+02 -0.14231830253E+02  0.10291675255E+03  0.00000000000E+00 0.  1.
</event>
<event>
 7    1  0.6017574E-006  0.7266709E+02  0.7818608E-02  0.1421201E+00
          2   -1    0    0  502    0  0.00000000000E+00  0.00000000000E+00  0.84957585814E+02  0.84957585814E+02  0.00000000000E+00 0. -1.
          1   -1    0    0  501    0 -0.00000000000E+00 -0.00000000000E+00 -0.62365916605E+03  0.62365916605E+03  0.00000000000E+00 0. -1.
         25    2    1    2    0    0  0.38040826858E+02 -0.74557465421E+02 -0.19797214591E+03  0.24864821582E+03  0.12500817779E+03 0.  0.
          2    1    1    2  501    0 -0.60483723864E+02  0.39914666753E+02 -0.38943765555E+03  0.39612264393E+03  0.00000000000E+00 0. -1.
          1    1    1    2  502    0  0.22442897007E+02  0.34642798668E+02  0.48708221223E+02  0.63845892118E+02  0.00000000000E+00 0. -1.
         22    1    3    3    0    0 -0.35657379055E+02 -0.21114357309E+02 -0.14626411001E+02  0.43945382743E+02  0.00000000000E+00 0.  1.
         22    1    3    3    0    0  0.73698205912E+02 -0.53443108112E+02 -0.18334573491E+03  0.20470283307E+03  0.00000000000E+00 0.  1.
</event>
<event>
 7    1  0.6017574E-006  0.9231226E+02  0.7818608E-02  0.1451586E+00
          2   -1    0    0  502    0  0.00000000000E+00  0.00000000000E+00  0.65739535311E+03  0.65739535311E+03  0.00000000000E+00 0. -1.
          1   -1    0    0  501    0 -0.00000000000E+00 -0.00000000000E+00 -0.59887303951E+03  0.59887303951E+03  0.00000000000E+00 0. -1.
         25    2    1    2    0    0 -0.69122830691E+02  0.36692265435E+02  0.24979257050E+03  0.29007854343E+03  0.12499978008E+03 0.  0.
          2    1    1    2  501    0 -0.54246662323E+01  0.25286338158E+02 -0.57236920666E+03  0.57295316967E+03  0.00000000000E+00 0. -1.
          1    1    1    2  502    0  0.74547496924E+02 -0.61978603593E+02  0.38109894977E+03  0.39323667952E+03  0.00000000000E+00 0. -1.
         22    1    3    3    0    0 -0.45804523008E+02  0.78331453347E+02  0.20685321739E+03  0.22588077487E+03  0.00000000000E+00 0. -1.
         22    1    3    3    0    0 -0.23318307683E+02 -0.41639187912E+02  0.42939353108E+02  0.64197768563E+02  0.00000000000E+00 0. -1.
</event>
<event>
 7    1  0.6017574E-006  0.6423988E+02  0.7818608E-02  0.1500196E+00
          2   -1    0    0  502    0  0.00000000000E+00  0.00000000000E+00  0.65403065725E+03  0.65403065725E+03  0.00000000000E+00 0. -1.
          1   -1    0    0  501    0 -0.00000000000E+00 -0.00000000000E+00 -0.22731621067E+03  0.22731621067E+03  0.00000000000E+00 0. -1.
         25    2    1    2    0    0  0.28176575221E+02  0.49743478909E+02 -0.11665814786E+02  0.13796450004E+03  0.12501911435E+03 0.  0.
          2    1    1    2  501    0 -0.68543504493E+01 -0.65154604908E+02 -0.14515478519E+03  0.15925456453E+03  0.00000000000E+00 0. -1.
          1    1    1    2  502    0 -0.21322224771E+02  0.15411125998E+02  0.58353504656E+03  0.58412780335E+03  0.00000000000E+00 0. -1.
         22    1    3    3    0    0  0.16630238482E+02  0.83621088240E+02  0.22822842205E+02  0.88260599118E+02  0.00000000000E+00 0.  1.
         22    1    3    3    0    0  0.11546336738E+02 -0.33877609331E+02 -0.34488656990E+02  0.49703900924E+02  0.00000000000E+00 0.  1.
</event>
<event>
 7    1  0.6017574E-006  0.1207204E+03  0.7818608E-02  0.1280612E+00
          2   -1    0    0  502    0  0.00000000000E+00  0.00000000000E+00  0.29992401703E+04  0.29992401703E+04  0.00000000000E+00 0. -1.
          1   -1    0    0  501    0 -0.00000000000E+00 -0.00000000000E+00 -0.13299878325E+03  0.13299878325E+03  0.00000000000E+00 0. -1.
         25    2    1    2    0    0  0.10471775319E+02 -0.10965670943E+03  0.21904201895E+04  0.21967475692E+04  0.12500009745E+03 0.  0.
          2    1    1    2  501    0 -0.88560083198E+02  0.82769848709E+02 -0.98860582624E+02  0.15641979091E+03  0.00000000000E+00 0. -1.
          1    1    1    2  502    0  0.78088307879E+02  0.26886860725E+02  0.77468178021E+03  0.77907159343E+03  0.00000000000E+00 0. -1.
         22    1    3    3    0    0 -0.64622621442E+00  0.67559743967E+01  0.55971251824E+01  0.87970795539E+01  0.00000000000E+00 0. -1.
         22    1    3    3    0    0  0.11118001533E+02 -0.11641268383E+03  0.21848230643E+04  0.21879504897E+04  0.00000000000E+00 0. -1.
</event>
<event>
 7    1  0.6017574E-006  0.9287397E+02  0.7818608E-02  0.1450961E+00
          2   -1    0    0  502    0  0.00000000000E+00  0.00000000000E+00  0.18474486168E+04  0.18474486168E+04  0.00000000000E+00 0. -1.
          1   -1    0    0  501    0 -0.00000000000E+00 -0.00000000000E+00 -0.12754935400E+04  0.12754935400E+04  0.00000000000E+00 0. -1.
         25    2    1    2    0    0  0.10753388483E+02 -0.11402743940E+03  0.74369879425E+03  0.76277844253E+03  0.12500065409E+03 0.  0.
          2    1    1    2  501    0  0.38748963176E+01  0.92746497085E+02 -0.12640992440E+04  0.12675029886E+04  0.00000000000E+00 0. -1.
          1    1    1    2  502    0 -0.14628284800E+02  0.21280942318E+02  0.10923555265E+04  0.10926607257E+04  0.00000000000E+00 0. -1.
         22    1    3    3    0    0  0.73724786433E+00 -0.13960442065E+02  0.48527178555E+03  0.48547311287E+03  0.00000000000E+00 0. -1.
         22    1    3    3    0    0  0.10016140618E+02 -0.10006699734E+03  0.25842700870E+03  0.27730532966E+03  0.00000000000E+00 0. -1.
</event>
<event>
 7    1  0.6017574E-006  0.9397784E+02  0.7818608E-02  0.1347382E+00
          2   -1    0    0  502    0  0.00000000000E+00  0.00000000000E+00  0.28832000331E+03  0.28832000331E+03  0.00000000000E+00 0. -1.
          1   -1    0    0  501    0 -0.00000000000E+00 -0.00000000000E+00 -0.59435521791E+03  0.59435521791E+03  0.00000000000E+00 0. -1.
         25    2    1    2    0    0  0.80822386809E+02  0.16783065699E+02  0.28460528036E+02  0.15247304753E+03  0.12499639620E+03 0.  0.
          2    1    1    2  501    0 -0.14070053958E+02  0.56346530978E+02 -0.51823680278E+03  0.52148085462E+03  0.00000000000E+00 0. -1.
          1    1    1    2  502    0 -0.66752332851E+02 -0.73129596677E+02  0.18374106015E+03  0.20872131907E+03  0.00000000000E+00 0. -1.
         22    1    3    3    0    0 -0.28828603031E+02  0.12336802511E+02  0.29027729809E+02  0.42730482642E+02  0.00000000000E+00 0.  1.
         22    1    3    3    0    0  0.10965098984E+03  0.44462631880E+01 -0.56720177321E+00  0.10974256488E+03  0.00000000000E+00 0.  1.
</event>
<event>
 7    1  0.6017574E-006  0.3498924E+02  0.7818608E-02  0.1597973E+00
          2   -1    0    0  502    0  0.00000000000E+00  0.00000000000E+00  0.12172607755E+04  0.12172607755E+04  0.00000000000E+00 0. -1.
          1   -1    0    0  501    0 -0.00000000000E+00 -0.00000000000E+00 -0.74744961240E+02  0.74744961240E+02  0.00000000000E+00 0. -1.
         25    2    1    2    0    0  0.56651621453E+02 -0.17121270124E+02  0.91341134162E+02  0.16574826895E+03  0.12500696687E+03 0.  0.
          2    1    1    2  501    0 -0.22049247923E+02  0.13280899119E+02 -0.32816694738E+02  0.41707158485E+02  0.00000000000E+00 0. -1.
          1    1    1    2  502    0 -0.34602373530E+02  0.38403710049E+01  0.10839913748E+04  0.10845503093E+04  0.00000000000E+00 0. -1.
         22    1    3    3    0    0  0.58908214684E+02 -0.29775633183E+02 -0.71772517474E+01  0.66394872026E+02  0.00000000000E+00 0. -1.
         22    1    3    3    0    0 -0.22565932316E+01  0.12654363058E+02  0.98518385909E+02  0.99353396920E+02  0.00000000000E+00 0. -1.
</event>
<event>
 7    1  0.6017574E-006  0.8896659E+02  0.7818608E-02  0.1376372E+00
          2   -1    0    0  502    0  0.00000000000E+00  0.00000000000E+00  0.88251139265E+03  0.88251139265E+03  0.00000000000E+00 0. -1.
          1   -1    0    0  501    0 -0.00000000000E+00 -0.00000000000E+00 -0.70289805978E+03  0.70289805978E+03  0.00000000000E+00 0. -1.
         25    2    1    2    0    0 -0.98489238643E+02  0.31805674332E+02  0.10041349646E+03  0.19083880418E+03  0.12499939144E+03 0.  0.
          2    1    1    2  501    0  0.62258121291E+02 -0.63467044032E+02 -0.65388860359E+03  0.65990487591E+03  0.00000000000E+00 0. -1.
          1    1    1    2  502    0  0.36231117353E+02  0.31661369701E+02  0.73308844000E+03  0.73466577235E+03  0.00000000000E+00 0. -1.
         22    1    3    3    0    0 -0.74730214473E+02  0.32615081043E+02  0.12964917708E+03  0.15315762333E+03  0.00000000000E+00 0. -1.
         22    1    3    3    0    0 -0.23759024170E+02 -0.80940671189E+00 -0.29235680619E+02  0.37681180846E+02  0.00000000000E+00 0. -1.
</event>
<event>
 7    1  0.6017574E-006  0.3211880E+02  0.7818608E-02  0.1583853E+00
          2   -1    0    0  502    0  0.00000000000E+00  0.00000000000E+00  0.16064242082E+02  0.16064242082E+02  0.00000000000E+00 0. -1.
          1   -1    0    0  501    0 -0.00000000000E+00 -0.00000000000E+00 -0.20865591160E+04  0.20865591160E+04  0.00000000000E+00 0. -1.
         25    2    1    2    0    0  0.22921812558E+02 -0.35953459913E+02 -0.57353292960E+03  0.58854267351E+03  0.12499758572E+03 0.  0.
          2    1    1    2  501    0  0.72835982632E+01  0.31328989558E+02 -0.14775041214E+04  0.14778541826E+04  0.00000000000E+00 0. -1.
          1    1    1    2  502    0 -0.30205410821E+02  0.46244703551E+01 -0.19457822898E+02  0.36226501913E+02  0.00000000000E+00 0. -1.
         22    1    3    3    0    0 -0.23150701764E+01 -0.14653607326E+01 -0.52016681137E+03  0.52017402711E+03  0.00000000000E+00 0. -1.
         22    1    3    3    0    0  0.25236882735E+02 -0.34488099180E+02 -0.53366118232E+02  0.68368646398E+02  0.00000000000E+00 0. -1.
</event>
<event>
 7    1  0.6017574E-006  0.2434307E+03  0.7818608E-02  0.1232101E+00
          2   -1    0    0  502    0  0.00000000000E+00  0.00000000000E+00  0.13678130695E+04  0.13678130695E+04  0.00000000000E+00 0. -1.
          1   -1    0    0  501    0 -0.00000000000E+00 -0.00000000000E+00 -0.16868095700E+04  0.16868095700E+04  0.00000000000E+00 0. -1.
         25    2    1    2    0    0  0.73489793307E+02 -0.29191684370E+03 -0.23925484917E+03  0.40433157788E+03  0.12499979468E+03 0.  0.
          2    1    1    2  501    0 -0.45666986391E+02  0.23187794701E+03 -0.13539220226E+04  0.13743935751E+04  0.00000000000E+00 0. -1.
          1    1    1    2  502    0 -0.27822806916E+02  0.60038896688E+02  0.12741803713E+04  0.12758974866E+04  0.00000000000E+00 0. -1.
         22    1    3    3    0    0  0.70888778558E+02 -0.28892322573E+03 -0.25268859355E+03  0.39032470406E+03  0.00000000000E+00 0. -1.
         22    1    3    3    0    0  0.26010147490E+01 -0.29936179714E+01  0.13433744381E+02  0.14006873826E+02  0.00000000000E+00 0. -1.
</event>
<event>
 7    1  0.6017574E-006  0.1019816E+03  0.7818608E-02  0.1299432E+00
          2   -1    0    0  502    0  0.00000000000E+00  0.00000000000E+00  0.16700456346E+04  0.16700456346E+04  0.00000000000E+00 0. -1.
          1   -1    0    0  501    0 -0.00000000000E+00 -0.00000000000E+00 -0.15984064629E+03  0.15984064629E+03  0.00000000000E+00 0. -1.
         25    2    1    2    0    0  0.15420360194E+03  0.36264478805E+02  0.34364205736E+03  0.39850862037E+03  0.12500157458E+03 0.  0.
          2    1    1    2  501    0 -0.97261207487E+02  0.22691156280E+02 -0.11207342559E+03  0.15011690038E+03  0.00000000000E+00 0. -1.
          1    1    1    2  502    0 -0.56942394453E+02 -0.58955635086E+02  0.12786363565E+04  0.12812607601E+04  0.00000000000E+00 0. -1.
         22    1    3    3    0    0 -0.14873034095E+01 -0.11698794180E+02  0.12649797690E+03  0.12704649549E+03  0.00000000000E+00 0.  1.
         22    1    3    3    0    0  0.15569090535E+03  0.47963272986E+02  0.21714408046E+03  0.27146212487E+03  0.00000000000E+00 0.  1.
</event>
<event>
 7    1  0.6017574E-006  0.7206819E+02  0.7818608E-02  0.1411467E+00
          2   -1    0    0  502    0  0.00000000000E+00  0.00000000000E+00  0.77289249900E+03  0.77289249900E+03  0.00000000000E+00 0. -1.
          1   -1    0    0  501    0 -0.00000000000E+00 -0.00000000000E+00 -0.61789693314E+02  0.61789693314E+02  0.00000000000E+00 0. -1.
         25    2    1    2    0    0 -0.27341050980E+01  0.76638246155E+02  0.74653571237E+02  0.16454190184E+03  0.12497994102E+03 0.  0.
          2    1    1    2  501    0 -0.39956452989E+02 -0.62812994212E+02  0.70870896854E+02  0.10278460195E+03  0.00000000000E+00 0. -1.
          1    1    1    2  502    0  0.42690558087E+02 -0.13825251944E+02  0.56557833760E+03  0.56735568853E+03  0.00000000000E+00 0. -1.
         22    1    3    3    0    0  0.10300292856E+02 -0.95257100454E+01  0.76103173361E+02  0.77385581218E+02  0.00000000000E+00 0.  1.
         22    1    3    3    0    0 -0.13034397954E+02  0.86163956201E+02 -0.14496021246E+01  0.87156320623E+02  0.00000000000E+00 0.  1.
</event>
<event>
 7    1  0.6017574E-006  0.5225111E+02  0.7818608E-02  0.1539400E+00
          2   -1    0    0  502    0  0.00000000000E+00  0.00000000000E+00  0.95703625529E+02  0.95703625529E+02  0.00000000000E+00 0. -1.
          1   -1    0    0  501    0 -0.00000000000E+00 -0.00000000000E+00 -0.20575263784E+04  0.20575263784E+04  0.00000000000E+00 0. -1.
         25    2    1    2    0    0 -0.25829942495E+02 -0.13479210386E+02 -0.25527938084E+02  0.13087047182E+03  0.12500611876E+03 0.  0.
          2    1    1    2  501    0  0.50712163237E+02  0.13226014191E+02 -0.19753531004E+04  0.19760482085E+04  0.00000000000E+00 0. -1.
          1    1    1    2  502    0 -0.24882220743E+02  0.25319619547E+00  0.39058285641E+02  0.46311323611E+02  0.00000000000E+00 0. -1.
         22    1    3    3    0    0 -0.32528888651E+02 -0.64556648939E+02 -0.31801844070E+02  0.78974975817E+02  0.00000000000E+00 0. -1.
         22    1    3    3    0    0  0.66989461560E+01  0.51077438552E+02  0.62739059862E+01  0.51895495999E+02  0.00000000000E+00 0. -1.
</event>
<event>
 7    1  0.6017574E-006  0.4295526E+02  0.7818608E-02  0.1562224E+00
          2   -1    0    0  502    0  0.00000000000E+00  0.00000000000E+00  0.83161155527E+03  0.83161155527E+03  0.00000000000E+00 0. -1.
          1   -1    0    0  501    0 -0.00000000000E+00 -0.00000000000E+00 -0.16293766326E+04  0.16293766326E+04  0.00000000000E+00 0. -1.
         25    2    1    2    0    0  0.41165297917E+02 -0.36478785204E+02 -0.10811026073E+04  0.10896945408E+04  0.12500424472E+03 0.  0.
          2    1    1    2  501    0  0.52405848107E+00  0.26139699796E+02 -0.54310588053E+03  0.54373482140E+03  0.00000000000E+00 0. -1.
          1    1    1    2  502    0 -0.41689356398E+02  0.10339085408E+02  0.82644341052E+03  0.82755882566E+03  0.00000000000E+00 0. -1.
         22    1    3    3    0    0 -0.30845317300E+02 -0.12615732106E+02 -0.94952684967E+02  0.10063102244E+03  0.00000000000E+00 0.  1.
         22    1    3    3    0    0  0.72010615217E+02 -0.23863053098E+02 -0.98614992234E+03  0.98906351836E+03  0.00000000000E+00 0.  1.
</event>
<event>
 7    1  0.6017574E-006  0.4904336E+02  0.7818608E-02  0.1461975E+00
          2   -1    0    0  502    0  0.00000000000E+00  0.00000000000E+00  0.41916166796E+03  0.41916166796E+03  0.00000000000E+00 0. -1.
          1   -1    0    0  501    0 -0.00000000000E+00 -0.00000000000E+00 -0.42941439723E+03  0.42941439723E+03  0.00000000000E+00 0. -1.
         25    2    1    2    0    0 -0.14313065577E+01  0.32132612686E+02 -0.20307327298E+03  0.24062026107E+03  0.12499920961E+03 0.  0.
          2    1    1    2  501    0  0.46450193733E+02 -0.29046269040E+02 -0.20264722957E+03  0.20992190428E+03  0.00000000000E+00 0. -1.
          1    1    1    2  502    0 -0.45018887175E+02 -0.30863436458E+01  0.39546777328E+03  0.39803389984E+03  0.00000000000E+00 0. -1.
         22    1    3    3    0    0  0.10378647727E+02 -0.13208140946E+02 -0.19166247616E+03  0.19239718315E+03  0.00000000000E+00 0.  1.
         22    1    3    3    0    0 -0.11809954285E+02  0.45340753632E+02 -0.11410796820E+02  0.48223077921E+02  0.00000000000E+00 0.  1.
</event>
<event>
 7    1  0.6017574E-006  0.7086002E+02  0.7818608E-02  0.1458774E+00
          2   -1    0    0  502    0  0.00000000000E+00  0.00000000000E+00  0.17300439162E+03  0.17300439162E+03  0.00000000000E+00 0. -1.
          1   -1    0    0  501    0 -0.00000000000E+00 -0.00000000000E+00 -0.97143979811E+03  0.97143979811E+03  0.00000000000E+00 0. -1.
         25    2    1    2    0    0  0.51898518987E+02  0.41562625849E+02 -0.28424294357E+03  0.31755324047E+03  0.12500040570E+03 0.  0.
          2    1    1    2  501    0  0.17680425556E+02 -0.26631187687E+02 -0.66203850781E+03  0.66280977922E+03  0.00000000000E+00 0. -1.
          1    1    1    2  502    0 -0.69578944543E+02 -0.14931438163E+02  0.14784604490E+03  0.16408117004E+03  0.00000000000E+00 0. -1.
         22    1    3    3    0    0  0.53836939602E+02 -0.34885953875E+02 -0.11145791444E+03  0.12860137066E+03  0.00000000000E+00 0. -1.
         22    1    3    3    0    0 -0.19384206148E+01  0.76448579724E+02 -0.17278502912E+03  0.18895186981E+03  0.00000000000E+00 0. -1.
</event>
<event>
 7    1  0.6017574E-006  0.1116155E+03  0.7818608E-02  0.1450906E+00
          2   -1    0    0  502    0  0.00000000000E+00  0.00000000000E+00  0.62237782179E+02  0.62237782179E+02  0.00000000000E+00 0. -1.
          1   -1    0    0  501    0 -0.00000000000E+00 -0.00000000000E+00 -0.56127261301E+03  0.56127261301E+03  0.00000000000E+00 0. -1.
         25    2    1    2    0    0 -0.16327238356E+02  0.10338541395E+03 -0.38707851674E+03  0.42001340161E+03  0.12500542740E+03 0.  0.
          2    1    1    2  501    0  0.31956366660E+02 -0.11814412394E+03 -0.12767871043E+03  0.17686462758E+03  0.00000000000E+00 0. -1.
          1    1    1    2  502    0 -0.15629128304E+02  0.14758709994E+02  0.15722396338E+02  0.26632366002E+02  0.00000000000E+00 0. -1.
         22    1    3    3    0    0  0.21182688139E+02 -0.22779347854E+02 -0.84623120892E+02  0.90159178983E+02  0.00000000000E+00 0.  1.
         22    1    3    3    0    0 -0.37509926495E+02  0.12616476180E+03 -0.30245539585E+03  0.32985422262E+03  0.00000000000E+00 0.  1.
</event>
<event>
 7    1  0.6017574E-006  0.2999228E+02  0.7818608E-02  0.1605285E+00
          2   -1    0    0  502    0  0.00000000000E+00  0.00000000000E+00  0.30138082134E+04  0.30138082134E+04  0.00000000000E+00 0. -1.
          1   -1    0    0  501    0 -0.00000000000E+00 -0.00000000000E+00 -0.62368606359E+01  0.62368606359E+01  0.00000000000E+00 0. -1.
         25    2    1    2    0    0  0.18979071720E+02  0.22908500365E+02  0.21222843981E+04  0.21261705545E+04  0.12500062349E+03 0.  0.
          2    1    1    2  501    0  0.91166490747E+01 -0.28954702192E+02  0.52895256819E+02  0.60986853201E+02  0.00000000000E+00 0. -1.
          1    1    1    2  502    0 -0.28095720795E+02  0.60462018267E+01  0.83239169787E+03  0.83288766636E+03  0.00000000000E+00 0. -1.
         22    1    3    3    0    0 -0.48999617582E+02  0.37770549600E+01  0.51614823652E+03  0.51848262336E+03  0.00000000000E+00 0. -1.
         22    1    3    3    0    0  0.67978689302E+02  0.19131445405E+02  0.16061361616E+04  0.16076879311E+04  0.00000000000E+00 0. -1.
</event>
<event>
 7    1  0.7474290E-006  0.1309985E+03  0.7818608E-02  0.1383600E+00
          2   -1    0    0  502    0  0.00000000000E+00  0.00000000000E+00  0.19760061355E+04  0.19760061355E+04  0.00000000000E+00 0. -1.
          1   -1    0    0  501    0 -0.00000000000E+00 -0.00000000000E+00 -0.19610108578E+04  0.19610108578E+04  0.00000000000E+00 0. -1.
         25    2    1    2    0    0 -0.58797612434E+02 -0.10423649516E+03 -0.14729001251E+03  0.22724987661E+03  0.12500300989E+03 0.  0.
          2    1    1    2  501    0 -0.29862934580E+02  0.75684353935E+01 -0.17713850817E+04  0.17716529524E+04  0.00000000000E+00 0. -1.
          1    1    1    2  502    0  0.88660547015E+02  0.96668059769E+02  0.19336703719E+04  0.19381141642E+04  0.00000000000E+00 0. -1.
         22    1    3    3    0    0 -0.20067043383E+02 -0.51924836783E+02 -0.15211634342E+03  0.16198227323E+03  0.00000000000E+00 0. -1.
         22    1    3    3    0    0 -0.38730569051E+02 -0.52311658380E+02  0.48263309078E+01  0.65267603384E+02  0.00000000000E+00 0. -1.
</event>
<event>
 7    1  0.6017574E-006  0.7913203E+02  0.7818608E-02  0.1473742E+00
          2   -1    0    0  502    0  0.00000000000E+00  0.00000000000E+00  0.28801198607E+04  0.28801198607E+04  0.00000000000E+00 0. -1.
          1   -1    0    0  501    0 -0.00000000000E+00 -0.00000000000E+00 -0.17584173485E+03  0.17584173485E+03  0.00000000000E+00 0. -1.
         25    2    1    2    0    0  0.30151184577E+01 -0.10406905129E+03  0.23999139371E+03  0.28993165266E+03  0.12500014314E+03 0.  0.
          2    1    1    2  501    0 -0.29802768743E+01  0.25526291921E+02 -0.14918289936E+03  0.15138035240E+03  0.00000000000E+00 0. -1.
          1    1    1    2  502    0 -0.34841583329E-01  0.78542759369E+02  0.26134696315E+04  0.26146495904E+04  0.00000000000E+00 0. -1.
         22    1    3    3    0    0  0.12361764224E+02 -0.11190915226E+03  0.24997972679E+03  0.27416479603E+03  0.00000000000E+00 0. -1.
         22    1    3    3    0    0 -0.93466457658E+01  0.78401009716E+01 -0.99883330826E+01  0.15766856633E+02  0.00000000000E+00 0. -1.
</event>
<event>
 7    1  0.6017574E-006  0.8828090E+02  0.7818608E-02  0.1412547E+00
          2   -1    0    0  502    0  0.00000000000E+00  0.00000000000E+00  0.14708297017E+03  0.14708297017E+03  0.00000000000E+00 0. -1.
          1   -1    0    0  501    0 -0.00000000000E+00 -0.00000000000E+00 -0.97584471952E+03  0.97584471952E+03  0.00000000000E+00 0. -1.
         25    2    1    2    0    0  0.19363132691E+02 -0.12091683287E+03 -0.15002967294E+03  0.23049918942E+03  0.12500064872E+03 0.  0.
          2    1    1    2  501    0 -0.11063719395E+02  0.85551820080E+02 -0.78004482641E+03  0.78480026186E+03  0.00000000000E+00 0. -1.
          1    1    1    2  502    0 -0.82994132963E+01  0.35365012790E+02  0.10131275000E+03  0.10762823841E+03  0.00000000000E+00 0. -1.
         22    1    3    3    0    0  0.26189646562E+02  0.32050736793E+01  0.96876549608E+01  0.28107307643E+02  0.00000000000E+00 0. -1.
         22    1    3    3    0    0 -0.68265138701E+01 -0.12412190655E+03 -0.15971732790E+03  0.20239188178E+03  0.00000000000E+00 0. -1.
</event>
<event>
 7    1  0.6017574E-006  0.9052383E+02  0.7818608E-02  0.1351834E+00
          2   -1    0    0  502    0  0.00000000000E+00  0.00000000000E+00  0.39840483550E+03  0.39840483550E+03  0.00000000000E+00 0. -1.
          1   -1    0    0  501    0 -0.00000000000E+00 -0.00000000000E+00 -0.50102801793E+03  0.50102801793E+03  0.00000000000E+00 0. -1.
         25    2    1    2    0    0 -0.23063687308E+02  0.27934971610E+02  0.37417766090E+02  0.13541957606E+03  0.12500430413E+03 0.  0.
          2    1    1    2  501    0  0.69716389737E+02 -0.62469582138E+02 -0.44440853106E+03  0.45416050706E+03  0.00000000000E+00 0. -1.
          1    1    1    2  502    0 -0.46652702429E+02  0.34534610528E+02  0.30436758254E+03  0.30985277032E+03  0.00000000000E+00 0. -1.
         22    1    3    3    0    0  0.23465523793E+02  0.16574527401E+02  0.71220561128E+02  0.76796576049E+02  0.00000000000E+00 0. -1.
         22    1    3    3    0    0 -0.46529211100E+02  0.11360444209E+02 -0.33802795038E+02  0.58623000014E+02  0.00000000000E+00 0. -1.
</event>
<event>
 7    1  0.6017574E-006  0.2105164E+03  0.7818608E-02  0.1222800E+00
          2   -1    0    0  502    0  0.00000000000E+00  0.00000000000E+00  0.10037291237E+04  0.10037291237E+04  0.00000000000E+00 0. -1.
          1   -1    0    0  501    0 -0.00000000000E+00 -0.00000000000E+00 -0.22762951351E+04  0.22762951351E+04  0.00000000000E+00 0. -1.
         25    2    1    2    0    0 -0.13668022923E+03  0.88263105106E+02 -0.15656724611E+03  0.25809053505E+03  0.12500224376E+03 0.  0.
          2    1    1    2  501    0 -0.72376654710E+02 -0.43152910598E+02 -0.20560930912E+04  0.20578190770E+04  0.00000000000E+00 0. -1.
          1    1    1    2  502    0  0.20905688394E+03 -0.45110194507E+02  0.94009432598E+03  0.96411464677E+03  0.00000000000E+00 0. -1.
         22    1    3    3    0    0 -0.21144273811E+02  0.33749411031E+02 -0.11815984869E+03  0.12469102976E+03  0.00000000000E+00 0. -1.
         22    1    3    3    0    0 -0.11553595542E+03  0.54513694075E+02 -0.38407397415E+02  0.13339950529E+03  0.00000000000E+00 0. -1.
</event>
<event>
 7    1  0.6672127E-006  0.5409962E+02  0.7818608E-02  0.1442616E+00
          2   -1    0    0  502    0  0.00000000000E+00  0.00000000000E+00  0.12724527659E+04  0.12724527659E+04  0.00000000000E+00 0. -1.
          1   -1    0    0  501    0 -0.00000000000E+00 -0.00000000000E+00 -0.20213472922E+04  0.20213472922E+04  0.00000000000E+00 0. -1.
         25    2    1    2    0    0 -0.31861093311E+02  0.18162676394E+02 -0.73947611511E+02  0.14979426860E+03  0.12500024630E+03 0.  0.
          2    1    1    2  501    0 -0.15609644172E+02 -0.44497840854E+02 -0.19085881893E+04  0.19091706564E+04  0.00000000000E+00 0. -1.
          1    1    1    2  502    0  0.47470737483E+02  0.26335164460E+02  0.12336412745E+04  0.12348351331E+04  0.00000000000E+00 0. -1.
         22    1    3    3    0    0 -0.22111545375E+02  0.56812351039E+02  0.51908145318E+01  0.61184215489E+02  0.00000000000E+00 0.  1.
         22    1    3    3    0    0 -0.97495479366E+01 -0.38649674645E+02 -0.79138426043E+02  0.88610053107E+02  0.00000000000E+00 0.  1.
</event>
<event>
 7    1  0.6017574E-006  0.3920281E+02  0.7818608E-02  0.1600392E+00
          2   -1    0    0  502    0  0.00000000000E+00  0.00000000000E+00  0.85673180697E+03  0.85673180697E+03  0.00000000000E+00 0. -1.
          1   -1    0    0  501    0 -0.00000000000E+00 -0.00000000000E+00 -0.12143598516E+02  0.12143598516E+02  0.00000000000E+00 0. -1.
         25    2    1    2    0    0  0.39337976277E+02  0.42239372787E+02  0.47858135662E+03  0.49799420175E+03  0.12500587621E+03 0.  0.
          2    1    1    2  501    0 -0.18692519169E+02 -0.12775686446E+02  0.18082232061E+03  0.18223429992E+03  0.00000000000E+00 0. -1.
          1    1    1    2  502    0 -0.20645457108E+02 -0.29463686340E+02  0.18518453122E+03  0.18864690381E+03  0.00000000000E+00 0. -1.
         22    1    3    3    0    0 -0.10041274361E+01  0.46563711898E+02  0.43848377736E+03  0.44095034930E+03  0.00000000000E+00 0. -1.
         22    1    3    3    0    0  0.40342103713E+02 -0.43243391112E+01  0.40097579258E+02  0.57043852456E+02  0.00000000000E+00 0. -1.
</event>
<event>
 7    1  0.6017574E-006  0.2012016E+03  0.7818608E-02  0.1357395E+00
          2   -1    0    0  502    0  0.00000000000E+00  0.00000000000E+00  0.13966379478E+04  0.13966379478E+04  0.00000000000E+00 0. -1.
          1   -1    0    0  501    0 -0.00000000000E+00 -0.00000000000E+00 -0.40316826986E+03  0.40316826986E+03  0.00000000000E+00 0. -1.
         25    2    1    2    0    0 -0.20916821166E+03  0.33796957557E+02  0.10767195287E+03  0.26853742920E+03  0.12500210533E+03 0.  0.
          2    1    1    2  501    0  0.19260977762E+03 -0.52411017851E+02 -0.29172576996E+03  0.35348177617E+03  0.00000000000E+00 0. -1.
          1    1    1    2  502    0  0.16558434043E+02  0.18614060294E+02  0.11775234950E+04  0.11777870122E+04  0.00000000000E+00 0. -1.
         22    1    3    3    0    0 -0.10733833094E+02 -0.28011594224E+02  0.39921592306E+02  0.49935940124E+02  0.00000000000E+00 0.  1.
         22    1    3    3    0    0 -0.19843437856E+03  0.61808551780E+02  0.67750360568E+02  0.21860148908E+03  0.00000000000E+00 0.  1.
</event>
<event>
 7    1  0.6017574E-006  0.7028136E+02  0.7818608E-02  0.1522977E+00
          2   -1    0    0  502    0  0.00000000000E+00  0.00000000000E+00  0.89784612399E+03  0.89784612399E+03  0.00000000000E+00 0. -1.
          1   -1    0    0  501    0 -0.00000000000E+00 -0.00000000000E+00 -0.66349846996E+03  0.66349846996E+03  0.00000000000E+00 0. -1.
         25    2    1    2    0    0  0.74538395601E+02  0.29485909620E+02 -0.28761609419E+02  0.15125342558E+03  0.12499990916E+03 0.  0.
          2    1    1    2  501    0 -0.50268316757E+01 -0.19990769730E+02 -0.57183408583E+03  0.57220548899E+03  0.00000000000E+00 0. -1.
          1    1    1    2  502    0 -0.69511563925E+02 -0.94951398903E+01  0.83494334928E+03  0.83788567938E+03  0.00000000000E+00 0. -1.
         22    1    3    3    0    0  0.93073288347E+02  0.22136246470E+02  0.20735867823E+02  0.97890891435E+02  0.00000000000E+00 0. -1.
         22    1    3    3    0    0 -0.18534892746E+02  0.73496631496E+01 -0.49497477243E+02  0.53362534150E+02  0.00000000000E+00 0. -1.
</event>
<event>
 7    1  0.6017574E-006  0.3328522E+03  0.7818608E-02  0.1129526E+00
          2   -1    0    0  502    0  0.00000000000E+00  0.00000000000E+00  0.60788480013E+03  0.60788480013E+03  0.00000000000E+00 0. -1.
          1   -1    0    0  501    0 -0.00000000000E+00 -0.00000000000E+00 -0.10878833966E+04  0.10878833966E+04  0.00000000000E+00 0. -1.
         25    2    1    2    0    0 -0.94239004800E+02  0.28548864822E+03 -0.19077572205E+03  0.37736383864E+03  0.12499332900E+03 0.  0.
          2    1    1    2  501    0  0.24511508912E+03 -0.25790350202E+03 -0.75143193815E+03  0.83141179986E+03  0.00000000000E+00 0. -1.
          1    1    1    2  502    0 -0.15087608432E+03 -0.27585146205E+02  0.46220906376E+03  0.48699255820E+03  0.00000000000E+00 0. -1.
         22    1    3    3    0    0 -0.10942621128E+02  0.17355298174E+03 -0.54274719969E+02  0.18217058943E+03  0.00000000000E+00 0. -1.
         22    1    3    3    0    0 -0.83296383672E+02  0.11193566649E+03 -0.13650100208E+03  0.19519324920E+03  0.00000000000E+00 0. -1.
</event>
<event>
 7    1  0.6017574E-006  0.5468013E+02  0.7818608E-02  0.1426785E+00
          2   -1    0    0  502    0  0.00000000000E+00  0.00000000000E+00  0.24020591658E+03  0.24020591658E+03  0.00000000000E+00 0. -1.
          1   -1    0    0  501    0 -0.00000000000E+00 -0.00000000000E+00 -0.18526887415E+04  0.18526887415E+04  0.00000000000E+00 0. -1.
         25    2    1    2    0    0  0.25233387764E+02 -0.48519550557E+02  0.40478845669E+02  0.14231868788E+03  0.12500080531E+03 0.  0.
          2    1    1    2  501    0 -0.54636253967E+02  0.21900374051E+01 -0.17962801281E+04  0.17971121876E+04  0.00000000000E+00 0. -1.
          1    1    1    2  502    0  0.29402866203E+02  0.46329513152E+02  0.14331845743E+03  0.15346378260E+03  0.00000000000E+00 0. -1.
         22    1    3    3    0    0 -0.15006582740E+02 -0.63305917748E+02  0.65795858643E+02  0.92530707130E+02  0.00000000000E+00 0. -1.
         22    1    3    3    0    0  0.40239970504E+02  0.14786367191E+02 -0.25317012973E+02  0.49787980746E+02  0.00000000000E+00 0. -1.
</event>
<event>
 7    1  0.6017574E-006  0.1249219E+03  0.7818608E-02  0.1297109E+00
          2   -1    0    0  502    0  0.00000000000E+00  0.00000000000E+00  0.71769332306E+03  0.71769332306E+03  0.00000000000E+00 0. -1.
          1   -1    0    0  501    0 -0.00000000000E+00 -0.00000000000E+00 -0.20894276087E+03  0.20894276087E+03  0.00000000000E+00 0. -1.
         25    2    1    2    0    0 -0.17287388843E+03  0.69768721096E+02  0.15322147612E+03  0.27176318312E+03  0.12500140483E+03 0.  0.
          2    1    1    2  501    0  0.10993013619E+03 -0.43086264655E+02 -0.12357555826E+03  0.17091512409E+03  0.00000000000E+00 0. -1.
          1    1    1    2  502    0  0.62943752242E+02 -0.26682456441E+02  0.47910464433E+03  0.48395777672E+03  0.00000000000E+00 0. -1.
         22    1    3    3    0    0  0.18743790206E+02  0.86558727366E+01  0.28185296893E+02  0.34938013182E+02  0.00000000000E+00 0.  1.
         22    1    3    3    0    0 -0.19161767863E+03  0.61112848360E+02  0.12503617923E+03  0.23682516994E+03  0.00000000000E+00 0.  1.
</event>
<event>
 7    1  0.6017574E-006  0.7363453E+02  0.7818608E-02  0.1401814E+00
          2   -1    0    0  502    0  0.00000000000E+00  0.00000000000E+00  0.15515622477E+04  0.15515622477E+04  0.00000000000E+00 0. -1.
          1   -1    0    0  501    0 -0.00000000000E+00 -0.00000000000E+00 -0.12965318493E+03  0.12965318493E+03  0.00000000000E+00 0. -1.
         25    2    1    2    0    0 -0.54942913920E+01 -0.66568426786E+02  0.21406935464E+03  0.25673370617E+03  0.12499985842E+03 0.  0.
          2    1    1    2  501    0  0.47149355140E+02  0.45898406122E+01 -0.10202684840E+03  0.11248824882E+03  0.00000000000E+00 0. -1.
          1    1    1    2  502    0 -0.41655063748E+02  0.61978586174E+02  0.13098665565E+04  0.13119934776E+04  0.00000000000E+00 0. -1.
         22    1    3    3    0    0 -0.56413253716E+02 -0.45730045342E+02  0.17437116900E+03  0.18888884779E+03  0.00000000000E+00 0. -1.
         22    1    3    3    0    0  0.50918962324E+02 -0.20838381444E+02  0.39698185643E+02  0.67844858381E+02  0.00000000000E+00 0. -1.
</event>
<event>
 7    1  0.6017574E-006  0.1293458E+03  0.7818608E-02  0.1250921E+00
          2   -1    0    0  502    0  0.00000000000E+00  0.00000000000E+00  0.34626611354E+03  0.34626611354E+03  0.00000000000E+00 0. -1.
          1   -1    0    0  501    0 -0.00000000000E+00 -0.00000000000E+00 -0.14531690547E+04  0.14531690547E+04  0.00000000000E+00 0. -1.
         25    2    1    2    0    0  0.63281336476E+02 -0.92982949313E+02 -0.53364511687E+03  0.55951121301E+03  0.12500132129E+03 0.  0.
          2    1    1    2  501    0  0.66569899244E+02  0.78491703657E+02 -0.89070934232E+03  0.89663572956E+03  0.00000000000E+00 0. -1.
          1    1    1    2  502    0 -0.12985123572E+03  0.14491245655E+02  0.31745151800E+03  0.34328822569E+03  0.00000000000E+00 0. -1.
         22    1    3    3    0    0 -0.21592777245E+02 -0.24354071463E+02 -0.29849190302E+03  0.30026119462E+03  0.00000000000E+00 0.  1.
         22    1    3    3    0    0  0.84874113721E+02 -0.68628877849E+02 -0.23515321385E+03  0.25925001839E+03  0.00000000000E+00 0.  1.
</event>
<event>
 7    1  0.6017574E-006  0.8856445E+02  0.7818608E-02  0.1344123E+00
          2   -1    0    0  502    0  0.00000000000E+00  0.00000000000E+00  0.29162243509E+04  0.29162243509E+04  0.00000000000E+00 0. -1.
          1   -1    0    0  501    0 -0.00000000000E+00 -0.00000000000E+00 -0.20979820472E+03  0.20979820472E+03  0.00000000000E+00 0. -1.
         25    2    1    2    0    0 -0.53215177281E+02  0.33533849172E+02  0.12598918119E+03  0.18829374021E+03  0.12499953877E+03 0.  0.
          2    1    1    2  501    0  0.22461725019E+02 -0.88947510873E+02 -0.16647853570E+03  0.19008232856E+03  0.00000000000E+00 0. -1.
          1    1    1    2  502    0  0.30753452263E+02  0.55413661701E+02  0.27469155007E+04  0.27476464868E+04  0.00000000000E+00 0. -1.
         22    1    3    3    0    0 -0.75594222577E+02  0.18792799099E+02  0.13835859387E+03  0.15877895416E+03  0.00000000000E+00 0. -1.
         22    1    3    3    0    0  0.22379045296E+02  0.14741050073E+02 -0.12369412684E+02  0.29514786053E+02  0.00000000000E+00 0. -1.
</event>
<event>
 7    1  0.6017574E-006  0.8260319E+02  0.7818608E-02  0.1380552E+00
          2   -1    0    0  502    0  0.00000000000E+00  0.00000000000E+00  0.10753332024E+04  0.10753332024E+04  0.00000000000E+00 0. -1.
          1   -1    0    0  501    0 -0.00000000000E+00 -0.00000000000E+00 -0.15927630104E+03  0.15927630104E+03  0.00000000000E+00 0. -1.
         25    2    1    2    0    0 -0.47473095424E+02 -0.11897829882E+03  0.38689458274E+03  0.42628826002E+03  0.12499892839E+03 0.  0.
          2    1    1    2  501    0  0.42866487112E+02  0.69108789995E+02 -0.12669769431E+03  0.15055187250E+03  0.00000000000E+00 0. -1.
          1    1    1    2  502    0  0.46066083113E+01  0.49869508820E+02  0.65586001289E+03  0.65776937087E+03  0.00000000000E+00 0. -1.
         22    1    3    3    0    0 -0.38406000800E+02 -0.14571209224E+03  0.32163050917E+03  0.35518054444E+03  0.00000000000E+00 0.  1.
         22    1    3    3    0    0 -0.90670946236E+01  0.26733793423E+02  0.65264073577E+02  0.71107715584E+02  0.00000000000E+00 0.  1.
</event>
<event>
 7    1  0.6017574E-006  0.4904057E+02  0.7818608E-02  0.1495387E+00
          2   -1    0    0  502    0  0.00000000000E+00  0.00000000000E+00  0.21218922930E+04  0.21218922930E+04  0.00000000000E+00 0. -1.
          1   -1    0    0  501    0 -0.00000000000E+00 -0.00000000000E+00 -0.25262163964E+03  0.25262163964E+03  0.00000000000E+00 0. -1.
         25    2    1    2    0    0  0.61895511839E+01 -0.25279075402E+02 -0.62727812941E+02  0.14225630327E+03  0.12499894043E+03 0.  0.
          2    1    1    2  501    0  0.35620202898E+02 -0.51613534606E+00 -0.14772213081E+03  0.15195687935E+03  0.00000000000E+00 0. -1.
          1    1    1    2  502    0 -0.41809754082E+02  0.25795210748E+02  0.20797205972E+04  0.20803007501E+04  0.00000000000E+00 0. -1.
         22    1    3    3    0    0  0.48143476867E+02  0.30237460146E+02 -0.38113674827E+02  0.68445237743E+02  0.00000000000E+00 0.  1.
         22    1    3    3    0    0 -0.41953925684E+02 -0.55516535548E+02 -0.24614138114E+02  0.73811065529E+02  0.00000000000E+00 0.  1.
</event>
<event>
 7    1  0.6017574E-006  0.5138520E+02  0.7818608E-02  0.1448619E+00
          2   -1    0    0  502    0  0.00000000000E+00  0.00000000000E+00  0.22026522856E+03  0.22026522856E+03  0.00000000000E+00 0. -1.
          1   -1    0    0  501    0 -0.00000000000E+00 -0.00000000000E+00 -0.16573999927E+03  0.16573999927E+03  0.00000000000E+00 0. -1.
         25    2    1    2    0    0 -0.60587563967E+02 -0.14611055049E+02  0.32518386250E+02  0.14341304550E+03  0.12500208133E+03 0.  0.
          2    1    1    2  501    0  0.42850149885E+02 -0.29438404809E+02 -0.99429925670E+02  0.11220100330E+03  0.00000000000E+00 0. -1.
          1    1    1    2  502    0  0.17737414083E+02  0.44049459858E+02  0.12143676872E+03  0.13039117903E+03  0.00000000000E+00 0. -1.
         22    1    3    3    0    0 -0.82295926818E+02 -0.50851244806E+02  0.29144242004E+02  0.10103393247E+03  0.00000000000E+00 0. -1.
         22    1    3    3    0    0  0.21708362851E+02  0.36240189757E+02  0.33741442454E+01  0.42379113024E+02  0.00000000000E+00 0. -1.
</event>
<event>
 7    1  0.6017574E-006  0.2821237E+03  0.7818608E-02  0.1227041E+00
          2   -1    0    0  502    0  0.00000000000E+00  0.00000000000E+00  0.56251879847E+03  0.56251879847E+03  0.00000000000E+00 0. -1.
          1   -1    0    0  501    0 -0.00000000000E+00 -0.00000000000E+00 -0.38936234614E+03  0.38936234614E+03  0.00000000000E+00 0. -1.
         25    2    1    2    0    0  0.18483006950E+03  0.26901520304E+03  0.17483132231E+02  0.34994573969E+03  0.12500010704E+03 0.  0.
          2    1    1    2  501    0 -0.18329306757E+02 -0.57300564593E+02 -0.16940627444E+03  0.17977153281E+03  0.00000000000E+00 0. -1.
          1    1    1    2  502    0 -0.16650076274E+03 -0.21171463845E+03  0.32507959454E+03  0.42216387210E+03  0.00000000000E+00 0. -1.
         22    1    3    3    0    0  0.96117145914E+02  0.41466844442E+02 -0.41257644443E+01  0.10476176239E+03  0.00000000000E+00 0. -1.
         22    1    3    3    0    0  0.88712923582E+02  0.22754835860E+03  0.21608896675E+02  0.24518397730E+03  0.00000000000E+00 0. -1.
</event>
<event>
 7    1  0.6017574E-006  0.8153509E+02  0.7818608E-02  0.1397901E+00
          2   -1    0    0  502    0  0.00000000000E+00  0.00000000000E+00  0.98219541913E+03  0.98219541913E+03  0.00000000000E+00 0. -1.
          1   -1    0    0  501    0 -0.00000000000E+00 -0.00000000000E+00 -0.10839304175E+03  0.10839304175E+03  0.00000000000E+00 0. -1.
         25    2    1    2    0    0  0.10321176486E+03  0.67211677482E+02  0.15058963646E+03  0.23123717565E+03  0.12499325901E+03 0.  0.
          2    1    1    2  501    0 -0.34060426594E+02 -0.28057284368E+02 -0.58685295736E+02  0.73425389351E+02  0.00000000000E+00 0. -1.
          1    1    1    2  502    0 -0.69151338267E+02 -0.39154393114E+02  0.78189803665E+03  0.78592589588E+03  0.00000000000E+00 0. -1.
         22    1    3    3    0    0  0.73316311503E+02 -0.13689200290E+02  0.24563546923E+02  0.78524159176E+02  0.00000000000E+00 0.  1.
         22    1    3    3    0    0  0.29895453358E+02  0.80900877772E+02  0.12602608954E+03  0.15271301647E+03  0.00000000000E+00 0.  1.
</event>
<event>
 7    1  0.6017574E-006  0.5785943E+02  0.7818608E-02  0.1441418E+00
          2   -1    0    0  502    0  0.00000000000E+00  0.00000000000E+00  0.22454382369E+04  0.22454382369E+04  0.00000000000E+00 0. -1.
          1   -1    0    0  501    0 -0.00000000000E+00 -0.00000000000E+00 -0.13199859132E+03  0.13199859132E+03  0.00000000000E+00 0. -1.
         25    2    1    2    0    0  0.18374320971E+00 -0.42833295943E+02  0.14366687810E+03  0.19519331722E+03  0.12500213687E+03 0.  0.
          2    1    1    2  501    0 -0.44248354783E+02  0.46076539882E+01 -0.10114912465E+03  0.11050019364E+03  0.00000000000E+00 0. -1.
          1    1    1    2  502    0  0.44064611573E+02  0.38225641955E+02  0.20709218921E+04  0.20717433173E+04  0.00000000000E+00 0. -1.
         22    1    3    3    0    0  0.49139336015E+00 -0.53004847264E+02  0.18786735898E+01  0.53040406441E+02  0.00000000000E+00 0.  1.
         22    1    3    3    0    0 -0.30765015044E+00  0.10171551321E+02  0.14178820451E+03  0.14215291078E+03  0.00000000000E+00 0.  1.
</event>
<event>
 7    1  0.6017574E-006  0.1020236E+03  0.7818608E-02  0.1430768E+00
          2   -1    0    0  502    0  0.00000000000E+00  0.00000000000E+00  0.12202041875E+04  0.12202041875E+04  0.00000000000E+00 0. -1.
          1   -1    0    0  501    0 -0.00000000000E+00 -0.00000000000E+00 -0.70016585937E+02  0.70016585937E+02  0.00000000000E+00 0. -1.
         25    2    1    2    0    0  0.53340482529E+02 -0.66340717696E+02  0.13472839490E+03  0.20256558832E+03  0.12503911100E+03 0.  0.
          2    1    1    2  501    0 -0.60554890959E+02  0.92703188151E+02  0.49465583006E+02  0.12127497604E+03  0.00000000000E+00 0. -1.
          1    1    1    2  502    0  0.72144084291E+01 -0.26362470455E+02  0.96599362369E+03  0.96638020911E+03  0.00000000000E+00 0. -1.
         22    1    3    3    0    0  0.91835415210E+02 -0.56858976072E+02  0.11669714599E+03  0.15901229679E+03  0.00000000000E+00 0.  1.
         22    1    3    3    0    0 -0.38494932680E+02 -0.94817416237E+01  0.18031248902E+02  0.43553291532E+02  0.00000000000E+00 0.  1.
</event>
<event>
 7    1  0.6017574E-006  0.5155489E+02  0.7818608E-02  0.1521665E+00
          2   -1    0    0  502    0  0.00000000000E+00  0.00000000000E+00  0.21598061002E+04  0.21598061002E+04  0.00000000000E+00 0. -1.
          1   -1    0    0  501    0 -0.00000000000E+00 -0.00000000000E+00 -0.22804116949E+03  0.22804116949E+03  0.00000000000E+00 0. -1.
         25    2    1    2    0    0 -0.58412843550E+02 -0.36817214968E+02  0.39270270213E+03  0.41787526051E+03  0.12504700506E+03 0.  0.
          2    1    1    2  501    0  0.50558727258E+02  0.95796017571E+01 -0.21226603673E+03  0.21841434024E+03  0.00000000000E+00 0. -1.
          1    1    1    2  502    0  0.78541162920E+01  0.27237613211E+02  0.17513282653E+04  0.17515576689E+04  0.00000000000E+00 0. -1.
         22    1    3    3    0    0 -0.38580551005E+02 -0.82263158346E+02  0.21563836148E+03  0.23399912197E+03  0.00000000000E+00 0. -1.
         22    1    3    3    0    0 -0.19832292545E+02  0.45445943377E+02  0.17706434064E+03  0.18387613854E+03  0.00000000000E+00 0. -1.
</event>
<event>
 7    1  0.6017574E-006  0.4392549E+02  0.7818608E-02  0.1495137E+00
          2   -1    0    0  502    0  0.00000000000E+00  0.00000000000E+00  0.11443713865E+04  0.11443713865E+04  0.00000000000E+00 0. -1.
          1   -1    0    0  501    0 -0.00000000000E+00 -0.00000000000E+00 -0.29886391902E+04  0.29886391902E+04  0.00000000000E+00 0. -1.
         25    2    1    2    0    0 -0.38041866612E+02 -0.60237864113E+02 -0.11413574110E+03  0.18366291556E+03  0.12501725987E+03 0.  0.
          2    1    1    2  501    0  0.38800764694E+02  0.20403999140E+02 -0.28392129668E+04  0.28395513894E+04  0.00000000000E+00 0. -1.
          1    1    1    2  502    0 -0.75889808171E+00  0.39833864973E+02  0.11090809041E+04  0.11097962717E+04  0.00000000000E+00 0. -1.
         22    1    3    3    0    0 -0.60287897734E+02 -0.79867172886E+02 -0.47597876428E+02  0.11081044066E+03  0.00000000000E+00 0.  1.
         22    1    3    3    0    0  0.22246031122E+02  0.19629308773E+02 -0.66537864675E+02  0.72852474900E+02  0.00000000000E+00 0.  1.
</event>
<event>
 7    1  0.6017574E-006  0.4602026E+02  0.7818608E-02  0.1582142E+00
          2   -1    0    0  502    0  0.00000000000E+00  0.00000000000E+00  0.60661537844E+03  0.60661537844E+03  0.00000000000E+00 0. -1.
          1   -1    0    0  501    0 -0.00000000000E+00 -0.00000000000E+00 -0.27077997986E+03  0.27077997986E+03  0.00000000000E+00 0. -1.
         25    2    1    2    0    0  0.18576845764E+02  0.17893616945E+02  0.76999720937E+02  0.14906092785E+03  0.12499968984E+03 0.  0.
          2    1    1    2  501    0 -0.38645116378E+02 -0.25753172701E+02 -0.23221390756E+03  0.23681209806E+03  0.00000000000E+00 0. -1.
          1    1    1    2  502    0  0.20068270614E+02  0.78595557565E+01  0.49104958521E+03  0.49152233238E+03  0.00000000000E+00 0. -1.
         22    1    3    3    0    0  0.60914476013E+02  0.21588109311E-01  0.82744114442E+02  0.10274805268E+03  0.00000000000E+00 0.  1.
         22    1    3    3    0    0 -0.42337630249E+02  0.17872028835E+02 -0.57443935051E+01  0.46312875171E+02  0.00000000000E+00 0.  1.
</event>
<event>
 7    1  0.6017574E-006  0.7893129E+02  0.7818608E-02  0.1383125E+00
          2   -1    0    0  502    0  0.00000000000E+00  0.00000000000E+00  0.45778823264E+04  0.45778823264E+04  0.00000000000E+00 0. -1.
          1   -1    0    0  501    0 -0.00000000000E+00 -0.00000000000E+00 -0.32467102422E+02  0.32467102422E+02  0.00000000000E+00 0. -1.
         25    2    1    2    0    0 -0.75680780515E+02  0.74466428440E+02  0.13452330681E+04  0.13551935829E+04  0.12499923967E+03 0.  0.
          2    1    1    2  501    0  0.24354622957E+02 -0.74380761828E+02  0.28859267149E+02  0.83417640160E+02  0.00000000000E+00 0. -1.
          1    1    1    2  502    0  0.51326157558E+02 -0.85666611871E-01  0.31713228887E+04  0.31717382058E+04  0.00000000000E+00 0. -1.
         22    1    3    3    0    0 -0.53615864994E+02  0.87414614140E+01  0.10694732453E+04  0.10708520423E+04  0.00000000000E+00 0. -1.
         22    1    3    3    0    0 -0.22064915521E+02  0.65724967026E+02  0.27575982283E+03  0.28434154054E+03  0.00000000000E+00 0. -1.
</event>
<event>
 7    1  0.6017574E-006  0.5902181E+02  0.7818608E-02  0.1417527E+00
          2   -1    0    0  502    0  0.00000000000E+00  0.00000000000E+00  0.42939369542E+03  0.42939369542E+03  0.00000000000E+00 0. -1.
          1   -1    0    0  501    0 -0.00000000000E+00 -0.00000000000E+00 -0.16964006092E+04  0.16964006092E+04  0.00000000000E+00 0. -1.
         25    2    1    2    0    0  0.54036799652E+02 -0.34523224358E+01 -0.11831727887E+04  0.11909923014E+04  0.12503167532E+03 0.  0.
          2    1    1    2  501    0 -0.43308046017E+02  0.54617567950E+02 -0.50531069838E+03  0.51009564542E+03  0.00000000000E+00 0. -1.
          1    1    1    2  502    0 -0.10728753635E+02 -0.51165245514E+02  0.42147657331E+03  0.42470635779E+03  0.00000000000E+00 0. -1.
         22    1    3    3    0    0  0.27111034101E+02 -0.26756726949E+02 -0.96638051149E+02  0.10387417165E+03  0.00000000000E+00 0. -1.
         22    1    3    3    0    0  0.26925765551E+02  0.23304404514E+02 -0.10865347376E+04  0.10871181297E+04  0.00000000000E+00 0. -1.
</event>
<event>
 7    1  0.6017574E-006  0.1045727E+03  0.7818608E-02  0.1434693E+00
          2   -1    0    0  502    0  0.00000000000E+00  0.00000000000E+00  0.21648628149E+03  0.21648628149E+03  0.00000000000E+00 0. -1.
          1   -1    0    0  501    0 -0.00000000000E+00 -0.00000000000E+00 -0.55657584258E+03  0.55657584258E+03  0.00000000000E+00 0. -1.
         25    2    1    2    0    0  0.97471711703E+02  0.81761421126E+02  0.44468261287E+02  0.18381640071E+03  0.12500151335E+03 0.  0.
          2    1    1    2  501    0 -0.72972666878E+02 -0.73399283925E+02 -0.47965156094E+03  0.49069143553E+03  0.00000000000E+00 0. -1.
          1    1    1    2  502    0 -0.24499044824E+02 -0.83621372011E+01  0.95093738562E+02  0.98554287830E+02  0.00000000000E+00 0. -1.
         22    1    3    3    0    0 -0.25748035294E+02 -0.60217383889E+01  0.12451963799E+01  0.26472120594E+02  0.00000000000E+00 0. -1.
         22    1    3    3    0    0  0.12321974700E+03  0.87783159515E+02  0.43223064908E+02  0.15734428011E+03  0.00000000000E+00 0. -1.
</event>
<event>
 7    1  0.6017574E-006  0.1165376E+03  0.7818608E-02  0.1285906E+00
          2   -1    0    0  502    0  0.00000000000E+00  0.00000000000E+00  0.23643122753E+04  0.23643122753E+04  0.00000000000E+00 0. -1.
          1   -1    0    0  501    0 -0.00000000000E+00 -0.00000000000E+00 -0.26509587825E+03  0.26509587825E+03  0.00000000000E+00 0. -1.
         25    2    1    2    0    0  0.33410543104E+02  0.66763192453E+02  0.19729773963E+03  0.24520397664E+03  0.12500001537E+03 0.  0.
          2    1    1    2  501    0 -0.64149086876E+02  0.50060295306E+02 -0.23252164856E+03  0.24634824043E+03  0.00000000000E+00 0. -1.
          1    1    1    2  502    0  0.30738543772E+02 -0.11682348776E+03  0.21344403060E+04  0.21378559365E+04  0.00000000000E+00 0. -1.
         22    1    3    3    0    0  0.20596390202E+02  0.10032690421E+03  0.17544913009E+03  0.20315535003E+03  0.00000000000E+00 0. -1.
         22    1    3    3    0    0  0.12814152902E+02 -0.33563711754E+02  0.21848609539E+02  0.42048626614E+02  0.00000000000E+00 0. -1.
</event>
<event>
 7    1  0.6017574E-006  0.4836323E+02  0.7818608E-02  0.1475575E+00
          2   -1    0    0  502    0  0.00000000000E+00  0.00000000000E+00  0.16205277912E+04  0.16205277912E+04  0.00000000000E+00 0. -1.
          1   -1    0    0  501    0 -0.00000000000E+00 -0.00000000000E+00 -0.96532848524E+01  0.96532848524E+01  0.00000000000E+00 0. -1.
         25    2    1    2    0    0  0.22516493916E+02  0.11890144686E+01  0.91907000088E+03  0.92780537772E+03  0.12499898456E+03 0.  0.
          2    1    1    2  501    0 -0.97999687274E+01  0.47359925571E+02  0.13662384163E+03  0.14493128040E+03  0.00000000000E+00 0. -1.
          1    1    1    2  502    0 -0.12716525189E+02 -0.48548940040E+02  0.55518066380E+03  0.55744441790E+03  0.00000000000E+00 0. -1.
         22    1    3    3    0    0  0.60583485989E+02  0.31805686024E+02  0.34889144607E+03  0.35553790456E+03  0.00000000000E+00 0.  1.
         22    1    3    3    0    0 -0.38066992073E+02 -0.30616671555E+02  0.57017855481E+03  0.57226747315E+03  0.00000000000E+00 0.  1.
</event>
<event>
 7    1  0.6017574E-006  0.1116353E+03  0.7818608E-02  0.1428132E+00
          2   -1    0    0  502    0  0.00000000000E+00  0.00000000000E+00  0.16955202176E+04  0.16955202176E+04  0.00000000000E+00 0. -1.
          1   -1    0    0  501    0 -0.00000000000E+00 -0.00000000000E+00 -0.97660115576E+03  0.97660115576E+03  0.00000000000E+00 0. -1.
         25    2    1    2    0    0 -0.65949575809E+02  0.10262935356E+03  0.81859133845E+02  0.19289397033E+03  0.12500014094E+03 0.  0.
          2    1    1    2  501    0  0.25459586070E+02  0.10950175397E+01 -0.91891761786E+03  0.91927089478E+03  0.00000000000E+00 0. -1.
          1    1    1    2  502    0  0.40489989739E+02 -0.10372437110E+03  0.15559775459E+04  0.15599565083E+04  0.00000000000E+00 0. -1.
         22    1    3    3    0    0 -0.84558962596E+02  0.57700309879E+02  0.56941758563E+01  0.10252788671E+03  0.00000000000E+00 0.  1.
         22    1    3    3    0    0  0.18609386787E+02  0.44929043677E+02  0.76164957989E+02  0.90366083614E+02  0.00000000000E+00 0.  1.
</event>
<event>
 7    1  0.6017574E-006  0.7515307E+02  0.7818608E-02  0.1460118E+00
          2   -1    0    0  502    0  0.00000000000E+00  0.00000000000E+00  0.14788451128E+03  0.14788451128E+03  0.00000000000E+00 0. -1.
          1   -1    0    0  501    0 -0.00000000000E+00 -0.00000000000E+00 -0.51547086311E+03  0.51547086311E+03  0.00000000000E+00 0. -1.
         25    2    1    2    0    0  0.36673523408E+02 -0.76880154013E+02 -0.27977362840E+03  0.31804513386E+03  0.12499567441E+03 0.  0.
          2    1    1    2  501    0 -0.52068807446E+02  0.51310427666E+02 -0.20852260577E+03  0.22096515068E+03  0.00000000000E+00 0. -1.
          1    1    1    2  502    0  0.15395284038E+02  0.25569726347E+02  0.12070988234E+03  0.12434508985E+03  0.00000000000E+00 0. -1.
         22    1    3    3    0    0  0.19815286338E+02  0.25940669975E+02 -0.20317907721E+02  0.38449724389E+02  0.00000000000E+00 0. -1.
         22    1    3    3    0    0  0.16858237071E+02 -0.10282082399E+03 -0.25945572068E+03  0.27959540947E+03  0.00000000000E+00 0. -1.
</event>
<event>
 7    1  0.6017574E-006  0.6605576E+02  0.7818608E-02  0.1437108E+00
          2   -1    0    0  502    0  0.00000000000E+00  0.00000000000E+00  0.21042880838E+03  0.21042880838E+03  0.00000000000E+00 0. -1.
          1   -1    0    0  501    0 -0.00000000000E+00 -0.00000000000E+00 -0.99517728546E+03  0.99517728546E+03  0.00000000000E+00 0. -1.
         25    2    1    2    0    0  0.14765869960E+02  0.26769196459E+02 -0.56591875954E+02  0.14058126641E+03  0.12500332494E+03 0.  0.
          2    1    1    2  501    0  0.33926968168E+02  0.21646165358E+02 -0.88911824617E+03  0.89002856770E+03  0.00000000000E+00 0. -1.
          1    1    1    2  502    0 -0.48692838127E+02 -0.48415361817E+02  0.16096164505E+03  0.17499625974E+03  0.00000000000E+00 0. -1.
         22    1    3    3    0    0 -0.99397114672E+00  0.73629268705E+02 -0.53549740747E+02  0.91048514116E+02  0.00000000000E+00 0.  1.
         22    1    3    3    0    0  0.15759841106E+02 -0.46860072247E+02 -0.30421352070E+01  0.49532752289E+02  0.00000000000E+00 0.  1.
</event>
<event>
 7    1  0.6017574E-006  0.6393319E+02  0.7818608E-02  0.1453881E+00
          2   -1    0    0  502    0  0.00000000000E+00  0.00000000000E+00  0.66731983561E+03  0.66731983561E+03  0.00000000000E+00 0. -1.
          1   -1    0    0  501    0 -0.00000000000E+00 -0.00000000000E+00 -0.54007223459E+02  0.54007223459E+02  0.00000000000E+00 0. -1.
         25    2    1    2    0    0 -0.85785857142E+01  0.89518687395E+02  0.33800440066E+03  0.37142924909E+03  0.12500209873E+03 0.  0.
          2    1    1    2  501    0 -0.14126552932E+02 -0.60662709440E+02 -0.92601227081E+01  0.62970419142E+02  0.00000000000E+00 0. -1.
          1    1    1    2  502    0  0.22705138646E+02 -0.28855977954E+02  0.28456833419E+03  0.28692739083E+03  0.00000000000E+00 0. -1.
         22    1    3    3    0    0 -0.46489433842E+01  0.11974977390E+03  0.29753255629E+03  0.32076041382E+03  0.00000000000E+00 0.  1.
         22    1    3    3    0    0 -0.39296423300E+01 -0.30231086509E+02  0.40471844373E+02  0.50668835267E+02  0.00000000000E+00 0.  1.
</event>
<event>
 7    1  0.6017574E-006  0.1431029E+03  0.7818608E-02  0.1339718E+00
          2   -1    0    0  502    0  0.00000000000E+00  0.00000000000E+00  0.12693692631E+03  0.12693692631E+03  0.00000000000E+00 0. -1.
          1   -1    0    0  501    0 -0.00000000000E+00 -0.00000000000E+00 -0.38598159723E+03  0.38598159723E+03  0.00000000000E+00 0. -1.
         25    2    1    2    0    0 -0.10966902825E+03  0.12818086616E+03 -0.16080300566E+03  0.26446466528E+03  0.12500528927E+03 0.  0.
          2    1    1    2  501    0  0.94110422957E+02 -0.90525284862E+02 -0.13907484415E+03  0.19077057211E+03  0.00000000000E+00 0. -1.
          1    1    1    2  502    0  0.15558605290E+02 -0.37655581296E+02  0.40833178897E+02  0.57683286142E+02  0.00000000000E+00 0. -1.
         22    1    3    3    0    0 -0.12819232231E+03  0.69093147130E+02 -0.93757390947E+02  0.17319810286E+03  0.00000000000E+00 0. -1.
         22    1    3    3    0    0  0.18523294059E+02  0.59087719028E+02 -0.67045614718E+02  0.91266562418E+02  0.00000000000E+00 0. -1.
</event>
<event>
 7    1  0.6017574E-006  0.6707445E+02  0.7818608E-02  0.1398498E+00
          2   -1    0    0  502    0  0.00000000000E+00  0.00000000000E+00  0.47143791666E+03  0.47143791666E+03  0.00000000000E+00 0. -1.
          1   -1    0    0  501    0 -0.00000000000E+00 -0.00000000000E+00 -0.52818565342E+03  0.52818565342E+03  0.00000000000E+00 0. -1.
         25    2    1    2    0    0 -0.39111351898E+02 -0.96919146029E+01 -0.57844765869E+02  0.14350647145E+03  0.12499783740E+03 0.  0.
          2    1    1    2  501    0  0.56659026946E+02 -0.40730567627E+02 -0.42297768264E+03  0.42869493172E+03  0.00000000000E+00 0. -1.
          1    1    1    2  502    0 -0.17547675048E+02  0.50422482230E+02  0.42407471175E+03  0.42742216690E+03  0.00000000000E+00 0. -1.
         22    1    3    3    0    0 -0.57707362135E+02 -0.55332883820E+02 -0.47991240351E+02  0.93247127713E+02  0.00000000000E+00 0.  1.
         22    1    3    3    0    0  0.18596010236E+02  0.45640969217E+02 -0.98535255185E+01  0.50259343737E+02  0.00000000000E+00 0.  1.
</event>
<event>
 7    1  0.6017574E-006  0.4883656E+02  0.7818608E-02  0.1531263E+00
          2   -1    0    0  502    0  0.00000000000E+00  0.00000000000E+00  0.91752622147E+02  0.91752622147E+02  0.00000000000E+00 0. -1.
          1   -1    0    0  501    0 -0.00000000000E+00 -0.00000000000E+00 -0.27441236988E+03  0.27441236988E+03  0.00000000000E+00 0. -1.
         25    2    1    2    0    0 -0.23728996199E+02  0.12095594946E+02 -0.92818020374E+02  0.15795338766E+03  0.12499887636E+03 0.  0.
          2    1    1    2  501    0 -0.27058318615E+02 -0.75082177352E+01 -0.13633946565E+03  0.13920120629E+03  0.00000000000E+00 0. -1.
          1    1    1    2  502    0  0.50787314814E+02 -0.45873772110E+01  0.46497738291E+02  0.69010398070E+02  0.00000000000E+00 0. -1.
         22    1    3    3    0    0  0.45175641770E+02  0.22561868431E+02 -0.66399628764E+02  0.83419345577E+02  0.00000000000E+00 0.  1.
         22    1    3    3    0    0 -0.68904637969E+02 -0.10466273485E+02 -0.26418391610E+02  0.74534042086E+02  0.00000000000E+00 0.  1.
</event>
<event>
 7    1  0.6017574E-006  0.1358788E+03  0.7818608E-02  0.1328014E+00
          2   -1    0    0  502    0  0.00000000000E+00  0.00000000000E+00  0.31488155335E+03  0.31488155335E+03  0.00000000000E+00 0. -1.
          1   -1    0    0  501    0 -0.00000000000E+00 -0.00000000000E+00 -0.24821935675E+03  0.24821935675E+03  0.00000000000E+00 0. -1.
         25    2    1    2    0    0 -0.92748110517E+02  0.80847311016E+02  0.13693659682E+03  0.22252124322E+03  0.12500228970E+03 0.  0.
          2    1    1    2  501    0 -0.44574027048E+02 -0.16510303959E+02 -0.15826864220E+03  0.16525252533E+03  0.00000000000E+00 0. -1.
          1    1    1    2  502    0  0.13732213757E+03 -0.64337007057E+02  0.87994241977E+02  0.17532714155E+03  0.00000000000E+00 0. -1.
         22    1    3    3    0    0 -0.90523410864E+01 -0.44201279302E+01 -0.21699491864E+02  0.23923844950E+02  0.00000000000E+00 0. -1.
         22    1    3    3    0    0 -0.83695769431E+02  0.85267438946E+02  0.15863608868E+03  0.19859739827E+03  0.00000000000E+00 0. -1.
</event>
<event>
 7    1  0.6017574E-006  0.2656995E+03  0.7818608E-02  0.1244340E+00
          2   -1    0    0  502    0  0.00000000000E+00  0.00000000000E+00  0.99085351922E+03  0.99085351922E+03  0.00000000000E+00 0. -1.
          1   -1    0    0  501    0 -0.00000000000E+00 -0.00000000000E+00 -0.37040352303E+04  0.37040352303E+04  0.00000000000E+00 0. -1.
         25    2    1    2    0    0 -0.20912503309E+03  0.42455476814E+02  0.25346678992E+03  0.35412702753E+03  0.12499916424E+03 0.  0.
          2    1    1    2  501    0  0.26252229714E+03 -0.46092082462E+02 -0.36477929935E+04  0.36575177594E+04  0.00000000000E+00 0. -1.
          1    1    1    2  502    0 -0.53397264050E+02  0.36366056479E+01  0.68114449254E+03  0.68324396260E+03  0.00000000000E+00 0. -1.
         22    1    3    3    0    0 -0.56449477094E+02 -0.32900701762E+02  0.12426372035E+03  0.14039398789E+03  0.00000000000E+00 0. -1.
         22    1    3    3    0    0 -0.15267555600E+03  0.75356178576E+02  0.12920306957E+03  0.21373303964E+03  0.00000000000E+00 0. -1.
</event>
<event>
 7    1  0.6017574E-006  0.6422200E+02  0.7818608E-02  0.1416570E+00
          2   -1    0    0  502    0  0.00000000000E+00  0.00000000000E+00  0.67067080686E+03  0.67067080686E+03  0.00000000000E+00 0. -1.
          1   -1    0    0  501    0 -0.00000000000E+00 -0.00000000000E+00 -0.25629508210E+04  0.25629508210E+04  0.00000000000E+00 0. -1.
         25    2    1    2    0    0 -0.21385604889E+02 -0.10341903874E+03 -0.84661296951E+02  0.18424648808E+03  0.12500556587E+03 0.  0.
          2    1    1    2  501    0 -0.61520942837E+01  0.63614974793E+02 -0.24271323311E+04  0.24279736543E+04  0.00000000000E+00 0. -1.
          1    1    1    2  502    0  0.27537699172E+02  0.39804063949E+02  0.61951361389E+03  0.62140148550E+03  0.00000000000E+00 0. -1.
         22    1    3    3    0    0 -0.11786577863E+02 -0.28873034408E+02 -0.10238020509E+03  0.10702467906E+03  0.00000000000E+00 0.  1.
         22    1    3    3    0    0 -0.95990270254E+01 -0.74546004334E+02  0.17718908144E+02  0.77221809017E+02  0.00000000000E+00 0.  1.
</event>
<event>
 7    1  0.6017574E-006  0.2148549E+03  0.7818608E-02  0.1154358E+00
          2   -1    0    0  502    0  0.00000000000E+00  0.00000000000E+00  0.39510881855E+03  0.39510881855E+03  0.00000000000E+00 0. -1.
          1   -1    0    0  501    0 -0.00000000000E+00 -0.00000000000E+00 -0.98790090790E+03  0.98790090790E+03  0.00000000000E+00 0. -1.
         25    2    1    2    0    0 -0.13081161361E+03  0.99273681803E+02  0.12572901380E+03  0.24165759214E+03  0.12499465899E+03 0.  0.
          2    1    1    2  501    0 -0.14035860980E+03  0.10667009821E+03 -0.77622158122E+03  0.79598931673E+03  0.00000000000E+00 0. -1.
          1    1    1    2  502    0  0.27117022341E+03 -0.20594378001E+03  0.57700478071E+02  0.34536281757E+03  0.00000000000E+00 0. -1.
         22    1    3    3    0    0  0.23470906707E+02  0.46904204638E+01  0.60218791498E+01  0.24680894114E+02  0.00000000000E+00 0.  1.
         22    1    3    3    0    0 -0.15428252032E+03  0.94583261339E+02  0.11970713465E+03  0.21697669803E+03  0.00000000000E+00 0.  1.
</event>
<event>
 7    1  0.6017574E-006  0.8013548E+02  0.7818608E-02  0.1341539E+00
          2   -1    0    0  502    0  0.00000000000E+00  0.00000000000E+00  0.27564697891E+03  0.27564697891E+03  0.00000000000E+00 0. -1.
          1   -1    0    0  501    0 -0.00000000000E+00 -0.00000000000E+00 -0.36624569438E+03  0.36624569438E+03  0.00000000000E+00 0. -1.
         25    2    1    2    0    0  0.43567406105E+02  0.10620310904E+03 -0.65658101206E+02  0.18197148105E+03  0.12500165766E+03 0.  0.
          2    1    1    2  501    0  0.21230384600E+02 -0.75696133180E+02 -0.22981448928E+03  0.24288954957E+03  0.00000000000E+00 0. -1.
          1    1    1    2  502    0 -0.64797790705E+02 -0.30506975855E+02  0.20487387502E+03  0.21703164267E+03  0.00000000000E+00 0. -1.
         22    1    3    3    0    0  0.14547073914E+02  0.51739947673E+02 -0.98392512619E+02  0.11211478977E+03  0.00000000000E+00 0. -1.
         22    1    3    3    0    0  0.29020332191E+02  0.54463161363E+02  0.32734411414E+02  0.69856691281E+02  0.00000000000E+00 0. -1.
</event>
<event>
 7    1  0.6017574E-006  0.6775340E+02  0.7818608E-02  0.1415394E+00
          2   -1    0    0  502    0  0.00000000000E+00  0.00000000000E+00  0.23438618669E+04  0.23438618669E+04  0.00000000000E+00 0. -1.
          1   -1    0    0  501    0 -0.00000000000E+00 -0.00000000000E+00 -0.24112585193E+04  0.24112585193E+04  0.00000000000E+00 0. -1.
         25    2    1    2    0    0  0.83024224957E+02 -0.66445841220E+02  0.49589765438E+03  0.52234775601E+03  0.12499849138E+03 0.  0.
          2    1    1    2  501    0 -0.22053167216E+02  0.40707976276E+02 -0.23972130752E+04  0.23976601113E+04  0.00000000000E+00 0. -1.
          1    1    1    2  502    0 -0.60971057741E+02  0.25737864944E+02  0.18339187684E+04  0.18351125188E+04  0.00000000000E+00 0. -1.
         22    1    3    3    0    0 -0.55398185881E+01 -0.55910850862E+00  0.27827601009E+03  0.27833170855E+03  0.00000000000E+00 0. -1.
         22    1    3    3    0    0  0.88564043545E+02 -0.65886732711E+02  0.21762164429E+03  0.24401604746E+03  0.00000000000E+00 0. -1.
</event>
<event>
 7    1  0.6017574E-006  0.2918739E+03  0.7818608E-02  0.1264977E+00
          2   -1    0    0  502    0  0.00000000000E+00  0.00000000000E+00  0.53940619699E+03  0.53940619699E+03  0.00000000000E+00 0. -1.
          1   -1    0    0  501    0 -0.00000000000E+00 -0.00000000000E+00 -0.68397367156E+03  0.68397367156E+03  0.00000000000E+00 0. -1.
         25    2    1    2    0    0  0.25612396232E+03 -0.20432007864E+03 -0.44695187003E+03  0.56809935226E+03  0.12499888522E+03 0.  0.
          2    1    1    2  501    0 -0.25618869274E+02  0.30336629415E+02 -0.12965937279E+03  0.13560306228E+03  0.00000000000E+00 0. -1.
          1    1    1    2  502    0 -0.23050509305E+03  0.17398344922E+03  0.43204376825E+03  0.51967745401E+03  0.00000000000E+00 0. -1.
         22    1    3    3    0    0  0.27978569148E+02 -0.33252469675E+02 -0.15097303722E+03  0.15710310321E+03  0.00000000000E+00 0.  1.
         22    1    3    3    0    0  0.22814539318E+03 -0.17106760896E+03 -0.29597883281E+03  0.41099624905E+03  0.00000000000E+00 0.  1.
</event>
<event>
 7    1  0.6017574E-006  0.1477236E+03  0.7818608E-02  0.1397826E+00
          2   -1    0    0  502    0  0.00000000000E+00  0.00000000000E+00  0.20533173070E+03  0.20533173070E+03  0.00000000000E+00 0. -1.
          1   -1    0    0  501    0 -0.00000000000E+00 -0.00000000000E+00 -0.92367604678E+03  0.92367604678E+03  0.00000000000E+00 0. -1.
         25    2    1    2    0    0 -0.14417958793E+03  0.31908864493E+02 -0.36813121476E+02  0.19694491026E+03  0.12500465014E+03 0.  0.
          2    1    1    2  501    0  0.14767991802E+03 -0.77904953775E+01 -0.79875639199E+03  0.81233110476E+03  0.00000000000E+00 0. -1.
          1    1    1    2  502    0 -0.35003300863E+01 -0.24118369116E+02  0.11722519739E+03  0.11973176247E+03  0.00000000000E+00 0. -1.
         22    1    3    3    0    0 -0.14756066791E+03  0.49311863079E+01 -0.61765196186E+02  0.16004189068E+03  0.00000000000E+00 0. -1.
         22    1    3    3    0    0  0.33810799765E+01  0.26977678185E+02  0.24952074710E+02  0.36903019584E+02  0.00000000000E+00 0. -1.
</event>
<event>
 7    1  0.6017574E-006  0.5146147E+02  0.7818608E-02  0.1446685E+00
          2   -1    0    0  502    0  0.00000000000E+00  0.00000000000E+00  0.67550043643E+03  0.67550043643E+03  0.00000000000E+00 0. -1.
          1   -1    0    0  501    0 -0.00000000000E+00 -0.00000000000E+00 -0.54098888561E+02  0.54098888561E+02  0.00000000000E+00 0. -1.
         25    2    1    2    0    0 -0.87879831800E+02 -0.38911053279E+02  0.24846581390E+03  0.29428057947E+03  0.12501545453E+03 0.  0.
          2    1    1    2  501    0  0.42631188878E+02  0.22599573544E+02 -0.10081720423E+02  0.49293002305E+02  0.00000000000E+00 0. -1.
          1    1    1    2  502    0  0.45248642922E+02  0.16311479735E+02  0.38301745439E+03  0.38602574322E+03  0.00000000000E+00 0. -1.
         22    1    3    3    0    0 -0.76990346557E+02 -0.82367890078E+02  0.17210060509E+03  0.20574401826E+03  0.00000000000E+00 0. -1.
         22    1    3    3    0    0 -0.10889485243E+02  0.43456836799E+02  0.76365208813E+02  0.88536561208E+02  0.00000000000E+00 0. -1.
</event>
<event>
 7    1  0.6017574E-006  0.1340557E+03  0.7818608E-02  0.1304387E+00
          2   -1    0    0  502    0  0.00000000000E+00  0.00000000000E+00  0.10428732322E+04  0.10428732322E+04  0.00000000000E+00 0. -1.
          1   -1    0    0  501    0 -0.00000000000E+00 -0.00000000000E+00 -0.75103659410E+02  0.75103659410E+02  0.00000000000E+00 0. -1.
         25    2    1    2    0    0 -0.15949599920E+03 -0.31986472012E+02  0.18117482519E+03  0.27371164184E+03  0.12502654696E+03 0.  0.
          2    1    1    2  501    0  0.11934979768E+03 -0.12034492412E+02  0.10308425322E+03  0.15816310086E+03  0.00000000000E+00 0. -1.
          1    1    1    2  502    0  0.40146201522E+02  0.44020964424E+02  0.68351049436E+03  0.68610214888E+03  0.00000000000E+00 0. -1.
         22    1    3    3    0    0 -0.10357813673E+03  0.63887588365E+00  0.18149416202E+03  0.20897121672E+03  0.00000000000E+00 0.  1.
         22    1    3    3    0    0 -0.55917862474E+02 -0.32625347896E+02 -0.31933682771E+00  0.64740425122E+02  0.00000000000E+00 0.  1.
</event>
<event>
 7    1  0.1142531E-005  0.4752325E+02  0.7818608E-02  0.1518500E+00
          2   -1    0    0  502    0  0.00000000000E+00  0.00000000000E+00  0.24569780307E+04  0.24569780307E+04  0.00000000000E+00 0. -1.
          1   -1    0    0  501    0 -0.00000000000E+00 -0.00000000000E+00 -0.16908102807E+04  0.16908102807E+04  0.00000000000E+00 0. -1.
         25    2    1    2    0    0  0.62135082914E+02  0.46685973211E+02 -0.24114382129E+03  0.28251655937E+03  0.12499966061E+03 0.  0.
          2    1    1    2  501    0 -0.28545692188E+02 -0.13104134743E+02 -0.14285759467E+04  0.14289212051E+04  0.00000000000E+00 0. -1.
          1    1    1    2  502    0 -0.33589390726E+02 -0.33581838467E+02  0.24358875181E+04  0.24363505470E+04  0.00000000000E+00 0. -1.
         22    1    3    3    0    0  0.53426520242E+02  0.18071549989E+02 -0.24585169864E+03  0.25223804572E+03  0.00000000000E+00 0. -1.
         22    1    3    3    0    0  0.87085626718E+01  0.28614423222E+02  0.47078773506E+01  0.30278513657E+02  0.00000000000E+00 0. -1.
</event>
<event>
 7    1  0.6017574E-006  0.5841009E+02  0.7818608E-02  0.1439551E+00
          2   -1    0    0  502    0  0.00000000000E+00  0.00000000000E+00  0.24898726358E+04  0.24898726358E+04  0.00000000000E+00 0. -1.
          1   -1    0    0  501    0 -0.00000000000E+00 -0.00000000000E+00 -0.63928988514E+02  0.63928988514E+02  0.00000000000E+00 0. -1.
         25    2    1    2    0    0  0.20049547432E+02 -0.15531485053E+02  0.95260935052E+02  0.15920123059E+03  0.12500869847E+03 0.  0.
          2    1    1    2  501    0 -0.63976213549E+02  0.23739417055E+02  0.49279620854E+01  0.68416376932E+02  0.00000000000E+00 0. -1.
          1    1    1    2  502    0  0.43926666117E+02 -0.82079320021E+01  0.23257547502E+04  0.23261840168E+04  0.00000000000E+00 0. -1.
         22    1    3    3    0    0  0.21400212306E-01 -0.53107868882E+02 -0.18763849917E+01  0.53141010677E+02  0.00000000000E+00 0.  1.
         22    1    3    3    0    0  0.20028147219E+02  0.37576383829E+02  0.97137320043E+02  0.10606021991E+03  0.00000000000E+00 0.  1.
</event>
<event>
 7    1  0.6017574E-006  0.6139898E+02  0.7818608E-02  0.1512401E+00
          2   -1    0    0  502    0  0.00000000000E+00  0.00000000000E+00  0.12606445663E+04  0.12606445663E+04  0.00000000000E+00 0. -1.
          1   -1    0    0  501    0 -0.00000000000E+00 -0.00000000000E+00 -0.28590627702E+03  0.28590627702E+03  0.00000000000E+00 0. -1.
         25    2    1    2    0    0 -0.17017594177E+02 -0.76969428348E+02  0.74766603794E+02  0.16561385942E+03  0.12499605584E+03 0.  0.
          2    1    1    2  501    0  0.27960049239E+02  0.54125182436E+02 -0.23648108279E+03  0.24420197019E+03  0.00000000000E+00 0. -1.
          1    1    1    2  502    0 -0.10942455062E+02  0.22844245912E+02  0.11364527683E+04  0.11367350137E+04  0.00000000000E+00 0. -1.
         22    1    3    3    0    0  0.17113094402E+02 -0.78146338972E+02 -0.36521177917E+01  0.80081497608E+02  0.00000000000E+00 0.  1.
         22    1    3    3    0    0 -0.34130688579E+02  0.11769106246E+01  0.78418721586E+02  0.85532361810E+02  0.00000000000E+00 0.  1.
</event>
<event>
 7    1  0.6017574E-006  0.8131551E+02  0.7818608E-02  0.1372261E+00
          2   -1    0    0  502    0  0.00000000000E+00  0.00000000000E+00  0.85370978289E+03  0.85370978289E+03  0.00000000000E+00 0. -1.
          1   -1    0    0  501    0 -0.00000000000E+00 -0.00000000000E+00 -0.18556256063E+03  0.18556256063E+03  0.00000000000E+00 0. -1.
         25    2    1    2    0    0  0.69237035567E+01  0.41829134102E+02  0.16116053889E+03  0.20831529233E+03  0.12499971038E+03 0.  0.
          2    1    1    2  501    0  0.35213951592E+02 -0.76319622936E+02 -0.14987889756E+03  0.17183827037E+03  0.00000000000E+00 0. -1.
          1    1    1    2  502    0 -0.42137655149E+02  0.34490488833E+02  0.65686558094E+03  0.65911878081E+03  0.00000000000E+00 0. -1.
         22    1    3    3    0    0 -0.48369043540E+02  0.87706939071E+01  0.12527154724E+03  0.13457135651E+03  0.00000000000E+00 0. -1.
         22    1    3    3    0    0  0.55292747097E+02  0.33058440195E+02  0.35888991645E+02  0.73743935825E+02  0.00000000000E+00 0. -1.
</event>
<event>
 7    1  0.6017574E-006  0.1466081E+03  0.7818608E-02  0.1341564E+00
          2   -1    0    0  502    0  0.00000000000E+00  0.00000000000E+00  0.12787842307E+04  0.12787842307E+04  0.00000000000E+00 0. -1.
          1   -1    0    0  501    0 -0.00000000000E+00 -0.00000000000E+00 -0.16427573335E+03  0.16427573335E+03  0.00000000000E+00 0. -1.
         25    2    1    2    0    0 -0.16879026380E+02  0.17896635304E+03  0.75534984099E+03  0.78644256971E+03  0.12499870445E+03 0.  0.
          2    1    1    2  501    0  0.29823022760E+02 -0.14202992362E+03 -0.11232135496E+03  0.18351566328E+03  0.00000000000E+00 0. -1.
          1    1    1    2  502    0 -0.12943996380E+02 -0.36936429421E+02  0.47148001137E+03  0.47310173111E+03  0.00000000000E+00 0. -1.
         22    1    3    3    0    0  0.42193549377E+02  0.25274352872E+02  0.25491024135E+03  0.25961186350E+03  0.00000000000E+00 0. -1.
         22    1    3    3    0    0 -0.59072575757E+02  0.15369200017E+03  0.50043959964E+03  0.52683070621E+03  0.00000000000E+00 0. -1.
</event>
<event>
 7    1  0.6017574E-006  0.3207526E+02  0.7818608E-02  0.1637290E+00
          2   -1    0    0  502    0  0.00000000000E+00  0.00000000000E+00  0.11440682046E+04  0.11440682046E+04  0.00000000000E+00 0. -1.
          1   -1    0    0  501    0 -0.00000000000E+00 -0.00000000000E+00 -0.50027948987E+02  0.50027948987E+02  0.00000000000E+00 0. -1.
         25    2    1    2    0    0 -0.44822745929E+02  0.19636475770E+02  0.63154091654E+02  0.14834712485E+03  0.12499504160E+03 0.  0.
          2    1    1    2  501    0  0.22805983353E+02 -0.16218824919E+02  0.19479832272E+02  0.34097316959E+02  0.00000000000E+00 0. -1.
          1    1    1    2  502    0  0.22016762576E+02 -0.34176508504E+01  0.10114063317E+04  0.10116517118E+04  0.00000000000E+00 0. -1.
         22    1    3    3    0    0 -0.65260436217E+02  0.60211654489E+02  0.41058730921E+02  0.97827333892E+02  0.00000000000E+00 0. -1.
         22    1    3    3    0    0  0.20437690288E+02 -0.40575178719E+02  0.22095360733E+02  0.50519790957E+02  0.00000000000E+00 0. -1.
</event>
<event>
 7    1  0.6017574E-006  0.7151136E+02  0.7818608E-02  0.1407858E+00
          2   -1    0    0  502    0  0.00000000000E+00  0.00000000000E+00  0.92805581486E+03  0.92805581486E+03  0.00000000000E+00 0. -1.
          1   -1    0    0  501    0 -0.00000000000E+00 -0.00000000000E+00 -0.11542458193E+04  0.11542458193E+04  0.00000000000E+00 0. -1.
         25    2    1    2    0    0 -0.85007397406E+01 -0.63774855388E+02  0.19340895554E+03  0.23910357154E+03  0.12499599627E+03 0.  0.
          2    1    1    2  501    0  0.52509913364E+02  0.48713293370E+02 -0.11295029960E+04  0.11317717499E+04  0.00000000000E+00 0. -1.
          1    1    1    2  502    0 -0.44009173623E+02  0.15061562018E+02  0.70990403602E+03  0.71142631268E+03  0.00000000000E+00 0. -1.
         22    1    3    3    0    0  0.86847394004E+01 -0.24421119668E+01 -0.17010632558E+02  0.19254875469E+02  0.00000000000E+00 0. -1.
         22    1    3    3    0    0 -0.17185479141E+02 -0.61332743422E+02  0.21041958810E+03  0.21984869607E+03  0.00000000000E+00 0. -1.
</event>
<event>
 7    1  0.6017574E-006  0.1898979E+03  0.7818608E-02  0.1256701E+00
          2   -1    0    0  502    0  0.00000000000E+00  0.00000000000E+00  0.52905862442E+02  0.52905862442E+02  0.00000000000E+00 0. -1.
          1   -1    0    0  501    0 -0.00000000000E+00 -0.00000000000E+00 -0.19281085827E+04  0.19281085827E+04  0.00000000000E+00 0. -1.
         25    2    1    2    0    0  0.76272908491E+02  0.15646063974E+03 -0.44062196841E+03  0.48996915622E+03  0.12499826656E+03 0.  0.
          2    1    1    2  501    0  0.65949131159E+02 -0.56776177812E+01 -0.10670070141E+04  0.10690582263E+04  0.00000000000E+00 0. -1.
          1    1    1    2  502    0 -0.14222203965E+03 -0.15078302196E+03 -0.36757373775E+03  0.42198706254E+03  0.00000000000E+00 0. -1.
         22    1    3    3    0    0  0.60860446120E+02  0.39424766781E+01 -0.12313831477E+03  0.13741390610E+03  0.00000000000E+00 0.  1.
         22    1    3    3    0    0  0.15412462371E+02  0.15251816306E+03 -0.31748365364E+03  0.35255525013E+03  0.00000000000E+00 0.  1.
</event>
<event>
 7    1  0.6017574E-006  0.8007520E+02  0.7818608E-02  0.1399443E+00
          2   -1    0    0  502    0  0.00000000000E+00  0.00000000000E+00  0.81387648275E+03  0.81387648275E+03  0.00000000000E+00 0. -1.
          1   -1    0    0  501    0 -0.00000000000E+00 -0.00000000000E+00 -0.23070259030E+03  0.23070259030E+03  0.00000000000E+00 0. -1.
         25    2    1    2    0    0  0.49486348131E+02  0.38758728442E+02  0.21947985319E+02  0.14164364397E+03  0.12502027890E+03 0.  0.
          2    1    1    2  501    0 -0.28934378627E+02 -0.78100672172E+02 -0.15998145988E+03  0.18036346849E+03  0.00000000000E+00 0. -1.
          1    1    1    2  502    0 -0.20551969504E+02  0.39341943730E+02  0.72120736702E+03  0.72257196059E+03  0.00000000000E+00 0. -1.
         22    1    3    3    0    0  0.36980280942E+02  0.16617634901E+02 -0.50559127855E+02  0.64806730960E+02  0.00000000000E+00 0.  1.
         22    1    3    3    0    0  0.12506067189E+02  0.22141093541E+02  0.72507113175E+02  0.76836913008E+02  0.00000000000E+00 0.  1.
</event>
<event>
 7    1  0.6017574E-006  0.9684572E+02  0.7818608E-02  0.1362711E+00
          2   -1    0    0  502    0  0.00000000000E+00  0.00000000000E+00  0.11835764179E+03  0.11835764179E+03  0.00000000000E+00 0. -1.
          1   -1    0    0  501    0 -0.00000000000E+00 -0.00000000000E+00 -0.14956544009E+04  0.14956544009E+04  0.00000000000E+00 0. -1.
         25    2    1    2    0    0  0.51628217411E+02  0.74000704441E+02 -0.18114514950E+03  0.23786691330E+03  0.12500210464E+03 0.  0.
          2    1    1    2  501    0  0.38013466184E+02 -0.31700809741E+02 -0.12582209905E+04  0.12591941970E+04  0.00000000000E+00 0. -1.
          1    1    1    2  502    0 -0.89641683595E+02 -0.42299894701E+02  0.62069380888E+02  0.11695093233E+03  0.00000000000E+00 0. -1.
         22    1    3    3    0    0  0.41289049849E+02  0.10822916154E+03 -0.15532333924E+03  0.19376190740E+03  0.00000000000E+00 0.  1.
         22    1    3    3    0    0  0.10339167562E+02 -0.34228457096E+02 -0.25821810263E+02  0.44105005909E+02  0.00000000000E+00 0.  1.
</event>
<event>
 7    1  0.6017574E-006  0.4756299E+02  0.7818608E-02  0.1547729E+00
          2   -1    0    0  502    0  0.00000000000E+00  0.00000000000E+00  0.16074788682E+04  0.16074788682E+04  0.00000000000E+00 0. -1.
          1   -1    0    0  501    0 -0.00000000000E+00 -0.00000000000E+00 -0.22486412096E+03  0.22486412096E+03  0.00000000000E+00 0. -1.
         25    2    1    2    0    0  0.68210946521E+02 -0.26660587746E+02  0.49487649580E+03  0.51564661601E+03  0.12500066539E+03 0.  0.
          2    1    1    2  501    0 -0.43498320449E+02  0.18907505154E+02 -0.21170251383E+03  0.21695057501E+03  0.00000000000E+00 0. -1.
          1    1    1    2  502    0 -0.24712626071E+02  0.77530825921E+01  0.10994407653E+04  0.10997457981E+04  0.00000000000E+00 0. -1.
         22    1    3    3    0    0  0.10437535461E+03 -0.19787831922E+02  0.40035228421E+03  0.41420734472E+03  0.00000000000E+00 0. -1.
         22    1    3    3    0    0 -0.36164408093E+02 -0.68727558243E+01  0.94524211587E+02  0.10143927130E+03  0.00000000000E+00 0. -1.
</event>
<event>
 7    1  0.6017574E-006  0.7088853E+02  0.7818608E-02  0.1420547E+00
          2   -1    0    0  502    0  0.00000000000E+00  0.00000000000E+00  0.13931556069E+03  0.13931556069E+03  0.00000000000E+00 0. -1.
          1   -1    0    0  501    0 -0.00000000000E+00 -0.00000000000E+00 -0.61236015885E+03  0.61236015885E+03  0.00000000000E+00 0. -1.
         25    2    1    2    0    0  0.47484024174E+02 -0.16336732019E+02 -0.80572626167E+02  0.15697479188E+03  0.12501006293E+03 0.  0.
          2    1    1    2  501    0 -0.43385588300E+02  0.58664623282E+02 -0.48626962173E+03  0.49171332330E+03  0.00000000000E+00 0. -1.
          1    1    1    2  502    0 -0.40984358736E+01 -0.42327891263E+02  0.93797649734E+02  0.10298760436E+03  0.00000000000E+00 0. -1.
         22    1    3    3    0    0 -0.37108625492E+02  0.12450736446E+02 -0.40881370913E+01  0.39354590442E+02  0.00000000000E+00 0.  1.
         22    1    3    3    0    0  0.84592649665E+02 -0.28787468466E+02 -0.76484489075E+02  0.11762020144E+03  0.00000000000E+00 0.  1.
</event>
<event>
 7    1  0.6017574E-006  0.9653098E+02  0.7818608E-02  0.1309414E+00
          2   -1    0    0  502    0  0.00000000000E+00  0.00000000000E+00  0.77498375605E+02  0.77498375605E+02  0.00000000000E+00 0. -1.
          1   -1    0    0  501    0 -0.00000000000E+00 -0.00000000000E+00 -0.19880558107E+04  0.19880558107E+04  0.00000000000E+00 0. -1.
         25    2    1    2    0    0  0.33193230808E+02  0.78630409731E+02 -0.71543583610E+03  0.73127193282E+03  0.12500268894E+03 0.  0.
          2    1    1    2  501    0  0.43701122029E+02 -0.96884552658E+02 -0.12392271908E+04  0.12437766821E+04  0.00000000000E+00 0. -1.
          1    1    1    2  502    0 -0.76894352837E+02  0.18254142928E+02  0.44105591749E+02  0.90505571407E+02  0.00000000000E+00 0. -1.
         22    1    3    3    0    0 -0.32935462054E+02  0.35784553654E+02 -0.49106230669E+03  0.49346475861E+03  0.00000000000E+00 0.  1.
         22    1    3    3    0    0  0.66128692862E+02  0.42845856076E+02 -0.22437352941E+03  0.23780717420E+03  0.00000000000E+00 0.  1.
</event>
<event>
 7    1  0.6017574E-006  0.5840269E+02  0.7818608E-02  0.1500128E+00
          2   -1    0    0  502    0  0.00000000000E+00  0.00000000000E+00  0.18532842459E+03  0.18532842459E+03  0.00000000000E+00 0. -1.
          1   -1    0    0  501    0 -0.00000000000E+00 -0.00000000000E+00 -0.27989229512E+03  0.27989229512E+03  0.00000000000E+00 0. -1.
         25    2    1    2    0    0 -0.15198445211E+02  0.57394817338E+02 -0.46529752892E+02  0.14599386611E+03  0.12499613291E+03 0.  0.
          2    1    1    2  501    0 -0.13752942041E+02 -0.57307334049E+02 -0.17725853281E+03  0.18679898662E+03  0.00000000000E+00 0. -1.
          1    1    1    2  502    0  0.28951387252E+02 -0.87483288735E-01  0.12922441517E+03  0.13242786698E+03  0.00000000000E+00 0. -1.
         22    1    3    3    0    0  0.47548299125E+02  0.51670520110E+02 -0.47214851994E+01  0.70377381456E+02  0.00000000000E+00 0. -1.
         22    1    3    3    0    0 -0.62746744336E+02  0.57242972280E+01 -0.41808267693E+02  0.75616484651E+02  0.00000000000E+00 0. -1.
</event>
<event>
 7    1  0.6017574E-006  0.1574553E+03  0.7818608E-02  0.1391373E+00
          2   -1    0    0  502    0  0.00000000000E+00  0.00000000000E+00  0.13064271042E+04  0.13064271042E+04  0.00000000000E+00 0. -1.
          1   -1    0    0  501    0 -0.00000000000E+00 -0.00000000000E+00 -0.96213765541E+02  0.96213765541E+02  0.00000000000E+00 0. -1.
         25    2    1    2    0    0 -0.40978543297E+02  0.17206130322E+03  0.75175897774E+03  0.78233929940E+03  0.12501554183E+03 0.  0.
          2    1    1    2  501    0  0.25707364995E+02 -0.15345198265E+03 -0.55343170847E+01  0.15568881867E+03  0.00000000000E+00 0. -1.
          1    1    1    2  502    0  0.15271178302E+02 -0.18609320570E+02  0.46398867803E+03  0.46461275169E+03  0.00000000000E+00 0. -1.
         22    1    3    3    0    0 -0.60630544099E+01  0.45336482057E+01  0.28661419800E+03  0.28671416618E+03  0.00000000000E+00 0. -1.
         22    1    3    3    0    0 -0.34915488887E+02  0.16752765501E+03  0.46514477975E+03  0.49562513322E+03  0.00000000000E+00 0. -1.
</event>
<event>
 7    1  0.6017574E-006  0.6963865E+02  0.7818608E-02  0.1408672E+00
          2   -1    0    0  502    0  0.00000000000E+00  0.00000000000E+00  0.64346303068E+03  0.64346303068E+03  0.00000000000E+00 0. -1.
          1   -1    0    0  501    0 -0.00000000000E+00 -0.00000000000E+00 -0.84063468015E+02  0.84063468015E+02  0.00000000000E+00 0. -1.
         25    2    1    2    0    0 -0.30250869055E+02  0.36458815310E+02  0.26701870490E+03  0.29861561058E+03  0.12501173474E+03 0.  0.
          2    1    1    2  501    0  0.23929407961E+02  0.40989114036E+02 -0.55171453167E+02  0.72777835083E+02  0.00000000000E+00 0. -1.
          1    1    1    2  502    0  0.63214610948E+01 -0.77447929346E+02  0.34755231093E+03  0.35613305303E+03  0.00000000000E+00 0. -1.
         22    1    3    3    0    0 -0.61373768485E+02  0.34622761454E+02  0.70638905462E+02  0.99776400183E+02  0.00000000000E+00 0. -1.
         22    1    3    3    0    0  0.31122899429E+02  0.18360538569E+01  0.19637979944E+03  0.19883921040E+03  0.00000000000E+00 0. -1.
</event>
<event>
 7    1  0.6017574E-006  0.4743400E+02  0.7818608E-02  0.1483413E+00
          2   -1    0    0  502    0  0.00000000000E+00  0.00000000000E+00  0.10162714880E+04  0.10162714880E+04  0.00000000000E+00 0. -1.
          1   -1    0    0  501    0 -0.00000000000E+00 -0.00000000000E+00 -0.82212911132E+03  0.82212911132E+03  0.00000000000E+00 0. -1.
         25    2    1    2    0    0 -0.52249334991E+01 -0.70545251226E+01  0.17269750976E+03  0.21336813666E+03  0.12499786241E+03 0.  0.
          2    1    1    2  501    0 -0.22540912127E+02 -0.33088992767E+02 -0.80056960011E+03  0.80157012094E+03  0.00000000000E+00 0. -1.
          1    1    1    2  502    0  0.27765845626E+02  0.40143517890E+02  0.82201446699E+03  0.82346234167E+03  0.00000000000E+00 0. -1.
         22    1    3    3    0    0 -0.55062251943E+02 -0.13254173442E+02  0.34470293000E+02  0.66300270001E+02  0.00000000000E+00 0.  1.
         22    1    3    3    0    0  0.49837318444E+02  0.61996483193E+01  0.13822721676E+03  0.14706786666E+03  0.00000000000E+00 0.  1.
</event>
<event>
 7    1  0.6017574E-006  0.5987568E+02  0.7818608E-02  0.1435140E+00
          2   -1    0    0  502    0  0.00000000000E+00  0.00000000000E+00  0.25253005359E+04  0.25253005359E+04  0.00000000000E+00 0. -1.
          1   -1    0    0  501    0 -0.00000000000E+00 -0.00000000000E+00 -0.24331374373E+04  0.24331374373E+04  0.00000000000E+00 0. -1.
         25    2    1    2    0    0  0.69787846914E+02 -0.23634175637E+02  0.74519829258E+02  0.16311550677E+03  0.12499818304E+03 0.  0.
          2    1    1    2  501    0 -0.33151259625E+02  0.49866423667E+02 -0.23882533534E+04  0.23890039235E+04  0.00000000000E+00 0. -1.
          1    1    1    2  502    0 -0.36636587289E+02 -0.26232248030E+02  0.24058966228E+04  0.24063185429E+04  0.00000000000E+00 0. -1.
         22    1    3    3    0    0  0.70687656358E+00 -0.40858034842E+01 -0.33312539834E+02  0.33569610883E+02  0.00000000000E+00 0. -1.
         22    1    3    3    0    0  0.69080970350E+02 -0.19548372153E+02  0.10783236909E+03  0.12954589589E+03  0.00000000000E+00 0. -1.
</event>
<event>
 7    1  0.6017574E-006  0.8054054E+02  0.7818608E-02  0.1478012E+00
          2   -1    0    0  502    0  0.00000000000E+00  0.00000000000E+00  0.90191919765E+03  0.90191919765E+03  0.00000000000E+00 0. -1.
          1   -1    0    0  501    0 -0.00000000000E+00 -0.00000000000E+00 -0.92097160292E+02  0.92097160292E+02  0.00000000000E+00 0. -1.
         25    2    1    2    0    0  0.84353547432E+02  0.56100561873E+02  0.31566739998E+02  0.16396712606E+03  0.12500386133E+03 0.  0.
          2    1    1    2  501    0 -0.24261043923E+02 -0.33835986838E+01 -0.17616682493E+02  0.30172744230E+02  0.00000000000E+00 0. -1.
          1    1    1    2  502    0 -0.60092503509E+02 -0.52716963189E+02  0.79587197985E+03  0.79987648765E+03  0.00000000000E+00 0. -1.
         22    1    3    3    0    0  0.37532593875E+01  0.31163719558E+02  0.65810458430E+02  0.72912830226E+02  0.00000000000E+00 0.  1.
         22    1    3    3    0    0  0.80600288044E+02  0.24936842315E+02 -0.34243718432E+02  0.91054295832E+02  0.00000000000E+00 0.  1.
</event>
<event>
 7    1  0.6017574E-006  0.1212439E+03  0.7818608E-02  0.1270798E+00
          2   -1    0    0  502    0  0.00000000000E+00  0.00000000000E+00  0.90626262506E+03  0.90626262506E+03  0.00000000000E+00 0. -1.
          1   -1    0    0  501    0 -0.00000000000E+00 -0.00000000000E+00 -0.28746108593E+03  0.28746108593E+03  0.00000000000E+00 0. -1.
         25    2    1    2    0    0 -0.96133859467E+02  0.25020139501E+02  0.73233337218E+02  0.17566133993E+03  0.12500423332E+03 0.  0.
          2    1    1    2  501    0 -0.12386044579E+02 -0.89485411836E+02 -0.22226552591E+03  0.23992293980E+03  0.00000000000E+00 0. -1.
          1    1    1    2  502    0  0.10851990405E+03  0.64465272335E+02  0.76783372782E+03  0.77813943127E+03  0.00000000000E+00 0. -1.
         22    1    3    3    0    0 -0.84642822658E+02  0.70929099961E+02  0.63357670255E+02  0.12731668794E+03  0.00000000000E+00 0.  1.
         22    1    3    3    0    0 -0.11491036809E+02 -0.45908960459E+02  0.98756669627E+01  0.48344651983E+02  0.00000000000E+00 0.  1.
</event>
<event>
 7    1  0.6017574E-006  0.7528374E+02  0.7818608E-02  0.1495261E+00
          2   -1    0    0  502    0  0.00000000000E+00  0.00000000000E+00  0.32149101279E+03  0.32149101279E+03  0.00000000000E+00 0. -1.
          1   -1    0    0  501    0 -0.00000000000E+00 -0.00000000000E+00 -0.14016422864E+03  0.14016422864E+03  0.00000000000E+00 0. -1.
         25    2    1    2    0    0 -0.22746556696E+02 -0.91903578056E+02 -0.20916816957E+02  0.15819594600E+03  0.12499908239E+03 0.  0.
          2    1    1    2  501    0  0.14379614428E+02  0.18239185139E+02 -0.42118661023E+02  0.48098053931E+02  0.00000000000E+00 0. -1.
          1    1    1    2  502    0  0.83669422681E+01  0.73664392917E+02  0.24436226213E+03  0.25536124150E+03  0.00000000000E+00 0. -1.
         22    1    3    3    0    0 -0.56226050187E+01  0.30436229228E+02  0.65738313656E+01  0.31641633897E+02  0.00000000000E+00 0. -1.
         22    1    3    3    0    0 -0.17123951677E+02 -0.12233980728E+03 -0.27490648323E+02  0.12655431211E+03  0.00000000000E+00 0. -1.
</event>
<event>
 7    1  0.6017574E-006  0.9767106E+02  0.7818608E-02  0.1379648E+00
          2   -1    0    0  502    0  0.00000000000E+00  0.00000000000E+00  0.38086669209E+03  0.38086669209E+03  0.00000000000E+00 0. -1.
          1   -1    0    0  501    0 -0.00000000000E+00 -0.00000000000E+00 -0.12519992335E+04  0.12519992335E+04  0.00000000000E+00 0. -1.
         25    2    1    2    0    0  0.10951639092E+03  0.47638614394E+02 -0.52928656213E+03  0.55680395176E+03  0.12499239329E+03 0.  0.
          2    1    1    2  501    0 -0.93497633594E+02 -0.80905507952E+01 -0.70459230654E+03  0.71081473180E+03  0.00000000000E+00 0. -1.
          1    1    1    2  502    0 -0.16018757328E+02 -0.39548063598E+02  0.36274632723E+03  0.36524724207E+03  0.00000000000E+00 0. -1.
         22    1    3    3    0    0  0.13455099468E+03  0.54935549166E+02 -0.41945712267E+03  0.44392134719E+03  0.00000000000E+00 0.  1.
         22    1    3    3    0    0 -0.25034603757E+02 -0.72969347724E+01 -0.10982943947E+03  0.11288260457E+03  0.00000000000E+00 0.  1.
</event>
<event>
 7    1  0.6017574E-006  0.5227419E+02  0.7818608E-02  0.1435929E+00
          2   -1    0    0  502    0  0.00000000000E+00  0.00000000000E+00  0.96799926724E+03  0.96799926724E+03  0.00000000000E+00 0. -1.
          1   -1    0    0  501    0 -0.00000000000E+00 -0.00000000000E+00 -0.10741814781E+04  0.10741814781E+04  0.00000000000E+00 0. -1.
         25    2    1    2    0    0 -0.47034204989E+02 -0.61771134226E+02 -0.28375131299E+02  0.14986261368E+03  0.12500306172E+03 0.  0.
          2    1    1    2  501    0 -0.33507268145E+01  0.52091012674E+02 -0.98364467784E+03  0.98502870679E+03  0.00000000000E+00 0. -1.
          1    1    1    2  502    0  0.50384931804E+02  0.96801215519E+01  0.90583759826E+03  0.90728942489E+03  0.00000000000E+00 0. -1.
         22    1    3    3    0    0 -0.67898669177E+02  0.11526298236E+02 -0.97367395277E+00  0.68876940031E+02  0.00000000000E+00 0.  1.
         22    1    3    3    0    0  0.20864464188E+02 -0.73297432463E+02 -0.27401457346E+02  0.80985673648E+02  0.00000000000E+00 0.  1.
</event>
<event>
 7    1  0.6017574E-006  0.1441974E+03  0.7818608E-02  0.1322959E+00
          2   -1    0    0  502    0  0.00000000000E+00  0.00000000000E+00  0.10818890603E+04  0.10818890603E+04  0.00000000000E+00 0. -1.
          1   -1    0    0  501    0 -0.00000000000E+00 -0.00000000000E+00 -0.22407525836E+04  0.22407525836E+04  0.00000000000E+00 0. -1.
         25    2    1    2    0    0 -0.14072334325E+03  0.53337258439E+02  0.24025000056E+03  0.30982843799E+03  0.12500270295E+03 0.  0.
          2    1    1    2  501    0  0.28484515408E+02  0.37187070038E+02 -0.21992695689E+04  0.21997683702E+04  0.00000000000E+00 0. -1.
          1    1    1    2  502    0  0.11223882784E+03 -0.90524328477E+02  0.80015604505E+03  0.81304483576E+03  0.00000000000E+00 0. -1.
         22    1    3    3    0    0 -0.32889754629E+02  0.71021964791E+02  0.58331905478E+02  0.97613864993E+02  0.00000000000E+00 0.  1.
         22    1    3    3    0    0 -0.10783358862E+03 -0.17684706352E+02  0.18191809508E+03  0.21221457299E+03  0.00000000000E+00 0.  1.
</event>
<event>
 7    1  0.6017574E-006  0.7021798E+02  0.7818608E-02  0.1401276E+00
          2   -1    0    0  502    0  0.00000000000E+00  0.00000000000E+00  0.18762135966E+02  0.18762135966E+02  0.00000000000E+00 0. -1.
          1   -1    0    0  501    0 -0.00000000000E+00 -0.00000000000E+00 -0.14437423036E+04  0.14437423036E+04  0.00000000000E+00 0. -1.
         25    2    1    2    0    0  0.86181692216E+02  0.55256444630E+02 -0.77201052684E+03  0.78873713291E+03  0.12500181010E+03 0.  0.
          2    1    1    2  501    0 -0.63848303302E+02 -0.10645913234E+02 -0.58947354374E+03  0.59301686323E+03  0.00000000000E+00 0. -1.
          1    1    1    2  502    0 -0.22333388914E+02 -0.44610531396E+02 -0.63496097013E+02  0.80750443391E+02  0.00000000000E+00 0. -1.
         22    1    3    3    0    0  0.83397716980E+02 -0.59500411461E+01 -0.26095832196E+03  0.27402523239E+03  0.00000000000E+00 0. -1.
         22    1    3    3    0    0  0.27839752366E+01  0.61206485776E+02 -0.51105220489E+03  0.51471190052E+03  0.00000000000E+00 0. -1.
</event>
<event>
 7    1  0.6017574E-006  0.1398466E+03  0.7818608E-02  0.1251488E+00
          2   -1    0    0  502    0  0.00000000000E+00  0.00000000000E+00  0.47043067218E+03  0.47043067218E+03  0.00000000000E+00 0. -1.
          1   -1    0    0  501    0 -0.00000000000E+00 -0.00000000000E+00 -0.41418068059E+03  0.41418068059E+03  0.00000000000E+00 0. -1.
         25    2    1    2    0    0 -0.32573290946E+02  0.35711335155E+02 -0.11884885914E+03  0.17912677357E+03  0.12500012380E+03 0.  0.
          2    1    1    2  501    0  0.13556726193E+03  0.58889509036E+02 -0.23197356155E+03  0.27506033891E+03  0.00000000000E+00 0. -1.
          1    1    1    2  502    0 -0.10299397098E+03 -0.94600844191E+02  0.40707241228E+03  0.43042424028E+03  0.00000000000E+00 0. -1.
         22    1    3    3    0    0 -0.70168816400E+02 -0.34524983283E+01 -0.33155864228E+02  0.77684579373E+02  0.00000000000E+00 0.  1.
         22    1    3    3    0    0  0.37595525454E+02  0.39163833484E+02 -0.85692994912E+02  0.10144219420E+03  0.00000000000E+00 0.  1.
</event>
<event>
 7    1  0.6017574E-006  0.4695545E+02  0.7818608E-02  0.1480889E+00
          2   -1    0    0  502    0  0.00000000000E+00  0.00000000000E+00  0.31187024648E+03  0.31187024648E+03  0.00000000000E+00 0. -1.
          1   -1    0    0  501    0 -0.00000000000E+00 -0.00000000000E+00 -0.15510344808E+04  0.15510344808E+04  0.00000000000E+00 0. -1.
         25    2    1    2    0    0 -0.70918108370E+02  0.14710624633E+02 -0.48751615237E+03  0.50847251696E+03  0.12500608428E+03 0.  0.
          2    1    1    2  501    0  0.26973656102E+02 -0.31103854928E+02 -0.10508098463E+04  0.10516160711E+04  0.00000000000E+00 0. -1.
          1    1    1    2  502    0  0.43944452268E+02  0.16393230295E+02  0.29916176438E+03  0.30281613919E+03  0.00000000000E+00 0. -1.
         22    1    3    3    0    0  0.33804371293E+02 -0.82200423557E+01 -0.16425830316E+03  0.16790203921E+03  0.00000000000E+00 0.  1.
         22    1    3    3    0    0 -0.10472247966E+03  0.22930666989E+02 -0.32325784921E+03  0.34057047775E+03  0.00000000000E+00 0.  1.
</event>
<event>
 7    1  0.6017574E-006  0.6907606E+02  0.7818608E-02  0.1489824E+00
          2   -1    0    0  502    0  0.00000000000E+00  0.00000000000E+00  0.15599796533E+04  0.15599796533E+04  0.00000000000E+00 0. -1.
          1   -1    0    0  501    0 -0.00000000000E+00 -0.00000000000E+00 -0.23536854169E+03  0.23536854169E+03  0.00000000000E+00 0. -1.
         25    2    1    2    0    0  0.54727205544E+02 -0.12450250271E+02  0.34982581409E+03  0.37570272225E+03  0.12499743814E+03 0.  0.
          2    1    1    2  501    0 -0.57596734487E+02  0.38580069269E+02 -0.21688013876E+03  0.22769014067E+03  0.00000000000E+00 0. -1.
          1    1    1    2  502    0  0.28695289437E+01 -0.26129818998E+02  0.11916654363E+04  0.11919553321E+04  0.00000000000E+00 0. -1.
         22    1    3    3    0    0  0.40578275332E+02  0.50209374726E+02  0.11118890292E+03  0.12857118601E+03  0.00000000000E+00 0. -1.
         22    1    3    3    0    0  0.14148930212E+02 -0.62659624996E+02  0.23863691117E+03  0.24713153624E+03  0.00000000000E+00 0. -1.
</event>
<event>
 7    1  0.6017574E-006  0.4720643E+02  0.7818608E-02  0.1547523E+00
          2   -1    0    0  502    0  0.00000000000E+00  0.00000000000E+00  0.10109856015E+04  0.10109856015E+04  0.00000000000E+00 0. -1.
          1   -1    0    0  501    0 -0.00000000000E+00 -0.00000000000E+00 -0.27683790529E+02  0.27683790529E+02  0.00000000000E+00 0. -1.
         25    2    1    2    0    0  0.12554464402E+02 -0.26395197801E+02  0.26049116996E+03  0.29040464772E+03  0.12499955499E+03 0.  0.
          2    1    1    2  501    0  0.25978479269E+02 -0.28146308287E+01  0.24080057352E+01  0.26241227552E+02  0.00000000000E+00 0. -1.
          1    1    1    2  502    0 -0.38532943671E+02  0.29209828630E+02  0.72040263526E+03  0.72202351674E+03  0.00000000000E+00 0. -1.
         22    1    3    3    0    0 -0.54987383227E+02 -0.20348045276E+02  0.96065195075E+02  0.11254411120E+03  0.00000000000E+00 0. -1.
         22    1    3    3    0    0  0.67541847628E+02 -0.60471525253E+01  0.16442597488E+03  0.17786053652E+03  0.00000000000E+00 0. -1.
</event>
<event>
 7    1  0.6017574E-006  0.5754360E+02  0.7818608E-02  0.1425363E+00
          2   -1    0    0  502    0  0.00000000000E+00  0.00000000000E+00  0.78641532474E+03  0.78641532474E+03  0.00000000000E+00 0. -1.
          1   -1    0    0  501    0 -0.00000000000E+00 -0.00000000000E+00 -0.64299823349E+03  0.64299823349E+03  0.00000000000E+00 0. -1.
         25    2    1    2    0    0  0.60297235613E+02  0.34885480234E+02  0.20456695616E+02  0.14455445669E+03  0.12499904480E+03 0.  0.
          2    1    1    2  501    0 -0.45918319144E+02  0.20996886955E+02 -0.57866565999E+03  0.58086427618E+03  0.00000000000E+00 0. -1.
          1    1    1    2  502    0 -0.14378916469E+02 -0.55882367189E+02  0.70162605562E+03  0.70399482535E+03  0.00000000000E+00 0. -1.
         22    1    3    3    0    0  0.10554561202E+02  0.85025187860E-01 -0.50258865858E+02  0.51355229420E+02  0.00000000000E+00 0.  1.
         22    1    3    3    0    0  0.49742674411E+02  0.34800455046E+02  0.70715561475E+02  0.93199227270E+02  0.00000000000E+00 0.  1.
</event>
<event>
 7    1  0.6017574E-006  0.7165750E+02  0.7818608E-02  0.1412546E+00
          2   -1    0    0  502    0  0.00000000000E+00  0.00000000000E+00  0.13886505403E+03  0.13886505403E+03  0.00000000000E+00 0. -1.
          1   -1    0    0  501    0 -0.00000000000E+00 -0.00000000000E+00 -0.12912215267E+03  0.12912215267E+03  0.00000000000E+00 0. -1.
         25    2    1    2    0    0 -0.37824514150E+02 -0.70080306634E+02  0.72937370626E+01  0.14838671830E+03  0.12499390513E+03 0.  0.
          2    1    1    2  501    0  0.63924705408E+02  0.33726017892E+02 -0.10444917069E+02  0.73026765894E+02  0.00000000000E+00 0. -1.
          1    1    1    2  502    0 -0.26100191258E+02  0.36354288742E+02  0.12894081367E+02  0.46573722505E+02  0.00000000000E+00 0. -1.
         22    1    3    3    0    0  0.34299220793E+02 -0.35252571660E+02  0.38467436516E+02  0.62441364717E+02  0.00000000000E+00 0.  1.
         22    1    3    3    0    0 -0.72123734943E+02 -0.34827734974E+02 -0.31173699453E+02  0.85945353587E+02  0.00000000000E+00 0.  1.
</event>
<event>
 7    1  0.6017574E-006  0.9041677E+02  0.7818608E-02  0.1435828E+00
          2   -1    0    0  502    0  0.00000000000E+00  0.00000000000E+00  0.40858498650E+03  0.40858498650E+03  0.00000000000E+00 0. -1.
          1   -1    0    0  501    0 -0.00000000000E+00 -0.00000000000E+00 -0.34713397314E+03  0.34713397314E+03  0.00000000000E+00 0. -1.
         25    2    1    2    0    0 -0.61482000269E+01  0.86762416140E+02  0.67108655415E+02  0.16641528794E+03  0.12499983685E+03 0.  0.
          2    1    1    2  501    0 -0.23519024249E+02 -0.87795041129E+02 -0.28974663217E+03  0.30366795122E+03  0.00000000000E+00 0. -1.
          1    1    1    2  502    0  0.29667224276E+02  0.10326249882E+01  0.28408899011E+03  0.28563572048E+03  0.00000000000E+00 0. -1.
         22    1    3    3    0    0 -0.37997725787E+02 -0.15704672028E+02  0.36119179868E+02  0.54727132602E+02  0.00000000000E+00 0. -1.
         22    1    3    3    0    0  0.31849525761E+02  0.10246708817E+03  0.30989475547E+02  0.11168815534E+03  0.00000000000E+00 0. -1.
</event>
<event>
 7    1  0.6017574E-006  0.4828355E+02  0.7818608E-02  0.1522642E+00
          2   -1    0    0  502    0  0.00000000000E+00  0.00000000000E+00  0.19509364883E+03  0.19509364883E+03  0.00000000000E+00 0. -1.
          1   -1    0    0  501    0 -0.00000000000E+00 -0.00000000000E+00 -0.20554257566E+03  0.20554257566E+03  0.00000000000E+00 0. -1.
         25    2    1    2    0    0  0.50315423880E+02  0.46260840443E+02 -0.13823295561E+03  0.19850678590E+03  0.12499954717E+03 0.  0.
          2    1    1    2  501    0 -0.22898369590E+02 -0.33907910030E+02 -0.23973218854E+02  0.47421481574E+02  0.00000000000E+00 0. -1.
          1    1    1    2  502    0 -0.27417054290E+02 -0.12352930413E+02  0.15175724763E+03  0.15470795702E+03  0.00000000000E+00 0. -1.
         22    1    3    3    0    0  0.45926935516E+02 -0.29176073852E+02 -0.99944484382E+02  0.11379554758E+03  0.00000000000E+00 0. -1.
         22    1    3    3    0    0  0.43884883644E+01  0.75436914295E+02 -0.38288471227E+02  0.84711238318E+02  0.00000000000E+00 0. -1.
</event>
<event>
 7    1  0.6017574E-006  0.1510163E+03  0.7818608E-02  0.1266776E+00
          2   -1    0    0  502    0  0.00000000000E+00  0.00000000000E+00  0.24026848031E+04  0.24026848031E+04  0.00000000000E+00 0. -1.
          1   -1    0    0  501    0 -0.00000000000E+00 -0.00000000000E+00 -0.26272467697E+03  0.26272467697E+03  0.00000000000E+00 0. -1.
         25    2    1    2    0    0 -0.69564879279E+02  0.14555036817E+03  0.93945806632E+02  0.22466633789E+03  0.12499986679E+03 0.  0.
          2    1    1    2  501    0 -0.55796976435E+01 -0.15187686760E+03 -0.16736908349E+03  0.22607548750E+03  0.00000000000E+00 0. -1.
          1    1    1    2  502    0  0.75144576922E+02  0.63264994316E+01  0.22133834030E+04  0.22146676547E+04  0.00000000000E+00 0. -1.
         22    1    3    3    0    0 -0.46765703900E+02 -0.45084885674E+01  0.16194265949E+01  0.47010425152E+02  0.00000000000E+00 0.  1.
         22    1    3    3    0    0 -0.22799175379E+02  0.15005885673E+03  0.92326380037E+02  0.17765591274E+03  0.00000000000E+00 0.  1.
</event>
<event>
 7    1  0.6017574E-006  0.1005351E+03  0.7818608E-02  0.1380781E+00
          2   -1    0    0  502    0  0.00000000000E+00  0.00000000000E+00  0.15634710966E+04  0.15634710966E+04  0.00000000000E+00 0. -1.
          1   -1    0    0  501    0 -0.00000000000E+00 -0.00000000000E+00 -0.28219141845E+03  0.28219141845E+03  0.00000000000E+00 0. -1.
         25    2    1    2    0    0 -0.46417544819E+02  0.79881134995E+02  0.11933386356E+02  0.15589716745E+03  0.12500374760E+03 0.  0.
          2    1    1    2  501    0  0.11866363608E+02 -0.10208835650E+03 -0.19734255804E+03  0.22250152434E+03  0.00000000000E+00 0. -1.
          1    1    1    2  502    0  0.34551181211E+02  0.22207221508E+02  0.14666888498E+04  0.14672638233E+04  0.00000000000E+00 0. -1.
         22    1    3    3    0    0 -0.31317520833E+02  0.11206861267E+03  0.23096905925E+02  0.11863232325E+03  0.00000000000E+00 0.  1.
         22    1    3    3    0    0 -0.15100023986E+02 -0.32187477677E+02 -0.11163519568E+02  0.37264844193E+02  0.00000000000E+00 0.  1.
</event>
<event>
 7    1  0.6017574E-006  0.1506548E+03  0.7818608E-02  0.1245086E+00
          2   -1    0    0  502    0  0.00000000000E+00  0.00000000000E+00  0.24179367703E+04  0.24179367703E+04  0.00000000000E+00 0. -1.
          1   -1    0    0  501    0 -0.00000000000E+00 -0.00000000000E+00 -0.10183992547E+03  0.10183992547E+03  0.00000000000E+00 0. -1.
         25    2    1    2    0    0  0.67323487244E+02 -0.30224271421E+02  0.63655034966E+03  0.65289133761E+03  0.12499917023E+03 0.  0.
          2    1    1    2  501    0 -0.15895011556E+03  0.10696322217E+02 -0.23701288958E+02  0.16106303625E+03  0.00000000000E+00 0. -1.
          1    1    1    2  502    0  0.91626628319E+02  0.19527949204E+02  0.17032477841E+04  0.17058223219E+04  0.00000000000E+00 0. -1.
         22    1    3    3    0    0  0.74908038358E+02 -0.71126873601E+02  0.47101953763E+03  0.48221328392E+03  0.00000000000E+00 0. -1.
         22    1    3    3    0    0 -0.75845511145E+01  0.40902602180E+02  0.16553081203E+03  0.17067805369E+03  0.00000000000E+00 0. -1.
</event>
<event>
 7    1  0.6017574E-006  0.4474793E+02  0.7818608E-02  0.1490223E+00
          2   -1    0    0  502    0  0.00000000000E+00  0.00000000000E+00  0.10215805881E+04  0.10215805881E+04  0.00000000000E+00 0. -1.
          1   -1    0    0  501    0 -0.00000000000E+00 -0.00000000000E+00 -0.26411113843E+03  0.26411113843E+03  0.00000000000E+00 0. -1.
         25    2    1    2    0    0  0.28977226994E+02  0.76552752905E+02  0.10575188554E+03  0.18305570934E+03  0.12500371100E+03 0.  0.
          2    1    1    2  501    0 -0.25333320905E+02 -0.36251586932E+02 -0.22281801582E+03  0.22716474832E+03  0.00000000000E+00 0. -1.
          1    1    1    2  502    0 -0.36439060883E+01 -0.40301165973E+02  0.87453557998E+03  0.87547126891E+03  0.00000000000E+00 0. -1.
         22    1    3    3    0    0 -0.35786197761E+02  0.18641909082E+02 -0.67514313560E+01  0.40911545434E+02  0.00000000000E+00 0. -1.
         22    1    3    3    0    0  0.64763424755E+02  0.57910843823E+02  0.11250331690E+03  0.14214416390E+03  0.00000000000E+00 0. -1.
</event>
<event>
 7    1  0.6017574E-006  0.8012750E+02  0.7818608E-02  0.1365710E+00
          2   -1    0    0  502    0  0.00000000000E+00  0.00000000000E+00  0.10409968773E+04  0.10409968773E+04  0.00000000000E+00 0. -1.
          1   -1    0    0  501    0 -0.00000000000E+00 -0.00000000000E+00 -0.75933340612E+03  0.75933340612E+03  0.00000000000E+00 0. -1.
         25    2    1    2    0    0  0.54876752428E+01 -0.78751662473E+02 -0.94947413870E+02  0.17570632041E+03  0.12500304280E+03 0.  0.
          2    1    1    2  501    0 -0.56038792337E+02  0.16242085278E+02 -0.62102223907E+03  0.62375698233E+03  0.00000000000E+00 0. -1.
          1    1    1    2  502    0  0.50551117094E+02  0.62509577195E+02  0.99763312415E+03  0.10008669807E+04  0.00000000000E+00 0. -1.
         22    1    3    3    0    0  0.53950477875E+02 -0.54474286262E+02 -0.13465247897E+02  0.77842243208E+02  0.00000000000E+00 0. -1.
         22    1    3    3    0    0 -0.48462802632E+02 -0.24277376211E+02 -0.81482165972E+02  0.97864077200E+02  0.00000000000E+00 0. -1.
</event>
<event>
 7    1  0.6017574E-006  0.1117142E+03  0.7818608E-02  0.1428184E+00
          2   -1    0    0  502    0  0.00000000000E+00  0.00000000000E+00  0.15359899003E+04  0.15359899003E+04  0.00000000000E+00 0. -1.
          1   -1    0    0  501    0 -0.00000000000E+00 -0.00000000000E+00 -0.84217148753E+03  0.84217148753E+03  0.00000000000E+00 0. -1.
         25    2    1    2    0    0  0.88634014025E+02 -0.92168079033E+02 -0.30035934624E+02  0.18131932395E+03  0.12499438641E+03 0.  0.
          2    1    1    2  501    0 -0.88598160597E+02  0.66713095228E+02 -0.73220670462E+03  0.74055852532E+03  0.00000000000E+00 0. -1.
          1    1    1    2  502    0 -0.35853427136E-01  0.25454983805E+02  0.14560610520E+04  0.14562835386E+04  0.00000000000E+00 0. -1.
         22    1    3    3    0    0  0.27435205010E+02 -0.10138920677E+03 -0.49946103523E+02  0.11630595419E+03  0.00000000000E+00 0. -1.
         22    1    3    3    0    0  0.61198809014E+02  0.92211277387E+01  0.19910168900E+02  0.65013369757E+02  0.00000000000E+00 0. -1.
</event>
<event>
 7    1  0.6017574E-006  0.8029430E+02  0.7818608E-02  0.1338536E+00
          2   -1    0    0  502    0  0.00000000000E+00  0.00000000000E+00  0.22535777841E+04  0.22535777841E+04  0.00000000000E+00 0. -1.
          1   -1    0    0  501    0 -0.00000000000E+00 -0.00000000000E+00 -0.74424080721E+02  0.74424080721E+02  0.00000000000E+00 0. -1.
         25    2    1    2    0    0 -0.13664157829E+02 -0.58248342032E+01  0.74120385697E+03  0.75181739012E+03  0.12500237040E+03 0.  0.
          2    1    1    2  501    0  0.75456971025E+02 -0.33717563137E+02 -0.43173953618E+02  0.93244939869E+02  0.00000000000E+00 0. -1.
          1    1    1    2  502    0 -0.61792813197E+02  0.39542397340E+02  0.14811238001E+04  0.14829395349E+04  0.00000000000E+00 0. -1.
         22    1    3    3    0    0 -0.10158536408E+02 -0.81148531811E+01  0.74561903049E+03  0.74573238185E+03  0.00000000000E+00 0.  1.
         22    1    3    3    0    0 -0.35056214211E+01  0.22900189779E+01 -0.44151735239E+01  0.60850082756E+01  0.00000000000E+00 0.  1.
</event>
<event>
 7    1  0.6017574E-006  0.4950144E+02  0.7818608E-02  0.1540300E+00
          2   -1    0    0  502    0  0.00000000000E+00  0.00000000000E+00  0.58113575784E+02  0.58113575784E+02  0.00000000000E+00 0. -1.
          1   -1    0    0  501    0 -0.00000000000E+00 -0.00000000000E+00 -0.18505387333E+04  0.18505387333E+04  0.00000000000E+00 0. -1.
         25    2    1    2    0    0 -0.39772859265E+02 -0.26782015221E+02 -0.45904707081E+03  0.47817175300E+03  0.12499942189E+03 0.  0.
          2    1    1    2  501    0  0.21211084197E+02  0.45148087370E+02 -0.13779340871E+04  0.13788366865E+04  0.00000000000E+00 0. -1.
          1    1    1    2  502    0  0.18561775068E+02 -0.18366072149E+02  0.44556000321E+02  0.51643869573E+02  0.00000000000E+00 0. -1.
         22    1    3    3    0    0 -0.42539575823E+02 -0.36772511322E+02 -0.46349347903E+03  0.46689189134E+03  0.00000000000E+00 0.  1.
         22    1    3    3    0    0  0.27667165582E+01  0.99904961016E+01  0.44464082202E+01  0.11279861654E+02  0.00000000000E+00 0.  1.
</event>
<event>
 7    1  0.6017574E-006  0.2372412E+02  0.7818608E-02  0.1707918E+00
          2   -1    0    0  502    0  0.00000000000E+00  0.00000000000E+00  0.11553598952E+04  0.11553598952E+04  0.00000000000E+00 0. -1.
          1   -1    0    0  501    0 -0.00000000000E+00 -0.00000000000E+00 -0.21154284237E+03  0.21154284237E+03  0.00000000000E+00 0. -1.
         25    2    1    2    0    0 -0.29189345644E+02  0.25824911498E+02  0.96471515947E+02  0.16263568627E+03  0.12499867642E+03 0.  0.
          2    1    1    2  501    0  0.20044757945E+02 -0.39850751973E+01 -0.17773850090E+03  0.17890960804E+03  0.00000000000E+00 0. -1.
          1    1    1    2  502    0  0.91445876992E+01 -0.21839836301E+02  0.10250840378E+04  0.10253574432E+04  0.00000000000E+00 0. -1.
         22    1    3    3    0    0  0.13265895827E+02  0.24471721112E+02  0.11350680424E+03  0.11687020037E+03  0.00000000000E+00 0.  1.
         22    1    3    3    0    0 -0.42455241471E+02  0.13531903866E+01 -0.17035288293E+02  0.45765485902E+02  0.00000000000E+00 0.  1.
</event>
<event>
 7    1  0.6017574E-006  0.4749638E+02  0.7818608E-02  0.1476618E+00
          2   -1    0    0  502    0  0.00000000000E+00  0.00000000000E+00  0.58461254058E+03  0.58461254058E+03  0.00000000000E+00 0. -1.
          1   -1    0    0  501    0 -0.00000000000E+00 -0.00000000000E+00 -0.52668467549E+03  0.52668467549E+03  0.00000000000E+00 0. -1.
         25    2    1    2    0    0 -0.58878033400E+02  0.24769854741E+02 -0.16237648689E+03  0.21464875083E+03  0.12501117637E+03 0.  0.
          2    1    1    2  501    0  0.13769396982E+02 -0.39626534776E+02 -0.33585510740E+03  0.33846493425E+03  0.00000000000E+00 0. -1.
          1    1    1    2  502    0  0.45108636418E+02  0.14856680035E+02  0.55615945937E+03  0.55818353099E+03  0.00000000000E+00 0. -1.
         22    1    3    3    0    0 -0.30807327918E+01  0.32242226545E+02  0.95277562156E+01  0.33761371797E+02  0.00000000000E+00 0. -1.
         22    1    3    3    0    0 -0.55797300608E+02 -0.74723718035E+01 -0.17190424311E+03  0.18088737903E+03  0.00000000000E+00 0. -1.
</event>
<event>
 7    1  0.6017574E-006  0.1137962E+03  0.7818608E-02  0.1293800E+00
          2   -1    0    0  502    0  0.00000000000E+00  0.00000000000E+00  0.83878571980E+03  0.83878571980E+03  0.00000000000E+00 0. -1.
          1   -1    0    0  501    0 -0.00000000000E+00 -0.00000000000E+00 -0.18159624136E+03  0.18159624136E+03  0.00000000000E+00 0. -1.
         25    2    1    2    0    0 -0.55017816265E+02 -0.51783709456E+02  0.38316758685E+03  0.41006188752E+03  0.12499935726E+03 0.  0.
          2    1    1    2  501    0 -0.66127625938E+02 -0.40206012186E+02 -0.14509983801E+03  0.16444862212E+03  0.00000000000E+00 0. -1.
          1    1    1    2  502    0  0.12114544220E+03  0.91989721642E+02  0.41912172960E+03  0.44587145152E+03  0.00000000000E+00 0. -1.
         22    1    3    3    0    0 -0.16932026033E+02 -0.68238491793E+02  0.91167156008E+02  0.11512877834E+03  0.00000000000E+00 0. -1.
         22    1    3    3    0    0 -0.38085790232E+02  0.16454782337E+02  0.29200043084E+03  0.29493310918E+03  0.00000000000E+00 0. -1.
</event>
<event>
 7    1  0.6017574E-006  0.1480863E+03  0.7818608E-02  0.1250033E+00
          2   -1    0    0  502    0  0.00000000000E+00  0.00000000000E+00  0.11153364037E+04  0.11153364037E+04  0.00000000000E+00 0. -1.
          1   -1    0    0  501    0 -0.00000000000E+00 -0.00000000000E+00 -0.26637635333E+03  0.26637635333E+03  0.00000000000E+00 0. -1.
         25    2    1    2    0    0 -0.89020652603E+02 -0.20678610507E+03  0.23882122952E+02  0.25861263390E+03  0.12499987510E+03 0.  0.
          2    1    1    2  501    0  0.25784721271E+01  0.90659493867E+02 -0.12922658041E+03  0.15787748868E+03  0.00000000000E+00 0. -1.
          1    1    1    2  502    0  0.86442180476E+02  0.11612661120E+03  0.95430450781E+03  0.96522263443E+03  0.00000000000E+00 0. -1.
         22    1    3    3    0    0 -0.42695611346E+02 -0.19693550859E+03 -0.77502865488E+01  0.20165955647E+03  0.00000000000E+00 0. -1.
         22    1    3    3    0    0 -0.46325041257E+02 -0.98505964808E+01  0.31632409501E+02  0.56953077436E+02  0.00000000000E+00 0. -1.
</event>
<event>
 7    1  0.6017574E-006  0.1037859E+03  0.7818608E-02  0.1355311E+00
          2   -1    0    0  502    0  0.00000000000E+00  0.00000000000E+00  0.49259058265E+03  0.49259058265E+03  0.00000000000E+00 0. -1.
          1   -1    0    0  501    0 -0.00000000000E+00 -0.00000000000E+00 -0.67674691279E+03  0.67674691279E+03  0.00000000000E+00 0. -1.
         25    2    1    2    0    0  0.86202621147E+02 -0.76455281973E+01  0.25946853605E+02  0.15423417390E+03  0.12500238075E+03 0.  0.
          2    1    1    2  501    0 -0.97101651045E+02 -0.40286154057E+02 -0.60656409401E+03  0.61560677789E+03  0.00000000000E+00 0. -1.
          1    1    1    2  502    0  0.10899029898E+02  0.47931682254E+02  0.39646091027E+03  0.39949654365E+03  0.00000000000E+00 0. -1.
         22    1    3    3    0    0 -0.18986729098E+02  0.33804055414E+02  0.31634990864E+01  0.38900099881E+02  0.00000000000E+00 0.  1.
         22    1    3    3    0    0  0.10518935025E+03 -0.41449583611E+02  0.22783354518E+02  0.11533407402E+03  0.00000000000E+00 0.  1.
</event>
<event>
 7    1  0.6017574E-006  0.1174650E+03  0.7818608E-02  0.1340939E+00
          2   -1    0    0  502    0  0.00000000000E+00  0.00000000000E+00  0.10880254580E+04  0.10880254580E+04  0.00000000000E+00 0. -1.
          1   -1    0    0  501    0 -0.00000000000E+00 -0.00000000000E+00 -0.43246764968E+03  0.43246764968E+03  0.00000000000E+00 0. -1.
         25    2    1    2    0    0  0.43307795045E+02 -0.11969586561E+03  0.40790706559E+03  0.44521376832E+03  0.12499783991E+03 0.  0.
          2    1    1    2  501    0  0.35765909724E+02  0.33659494829E+02 -0.40716618240E+03  0.41011761969E+03  0.00000000000E+00 0. -1.
          1    1    1    2  502    0 -0.79073704769E+02  0.86036370784E+02  0.65481692512E+03  0.66516171967E+03  0.00000000000E+00 0. -1.
         22    1    3    3    0    0 -0.36614050095E+02 -0.39153070865E+01  0.10388914534E+03  0.11022192529E+03  0.00000000000E+00 0. -1.
         22    1    3    3    0    0  0.79921845140E+02 -0.11578055853E+03  0.30401792025E+03  0.33499184303E+03  0.00000000000E+00 0. -1.
</event>
<event>
 7    1  0.6017574E-006  0.1022250E+03  0.7818608E-02  0.1279198E+00
          2   -1    0    0  502    0  0.00000000000E+00  0.00000000000E+00  0.13701982592E+04  0.13701982592E+04  0.00000000000E+00 0. -1.
          1   -1    0    0  501    0 -0.00000000000E+00 -0.00000000000E+00 -0.22457508488E+03  0.22457508488E+03  0.00000000000E+00 0. -1.
         25    2    1    2    0    0 -0.75510333526E+02  0.18095627867E+03  0.14298331806E+03  0.27297554599E+03  0.12499773680E+03 0.  0.
          2    1    1    2  501    0  0.24865489946E+02 -0.95672643513E+02 -0.14191719390E+03  0.17295096771E+03  0.00000000000E+00 0. -1.
          1    1    1    2  502    0  0.50644843580E+02 -0.85283635155E+02  0.11445570501E+04  0.11488468303E+04  0.00000000000E+00 0. -1.
         22    1    3    3    0    0 -0.48163529795E+02  0.70119738400E+02  0.13366077170E+03  0.15843517667E+03  0.00000000000E+00 0.  1.
         22    1    3    3    0    0 -0.27346803732E+02  0.11083654027E+03  0.93225463601E+01  0.11454036932E+03  0.00000000000E+00 0.  1.
</event>
<event>
 7    1  0.6017574E-006  0.6256268E+02  0.7818608E-02  0.1422592E+00
          2   -1    0    0  502    0  0.00000000000E+00  0.00000000000E+00  0.27210459998E+03  0.27210459998E+03  0.00000000000E+00 0. -1.
          1   -1    0    0  501    0 -0.00000000000E+00 -0.00000000000E+00 -0.12076328932E+03  0.12076328932E+03  0.00000000000E+00 0. -1.
         25    2    1    2    0    0 -0.27053954463E+02  0.91902872652E+01  0.68898607516E+02  0.14556154403E+03  0.12499906860E+03 0.  0.
          2    1    1    2  501    0 -0.19769661666E+02  0.43119100724E+02 -0.67059679608E+02  0.82140714622E+02  0.00000000000E+00 0. -1.
          1    1    1    2  502    0  0.46823616129E+02 -0.52309387989E+02  0.14950238275E+03  0.16516563065E+03  0.00000000000E+00 0. -1.
         22    1    3    3    0    0  0.13215301057E+02  0.38599655705E+02  0.84063798062E+02  0.93441424150E+02  0.00000000000E+00 0.  1.
         22    1    3    3    0    0 -0.40269255520E+02 -0.29409368440E+02 -0.15165190545E+02  0.52120119881E+02  0.00000000000E+00 0.  1.
</event>
<event>
 7    1  0.6017574E-006  0.3482815E+02  0.7818608E-02  0.1575971E+00
          2   -1    0    0  502    0  0.00000000000E+00  0.00000000000E+00  0.70349717557E+02  0.70349717557E+02  0.00000000000E+00 0. -1.
          1   -1    0    0  501    0 -0.00000000000E+00 -0.00000000000E+00 -0.87032742725E+03  0.87032742725E+03  0.00000000000E+00 0. -1.
         25    2    1    2    0    0 -0.22133795424E+02  0.16874907252E+02 -0.14276774022E+03  0.19178600814E+03  0.12499831149E+03 0.  0.
          2    1    1    2  501    0 -0.11369187602E+01 -0.35144775514E+02 -0.69778760756E+03  0.69867302302E+03  0.00000000000E+00 0. -1.
          1    1    1    2  502    0  0.23270714184E+02  0.18269868262E+02  0.40577638094E+02  0.50218113646E+02  0.00000000000E+00 0. -1.
         22    1    3    3    0    0  0.58823980378E+01  0.68261432590E+02 -0.64879090613E+02  0.94358477016E+02  0.00000000000E+00 0.  1.
         22    1    3    3    0    0 -0.28016193461E+02 -0.51386525339E+02 -0.77888649612E+02  0.97427531123E+02  0.00000000000E+00 0.  1.
</event>
<event>
 7    1  0.6017574E-006  0.1818827E+03  0.7818608E-02  0.1348000E+00
          2   -1    0    0  502    0  0.00000000000E+00  0.00000000000E+00  0.23528196511E+04  0.23528196511E+04  0.00000000000E+00 0. -1.
          1   -1    0    0  501    0 -0.00000000000E+00 -0.00000000000E+00 -0.52174562623E+03  0.52174562623E+03  0.00000000000E+00 0. -1.
         25    2    1    2    0    0  0.18405070497E+03  0.96754002910E+02  0.15353887422E+04  0.15544386557E+04  0.12499978264E+03 0.  0.
          2    1    1    2  501    0 -0.15421255332E+03 -0.95932958180E+02 -0.49583165989E+03  0.52804704242E+03  0.00000000000E+00 0. -1.
          1    1    1    2  502    0 -0.29838151648E+02 -0.82104472970E+00  0.79151694253E+03  0.79207957916E+03  0.00000000000E+00 0. -1.
         22    1    3    3    0    0  0.18171621148E+03  0.58795021357E+02  0.10255063025E+04  0.10431398816E+04  0.00000000000E+00 0.  1.
         22    1    3    3    0    0  0.23344934885E+01  0.37958981552E+02  0.50988243966E+03  0.51129877412E+03  0.00000000000E+00 0.  1.
</event>
<event>
 7    1  0.6017574E-006  0.1082349E+03  0.7818608E-02  0.1317026E+00
          2   -1    0    0  502    0  0.00000000000E+00  0.00000000000E+00  0.19935529558E+04  0.19935529558E+04  0.00000000000E+00 0. -1.
          1   -1    0    0  501    0 -0.00000000000E+00 -0.00000000000E+00 -0.14679416817E+03  0.14679416817E+03  0.00000000000E+00 0. -1.
         25    2    1    2    0    0  0.42859305765E+02 -0.10476668410E+03  0.35341276829E+03  0.39158450323E+03  0.12499944076E+03 0.  0.
          2    1    1    2  501    0 -0.65762781580E+02 -0.23203555291E+01 -0.11724715754E+03  0.13445082165E+03  0.00000000000E+00 0. -1.
          1    1    1    2  502    0  0.22903475814E+02  0.10708703963E+03  0.16105931769E+04  0.16143117991E+04  0.00000000000E+00 0. -1.
         22    1    3    3    0    0  0.67920426321E+02 -0.99445119092E+02  0.18178936194E+03  0.21805936838E+03  0.00000000000E+00 0. -1.
         22    1    3    3    0    0 -0.25061120556E+02 -0.53215650053E+01  0.17162340635E+03  0.17352513485E+03  0.00000000000E+00 0. -1.
</event>
<event>
 7    1  0.6017574E-006  0.5516363E+02  0.7818608E-02  0.1514660E+00
          2   -1    0    0  502    0  0.00000000000E+00  0.00000000000E+00  0.59169262563E+03  0.59169262563E+03  0.00000000000E+00 0. -1.
          1   -1    0    0  501    0 -0.00000000000E+00 -0.00000000000E+00 -0.25366501494E+03  0.25366501494E+03  0.00000000000E+00 0. -1.
         25    2    1    2    0    0  0.64129569392E+02  0.47987890413E+02  0.49331252822E+02  0.15643975659E+03  0.12499754253E+03 0.  0.
          2    1    1    2  501    0 -0.15799924047E+02 -0.22832964060E+02 -0.19761892049E+03  0.19956006510E+03  0.00000000000E+00 0. -1.
          1    1    1    2  502    0 -0.48329645344E+02 -0.25154926353E+02  0.48631527835E+03  0.48935781888E+03  0.00000000000E+00 0. -1.
         22    1    3    3    0    0  0.56715057014E+02  0.80618029854E+02  0.21442292418E+01  0.98592404113E+02  0.00000000000E+00 0. -1.
         22    1    3    3    0    0  0.74145123778E+01 -0.32630139441E+02  0.47187023581E+02  0.57847352473E+02  0.00000000000E+00 0. -1.
</event>
<event>
 7    1  0.6017574E-006  0.4931574E+02  0.7818608E-02  0.1495488E+00
          2   -1    0    0  502    0  0.00000000000E+00  0.00000000000E+00  0.15688019761E+04  0.15688019761E+04  0.00000000000E+00 0. -1.
          1   -1    0    0  501    0 -0.00000000000E+00 -0.00000000000E+00 -0.40181123310E+03  0.40181123310E+03  0.00000000000E+00 0. -1.
         25    2    1    2    0    0  0.30982440276E+02  0.95513104817E+01  0.83469079310E+01  0.12939356486E+03  0.12498753785E+03 0.  0.
          2    1    1    2  501    0 -0.23494883205E+02 -0.44150756640E+02 -0.33924540203E+03  0.34291214859E+03  0.00000000000E+00 0. -1.
          1    1    1    2  502    0 -0.74875570706E+01  0.34599446158E+02  0.14978892371E+04  0.14983074957E+04  0.00000000000E+00 0. -1.
         22    1    3    3    0    0  0.67183705303E+02  0.27971138857E+02 -0.24887398250E+02  0.76911751111E+02  0.00000000000E+00 0.  1.
         22    1    3    3    0    0 -0.36201265028E+02 -0.18419828375E+02  0.33234306181E+02  0.52481813748E+02  0.00000000000E+00 0.  1.
</event>
<event>
 7    1  0.6017574E-006  0.1308875E+03  0.7818608E-02  0.1354901E+00
          2   -1    0    0  502    0  0.00000000000E+00  0.00000000000E+00  0.52479772312E+03  0.52479772312E+03  0.00000000000E+00 0. -1.
          1   -1    0    0  501    0 -0.00000000000E+00 -0.00000000000E+00 -0.22252173678E+03  0.22252173678E+03  0.00000000000E+00 0. -1.
         25    2    1    2    0    0 -0.85744550423E+01 -0.14943310552E+03  0.38533457460E+02  0.19877873916E+03  0.12499754195E+03 0.  0.
          2    1    1    2  501    0  0.31912139361E+02  0.22614516765E+02 -0.12919514042E+03  0.13498587080E+03  0.00000000000E+00 0. -1.
          1    1    1    2  502    0 -0.23337684318E+02  0.12681858876E+03  0.39293766930E+03  0.41355484995E+03  0.00000000000E+00 0. -1.
         22    1    3    3    0    0 -0.40669766394E+02 -0.10576099658E+03  0.72776965086E+02  0.13466961403E+03  0.00000000000E+00 0. -1.
         22    1    3    3    0    0  0.32095311352E+02 -0.43672108941E+02 -0.34243507627E+02  0.64109125128E+02  0.00000000000E+00 0. -1.
</event>
<event>
 7    1  0.6017574E-006  0.1429782E+03  0.7818608E-02  0.1330260E+00
          2   -1    0    0  502    0  0.00000000000E+00  0.00000000000E+00  0.60714427640E+03  0.60714427640E+03  0.00000000000E+00 0. -1.
          1   -1    0    0  501    0 -0.00000000000E+00 -0.00000000000E+00 -0.49183326404E+03  0.49183326404E+03  0.00000000000E+00 0. -1.
         25    2    1    2    0    0  0.67416899136E+02 -0.16403520874E+03 -0.31954148090E+03  0.38624394447E+03  0.12500015451E+03 0.  0.
          2    1    1    2  501    0 -0.36355527622E+02  0.25292918866E+02 -0.12630516539E+03  0.13384487639E+03  0.00000000000E+00 0. -1.
          1    1    1    2  502    0 -0.31061371514E+02  0.13874228988E+03  0.56115765865E+03  0.57888871958E+03  0.00000000000E+00 0. -1.
         22    1    3    3    0    0 -0.47539766606E+01 -0.28169135718E+02 -0.16759633048E+03  0.17001361855E+03  0.00000000000E+00 0.  1.
         22    1    3    3    0    0  0.72170875797E+02 -0.13586607302E+03 -0.15194515041E+03  0.21623032592E+03  0.00000000000E+00 0.  1.
</event>
<event>
 7    1  0.6017574E-006  0.9461610E+02  0.7818608E-02  0.1381412E+00
          2   -1    0    0  502    0  0.00000000000E+00  0.00000000000E+00  0.24996173298E+03  0.24996173298E+03  0.00000000000E+00 0. -1.
          1   -1    0    0  501    0 -0.00000000000E+00 -0.00000000000E+00 -0.50110906879E+03  0.50110906879E+03  0.00000000000E+00 0. -1.
         25    2    1    2    0    0 -0.12005669939E+03  0.47526707924E+02 -0.14631076122E+03  0.23174327625E+03  0.12500283278E+03 0.  0.
          2    1    1    2  501    0  0.43178258481E+02  0.45586047190E+01 -0.30003828291E+03  0.30316351049E+03  0.00000000000E+00 0. -1.
          1    1    1    2  502    0  0.76878440905E+02 -0.52085312643E+02  0.19520170832E+03  0.21616401504E+03  0.00000000000E+00 0. -1.
         22    1    3    3    0    0 -0.59278676443E+01  0.35928231177E+02 -0.10278880155E+03  0.10904822390E+03  0.00000000000E+00 0. -1.
         22    1    3    3    0    0 -0.11412883174E+03  0.11598476747E+02 -0.43521959670E+02  0.12269505235E+03  0.00000000000E+00 0. -1.
</event>
<event>
 7    1  0.6017574E-006  0.1569908E+03  0.7818608E-02  0.1247656E+00
          2   -1    0    0  502    0  0.00000000000E+00  0.00000000000E+00  0.80255772585E+03  0.80255772585E+03  0.00000000000E+00 0. -1.
          1   -1    0    0  501    0 -0.00000000000E+00 -0.00000000000E+00 -0.30034930128E+03  0.30034930128E+03  0.00000000000E+00 0. -1.
         25    2    1    2    0    0 -0.43953172659E+02 -0.19910448032E+03  0.65642562453E+02  0.24801009041E+03  0.12500233385E+03 0.  0.
          2    1    1    2  501    0  0.73172354692E+02  0.48181710092E+02 -0.19027793322E+03  0.20947878783E+03  0.00000000000E+00 0. -1.
          1    1    1    2  502    0 -0.29219182033E+02  0.15092277023E+03  0.62684379533E+03  0.64541814889E+03  0.00000000000E+00 0. -1.
         22    1    3    3    0    0  0.25951350023E+02 -0.12858212921E+02 -0.15869717540E+02  0.33025053253E+02  0.00000000000E+00 0. -1.
         22    1    3    3    0    0 -0.69904522682E+02 -0.18624626740E+03  0.81512279993E+02  0.21498503716E+03  0.00000000000E+00 0. -1.
</event>
<event>
 7    1  0.6017574E-006  0.7847815E+02  0.7818608E-02  0.1471134E+00
          2   -1    0    0  502    0  0.00000000000E+00  0.00000000000E+00  0.38745046719E+03  0.38745046719E+03  0.00000000000E+00 0. -1.
          1   -1    0    0  501    0 -0.00000000000E+00 -0.00000000000E+00 -0.78238537074E+03  0.78238537074E+03  0.00000000000E+00 0. -1.
         25    2    1    2    0    0 -0.10288826868E+02 -0.51637043840E+02 -0.20612224783E+03  0.24674452251E+03  0.12499693631E+03 0.  0.
          2    1    1    2  501    0 -0.77395001978E+01 -0.25240742693E+02 -0.55138668216E+03  0.55201835859E+03  0.00000000000E+00 0. -1.
          1    1    1    2  502    0  0.18028327066E+02  0.76877786533E+02  0.36257402644E+03  0.37107295682E+03  0.00000000000E+00 0. -1.
         22    1    3    3    0    0 -0.58233655153E+02 -0.10415549062E+02 -0.15342370436E+03  0.16443380222E+03  0.00000000000E+00 0. -1.
         22    1    3    3    0    0  0.47944828285E+02 -0.41221494778E+02 -0.52698543468E+02  0.82310720291E+02  0.00000000000E+00 0. -1.
</event>
<event>
 7    1  0.6017574E-006  0.7532749E+02  0.7818608E-02  0.1423140E+00
          2   -1    0    0  502    0  0.00000000000E+00  0.00000000000E+00  0.92818590661E+03  0.92818590661E+03  0.00000000000E+00 0. -1.
          1   -1    0    0  501    0 -0.00000000000E+00 -0.00000000000E+00 -0.24553688867E+04  0.24553688867E+04  0.00000000000E+00 0. -1.
         25    2    1    2    0    0  0.37946776063E+02  0.10688300999E+03  0.61521391284E+02  0.17964985848E+03  0.12500101771E+03 0.  0.
          2    1    1    2  501    0 -0.14472205648E+02 -0.36464806099E+02 -0.23944380243E+04  0.23947593990E+04  0.00000000000E+00 0. -1.
          1    1    1    2  502    0 -0.23474570415E+02 -0.70418203895E+02  0.80573365287E+03  0.80914553589E+03  0.00000000000E+00 0. -1.
         22    1    3    3    0    0  0.19012914255E+02  0.13328496814E+03  0.59208676685E+02  0.14707834999E+03  0.00000000000E+00 0.  1.
         22    1    3    3    0    0  0.18933861808E+02 -0.26401958146E+02  0.23127145988E+01  0.32571508496E+02  0.00000000000E+00 0.  1.
</event>
<event>
 7    1  0.6017574E-006  0.1065521E+03  0.7818608E-02  0.1273971E+00
          2   -1    0    0  502    0  0.00000000000E+00  0.00000000000E+00  0.26467705752E+04  0.26467705752E+04  0.00000000000E+00 0. -1.
          1   -1    0    0  501    0 -0.00000000000E+00 -0.00000000000E+00 -0.46245511471E+02  0.46245511471E+02  0.00000000000E+00 0. -1.
         25    2    1    2    0    0 -0.81756206602E+02 -0.29989951504E+02  0.95981796607E+03  0.97183286517E+03  0.12500046134E+03 0.  0.
          2    1    1    2  501    0  0.21476011065E+02  0.10940256700E+03  0.41642585523E+02  0.11901363639E+03  0.00000000000E+00 0. -1.
          1    1    1    2  502    0  0.60280195537E+02 -0.79412615495E+02  0.15990645121E+04  0.16021695851E+04  0.00000000000E+00 0. -1.
         22    1    3    3    0    0 -0.84547529925E+02  0.30467393699E+02  0.49508471757E+03  0.50317534167E+03  0.00000000000E+00 0.  1.
         22    1    3    3    0    0  0.27913233227E+01 -0.60457345202E+02  0.46473324850E+03  0.46865752350E+03  0.00000000000E+00 0.  1.
</event>
<event>
 7    1  0.6017574E-006  0.1062589E+03  0.7818608E-02  0.1376045E+00
          2   -1    0    0  502    0  0.00000000000E+00  0.00000000000E+00  0.66468136550E+03  0.66468136550E+03  0.00000000000E+00 0. -1.
          1   -1    0    0  501    0 -0.00000000000E+00 -0.00000000000E+00 -0.19054542097E+03  0.19054542097E+03  0.00000000000E+00 0. -1.
         25    2    1    2    0    0 -0.74275497763E+02 -0.11264897101E+03  0.18134089423E+03  0.25829526846E+03  0.12500114220E+03 0.  0.
          2    1    1    2  501    0  0.36862383776E+02  0.97419709207E+02 -0.13316348961E+03  0.16906197102E+03  0.00000000000E+00 0. -1.
          1    1    1    2  502    0  0.37413113987E+02  0.15229261800E+02  0.42595853992E+03  0.42786954699E+03  0.00000000000E+00 0. -1.
         22    1    3    3    0    0 -0.87247136828E+02 -0.12907726240E+03  0.13021096485E+03  0.20304654127E+03  0.00000000000E+00 0.  1.
         22    1    3    3    0    0  0.12971639065E+02  0.16428291394E+02  0.51129929374E+02  0.55248727188E+02  0.00000000000E+00 0.  1.
</event>
<event>
 7    1  0.6017574E-006  0.1686043E+03  0.7818608E-02  0.1316660E+00
          2   -1    0    0  502    0  0.00000000000E+00  0.00000000000E+00  0.50400124817E+03  0.50400124817E+03  0.00000000000E+00 0. -1.
          1   -1    0    0  501    0 -0.00000000000E+00 -0.00000000000E+00 -0.12230865493E+04  0.12230865493E+04  0.00000000000E+00 0. -1.
         25    2    1    2    0    0 -0.18053627281E+03  0.83449406038E+02  0.38815402527E+02  0.23809479781E+03  0.12500139241E+03 0.  0.
          2    1    1    2  501    0  0.24785652509E+02 -0.34378463181E+02 -0.11047830047E+04  0.11055956290E+04  0.00000000000E+00 0. -1.
          1    1    1    2  502    0  0.15575062030E+03 -0.49070942857E+02  0.34688230099E+03  0.38339737075E+03  0.00000000000E+00 0. -1.
         22    1    3    3    0    0  0.15887453849E+02  0.21513830056E+02  0.15269189947E+02  0.30796172410E+02  0.00000000000E+00 0.  1.
         22    1    3    3    0    0 -0.19642372666E+03  0.61935575982E+02  0.23546212579E+02  0.20729862540E+03  0.00000000000E+00 0.  1.
</event>
<event>
 7    1  0.6017574E-006  0.3272589E+02  0.7818608E-02  0.1629020E+00
          2   -1    0    0  502    0  0.00000000000E+00  0.00000000000E+00  0.14238315104E+04  0.14238315104E+04  0.00000000000E+00 0. -1.
          1   -1    0    0  501    0 -0.00000000000E+00 -0.00000000000E+00 -0.80332612360E+03  0.80332612360E+03  0.00000000000E+00 0. -1.
         25    2    1    2    0    0 -0.24508512733E+02 -0.12021402343E+02  0.18919022522E+02  0.12933751588E+03  0.12500032916E+03 0.  0.
          2    1    1    2  501    0 -0.67432083025E+01  0.21889126840E+02 -0.74774255561E+03  0.74809326571E+03  0.00000000000E+00 0. -1.
          1    1    1    2  502    0  0.31251721036E+02 -0.98677244970E+01  0.13493289199E+04  0.13497268524E+04  0.00000000000E+00 0. -1.
         22    1    3    3    0    0 -0.56899897762E+02 -0.51118857950E+02  0.17892693381E+02  0.78554977435E+02  0.00000000000E+00 0.  1.
         22    1    3    3    0    0  0.32391385029E+02  0.39097455606E+02  0.10263291405E+01  0.50782538441E+02  0.00000000000E+00 0.  1.
</event>
<event>
 7    1  0.6017574E-006  0.9886225E+02  0.7818608E-02  0.1406071E+00
          2   -1    0    0  502    0  0.00000000000E+00  0.00000000000E+00  0.24072146581E+03  0.24072146581E+03  0.00000000000E+00 0. -1.
          1   -1    0    0  501    0 -0.00000000000E+00 -0.00000000000E+00 -0.16584472080E+04  0.16584472080E+04  0.00000000000E+00 0. -1.
         25    2    1    2    0    0 -0.71515694911E+02  0.81311198120E+02 -0.97984307505E+03  0.99370204727E+03  0.12500120587E+03 0.  0.
          2    1    1    2  501    0  0.82426081632E+02 -0.48981536442E+02 -0.66698294976E+03  0.67383937634E+03  0.00000000000E+00 0. -1.
          1    1    1    2  502    0 -0.10910386721E+02 -0.32329661679E+02  0.22910028259E+03  0.23162725022E+03  0.00000000000E+00 0. -1.
         22    1    3    3    0    0 -0.19723384818E+02  0.96994561876E+02 -0.43206140473E+03  0.44325389384E+03  0.00000000000E+00 0.  1.
         22    1    3    3    0    0 -0.51792310093E+02 -0.15683363755E+02 -0.54778167032E+03  0.55044815344E+03  0.00000000000E+00 0.  1.
</event>
<event>
 7    1  0.7017822E-006  0.6550491E+02  0.7818608E-02  0.1390562E+00
          2   -1    0    0  502    0  0.00000000000E+00  0.00000000000E+00  0.11805871668E+04  0.11805871668E+04  0.00000000000E+00 0. -1.
          1   -1    0    0  501    0 -0.00000000000E+00 -0.00000000000E+00 -0.43692298509E+03  0.43692298509E+03  0.00000000000E+00 0. -1.
         25    2    1    2    0    0  0.32253341137E+02  0.88839863631E+02 -0.13442183214E+03  0.20646499539E+03  0.12500306388E+03 0.  0.
          2    1    1    2  501    0  0.19065591939E+02 -0.61297791201E+02 -0.26185922987E+03  0.26961300464E+03  0.00000000000E+00 0. -1.
          1    1    1    2  502    0 -0.51318933076E+02 -0.27542072430E+02  0.11399452437E+04  0.11414321519E+04  0.00000000000E+00 0. -1.
         22    1    3    3    0    0 -0.45014114648E+02  0.28025051069E+02 -0.22826913897E+02  0.57729905621E+02  0.00000000000E+00 0. -1.
         22    1    3    3    0    0  0.77267455785E+02  0.60814812562E+02 -0.11159491824E+03  0.14873508977E+03  0.00000000000E+00 0. -1.
</event>
<event>
 7    1  0.6017574E-006  0.1825140E+03  0.7818608E-02  0.1237566E+00
          2   -1    0    0  502    0  0.00000000000E+00  0.00000000000E+00  0.35452215460E+03  0.35452215460E+03  0.00000000000E+00 0. -1.
          1   -1    0    0  501    0 -0.00000000000E+00 -0.00000000000E+00 -0.77047774585E+03  0.77047774585E+03  0.00000000000E+00 0. -1.
         25    2    1    2    0    0 -0.12355846625E+03  0.20334892160E+03 -0.30045635709E+03  0.40313409878E+03  0.12500240230E+03 0.  0.
          2    1    1    2  501    0  0.11379660567E+03 -0.12046848911E+03 -0.39596670851E+03  0.42924580205E+03  0.00000000000E+00 0. -1.
          1    1    1    2  502    0  0.97618605751E+01 -0.82880432499E+02  0.28046747435E+03  0.29261999963E+03  0.00000000000E+00 0. -1.
         22    1    3    3    0    0 -0.39693962946E+02  0.30155968909E+02 -0.15237855653E+03  0.16032534935E+03  0.00000000000E+00 0.  1.
         22    1    3    3    0    0 -0.83864503301E+02  0.17319295270E+03 -0.14807780056E+03  0.24280874942E+03  0.00000000000E+00 0.  1.
</event>
<event>
 7    1  0.6017574E-006  0.5778712E+02  0.7818608E-02  0.1458811E+00
          2   -1    0    0  502    0  0.00000000000E+00  0.00000000000E+00  0.17910039375E+04  0.17910039375E+04  0.00000000000E+00 0. -1.
          1   -1    0    0  501    0 -0.00000000000E+00 -0.00000000000E+00 -0.36060457771E+03  0.36060457771E+03  0.00000000000E+00 0. -1.
         25    2    1    2    0    0  0.29985356706E+02  0.31550512275E+02  0.50065787544E+02  0.14151436446E+03  0.12500070330E+03 0.  0.
          2    1    1    2  501    0 -0.28863756491E+02  0.26504174843E+02 -0.31316159336E+03  0.31560382012E+03  0.00000000000E+00 0. -1.
          1    1    1    2  502    0 -0.11216002159E+01 -0.58054687119E+02  0.16934951656E+04  0.16944903306E+04  0.00000000000E+00 0. -1.
         22    1    3    3    0    0 -0.20314169249E+02  0.61158086973E+02  0.52463355612E+02  0.83098620666E+02  0.00000000000E+00 0.  1.
         22    1    3    3    0    0  0.50299525956E+02 -0.29607574698E+02 -0.23975680679E+01  0.58415743798E+02  0.00000000000E+00 0.  1.
</event>
<event>
 7    1  0.6017574E-006  0.4960579E+02  0.7818608E-02  0.1500634E+00
          2   -1    0    0  502    0  0.00000000000E+00  0.00000000000E+00  0.31082284096E+03  0.31082284096E+03  0.00000000000E+00 0. -1.
          1   -1    0    0  501    0 -0.00000000000E+00 -0.00000000000E+00 -0.25556529342E+03  0.25556529342E+03  0.00000000000E+00 0. -1.
         25    2    1    2    0    0 -0.43912843153E+02 -0.61684094285E+02 -0.46356951897E+02  0.15332093835E+03  0.12500031146E+03 0.  0.
          2    1    1    2  501    0  0.13772120700E+02  0.46021394958E+02 -0.15085708767E+03  0.15832087987E+03  0.00000000000E+00 0. -1.
          1    1    1    2  502    0  0.30140722452E+02  0.15662699327E+02  0.25247158711E+03  0.25474631616E+03  0.00000000000E+00 0. -1.
         22    1    3    3    0    0 -0.76157920591E+02 -0.23907262981E+02 -0.62192462964E+02  0.10119035795E+03  0.00000000000E+00 0.  1.
         22    1    3    3    0    0  0.32245077439E+02 -0.37776831304E+02  0.15835511068E+02  0.52130580403E+02  0.00000000000E+00 0.  1.
</event>
<event>
 7    1  0.6017574E-006  0.7354011E+02  0.7818608E-02  0.1498109E+00
          2   -1    0    0  502    0  0.00000000000E+00  0.00000000000E+00  0.11021107937E+04  0.11021107937E+04  0.00000000000E+00 0. -1.
          1   -1    0    0  501    0 -0.00000000000E+00 -0.00000000000E+00 -0.21145972387E+03  0.21145972387E+03  0.00000000000E+00 0. -1.
         25    2    1    2    0    0 -0.13167855695E+02  0.82704075387E+02  0.91369548953E+02  0.17602843486E+03  0.12499703555E+03 0.  0.
          2    1    1    2  501    0 -0.78781453618E+01 -0.72674034146E+02 -0.16108358157E+03  0.17689403796E+03  0.00000000000E+00 0. -1.
          1    1    1    2  502    0  0.21046001056E+02 -0.10030041241E+02  0.96036510244E+03  0.96064804474E+03  0.00000000000E+00 0. -1.
         22    1    3    3    0    0  0.21797784447E+02  0.98002823410E+02  0.94313767326E+02  0.13774898733E+03  0.00000000000E+00 0. -1.
         22    1    3    3    0    0 -0.34965640142E+02 -0.15298748023E+02 -0.29442183730E+01  0.38279447533E+02  0.00000000000E+00 0. -1.
</event>
<event>
 7    1  0.6017574E-006  0.1001065E+03  0.7818608E-02  0.1330291E+00
          2   -1    0    0  502    0  0.00000000000E+00  0.00000000000E+00  0.10538494747E+04  0.10538494747E+04  0.00000000000E+00 0. -1.
          1   -1    0    0  501    0 -0.00000000000E+00 -0.00000000000E+00 -0.92191403428E+03  0.92191403428E+03  0.00000000000E+00 0. -1.
         25    2    1    2    0    0  0.19931459899E+02 -0.96720096434E+02 -0.32394619245E+02  0.16256116820E+03  0.12499872760E+03 0.  0.
          2    1    1    2  501    0 -0.75723234379E+02  0.66948188003E+02 -0.82032011611E+03  0.82652353929E+03  0.00000000000E+00 0. -1.
          1    1    1    2  502    0  0.55791774480E+02  0.29771908431E+02  0.98465017583E+03  0.98667880153E+03  0.00000000000E+00 0. -1.
         22    1    3    3    0    0 -0.44806070728E+02 -0.79736939496E+02 -0.10109873042E+02  0.92020503298E+02  0.00000000000E+00 0.  1.
         22    1    3    3    0    0  0.64737530627E+02 -0.16983156938E+02 -0.22284746202E+02  0.70540664900E+02  0.00000000000E+00 0.  1.
</event>
<event>
 7    1  0.6017574E-006  0.1052533E+03  0.7818608E-02  0.1359906E+00
          2   -1    0    0  502    0  0.00000000000E+00  0.00000000000E+00  0.30136851453E+04  0.30136851453E+04  0.00000000000E+00 0. -1.
          1   -1    0    0  501    0 -0.00000000000E+00 -0.00000000000E+00 -0.17036200253E+04  0.17036200253E+04  0.00000000000E+00 0. -1.
         25    2    1    2    0    0 -0.15041402837E+03 -0.97916056154E+01  0.20414611050E+03  0.28287918223E+03  0.12499896735E+03 0.  0.
          2    1    1    2  501    0  0.10494537659E+03 -0.53901899135E+00 -0.16624025001E+04  0.16657118283E+04  0.00000000000E+00 0. -1.
          1    1    1    2  502    0  0.45468651778E+02  0.10330624607E+02  0.27683215096E+04  0.27687141601E+04  0.00000000000E+00 0. -1.
         22    1    3    3    0    0 -0.14342302417E+03 -0.34509077783E+02  0.20990317341E+03  0.25655483336E+03  0.00000000000E+00 0. -1.
         22    1    3    3    0    0 -0.69910041967E+01  0.24717472168E+02 -0.57570629158E+01  0.26324348871E+02  0.00000000000E+00 0. -1.
</event>
<event>
 7    1  0.6017574E-006  0.4898917E+02  0.7818608E-02  0.1522505E+00
          2   -1    0    0  502    0  0.00000000000E+00  0.00000000000E+00  0.25864725907E+04  0.25864725907E+04  0.00000000000E+00 0. -1.
          1   -1    0    0  501    0 -0.00000000000E+00 -0.00000000000E+00 -0.13219618720E+04  0.13219618720E+04  0.00000000000E+00 0. -1.
         25    2    1    2    0    0  0.60309640023E+01  0.21214616519E+02  0.11873723417E+03  0.17381884614E+03  0.12501211147E+03 0.  0.
          2    1    1    2  501    0 -0.10210912361E+02  0.27852674032E+02 -0.12940025988E+04  0.12943425976E+04  0.00000000000E+00 0. -1.
          1    1    1    2  502    0  0.41799483583E+01 -0.49067290552E+02  0.24397760832E+04  0.24402730190E+04  0.00000000000E+00 0. -1.
         22    1    3    3    0    0 -0.26934398644E+02 -0.21261644822E+02  0.11489986769E+03  0.11991454860E+03  0.00000000000E+00 0. -1.
         22    1    3    3    0    0  0.32965362646E+02  0.42476261341E+02  0.38373664783E+01  0.53904297541E+02  0.00000000000E+00 0. -1.
</event>
<event>
 7    1  0.6017574E-006  0.1560811E+03  0.7818608E-02  0.1317689E+00
          2   -1    0    0  502    0  0.00000000000E+00  0.00000000000E+00  0.18549793186E+04  0.18549793186E+04  0.00000000000E+00 0. -1.
          1   -1    0    0  501    0 -0.00000000000E+00 -0.00000000000E+00 -0.32270190384E+03  0.32270190384E+03  0.00000000000E+00 0. -1.
         25    2    1    2    0    0  0.64626996077E+02 -0.97235268821E+02  0.36634566050E+03  0.40430753547E+03  0.12499637651E+03 0.  0.
          2    1    1    2  501    0 -0.69053752165E+02  0.14238016144E+03 -0.28273037625E+03  0.32400153813E+03  0.00000000000E+00 0. -1.
          1    1    1    2  502    0  0.44267560881E+01 -0.45144892619E+02  0.14486621305E+04  0.14493721489E+04  0.00000000000E+00 0. -1.
         22    1    3    3    0    0  0.11530956523E+02 -0.20918221637E+02 -0.24151207448E+01  0.24007660507E+02  0.00000000000E+00 0. -1.
         22    1    3    3    0    0  0.53096039555E+02 -0.76317047184E+02  0.36876078125E+03  0.38029987496E+03  0.00000000000E+00 0. -1.
</event>
<event>
 7    1  0.6017574E-006  0.6440797E+02  0.7818608E-02  0.1441439E+00
          2   -1    0    0  502    0  0.00000000000E+00  0.00000000000E+00  0.89840644000E+03  0.89840644000E+03  0.00000000000E+00 0. -1.
          1   -1    0    0  501    0 -0.00000000000E+00 -0.00000000000E+00 -0.17491003837E+04  0.17491003837E+04  0.00000000000E+00 0. -1.
         25    2    1    2    0    0  0.36498756344E+02  0.79948081887E+02  0.19557486777E+03  0.24819066922E+03  0.12500089749E+03 0.  0.
          2    1    1    2  501    0  0.11419522316E+02 -0.38291386658E+02 -0.17210703149E+04  0.17215341020E+04  0.00000000000E+00 0. -1.
          1    1    1    2  502    0 -0.47918278660E+02 -0.41656695228E+02  0.67480150338E+03  0.67778205247E+03  0.00000000000E+00 0. -1.
         22    1    3    3    0    0  0.51485299752E+02  0.69921313469E+01  0.15478570754E+03  0.16327351668E+03  0.00000000000E+00 0.  1.
         22    1    3    3    0    0 -0.14986543408E+02  0.72955950540E+02  0.40789160227E+02  0.84917152534E+02  0.00000000000E+00 0.  1.
</event>
<event>
 7    1  0.6017574E-006  0.3164802E+02  0.7818608E-02  0.1649107E+00
          2   -1    0    0  502    0  0.00000000000E+00  0.00000000000E+00  0.68923053714E+03  0.68923053714E+03  0.00000000000E+00 0. -1.
          1   -1    0    0  501    0 -0.00000000000E+00 -0.00000000000E+00 -0.82017018761E+03  0.82017018761E+03  0.00000000000E+00 0. -1.
         25    2    1    2    0    0 -0.22503126310E+02  0.42904313108E+02 -0.16857050204E+03  0.21538491067E+03  0.12500989885E+03 0.  0.
          2    1    1    2  501    0  0.50716845440E+01 -0.30994465017E+02 -0.62763238235E+03  0.62841768453E+03  0.00000000000E+00 0. -1.
          1    1    1    2  502    0  0.17431441766E+02 -0.11909848091E+02  0.66526323393E+03  0.66559812955E+03  0.00000000000E+00 0. -1.
         22    1    3    3    0    0  0.27906108040E+02 -0.32809802651E+02 -0.56555898785E+02  0.71090109744E+02  0.00000000000E+00 0. -1.
         22    1    3    3    0    0 -0.50409234350E+02  0.75714115759E+02 -0.11201460325E+03  0.14429480093E+03  0.00000000000E+00 0. -1.
</event>
<event>
 7    1  0.6017574E-006  0.6117648E+02  0.7818608E-02  0.1442499E+00
          2   -1    0    0  502    0  0.00000000000E+00  0.00000000000E+00  0.25973595291E+03  0.25973595291E+03  0.00000000000E+00 0. -1.
          1   -1    0    0  501    0 -0.00000000000E+00 -0.00000000000E+00 -0.49323244530E+03  0.49323244530E+03  0.00000000000E+00 0. -1.
         25    2    1    2    0    0  0.26810203120E+02 -0.54905599960E+02  0.21443511163E+02  0.14077779718E+03  0.12500060843E+03 0.  0.
          2    1    1    2  501    0 -0.56149223035E+02  0.25219417713E+02 -0.42889964809E+03  0.43329396766E+03  0.00000000000E+00 0. -1.
          1    1    1    2  502    0  0.29339019914E+02  0.29686182246E+02  0.17395964454E+03  0.17889663338E+03  0.00000000000E+00 0. -1.
         22    1    3    3    0    0 -0.13277797817E+02 -0.82081918535E+02 -0.89033333709E+01  0.83624222629E+02  0.00000000000E+00 0. -1.
         22    1    3    3    0    0  0.40088000937E+02  0.27176318575E+02  0.30346844534E+02  0.57153574548E+02  0.00000000000E+00 0. -1.
</event>
<event>
 7    1  0.6017574E-006  0.3652703E+02  0.7818608E-02  0.1586297E+00
          2   -1    0    0  502    0  0.00000000000E+00  0.00000000000E+00  0.17646191188E+04  0.17646191188E+04  0.00000000000E+00 0. -1.
          1   -1    0    0  501    0 -0.00000000000E+00 -0.00000000000E+00 -0.19166462385E+03  0.19166462385E+03  0.00000000000E+00 0. -1.
         25    2    1    2    0    0 -0.20919311658E+02 -0.50357150055E+02  0.16299253930E+03  0.21252482143E+03  0.12500708658E+03 0.  0.
          2    1    1    2  501    0  0.22480851377E+02  0.13973616218E+02 -0.16563724210E+03  0.16773892392E+03  0.00000000000E+00 0. -1.
          1    1    1    2  502    0 -0.15615397190E+01  0.36383533837E+02  0.15755991977E+04  0.15760199973E+04  0.00000000000E+00 0. -1.
         22    1    3    3    0    0  0.72801204084E+01  0.28850192337E+02  0.10808666274E+03  0.11210736110E+03  0.00000000000E+00 0.  1.
         22    1    3    3    0    0 -0.28199432066E+02 -0.79207342392E+02  0.54905876558E+02  0.10041746033E+03  0.00000000000E+00 0.  1.
</event>
<event>
 7    1  0.6017574E-006  0.2340470E+03  0.7818608E-02  0.1128094E+00
          2   -1    0    0  502    0  0.00000000000E+00  0.00000000000E+00  0.10721206405E+04  0.10721206405E+04  0.00000000000E+00 0. -1.
          1   -1    0    0  501    0 -0.00000000000E+00 -0.00000000000E+00 -0.89222057692E+03  0.89222057692E+03  0.00000000000E+00 0. -1.
         25    2    1    2    0    0  0.22362956494E+00 -0.35378579512E+02 -0.10824918211E+03  0.16910180702E+03  0.12500336720E+03 0.  0.
          2    1    1    2  501    0  0.27030682070E+02 -0.22035136296E+03 -0.72070411955E+03  0.75412187931E+03  0.00000000000E+00 0. -1.
          1    1    1    2  502    0 -0.27254311635E+02  0.25572994247E+03  0.10088533653E+04  0.10411175311E+04  0.00000000000E+00 0. -1.
         22    1    3    3    0    0  0.38157651092E+02  0.12282681064E+02  0.51124869666E+01  0.40410495097E+02  0.00000000000E+00 0.  1.
         22    1    3    3    0    0 -0.37934021527E+02 -0.47661260576E+02 -0.11336166908E+03  0.12869131192E+03  0.00000000000E+00 0.  1.
</event>
<event>
 7    1  0.6017574E-006  0.7166959E+02  0.7818608E-02  0.1392891E+00
          2   -1    0    0  502    0  0.00000000000E+00  0.00000000000E+00  0.14907706976E+03  0.14907706976E+03  0.00000000000E+00 0. -1.
          1   -1    0    0  501    0 -0.00000000000E+00 -0.00000000000E+00 -0.30277063804E+03  0.30277063804E+03  0.00000000000E+00 0. -1.
         25    2    1    2    0    0  0.38156456399E+02 -0.12611744258E+02 -0.14290086000E+03  0.19406279057E+03  0.12499895854E+03 0.  0.
          2    1    1    2  501    0 -0.89649152111E+02  0.21467106928E+02 -0.11129395046E+03  0.14451349613E+03  0.00000000000E+00 0. -1.
          1    1    1    2  502    0  0.51492695712E+02 -0.88553626695E+01  0.10050124217E+03  0.11327142110E+03  0.00000000000E+00 0. -1.
         22    1    3    3    0    0  0.23228614179E+02 -0.53018702997E+02 -0.16006513412E+02  0.60056305712E+02  0.00000000000E+00 0.  1.
         22    1    3    3    0    0  0.14927842220E+02  0.40406958739E+02 -0.12689434659E+03  0.13400648485E+03  0.00000000000E+00 0.  1.
</event>
<event>
 7    1  0.6017574E-006  0.1903275E+03  0.7818608E-02  0.1231586E+00
          2   -1    0    0  502    0  0.00000000000E+00  0.00000000000E+00  0.16016293481E+04  0.16016293481E+04  0.00000000000E+00 0. -1.
          1   -1    0    0  501    0 -0.00000000000E+00 -0.00000000000E+00 -0.81458546778E+03  0.81458546778E+03  0.00000000000E+00 0. -1.
         25    2    1    2    0    0  0.24071604699E+03  0.17312823546E+02  0.20366405355E+03  0.33962940530E+03  0.12500054839E+03 0.  0.
          2    1    1    2  501    0 -0.17470457185E+03 -0.70995748106E+02 -0.73329976592E+03  0.75715958052E+03  0.00000000000E+00 0. -1.
          1    1    1    2  502    0 -0.66011475141E+02  0.53682924559E+02  0.13166795927E+04  0.13194258301E+04  0.00000000000E+00 0. -1.
         22    1    3    3    0    0  0.18587652178E+03  0.38777760815E+02  0.86824803104E+02  0.20878779303E+03  0.00000000000E+00 0. -1.
         22    1    3    3    0    0  0.54839525206E+02 -0.21464937269E+02  0.11683925044E+03  0.13084161227E+03  0.00000000000E+00 0. -1.
</event>
<event>
 7    1  0.6017574E-006  0.1005735E+03  0.7818608E-02  0.1357488E+00
          2   -1    0    0  502    0  0.00000000000E+00  0.00000000000E+00  0.44979482938E+03  0.44979482938E+03  0.00000000000E+00 0. -1.
          1   -1    0    0  501    0 -0.00000000000E+00 -0.00000000000E+00 -0.15573950481E+04  0.15573950481E+04  0.00000000000E+00 0. -1.
         25    2    1    2    0    0 -0.56230142512E+02 -0.42303919345E+02 -0.80343525221E+03  0.81613989752E+03  0.12499870924E+03 0.  0.
          2    1    1    2  501    0 -0.43105759315E+02  0.24939963301E+02 -0.74102781881E+03  0.74269935809E+03  0.00000000000E+00 0. -1.
          1    1    1    2  502    0  0.99335901828E+02  0.17363956044E+02  0.43686285233E+03  0.44835062184E+03  0.00000000000E+00 0. -1.
         22    1    3    3    0    0 -0.76926734515E+02 -0.28243996431E+02 -0.27104943008E+03  0.28316645169E+03  0.00000000000E+00 0.  1.
         22    1    3    3    0    0  0.20696592002E+02 -0.14059922914E+02 -0.53238582213E+03  0.53297344583E+03  0.00000000000E+00 0.  1.
</event>
<event>
 7    1  0.6017574E-006  0.8408620E+02  0.7818608E-02  0.1429172E+00
          2   -1    0    0  502    0  0.00000000000E+00  0.00000000000E+00  0.40848297423E+03  0.40848297423E+03  0.00000000000E+00 0. -1.
          1   -1    0    0  501    0 -0.00000000000E+00 -0.00000000000E+00 -0.76480548101E+03  0.76480548101E+03  0.00000000000E+00 0. -1.
         25    2    1    2    0    0 -0.86152436032E+02 -0.22896278096E+02  0.15532210442E+03  0.21839220492E+03  0.12499486896E+03 0.  0.
          2    1    1    2  501    0  0.26974868132E+01  0.33457475226E+02 -0.72488583186E+03  0.72566255816E+03  0.00000000000E+00 0. -1.
          1    1    1    2  502    0  0.83454949219E+02 -0.10561197130E+02  0.21324122066E+03  0.22923369216E+03  0.00000000000E+00 0. -1.
         22    1    3    3    0    0 -0.35673278467E+02  0.14249642755E+02 -0.11571255159E+02  0.40118936441E+02  0.00000000000E+00 0.  1.
         22    1    3    3    0    0 -0.50479157566E+02 -0.37145920851E+02  0.16689335958E+03  0.17827326848E+03  0.00000000000E+00 0.  1.
</event>
<event>
 7    1  0.6017574E-006  0.1299792E+03  0.7818608E-02  0.1321198E+00
          2   -1    0    0  502    0  0.00000000000E+00  0.00000000000E+00  0.14381762857E+03  0.14381762857E+03  0.00000000000E+00 0. -1.
          1   -1    0    0  501    0 -0.00000000000E+00 -0.00000000000E+00 -0.29746816928E+03  0.29746816928E+03  0.00000000000E+00 0. -1.
         25    2    1    2    0    0 -0.11452464991E+03  0.44823992870E+02 -0.25974709397E+02  0.17727275304E+03  0.12500343063E+03 0.  0.
          2    1    1    2  501    0  0.13210078308E+02  0.51108620093E+02 -0.11173692269E+03  0.12357887000E+03  0.00000000000E+00 0. -1.
          1    1    1    2  502    0  0.10131457160E+03 -0.95932612963E+02 -0.15938908618E+02  0.14043417482E+03  0.00000000000E+00 0. -1.
         22    1    3    3    0    0 -0.71927694886E+02 -0.33755032938E+02 -0.36191212686E+02  0.87308644566E+02  0.00000000000E+00 0. -1.
         22    1    3    3    0    0 -0.42596955025E+02  0.78579025808E+02  0.10216503289E+02  0.89964108476E+02  0.00000000000E+00 0. -1.
</event>
<event>
 7    1  0.6017574E-006  0.7854581E+02  0.7818608E-02  0.1338309E+00
          2   -1    0    0  502    0  0.00000000000E+00  0.00000000000E+00  0.33626585204E+04  0.33626585204E+04  0.00000000000E+00 0. -1.
          1   -1    0    0  501    0 -0.00000000000E+00 -0.00000000000E+00 -0.19160368393E+03  0.19160368393E+03  0.00000000000E+00 0. -1.
         25    2    1    2    0    0  0.11794766411E+03  0.22258936047E+02  0.89474936464E+02  0.19503230180E+03  0.12499889114E+03 0.  0.
          2    1    1    2  501    0 -0.51509251025E+02 -0.57364886154E+02 -0.12764717595E+03  0.14912321963E+03  0.00000000000E+00 0. -1.
          1    1    1    2  502    0 -0.66438413090E+02  0.35105950107E+02  0.32092270760E+04  0.32101066829E+04  0.00000000000E+00 0. -1.
         22    1    3    3    0    0  0.13617925596E+03 -0.71916594853E+01  0.57859033589E+02  0.14813567257E+03  0.00000000000E+00 0.  1.
         22    1    3    3    0    0 -0.18231591847E+02  0.29450595533E+02  0.31615902876E+02  0.46896629230E+02  0.00000000000E+00 0.  1.
</event>
<event>
 7    1  0.6017574E-006  0.1009377E+03  0.7818608E-02  0.1291142E+00
          2   -1    0    0  502    0  0.00000000000E+00  0.00000000000E+00  0.42987946642E+02  0.42987946642E+02  0.00000000000E+00 0. -1.
          1   -1    0    0  501    0 -0.00000000000E+00 -0.00000000000E+00 -0.29682925243E+04  0.29682925243E+04  0.00000000000E+00 0. -1.
         25    2    1    2    0    0 -0.65556951201E+02  0.16973038984E+03 -0.53322761777E+03  0.57710966222E+03  0.12497099976E+03 0.  0.
          2    1    1    2  501    0  0.14571234135E+02 -0.96245399505E+02 -0.23122192365E+04  0.23142673345E+04  0.00000000000E+00 0. -1.
          1    1    1    2  502    0  0.50985717066E+02 -0.73484990334E+02 -0.79857723336E+02  0.11990347420E+03  0.00000000000E+00 0. -1.
         22    1    3    3    0    0 -0.95912475401E+02  0.16232421443E+03 -0.43706580482E+03  0.47599881436E+03  0.00000000000E+00 0.  1.
         22    1    3    3    0    0  0.30355524201E+02  0.74061754085E+01 -0.96161812953E+02  0.10111084786E+03  0.00000000000E+00 0.  1.
</event>
<event>
 7    1  0.6017574E-006  0.1008464E+03  0.7818608E-02  0.1398156E+00
          2   -1    0    0  502    0  0.00000000000E+00  0.00000000000E+00  0.25363636111E+03  0.25363636111E+03  0.00000000000E+00 0. -1.
          1   -1    0    0  501    0 -0.00000000000E+00 -0.00000000000E+00 -0.21006223815E+03  0.21006223815E+03  0.00000000000E+00 0. -1.
         25    2    1    2    0    0 -0.77156177256E+02 -0.10013063360E+03  0.58562422806E+02  0.18718053898E+03  0.12501110884E+03 0.  0.
          2    1    1    2  501    0  0.73072027087E+02  0.64759556384E+02 -0.12630572473E+03  0.15964478503E+03  0.00000000000E+00 0. -1.
          1    1    1    2  502    0  0.40841501693E+01  0.35371077218E+02  0.11131742489E+03  0.11687327526E+03  0.00000000000E+00 0. -1.
         22    1    3    3    0    0 -0.71408885875E+01 -0.48101995725E+00 -0.33661895827E+02  0.34414341497E+02  0.00000000000E+00 0. -1.
         22    1    3    3    0    0 -0.70015288668E+02 -0.99649613645E+02  0.92224318632E+02  0.15276619749E+03  0.00000000000E+00 0. -1.
</event>
<event>
 7    1  0.6017574E-006  0.7382888E+02  0.7818608E-02  0.1363486E+00
          2   -1    0    0  502    0  0.00000000000E+00  0.00000000000E+00  0.15060433974E+04  0.15060433974E+04  0.00000000000E+00 0. -1.
          1   -1    0    0  501    0 -0.00000000000E+00 -0.00000000000E+00 -0.80770679665E+02  0.80770679665E+02  0.00000000000E+00 0. -1.
         25    2    1    2    0    0  0.54644469586E+02 -0.79709422900E+02  0.79006837833E+03  0.80571262617E+03  0.12500073349E+03 0.  0.
          2    1    1    2  501    0  0.95392798744E+01  0.73238648744E+02 -0.52349321230E+02  0.90528166686E+02  0.00000000000E+00 0. -1.
          1    1    1    2  502    0 -0.64183749460E+02  0.64707741561E+01  0.68755366067E+03  0.69057328424E+03  0.00000000000E+00 0. -1.
         22    1    3    3    0    0  0.22446300166E+02 -0.33805404968E+02  0.54180521300E+02  0.67691732764E+02  0.00000000000E+00 0. -1.
         22    1    3    3    0    0  0.32198169420E+02 -0.45904017932E+02  0.73588785703E+03  0.73802089341E+03  0.00000000000E+00 0. -1.
</event>
<event>
 7    1  0.6017574E-006  0.2399377E+03  0.7818608E-02  0.1271503E+00
          2   -1    0    0  502    0  0.00000000000E+00  0.00000000000E+00  0.71490038091E+03  0.71490038091E+03  0.00000000000E+00 0. -1.
          1   -1    0    0  501    0 -0.00000000000E+00 -0.00000000000E+00 -0.10151650355E+04  0.10151650355E+04  0.00000000000E+00 0. -1.
         25    2    1    2    0    0 -0.16582485781E+03  0.12931334633E+03 -0.15365586649E+03  0.28888576202E+03  0.12500013274E+03 0.  0.
          2    1    1    2  501    0 -0.44702530336E+02 -0.75739845269E+01 -0.77036171987E+03  0.77169479776E+03  0.00000000000E+00 0. -1.
          1    1    1    2  502    0  0.21052738815E+03 -0.12173936180E+03  0.62375293177E+03  0.66948485663E+03  0.00000000000E+00 0. -1.
         22    1    3    3    0    0 -0.31990866997E+02 -0.24587136477E+02 -0.31102023072E+02  0.50943877851E+02  0.00000000000E+00 0.  1.
         22    1    3    3    0    0 -0.13383399081E+03  0.15390048281E+03 -0.12255384342E+03  0.23794188417E+03  0.00000000000E+00 0.  1.
</event>
<event>
 7    1  0.6017574E-006  0.4101036E+02  0.7818608E-02  0.1564842E+00
          2   -1    0    0  502    0  0.00000000000E+00  0.00000000000E+00  0.12670952671E+04  0.12670952671E+04  0.00000000000E+00 0. -1.
          1   -1    0    0  501    0 -0.00000000000E+00 -0.00000000000E+00 -0.16879766595E+03  0.16879766595E+03  0.00000000000E+00 0. -1.
         25    2    1    2    0    0  0.19374672960E+02 -0.19366629654E+02  0.89058404700E+03  0.89972666699E+03  0.12497074152E+03 0.  0.
          2    1    1    2  501    0 -0.81953340919E+01 -0.25659348286E+02 -0.16166095894E+03  0.16388969248E+03  0.00000000000E+00 0. -1.
          1    1    1    2  502    0 -0.11179338868E+02  0.45025977940E+02  0.36937451312E+03  0.37227657360E+03  0.00000000000E+00 0. -1.
         22    1    3    3    0    0 -0.33520992169E+02 -0.62350608991E+01  0.71649408366E+03  0.71730488972E+03  0.00000000000E+00 0. -1.
         22    1    3    3    0    0  0.52895665130E+02 -0.13131568755E+02  0.17408996334E+03  0.18242177727E+03  0.00000000000E+00 0. -1.
</event>
<event>
 7    1  0.6017574E-006  0.5969911E+02  0.7818608E-02  0.1402294E+00
          2   -1    0    0  502    0  0.00000000000E+00  0.00000000000E+00  0.48366767936E+03  0.48366767936E+03  0.00000000000E+00 0. -1.
          1   -1    0    0  501    0 -0.00000000000E+00 -0.00000000000E+00 -0.21804159143E+03  0.21804159143E+03  0.00000000000E+00 0. -1.
         25    2    1    2    0    0 -0.57500652390E+02  0.53833871960E+01  0.45721596102E+02  0.14508796545E+03  0.12499898994E+03 0.  0.
          2    1    1    2  501    0  0.24027177237E+02 -0.54815261250E+02 -0.16063766239E+03  0.17142484269E+03  0.00000000000E+00 0. -1.
          1    1    1    2  502    0  0.33473475153E+02  0.49431874054E+02  0.38054215422E+03  0.38519646266E+03  0.00000000000E+00 0. -1.
         22    1    3    3    0    0  0.38776032185E+02 -0.24381413022E+00  0.10186352811E+01  0.38790175756E+02  0.00000000000E+00 0.  1.
         22    1    3    3    0    0 -0.96276684575E+02  0.56272013262E+01  0.44702960821E+02  0.10629778969E+03  0.00000000000E+00 0.  1.
</event>
<event>
 7    1  0.6017574E-006  0.6016312E+02  0.7818608E-02  0.1457634E+00
          2   -1    0    0  502    0  0.00000000000E+00  0.00000000000E+00  0.13184608923E+04  0.13184608923E+04  0.00000000000E+00 0. -1.
          1   -1    0    0  501    0 -0.00000000000E+00 -0.00000000000E+00 -0.35872854864E+03  0.35872854864E+03  0.00000000000E+00 0. -1.
         25    2    1    2    0    0  0.65813559023E+02  0.15723813816E+02  0.41657706018E+03  0.44015997066E+03  0.12500275929E+03 0.  0.
          2    1    1    2  501    0 -0.40781413238E+02 -0.44264718212E+02 -0.34391772062E+03  0.34914450805E+03  0.00000000000E+00 0. -1.
          1    1    1    2  502    0 -0.25032145785E+02  0.28540904396E+02  0.88707300410E+03  0.88788496223E+03  0.00000000000E+00 0. -1.
         22    1    3    3    0    0  0.45523146885E+02 -0.33717774269E+02  0.72755264727E+02  0.92209401633E+02  0.00000000000E+00 0. -1.
         22    1    3    3    0    0  0.20290412138E+02  0.49441588085E+02  0.34382179546E+03  0.34795056903E+03  0.00000000000E+00 0. -1.
</event>
<event>
 7    1  0.6017574E-006  0.3121788E+02  0.7818608E-02  0.1629878E+00
          2   -1    0    0  502    0  0.00000000000E+00  0.00000000000E+00  0.14960737327E+04  0.14960737327E+04  0.00000000000E+00 0. -1.
          1   -1    0    0  501    0 -0.00000000000E+00 -0.00000000000E+00 -0.93531221821E+01  0.93531221821E+01  0.00000000000E+00 0. -1.
         25    2    1    2    0    0 -0.17676933684E+02  0.10299256124E+02  0.11125059847E+04  0.11196927630E+04  0.12499507509E+03 0.  0.
          2    1    1    2  501    0  0.30385859678E+02  0.99317871389E+01  0.42603863351E+02  0.53263777904E+02  0.00000000000E+00 0. -1.
          1    1    1    2  502    0 -0.12708925994E+02 -0.20231043263E+02  0.33161076248E+03  0.33247031402E+03  0.00000000000E+00 0. -1.
         22    1    3    3    0    0 -0.62013177017E+00  0.37393828373E+02  0.10370654507E+04  0.10377395781E+04  0.00000000000E+00 0.  1.
         22    1    3    3    0    0 -0.17056801914E+02 -0.27094572249E+02  0.75440533990E+02  0.81953184841E+02  0.00000000000E+00 0.  1.
</event>
<event>
 7    1  0.6017574E-006  0.1165470E+03  0.7818608E-02  0.1381678E+00
          2   -1    0    0  502    0  0.00000000000E+00  0.00000000000E+00  0.45318415462E+03  0.45318415462E+03  0.00000000000E+00 0. -1.
          1   -1    0    0  501    0 -0.00000000000E+00 -0.00000000000E+00 -0.13295136432E+04  0.13295136432E+04  0.00000000000E+00 0. -1.
         25    2    1    2    0    0 -0.29026482792E+02 -0.84498843676E+02 -0.10717975985E+03  0.18733329431E+03  0.12499468368E+03 0.  0.
          2    1    1    2  501    0 -0.30406967596E+02 -0.17676914616E+02 -0.11735326842E+04  0.11740596313E+04  0.00000000000E+00 0. -1.
          1    1    1    2  502    0  0.59433450388E+02  0.10217575829E+03  0.40438295550E+03  0.42130487216E+03  0.00000000000E+00 0. -1.
         22    1    3    3    0    0  0.44166437118E+01  0.31855174951E+02 -0.28299662218E+02  0.42838414940E+02  0.00000000000E+00 0. -1.
         22    1    3    3    0    0 -0.33443126504E+02 -0.11635401863E+03 -0.78880097631E+02  0.14449487937E+03  0.00000000000E+00 0. -1.
</event>
<event>
 7    1  0.6017574E-006  0.1720744E+03  0.7818608E-02  0.1261471E+00
          2   -1    0    0  502    0  0.00000000000E+00  0.00000000000E+00  0.12498637351E+04  0.12498637351E+04  0.00000000000E+00 0. -1.
          1   -1    0    0  501    0 -0.00000000000E+00 -0.00000000000E+00 -0.86116147454E+03  0.86116147454E+03  0.00000000000E+00 0. -1.
         25    2    1    2    0    0  0.16058276962E+03  0.25489752419E+02 -0.29730361400E+03  0.36118117766E+03  0.12500340325E+03 0.  0.
          2    1    1    2  501    0 -0.17582103049E+03  0.42523791608E+02 -0.51550095428E+03  0.54631725350E+03  0.00000000000E+00 0. -1.
          1    1    1    2  502    0  0.15238260867E+02 -0.68013544027E+02  0.12015068288E+04  0.12035267785E+04  0.00000000000E+00 0. -1.
         22    1    3    3    0    0  0.52913799905E+02  0.12809592554E+02 -0.22348967955E+03  0.23002520024E+03  0.00000000000E+00 0.  1.
         22    1    3    3    0    0  0.10766896972E+03  0.12680159865E+02 -0.73813934448E+02  0.13115597742E+03  0.00000000000E+00 0.  1.
</event>
<event>
 7    1  0.6017574E-006  0.2859010E+03  0.7818608E-02  0.1306714E+00
          2   -1    0    0  502    0  0.00000000000E+00  0.00000000000E+00  0.65379595588E+03  0.65379595588E+03  0.00000000000E+00 0. -1.
          1   -1    0    0  501    0 -0.00000000000E+00 -0.00000000000E+00 -0.10569160178E+04  0.10569160178E+04  0.00000000000E+00 0. -1.
         25    2    1    2    0    0 -0.66889315221E+02  0.28181694556E+03 -0.36337747519E+03  0.48120913748E+03  0.12499629284E+03 0.  0.
          2    1    1    2  501    0  0.27324718470E+02  0.11230384891E+01 -0.59999208156E+03  0.60061501762E+03  0.00000000000E+00 0. -1.
          1    1    1    2  502    0  0.39564596751E+02 -0.28293998405E+03  0.56024949483E+03  0.62888781857E+03  0.00000000000E+00 0. -1.
         22    1    3    3    0    0 -0.74340416789E+02  0.18597260460E+03 -0.31578011919E+03  0.37393768319E+03  0.00000000000E+00 0.  1.
         22    1    3    3    0    0  0.74511015676E+01  0.95844340954E+02 -0.47597355999E+02  0.10727145429E+03  0.00000000000E+00 0.  1.
</event>
<event>
 7    1  0.6017574E-006  0.7640356E+02  0.7818608E-02  0.1341514E+00
          2   -1    0    0  502    0  0.00000000000E+00  0.00000000000E+00  0.24286615937E+03  0.24286615937E+03  0.00000000000E+00 0. -1.
          1   -1    0    0  501    0 -0.00000000000E+00 -0.00000000000E+00 -0.78456247647E+03  0.78456247647E+03  0.00000000000E+00 0. -1.
         25    2    1    2    0    0  0.65342063943E+02 -0.45636613728E+00 -0.11150454592E+03  0.17980169372E+03  0.12500236683E+03 0.  0.
          2    1    1    2  501    0 -0.37488546592E+02  0.70237672143E+02 -0.62955817108E+03  0.63457246433E+03  0.00000000000E+00 0. -1.
          1    1    1    2  502    0 -0.27853517351E+02 -0.69781306005E+02  0.19936639990E+03  0.21305447779E+03  0.00000000000E+00 0. -1.
         22    1    3    3    0    0 -0.62091695031E+00 -0.40944158955E+02 -0.90916551271E+02  0.99712732314E+02  0.00000000000E+00 0. -1.
         22    1    3    3    0    0  0.65962980893E+02  0.40487792818E+02 -0.20587994651E+02  0.80088961407E+02  0.00000000000E+00 0. -1.
</event>
<event>
 7    1  0.6017574E-006  0.4895055E+02  0.7818608E-02  0.1469034E+00
          2   -1    0    0  502    0  0.00000000000E+00  0.00000000000E+00  0.85737676213E+03  0.85737676213E+03  0.00000000000E+00 0. -1.
          1   -1    0    0  501    0 -0.00000000000E+00 -0.00000000000E+00 -0.10471637488E+04  0.10471637488E+04  0.00000000000E+00 0. -1.
         25    2    1    2    0    0  0.24341775124E+02 -0.49816872623E+02  0.17356055540E+03  0.22095812719E+03  0.12499993906E+03 0.  0.
          2    1    1    2  501    0  0.23132761159E+02  0.36208721794E+02 -0.10220892518E+04  0.10229920013E+04  0.00000000000E+00 0. -1.
          1    1    1    2  502    0 -0.47474536283E+02  0.13608150829E+02  0.65874170966E+03  0.66059038247E+03  0.00000000000E+00 0. -1.
         22    1    3    3    0    0  0.40578003907E+02 -0.77857542357E+02  0.16584348029E+03  0.18764975688E+03  0.00000000000E+00 0.  1.
         22    1    3    3    0    0 -0.16236228783E+02  0.28040669734E+02  0.77170751072E+01  0.33308370306E+02  0.00000000000E+00 0.  1.
</event>
<event>
 7    1  0.6017574E-006  0.1312312E+03  0.7818608E-02  0.1337231E+00
          2   -1    0    0  502    0  0.00000000000E+00  0.00000000000E+00  0.11195700228E+03  0.11195700228E+03  0.00000000000E+00 0. -1.
          1   -1    0    0  501    0 -0.00000000000E+00 -0.00000000000E+00 -0.76561798022E+03  0.76561798022E+03  0.00000000000E+00 0. -1.
         25    2    1    2    0    0  0.62257046336E+02  0.12633961494E+03 -0.24942150809E+03  0.31252634133E+03  0.12499594874E+03 0.  0.
          2    1    1    2  501    0 -0.16938561358E+02 -0.12904103198E+03 -0.46857166463E+03  0.48631050543E+03  0.00000000000E+00 0. -1.
          1    1    1    2  502    0 -0.45318484978E+02  0.27014170372E+01  0.64332194788E+02  0.78738135747E+02  0.00000000000E+00 0. -1.
         22    1    3    3    0    0  0.18554097872E+01  0.82380494517E+01  0.14706917105E+02  0.16958815259E+02  0.00000000000E+00 0.  1.
         22    1    3    3    0    0  0.60401636549E+02  0.11810156549E+03 -0.26412842520E+03  0.29556752607E+03  0.00000000000E+00 0.  1.
</event>
<event>
 7    1  0.6017574E-006  0.6750413E+02  0.7818608E-02  0.1417459E+00
          2   -1    0    0  502    0  0.00000000000E+00  0.00000000000E+00  0.29952643157E+03  0.29952643157E+03  0.00000000000E+00 0. -1.
          1   -1    0    0  501    0 -0.00000000000E+00 -0.00000000000E+00 -0.38129316838E+03  0.38129316838E+03  0.00000000000E+00 0. -1.
         25    2    1    2    0    0  0.98823353125E+02 -0.47877254713E+02  0.45243576040E+02  0.17242340055E+03  0.12499824495E+03 0.  0.
          2    1    1    2  501    0 -0.63438362717E+02  0.18904840466E+02 -0.31143171210E+03  0.31838896049E+03  0.00000000000E+00 0. -1.
          1    1    1    2  502    0 -0.35384990408E+02  0.28972414247E+02  0.18442139926E+03  0.19000723891E+03  0.00000000000E+00 0. -1.
         22    1    3    3    0    0  0.12978575131E+02  0.30527808770E+02 -0.20367831661E+02  0.38926072076E+02  0.00000000000E+00 0. -1.
         22    1    3    3    0    0  0.85844777994E+02 -0.78405063483E+02  0.65611407700E+02  0.13349732847E+03  0.00000000000E+00 0. -1.
</event>
<event>
 7    1  0.6017574E-006  0.1364645E+03  0.7818608E-02  0.1332191E+00
          2   -1    0    0  502    0  0.00000000000E+00  0.00000000000E+00  0.64393801325E+03  0.64393801325E+03  0.00000000000E+00 0. -1.
          1   -1    0    0  501    0 -0.00000000000E+00 -0.00000000000E+00 -0.40042277758E+04  0.40042277758E+04  0.00000000000E+00 0. -1.
         25    2    1    2    0    0 -0.20234843008E+02 -0.13152909606E+03 -0.33063330962E+03  0.37769313151E+03  0.12499745668E+03 0.  0.
          2    1    1    2  501    0 -0.25278068474E+02  0.13469007455E+03 -0.36479374813E+04  0.36505106854E+04  0.00000000000E+00 0. -1.
          1    1    1    2  502    0  0.45512911482E+02 -0.31609784908E+01  0.61828102834E+03  0.61996197215E+03  0.00000000000E+00 0. -1.
         22    1    3    3    0    0 -0.71407083005E+02 -0.60297511466E+02 -0.19388344900E+03  0.21523371759E+03  0.00000000000E+00 0.  1.
         22    1    3    3    0    0  0.51172239998E+02 -0.71231584596E+02 -0.13674986062E+03  0.16245941391E+03  0.00000000000E+00 0.  1.
</event>
<event>
 7    1  0.6017574E-006  0.1557269E+03  0.7818608E-02  0.1339959E+00
          2   -1    0    0  502    0  0.00000000000E+00  0.00000000000E+00  0.33548939209E+04  0.33548939209E+04  0.00000000000E+00 0. -1.
          1   -1    0    0  501    0 -0.00000000000E+00 -0.00000000000E+00 -0.86714980606E+02  0.86714980606E+02  0.00000000000E+00 0. -1.
         25    2    1    2    0    0 -0.63453600896E+02  0.16037160041E+03  0.52844698967E+03  0.56976509843E+03  0.12502254525E+03 0.  0.
          2    1    1    2  501    0  0.27279559171E+02 -0.15102410185E+03  0.23384549421E+02  0.15523946290E+03  0.00000000000E+00 0. -1.
          1    1    1    2  502    0  0.36174041726E+02 -0.93474985546E+01  0.27163474012E+04  0.27166043402E+04  0.00000000000E+00 0. -1.
         22    1    3    3    0    0 -0.96183572002E+02  0.14988806027E+03  0.45719071115E+03  0.49065370323E+03  0.00000000000E+00 0.  1.
         22    1    3    3    0    0  0.32729971106E+02  0.10483540136E+02  0.71256278520E+02  0.79111395202E+02  0.00000000000E+00 0.  1.
</event>
<event>
 7    1  0.6017574E-006  0.6915606E+02  0.7818608E-02  0.1403929E+00
          2   -1    0    0  502    0  0.00000000000E+00  0.00000000000E+00  0.64669551541E+03  0.64669551541E+03  0.00000000000E+00 0. -1.
          1   -1    0    0  501    0 -0.00000000000E+00 -0.00000000000E+00 -0.76729671703E+02  0.76729671703E+02  0.00000000000E+00 0. -1.
         25    2    1    2    0    0 -0.30515431235E+02 -0.10082331056E+02  0.17216331051E+03  0.21516374407E+03  0.12498954490E+03 0.  0.
          2    1    1    2  501    0 -0.43437443304E+02  0.23957096117E+02 -0.40195802200E+02  0.63847133449E+02  0.00000000000E+00 0. -1.
          1    1    1    2  502    0  0.73952874539E+02 -0.13874765061E+02  0.43799833540E+03  0.44441430959E+03  0.00000000000E+00 0. -1.
         22    1    3    3    0    0 -0.63035310876E+01 -0.56569056839E+02  0.14575111429E+03  0.15647101972E+03  0.00000000000E+00 0. -1.
         22    1    3    3    0    0 -0.24211900148E+02  0.46486725783E+02  0.26412196217E+02  0.58692724351E+02  0.00000000000E+00 0. -1.
</event>
<event>
 7    1  0.6017574E-006  0.1163658E+03  0.7818608E-02  0.1359016E+00
          2   -1    0    0  502    0  0.00000000000E+00  0.00000000000E+00  0.86472982196E+02  0.86472982196E+02  0.00000000000E+00 0. -1.
          1   -1    0    0  501    0 -0.00000000000E+00 -0.00000000000E+00 -0.51404265846E+03  0.51404265846E+03  0.00000000000E+00 0. -1.
         25    2    1    2    0    0 -0.11580900632E+03 -0.91859618046E+02 -0.27225786739E+03  0.33406269770E+03  0.12499449695E+03 0.  0.
          2    1    1    2  501    0  0.41269381442E+02  0.10117804726E+02 -0.14977902839E+03  0.15568972079E+03  0.00000000000E+00 0. -1.
          1    1    1    2  502    0  0.74539624880E+02  0.81741813320E+02 -0.55327804860E+01  0.11076322215E+03  0.00000000000E+00 0. -1.
         22    1    3    3    0    0 -0.61001728815E+02  0.23542082658E+02 -0.81729454982E+02  0.10466682562E+03  0.00000000000E+00 0.  1.
         22    1    3    3    0    0 -0.54807277507E+02 -0.11540170070E+03 -0.19052841241E+03  0.22939587208E+03  0.00000000000E+00 0.  1.
</event>
<event>
 7    1  0.6017574E-006  0.7821103E+02  0.7818608E-02  0.1374953E+00
          2   -1    0    0  502    0  0.00000000000E+00  0.00000000000E+00  0.21631695345E+03  0.21631695345E+03  0.00000000000E+00 0. -1.
          1   -1    0    0  501    0 -0.00000000000E+00 -0.00000000000E+00 -0.14696658337E+04  0.14696658337E+04  0.00000000000E+00 0. -1.
         25    2    1    2    0    0 -0.10500789399E+03  0.23291309822E+02 -0.24871075312E+03  0.29843254211E+03  0.12504319476E+03 0.  0.
          2    1    1    2  501    0  0.74015743932E+02  0.22597478255E+02 -0.11908078219E+04  0.11933198419E+04  0.00000000000E+00 0. -1.
          1    1    1    2  502    0  0.30992150055E+02 -0.45888788077E+02  0.18616969479E+03  0.19423040312E+03  0.00000000000E+00 0. -1.
         22    1    3    3    0    0 -0.11629554652E+03 -0.20417913948E+02 -0.15948030513E+03  0.19843264115E+03  0.00000000000E+00 0. -1.
         22    1    3    3    0    0  0.11287652531E+02  0.43709223770E+02 -0.89230447992E+02  0.99999900955E+02  0.00000000000E+00 0. -1.
</event>
<event>
 7    1  0.6017574E-006  0.6131426E+02  0.7818608E-02  0.1392884E+00
          2   -1    0    0  502    0  0.00000000000E+00  0.00000000000E+00  0.12868841343E+04  0.12868841343E+04  0.00000000000E+00 0. -1.
          1   -1    0    0  501    0 -0.00000000000E+00 -0.00000000000E+00 -0.51214323787E+03  0.51214323787E+03  0.00000000000E+00 0. -1.
         25    2    1    2    0    0  0.56295530655E+02  0.48779917672E+02  0.77655073718E+03  0.79006683185E+03  0.12500353688E+03 0.  0.
          2    1    1    2  501    0  0.61739752911E+01 -0.61002628707E+02 -0.50149902235E+03  0.50523332045E+03  0.00000000000E+00 0. -1.
          1    1    1    2  502    0 -0.62469505946E+02  0.12222711036E+02  0.49968918157E+03  0.50372721985E+03  0.00000000000E+00 0. -1.
         22    1    3    3    0    0 -0.18628363202E+02  0.54716617235E+02  0.18658012289E+03  0.19532809929E+03  0.00000000000E+00 0. -1.
         22    1    3    3    0    0  0.74923893857E+02 -0.59366995630E+01  0.58997061430E+03  0.59473873256E+03  0.00000000000E+00 0. -1.
</event>
<event>
 7    1  0.6017574E-006  0.5911781E+02  0.7818608E-02  0.1466926E+00
          2   -1    0    0  502    0  0.00000000000E+00  0.00000000000E+00  0.12369466953E+04  0.12369466953E+04  0.00000000000E+00 0. -1.
          1   -1    0    0  501    0 -0.00000000000E+00 -0.00000000000E+00 -0.64149791087E+02  0.64149791087E+02  0.00000000000E+00 0. -1.
         25    2    1    2    0    0  0.44839490118E+02  0.14495967468E+01  0.10143542648E+03  0.16710823373E+03  0.12499333914E+03 0.  0.
          2    1    1    2  501    0  0.39040242618E+01 -0.35908831832E+02 -0.19802590863E+02  0.41192574742E+02  0.00000000000E+00 0. -1.
          1    1    1    2  502    0 -0.48743514380E+02  0.34459235085E+02  0.10911640686E+04  0.10927956779E+04  0.00000000000E+00 0. -1.
         22    1    3    3    0    0  0.54111165112E+02 -0.15585002037E+02  0.12469715016E+03  0.13682210982E+03  0.00000000000E+00 0. -1.
         22    1    3    3    0    0 -0.92716749938E+01  0.17034598784E+02 -0.23261723678E+02  0.30286123908E+02  0.00000000000E+00 0. -1.
</event>
<event>
 7    1  0.6017574E-006  0.5382464E+02  0.7818608E-02  0.1454574E+00
          2   -1    0    0  502    0  0.00000000000E+00  0.00000000000E+00  0.35067185523E+03  0.35067185523E+03  0.00000000000E+00 0. -1.
          1   -1    0    0  501    0 -0.00000000000E+00 -0.00000000000E+00 -0.13865536905E+04  0.13865536905E+04  0.00000000000E+00 0. -1.
         25    2    1    2    0    0 -0.77570328450E+01  0.21051227783E+02 -0.25399189290E+03  0.28397313013E+03  0.12500212489E+03 0.  0.
          2    1    1    2  501    0  0.51143274422E+02 -0.21797186248E+02 -0.11154736970E+04  0.11168582365E+04  0.00000000000E+00 0. -1.
          1    1    1    2  502    0 -0.43386241577E+02  0.74595846479E+00  0.33358375458E+03  0.33639417910E+03  0.00000000000E+00 0. -1.
         22    1    3    3    0    0 -0.54373588778E+02 -0.17004321952E+02 -0.17885086120E+03  0.18770526011E+03  0.00000000000E+00 0.  1.
         22    1    3    3    0    0  0.46616555933E+02  0.38055549735E+02 -0.75141031694E+02  0.96267870013E+02  0.00000000000E+00 0.  1.
</event>
<event>
 7    1  0.6017574E-006  0.8165230E+02  0.7818608E-02  0.1364773E+00
          2   -1    0    0  502    0  0.00000000000E+00  0.00000000000E+00  0.39269853165E+04  0.39269853165E+04  0.00000000000E+00 0. -1.
          1   -1    0    0  501    0 -0.00000000000E+00 -0.00000000000E+00 -0.65147698701E+02  0.65147698701E+02  0.00000000000E+00 0. -1.
         25    2    1    2    0    0  0.10214829531E+03 -0.76828931203E+02  0.18283329989E+04  0.18370529157E+04  0.12499960552E+03 0.  0.
          2    1    1    2  501    0 -0.54490397746E+02  0.18990463767E+02 -0.46264517129E+02  0.73961116174E+02  0.00000000000E+00 0. -1.
          1    1    1    2  502    0 -0.47657897562E+02  0.57838467436E+02  0.20797691360E+04  0.20811189832E+04  0.00000000000E+00 0. -1.
         22    1    3    3    0    0  0.84537599473E-02 -0.29073131328E+02  0.80539414185E+02  0.85626189183E+02  0.00000000000E+00 0. -1.
         22    1    3    3    0    0  0.10213984155E+03 -0.47755799875E+02  0.17477935847E+04  0.17514267266E+04  0.00000000000E+00 0. -1.
</event>
<event>
 7    1  0.6017574E-006  0.2506143E+03  0.7818608E-02  0.1217544E+00
          2   -1    0    0  502    0  0.00000000000E+00  0.00000000000E+00  0.10258135474E+04  0.10258135474E+04  0.00000000000E+00 0. -1.
          1   -1    0    0  501    0 -0.00000000000E+00 -0.00000000000E+00 -0.33742278315E+03  0.33742278315E+03  0.00000000000E+00 0. -1.
         25    2    1    2    0    0 -0.17910794648E+03  0.58298310811E+02  0.31992130915E+03  0.39173253946E+03  0.12500555542E+03 0.  0.
          2    1    1    2  501    0  0.23993029792E+03 -0.10183268895E+03 -0.24247819233E+03  0.35599454793E+03  0.00000000000E+00 0. -1.
          1    1    1    2  502    0 -0.60822351443E+02  0.43534378138E+02  0.61094764739E+03  0.61550924312E+03  0.00000000000E+00 0. -1.
         22    1    3    3    0    0 -0.28455707271E+02 -0.18022781216E+02  0.45492727918E+01  0.33988877621E+02  0.00000000000E+00 0.  1.
         22    1    3    3    0    0 -0.15065223921E+03  0.76321092026E+02  0.31537203636E+03  0.35774366184E+03  0.00000000000E+00 0.  1.
</event>
<event>
 7    1  0.6017574E-006  0.8242877E+02  0.7818608E-02  0.1426258E+00
          2   -1    0    0  502    0  0.00000000000E+00  0.00000000000E+00  0.60967594252E+03  0.60967594252E+03  0.00000000000E+00 0. -1.
          1   -1    0    0  501    0 -0.00000000000E+00 -0.00000000000E+00 -0.38152904688E+03  0.38152904688E+03  0.00000000000E+00 0. -1.
         25    2    1    2    0    0  0.62401258436E+02  0.30038436732E+02 -0.10380756626E+03  0.17662660885E+03  0.12499889361E+03 0.  0.
          2    1    1    2  501    0 -0.57049817257E+02 -0.64635235948E+02 -0.23305288287E+03  0.24848750791E+03  0.00000000000E+00 0. -1.
          1    1    1    2  502    0 -0.53514411792E+01  0.34596799215E+02  0.56500734478E+03  0.56609087264E+03  0.00000000000E+00 0. -1.
         22    1    3    3    0    0  0.47475277371E+02  0.75759252999E+02 -0.89363800468E+02  0.12640907883E+03  0.00000000000E+00 0. -1.
         22    1    3    3    0    0  0.14925981065E+02 -0.45720816267E+02 -0.14443765796E+02  0.50217530019E+02  0.00000000000E+00 0. -1.
</event>
<event>
 7    1  0.6017574E-006  0.6404111E+02  0.7818608E-02  0.1394041E+00
          2   -1    0    0  502    0  0.00000000000E+00  0.00000000000E+00  0.14458021357E+04  0.14458021357E+04  0.00000000000E+00 0. -1.
          1   -1    0    0  501    0 -0.00000000000E+00 -0.00000000000E+00 -0.60061565876E+02  0.60061565876E+02  0.00000000000E+00 0. -1.
         25    2    1    2    0    0  0.15935080653E+02  0.26207946500E+02  0.13993319099E+03  0.19012893362E+03  0.12500772057E+03 0.  0.
          2    1    1    2  501    0  0.20014091465E+02 -0.71643298453E+02  0.60582865186E+01  0.74632626284E+02  0.00000000000E+00 0. -1.
          1    1    1    2  502    0 -0.35949172118E+02  0.45435351953E+02  0.12397490924E+04  0.12411021417E+04  0.00000000000E+00 0. -1.
         22    1    3    3    0    0 -0.54546045811E+02  0.18852989029E+02  0.58423697323E+02  0.82122072051E+02  0.00000000000E+00 0.  1.
         22    1    3    3    0    0  0.70481126464E+02  0.73549574710E+01  0.81509493672E+02  0.10800686157E+03  0.00000000000E+00 0.  1.
</event>
<event>
 7    1  0.7425660E-006  0.5994990E+02  0.7818608E-02  0.1473842E+00
          2   -1    0    0  502    0  0.00000000000E+00  0.00000000000E+00  0.10958523125E+04  0.10958523125E+04  0.00000000000E+00 0. -1.
          1   -1    0    0  501    0 -0.00000000000E+00 -0.00000000000E+00 -0.11806543949E+04  0.11806543949E+04  0.00000000000E+00 0. -1.
         25    2    1    2    0    0  0.52567307796E+02 -0.77591785406E+02 -0.19705699504E+03  0.25147838335E+03  0.12500444387E+03 0.  0.
          2    1    1    2  501    0 -0.18886622496E+02  0.28149927210E+02 -0.95524857431E+03  0.95584986354E+03  0.00000000000E+00 0. -1.
          1    1    1    2  502    0 -0.33680685300E+02  0.49441858196E+02  0.10675034869E+04  0.10691784605E+04  0.00000000000E+00 0. -1.
         22    1    3    3    0    0  0.82900146203E+02 -0.90453653533E+02 -0.16387656682E+03  0.20471889710E+03  0.00000000000E+00 0. -1.
         22    1    3    3    0    0 -0.30332838407E+02  0.12861868126E+02 -0.33180428222E+02  0.46759486251E+02  0.00000000000E+00 0. -1.
</event>
<event>
 7    1  0.6017574E-006  0.3395655E+03  0.7818608E-02  0.1208166E+00
          2   -1    0    0  502    0  0.00000000000E+00  0.00000000000E+00  0.94626855920E+03  0.94626855920E+03  0.00000000000E+00 0. -1.
          1   -1    0    0  501    0 -0.00000000000E+00 -0.00000000000E+00 -0.44688470529E+03  0.44688470529E+03  0.00000000000E+00 0. -1.
         25    2    1    2    0    0 -0.16202440577E+03  0.25874387359E+03  0.11211421090E+03  0.34841825607E+03  0.12500153877E+03 0.  0.
          2    1    1    2  501    0 -0.58717917794E+02  0.16482476171E+02 -0.28180950392E+03  0.28833324885E+03  0.00000000000E+00 0. -1.
          1    1    1    2  502    0  0.22074232356E+03 -0.27522634976E+03  0.66907914694E+03  0.75640175957E+03  0.00000000000E+00 0. -1.
         22    1    3    3    0    0 -0.81953123420E+01  0.11791063600E+03  0.63879932603E+02  0.13435299407E+03  0.00000000000E+00 0.  1.
         22    1    3    3    0    0 -0.15382909342E+03  0.14083323759E+03  0.48234278295E+02  0.21406526200E+03  0.00000000000E+00 0.  1.
</event>
<event>
 7    1  0.6017574E-006  0.1044004E+03  0.7818608E-02  0.1400102E+00
          2   -1    0    0  502    0  0.00000000000E+00  0.00000000000E+00  0.12127567950E+04  0.12127567950E+04  0.00000000000E+00 0. -1.
          1   -1    0    0  501    0 -0.00000000000E+00 -0.00000000000E+00 -0.54634145236E+03  0.54634145236E+03  0.00000000000E+00 0. -1.
         25    2    1    2    0    0  0.11686597908E+03  0.94761438901E+01  0.37388001984E+03  0.41128931992E+03  0.12500072430E+03 0.  0.
          2    1    1    2  501    0 -0.97428380422E+02 -0.37210326189E+02 -0.52212793672E+03  0.53244199683E+03  0.00000000000E+00 0. -1.
          1    1    1    2  502    0 -0.19437598654E+02  0.27734182299E+02  0.81466325949E+03  0.81536693057E+03  0.00000000000E+00 0. -1.
         22    1    3    3    0    0  0.57764925194E+02  0.65135924329E+02  0.15407226390E+03  0.17696818280E+03  0.00000000000E+00 0.  1.
         22    1    3    3    0    0  0.59101053883E+02 -0.55659780439E+02  0.21980775594E+03  0.23432113711E+03  0.00000000000E+00 0.  1.
</event>
<event>
 7    1  0.6017574E-006  0.7735683E+02  0.7818608E-02  0.1509252E+00
          2   -1    0    0  502    0  0.00000000000E+00  0.00000000000E+00  0.11372597715E+03  0.11372597715E+03  0.00000000000E+00 0. -1.
          1   -1    0    0  501    0 -0.00000000000E+00 -0.00000000000E+00 -0.17365686894E+03  0.17365686894E+03  0.00000000000E+00 0. -1.
         25    2    1    2    0    0 -0.77897619918E+02 -0.24438142265E+01 -0.84798240159E+01  0.14754948417E+03  0.12499972578E+03 0.  0.
          2    1    1    2  501    0  0.33337288069E+01 -0.20265440192E+02 -0.58082247237E+02  0.61606405982E+02  0.00000000000E+00 0. -1.
          1    1    1    2  502    0  0.74563891111E+02  0.22709254418E+02  0.66311794594E+01  0.78226955935E+02  0.00000000000E+00 0. -1.
         22    1    3    3    0    0 -0.37752853025E+02 -0.38967415385E+02 -0.54122393992E+02  0.76635311082E+02  0.00000000000E+00 0. -1.
         22    1    3    3    0    0 -0.40144766893E+02  0.36523601159E+02  0.45642569976E+02  0.70914173086E+02  0.00000000000E+00 0. -1.
</event>
<event>
 7    1  0.6017574E-006  0.7527436E+02  0.7818608E-02  0.1449777E+00
          2   -1    0    0  502    0  0.00000000000E+00  0.00000000000E+00  0.10891382662E+04  0.10891382662E+04  0.00000000000E+00 0. -1.
          1   -1    0    0  501    0 -0.00000000000E+00 -0.00000000000E+00 -0.91692717458E+02  0.91692717458E+02  0.00000000000E+00 0. -1.
         25    2    1    2    0    0 -0.28364299360E+02  0.52736716648E+02  0.13504478960E+03  0.19351010990E+03  0.12499349053E+03 0.  0.
          2    1    1    2  501    0  0.81808616597E+01 -0.77749481215E+02 -0.37597064306E+02  0.86749337584E+02  0.00000000000E+00 0. -1.
          1    1    1    2  502    0  0.20183437701E+02  0.25012764567E+02  0.89999782345E+03  0.90057153618E+03  0.00000000000E+00 0. -1.
         22    1    3    3    0    0 -0.62666121557E+02 -0.13212578378E+02  0.57126422258E+02  0.85819829517E+02  0.00000000000E+00 0.  1.
         22    1    3    3    0    0  0.34301822197E+02  0.65949295026E+02  0.77918367343E+02  0.10769028039E+03  0.00000000000E+00 0.  1.
</event>
<event>
 7    1  0.6017574E-006  0.2380064E+03  0.7818608E-02  0.1236100E+00
          2   -1    0    0  502    0  0.00000000000E+00  0.00000000000E+00  0.99175622749E+03  0.99175622749E+03  0.00000000000E+00 0. -1.
          1   -1    0    0  501    0 -0.00000000000E+00 -0.00000000000E+00 -0.10716586609E+04  0.10716586609E+04  0.00000000000E+00 0. -1.
         25    2    1    2    0    0 -0.28869051473E+03  0.30920836913E+02  0.62941089446E+03  0.70433001141E+03  0.12499751778E+03 0.  0.
          2    1    1    2  501    0  0.23685223127E+03  0.82289769085E+01 -0.10171877784E+04  0.10444317460E+04  0.00000000000E+00 0. -1.
          1    1    1    2  502    0  0.51838283455E+02 -0.39149813821E+02  0.30787445052E+03  0.31465313099E+03  0.00000000000E+00 0. -1.
         22    1    3    3    0    0 -0.23643160263E+03 -0.23427227167E+02  0.51694464779E+03  0.56892926324E+03  0.00000000000E+00 0.  1.
         22    1    3    3    0    0 -0.52258912103E+02  0.54348064080E+02  0.11246624667E+03  0.13540074816E+03  0.00000000000E+00 0.  1.
</event>
<event>
 7    1  0.6017574E-006  0.1190339E+03  0.7818608E-02  0.1299313E+00
          2   -1    0    0  502    0  0.00000000000E+00  0.00000000000E+00  0.96460248043E+03  0.96460248043E+03  0.00000000000E+00 0. -1.
          1   -1    0    0  501    0 -0.00000000000E+00 -0.00000000000E+00 -0.14751708881E+04  0.14751708881E+04  0.00000000000E+00 0. -1.
         25    2    1    2    0    0 -0.36911635446E+02  0.17654359911E+03 -0.25834420226E+03  0.33896048772E+03  0.12498949626E+03 0.  0.
          2    1    1    2  501    0  0.39349659360E+02 -0.58255650355E+02 -0.11716745444E+04  0.11737816468E+04  0.00000000000E+00 0. -1.
          1    1    1    2  502    0 -0.24380239139E+01 -0.11828794875E+03  0.91945033902E+03  0.92703123394E+03  0.00000000000E+00 0. -1.
         22    1    3    3    0    0  0.39030614521E+02  0.34157848949E+02 -0.31871934269E+02  0.60876659803E+02  0.00000000000E+00 0.  1.
         22    1    3    3    0    0 -0.75942249967E+02  0.14238575016E+03 -0.22647226799E+03  0.27808382792E+03  0.00000000000E+00 0.  1.
</event>
<event>
 7    1  0.6017574E-006  0.5828259E+02  0.7818608E-02  0.1467780E+00
          2   -1    0    0  502    0  0.00000000000E+00  0.00000000000E+00  0.49533865276E+03  0.49533865276E+03  0.00000000000E+00 0. -1.
          1   -1    0    0  501    0 -0.00000000000E+00 -0.00000000000E+00 -0.10731894011E+04  0.10731894011E+04  0.00000000000E+00 0. -1.
         25    2    1    2    0    0  0.88306384699E+02 -0.30893635094E+02  0.84612675863E+01  0.15635771396E+03  0.12499482948E+03 0.  0.
          2    1    1    2  501    0 -0.35231496234E+02  0.92040653274E+01 -0.99691688526E+03  0.99758170055E+03  0.00000000000E+00 0. -1.
          1    1    1    2  502    0 -0.53074888465E+02  0.21689569767E+02  0.41060486930E+03  0.41458863939E+03  0.00000000000E+00 0. -1.
         22    1    3    3    0    0  0.85644779952E+02 -0.57611164987E+02 -0.31763281776E+02  0.10799528107E+03  0.00000000000E+00 0. -1.
         22    1    3    3    0    0  0.26616047472E+01  0.26717529893E+02  0.40224549362E+02  0.48362432888E+02  0.00000000000E+00 0. -1.
</event>
<event>
 7    1  0.6017574E-006  0.1828989E+03  0.7818608E-02  0.1223114E+00
          2   -1    0    0  502    0  0.00000000000E+00  0.00000000000E+00  0.29892340237E+03  0.29892340237E+03  0.00000000000E+00 0. -1.
          1   -1    0    0  501    0 -0.00000000000E+00 -0.00000000000E+00 -0.65937092448E+03  0.65937092448E+03  0.00000000000E+00 0. -1.
         25    2    1    2    0    0  0.11716573910E+03 -0.60629096603E+02 -0.34597307982E+02  0.18500043525E+03  0.12499795818E+03 0.  0.
          2    1    1    2  501    0 -0.12009906735E+03  0.15725551859E+03 -0.52001816426E+03  0.55639192596E+03  0.00000000000E+00 0. -1.
          1    1    1    2  502    0  0.29333282472E+01 -0.96626421984E+02  0.19416795014E+03  0.21690196564E+03  0.00000000000E+00 0. -1.
         22    1    3    3    0    0  0.62796749705E+02  0.31753184125E+02  0.54295226340E+01  0.70577448180E+02  0.00000000000E+00 0. -1.
         22    1    3    3    0    0  0.54368989398E+02 -0.92382280727E+02 -0.40026830616E+02  0.11442298707E+03  0.00000000000E+00 0. -1.
</event>
<event>
 7    1  0.6017574E-006  0.6851612E+02  0.7818608E-02  0.1441537E+00
          2   -1    0    0  502    0  0.00000000000E+00  0.00000000000E+00  0.29252814002E+04  0.29252814002E+04  0.00000000000E+00 0. -1.
          1   -1    0    0  501    0 -0.00000000000E+00 -0.00000000000E+00 -0.68566131075E+02  0.68566131075E+02  0.00000000000E+00 0. -1.
         25    2    1    2    0    0  0.26784135030E+02 -0.21034423664E+02  0.35931917477E+03  0.38196888079E+03  0.12502047699E+03 0.  0.
          2    1    1    2  501    0 -0.62320469094E+02  0.33118757712E+02 -0.35296178163E+02  0.78908257954E+02  0.00000000000E+00 0. -1.
          1    1    1    2  502    0  0.35536334064E+02 -0.12084334048E+02  0.25326922725E+04  0.25329703926E+04  0.00000000000E+00 0. -1.
         22    1    3    3    0    0  0.77296827000E+02 -0.12837902354E+02  0.22236434620E+03  0.23576580257E+03  0.00000000000E+00 0.  1.
         22    1    3    3    0    0 -0.50512691971E+02 -0.81965213100E+01  0.13695482857E+03  0.14620307822E+03  0.00000000000E+00 0.  1.
</event>
<event>
 7    1  0.6017574E-006  0.8039269E+02  0.7818608E-02  0.1417148E+00
          2   -1    0    0  502    0  0.00000000000E+00  0.00000000000E+00  0.19116427645E+04  0.19116427645E+04  0.00000000000E+00 0. -1.
          1   -1    0    0  501    0 -0.00000000000E+00 -0.00000000000E+00 -0.32295026031E+03  0.32295026031E+03  0.00000000000E+00 0. -1.
         25    2    1    2    0    0  0.83537009650E+02  0.80831312609E+02  0.36831985435E+03  0.40595117778E+03  0.12499884222E+03 0.  0.
          2    1    1    2  501    0 -0.49599563628E+02 -0.62666043560E+02 -0.29863629543E+03  0.30914525175E+03  0.00000000000E+00 0. -1.
          1    1    1    2  502    0 -0.33937446022E+02 -0.18165269049E+02  0.15190089453E+04  0.15194965953E+04  0.00000000000E+00 0. -1.
         22    1    3    3    0    0  0.45266230570E+02  0.10884694837E+03  0.30383383821E+03  0.32590135170E+03  0.00000000000E+00 0. -1.
         22    1    3    3    0    0  0.38270779080E+02 -0.28015635757E+02  0.64486016137E+02  0.80049826080E+02  0.00000000000E+00 0. -1.
</event>
<event>
 7    1  0.6017574E-006  0.5653826E+02  0.7818608E-02  0.1479519E+00
          2   -1    0    0  502    0  0.00000000000E+00  0.00000000000E+00  0.18354625119E+03  0.18354625119E+03  0.00000000000E+00 0. -1.
          1   -1    0    0  501    0 -0.00000000000E+00 -0.00000000000E+00 -0.26683624366E+03  0.26683624366E+03  0.00000000000E+00 0. -1.
         25    2    1    2    0    0  0.46158824157E+01 -0.87931080366E+02  0.78525592870E+00  0.15290062372E+03  0.12499921137E+03 0.  0.
          2    1    1    2  501    0 -0.45261387849E+01  0.34227006880E+02 -0.18229673685E+03  0.18553725825E+03  0.00000000000E+00 0. -1.
          1    1    1    2  502    0 -0.89743630786E-01  0.53704073486E+02  0.98221488443E+02  0.11194461289E+03  0.00000000000E+00 0. -1.
         22    1    3    3    0    0 -0.58544944429E+01 -0.84075425943E+02  0.52965735156E+02  0.99540551803E+02  0.00000000000E+00 0.  1.
         22    1    3    3    0    0  0.10470376859E+02 -0.38556544226E+01 -0.52180479227E+02  0.53360071917E+02  0.00000000000E+00 0.  1.
</event>
<event>
 7    1  0.6017574E-006  0.9843000E+02  0.7818608E-02  0.1361419E+00
          2   -1    0    0  502    0  0.00000000000E+00  0.00000000000E+00  0.10979907956E+04  0.10979907956E+04  0.00000000000E+00 0. -1.
          1   -1    0    0  501    0 -0.00000000000E+00 -0.00000000000E+00 -0.15853910867E+04  0.15853910867E+04  0.00000000000E+00 0. -1.
         25    2    1    2    0    0  0.25771231413E+02  0.12581941483E+03  0.17795179626E+03  0.25256110088E+03  0.12500234545E+03 0.  0.
          2    1    1    2  501    0 -0.39063056715E+02 -0.29962197688E+02 -0.15450408392E+04  0.15458249741E+04  0.00000000000E+00 0. -1.
          1    1    1    2  502    0  0.13291825302E+02 -0.95857217146E+02  0.87968875193E+03  0.88499580732E+03  0.00000000000E+00 0. -1.
         22    1    3    3    0    0 -0.15365308691E+02 -0.66662939779E+01  0.82467308454E+02  0.84150990192E+02  0.00000000000E+00 0.  1.
         22    1    3    3    0    0  0.41136540104E+02  0.13248570881E+03  0.95484487803E+02  0.16841011069E+03  0.00000000000E+00 0.  1.
</event>
<event>
 7    1  0.6017574E-006  0.1412185E+03  0.7818608E-02  0.1390241E+00
          2   -1    0    0  502    0  0.00000000000E+00  0.00000000000E+00  0.80882899449E+03  0.80882899449E+03  0.00000000000E+00 0. -1.
          1   -1    0    0  501    0 -0.00000000000E+00 -0.00000000000E+00 -0.18165010417E+04  0.18165010417E+04  0.00000000000E+00 0. -1.
         25    2    1    2    0    0  0.12665453411E+03 -0.20415369760E+02 -0.11120313871E+03  0.21083342503E+03  0.12500574673E+03 0.  0.
          2    1    1    2  501    0 -0.14210930261E+03 -0.18286693156E+01 -0.16521894650E+04  0.16582908147E+04  0.00000000000E+00 0. -1.
          1    1    1    2  502    0  0.15454768499E+02  0.22244039075E+02  0.75572055647E+03  0.75620579647E+03  0.00000000000E+00 0. -1.
         22    1    3    3    0    0  0.15217719863E+03 -0.20806395182E+02 -0.95787110827E+02  0.18101374662E+03  0.00000000000E+00 0. -1.
         22    1    3    3    0    0 -0.25522664517E+02  0.39102542213E+00 -0.15416027885E+02  0.29819678413E+02  0.00000000000E+00 0. -1.
</event>
<event>
 7    1  0.6017574E-006  0.1535760E+03  0.7818608E-02  0.1236446E+00
          2   -1    0    0  502    0  0.00000000000E+00  0.00000000000E+00  0.23474510425E+04  0.23474510425E+04  0.00000000000E+00 0. -1.
          1   -1    0    0  501    0 -0.00000000000E+00 -0.00000000000E+00 -0.14330201034E+04  0.14330201034E+04  0.00000000000E+00 0. -1.
         25    2    1    2    0    0  0.11076447467E+03  0.66328561493E+02  0.26975078982E+02  0.18171670990E+03  0.12500024341E+03 0.  0.
          2    1    1    2  501    0  0.42757347479E+02 -0.90750550993E+02 -0.13510941496E+04  0.13548133652E+04  0.00000000000E+00 0. -1.
          1    1    1    2  502    0 -0.15352182215E+03  0.24421989500E+02  0.22385500097E+04  0.22439410709E+04  0.00000000000E+00 0. -1.
         22    1    3    3    0    0  0.11943171218E+03  0.69220519067E+01  0.16248605470E+02  0.12073055064E+03  0.00000000000E+00 0. -1.
         22    1    3    3    0    0 -0.86672375145E+01  0.59406509586E+02  0.10726473512E+02  0.60986159260E+02  0.00000000000E+00 0. -1.
</event>
<event>
 7    1  0.6017574E-006  0.1236051E+03  0.7818608E-02  0.1318441E+00
          2   -1    0    0  502    0  0.00000000000E+00  0.00000000000E+00  0.71909659411E+03  0.71909659411E+03  0.00000000000E+00 0. -1.
          1   -1    0    0  501    0 -0.00000000000E+00 -0.00000000000E+00 -0.38238301527E+03  0.38238301527E+03  0.00000000000E+00 0. -1.
         25    2    1    2    0    0  0.19778383901E+02  0.16678594532E+03  0.18310813234E+03  0.27814097526E+03  0.12500031186E+03 0.  0.
          2    1    1    2  501    0 -0.27685353577E+02 -0.49704611358E+02 -0.32531413946E+03  0.33025189859E+03  0.00000000000E+00 0. -1.
          1    1    1    2  502    0  0.79069696754E+01 -0.11708133396E+03  0.47891958596E+03  0.49308673552E+03  0.00000000000E+00 0. -1.
         22    1    3    3    0    0  0.19484256467E+02  0.57489333688E+02  0.15325757849E+03  0.16484096913E+03  0.00000000000E+00 0.  1.
         22    1    3    3    0    0  0.29412743390E+00  0.10929661163E+03  0.29850553851E+02  0.11330000614E+03  0.00000000000E+00 0.  1.
</event>
<event>
 7    1  0.6017574E-006  0.3430765E+02  0.7818608E-02  0.1578031E+00
          2   -1    0    0  502    0  0.00000000000E+00  0.00000000000E+00  0.24578387876E+03  0.24578387876E+03  0.00000000000E+00 0. -1.
          1   -1    0    0  501    0 -0.00000000000E+00 -0.00000000000E+00 -0.48840130621E+03  0.48840130621E+03  0.00000000000E+00 0. -1.
         25    2    1    2    0    0 -0.28948278295E+02  0.55995409338E+02  0.17249940456E+03  0.22215968731E+03  0.12500157363E+03 0.  0.
          2    1    1    2  501    0  0.10975620475E+02 -0.32409031732E+02 -0.45833600384E+03  0.45961146852E+03  0.00000000000E+00 0. -1.
          1    1    1    2  502    0  0.17972657821E+02 -0.23586377606E+02  0.43219171822E+02  0.52414029140E+02  0.00000000000E+00 0. -1.
         22    1    3    3    0    0 -0.47620001404E+02  0.65700298333E+02  0.44702420179E+02  0.92641783794E+02  0.00000000000E+00 0.  1.
         22    1    3    3    0    0  0.18671723109E+02 -0.97048889949E+01  0.12779698438E+03  0.12951790351E+03  0.00000000000E+00 0.  1.
</event>
<event>
 7    1  0.6017574E-006  0.3473412E+02  0.7818608E-02  0.1554928E+00
          2   -1    0    0  502    0  0.00000000000E+00  0.00000000000E+00  0.16414483163E+03  0.16414483163E+03  0.00000000000E+00 0. -1.
          1   -1    0    0  501    0 -0.00000000000E+00 -0.00000000000E+00 -0.98289671401E+03  0.98289671401E+03  0.00000000000E+00 0. -1.
         25    2    1    2    0    0  0.14470188376E+02  0.40953598713E+01 -0.25634952052E+03  0.28560091840E+03  0.12500659822E+03 0.  0.
          2    1    1    2  501    0  0.43026272875E+01 -0.33592222492E+02 -0.70946800390E+03  0.71027586090E+03  0.00000000000E+00 0. -1.
          1    1    1    2  502    0 -0.18772815663E+02  0.29496862620E+02  0.14706564204E+03  0.15116476633E+03  0.00000000000E+00 0. -1.
         22    1    3    3    0    0  0.63481280618E+02 -0.22604221319E+02 -0.11035716134E+03  0.12930400949E+03  0.00000000000E+00 0.  1.
         22    1    3    3    0    0 -0.49011092242E+02  0.26699581190E+02 -0.14599235917E+03  0.15629690891E+03  0.00000000000E+00 0.  1.
</event>
<event>
 7    1  0.6017574E-006  0.7081547E+02  0.7818608E-02  0.1373944E+00
          2   -1    0    0  502    0  0.00000000000E+00  0.00000000000E+00  0.47093353610E+03  0.47093353610E+03  0.00000000000E+00 0. -1.
          1   -1    0    0  501    0 -0.00000000000E+00 -0.00000000000E+00 -0.87697275651E+03  0.87697275651E+03  0.00000000000E+00 0. -1.
         25    2    1    2    0    0 -0.55024595369E+02  0.25116340936E+02  0.25684424662E+03  0.29198011268E+03  0.12499953001E+03 0.  0.
          2    1    1    2  501    0 -0.21991982766E+02 -0.57611840475E+02 -0.84934712448E+03  0.85158282588E+03  0.00000000000E+00 0. -1.
          1    1    1    2  502    0  0.77016578135E+02  0.32495499539E+02  0.18646365744E+03  0.20434335405E+03  0.00000000000E+00 0. -1.
         22    1    3    3    0    0 -0.29042038033E+02  0.58284908949E+02  0.53388695959E+02  0.84207621036E+02  0.00000000000E+00 0. -1.
         22    1    3    3    0    0 -0.25982557336E+02 -0.33168568013E+02  0.20345555066E+03  0.20777249165E+03  0.00000000000E+00 0. -1.
</event>
<event>
 7    1  0.6017574E-006  0.6581257E+02  0.7818608E-02  0.1431485E+00
          2   -1    0    0  502    0  0.00000000000E+00  0.00000000000E+00  0.63069817132E+03  0.63069817132E+03  0.00000000000E+00 0. -1.
          1   -1    0    0  501    0 -0.00000000000E+00 -0.00000000000E+00 -0.43934833162E+02  0.43934833162E+02  0.00000000000E+00 0. -1.
         25    2    1    2    0    0 -0.66154192046E+02 -0.68156558593E+01  0.40769754136E+03  0.43158417968E+03  0.12499915450E+03 0.  0.
          2    1    1    2  501    0  0.13933307739E+02 -0.39770725221E+02 -0.83798281599E+01  0.42965907056E+02  0.00000000000E+00 0. -1.
          1    1    1    2  502    0  0.52220884307E+02  0.46586381080E+02  0.18744562495E+03  0.20008291775E+03  0.00000000000E+00 0. -1.
         22    1    3    3    0    0 -0.86370938204E+02 -0.40016876944E+02  0.21692877431E+03  0.23689529866E+03  0.00000000000E+00 0. -1.
         22    1    3    3    0    0  0.20216746159E+02  0.33201221085E+02  0.19076876705E+03  0.19468888101E+03  0.00000000000E+00 0. -1.
</event>
<event>
 7    1  0.6017574E-006  0.8930916E+02  0.7818608E-02  0.1351498E+00
          2   -1    0    0  502    0  0.00000000000E+00  0.00000000000E+00  0.17274993753E+04  0.17274993753E+04  0.00000000000E+00 0. -1.
          1   -1    0    0  501    0 -0.00000000000E+00 -0.00000000000E+00 -0.20070412750E+04  0.20070412750E+04  0.00000000000E+00 0. -1.
         25    2    1    2    0    0 -0.85806454219E+02 -0.10986012125E+03  0.75261580016E+03  0.77555557022E+03  0.12499562398E+03 0.  0.
          2    1    1    2  501    0  0.33391402325E+02  0.82769046921E+02 -0.19936687113E+04  0.19956654607E+04  0.00000000000E+00 0. -1.
          1    1    1    2  502    0  0.52415051895E+02  0.27091074333E+02  0.96151101138E+03  0.96331961932E+03  0.00000000000E+00 0. -1.
         22    1    3    3    0    0 -0.58091858979E+02 -0.11674852639E+03  0.72202559877E+03  0.73370692226E+03  0.00000000000E+00 0.  1.
         22    1    3    3    0    0 -0.27714595240E+02  0.68884051404E+01  0.30590201396E+02  0.41848647961E+02  0.00000000000E+00 0.  1.
</event>
<event>
 7    1  0.6017574E-006  0.1480847E+03  0.7818608E-02  0.1307242E+00
          2   -1    0    0  502    0  0.00000000000E+00  0.00000000000E+00  0.19804416118E+03  0.19804416118E+03  0.00000000000E+00 0. -1.
          1   -1    0    0  501    0 -0.00000000000E+00 -0.00000000000E+00 -0.18073379466E+04  0.18073379466E+04  0.00000000000E+00 0. -1.
         25    2    1    2    0    0 -0.11157857585E+03 -0.15705111114E+03 -0.21901106303E+02  0.23068973723E+03  0.12499306504E+03 0.  0.
          2    1    1    2  501    0  0.65842621762E+02  0.13118011161E+03 -0.16701909246E+04  0.16766279245E+04  0.00000000000E+00 0. -1.
          1    1    1    2  502    0  0.45735954090E+02  0.25870999527E+02  0.82798245529E+02  0.98064446033E+02  0.00000000000E+00 0. -1.
         22    1    3    3    0    0 -0.10420899894E+03 -0.69932544507E+02  0.29973315653E+02  0.12902897307E+03  0.00000000000E+00 0. -1.
         22    1    3    3    0    0 -0.73695769115E+01 -0.87118566629E+02 -0.51874421956E+02  0.10166076416E+03  0.00000000000E+00 0. -1.
</event>
<event>
 7    1  0.6017574E-006  0.3088908E+02  0.7818608E-02  0.1606372E+00
          2   -1    0    0  502    0  0.00000000000E+00  0.00000000000E+00  0.79530881499E+03  0.79530881499E+03  0.00000000000E+00 0. -1.
          1   -1    0    0  501    0 -0.00000000000E+00 -0.00000000000E+00 -0.16152495243E+03  0.16152495243E+03  0.00000000000E+00 0. -1.
         25    2    1    2    0    0 -0.15449292462E+02 -0.39012842892E+02 -0.89401570276E+02  0.15930547174E+03  0.12499964004E+03 0.  0.
          2    1    1    2  501    0 -0.10265999181E+02  0.28652150001E+02 -0.30643444182E+02  0.43189780159E+02  0.00000000000E+00 0. -1.
          1    1    1    2  502    0  0.25715291643E+02  0.10360692892E+02  0.75382887702E+03  0.75433851552E+03  0.00000000000E+00 0. -1.
         22    1    3    3    0    0 -0.22984001700E+02 -0.13540130959E+02  0.28154807907E+02  0.38785212244E+02  0.00000000000E+00 0. -1.
         22    1    3    3    0    0  0.75347092382E+01 -0.25472711934E+02 -0.11755637818E+03  0.12052025949E+03  0.00000000000E+00 0. -1.
</event>
<event>
 7    1  0.6017574E-006  0.9437315E+02  0.7818608E-02  0.1388797E+00
          2   -1    0    0  502    0  0.00000000000E+00  0.00000000000E+00  0.43502402856E+03  0.43502402856E+03  0.00000000000E+00 0. -1.
          1   -1    0    0  501    0 -0.00000000000E+00 -0.00000000000E+00 -0.78465381767E+03  0.78465381767E+03  0.00000000000E+00 0. -1.
         25    2    1    2    0    0 -0.10353791648E+03 -0.80222101059E+02 -0.24759314563E+02  0.18273864541E+03  0.12499881288E+03 0.  0.
          2    1    1    2  501    0  0.38130304737E+02  0.15081016072E+02 -0.67428791143E+03  0.67553352596E+03  0.00000000000E+00 0. -1.
          1    1    1    2  502    0  0.65407611744E+02  0.65141084986E+02  0.34941743688E+03  0.36140567486E+03  0.00000000000E+00 0. -1.
         22    1    3    3    0    0 -0.43120640000E+02 -0.83973721330E+02 -0.60804414428E+02  0.11228602888E+03  0.00000000000E+00 0. -1.
         22    1    3    3    0    0 -0.60417276481E+02  0.37516202712E+01  0.36045099864E+02  0.70452616532E+02  0.00000000000E+00 0. -1.
</event>
<event>
 7    1  0.6017574E-006  0.8398563E+02  0.7818608E-02  0.1414911E+00
          2   -1    0    0  502    0  0.00000000000E+00  0.00000000000E+00  0.78212515055E+03  0.78212515055E+03  0.00000000000E+00 0. -1.
          1   -1    0    0  501    0 -0.00000000000E+00 -0.00000000000E+00 -0.18475684078E+04  0.18475684078E+04  0.00000000000E+00 0. -1.
         25    2    1    2    0    0  0.43725468257E+02 -0.16168989759E+02  0.54647092189E+03  0.56251830022E+03  0.12499206698E+03 0.  0.
          2    1    1    2  501    0 -0.79762144056E+02  0.26504244880E+02 -0.18370337055E+04  0.18389554942E+04  0.00000000000E+00 0. -1.
          1    1    1    2  502    0  0.36036675799E+02 -0.10335255122E+02  0.22511952634E+03  0.22821976392E+03  0.00000000000E+00 0. -1.
         22    1    3    3    0    0 -0.13276663351E+02  0.31390926487E+02  0.36300893767E+03  0.36460547018E+03  0.00000000000E+00 0.  1.
         22    1    3    3    0    0  0.57002131608E+02 -0.47559916246E+02  0.18346198422E+03  0.19791283004E+03  0.00000000000E+00 0.  1.
</event>
<event>
 7    1  0.6017574E-006  0.9145833E+02  0.7818608E-02  0.1302030E+00
          2   -1    0    0  502    0  0.00000000000E+00  0.00000000000E+00  0.25236824256E+04  0.25236824256E+04  0.00000000000E+00 0. -1.
          1   -1    0    0  501    0 -0.00000000000E+00 -0.00000000000E+00 -0.14575673922E+03  0.14575673922E+03  0.00000000000E+00 0. -1.
         25    2    1    2    0    0  0.21882518909E+02 -0.11693900745E+02  0.20131269857E+03  0.23825996958E+03  0.12500167420E+03 0.  0.
          2    1    1    2  501    0 -0.47047051432E+02 -0.78429598260E+02 -0.10977251999E+03  0.14287978540E+03  0.00000000000E+00 0. -1.
          1    1    1    2  502    0  0.25164532523E+02  0.90123499005E+02  0.22863855078E+04  0.22882994099E+04  0.00000000000E+00 0. -1.
         22    1    3    3    0    0 -0.26822436039E+02 -0.47988024313E+02  0.46661616207E+02  0.72108251813E+02  0.00000000000E+00 0. -1.
         22    1    3    3    0    0  0.48704954948E+02  0.36294123568E+02  0.15465108236E+03  0.16615171777E+03  0.00000000000E+00 0. -1.
</event>
<event>
 7    1  0.6017574E-006  0.1391663E+03  0.7818608E-02  0.1246451E+00
          2   -1    0    0  502    0  0.00000000000E+00  0.00000000000E+00  0.17650756295E+04  0.17650756295E+04  0.00000000000E+00 0. -1.
          1   -1    0    0  501    0 -0.00000000000E+00 -0.00000000000E+00 -0.15718392235E+04  0.15718392235E+04  0.00000000000E+00 0. -1.
         25    2    1    2    0    0 -0.77959080920E+01  0.49537937576E+02  0.32425463801E+02  0.13853157653E+03  0.12499921420E+03 0.  0.
          2    1    1    2  501    0 -0.67191364117E+02  0.74110650568E+02 -0.15140198435E+04  0.15173210453E+04  0.00000000000E+00 0. -1.
          1    1    1    2  502    0  0.74987272209E+02 -0.12364858814E+03  0.16748307857E+04  0.16810622312E+04  0.00000000000E+00 0. -1.
         22    1    3    3    0    0  0.40814030131E+02  0.70683061347E+02  0.17754802170E+02  0.83529115984E+02  0.00000000000E+00 0.  1.
         22    1    3    3    0    0 -0.48609938223E+02 -0.21145123771E+02  0.14670661631E+02  0.55002460545E+02  0.00000000000E+00 0.  1.
</event>
<event>
 7    1  0.6017574E-006  0.2030143E+03  0.7818608E-02  0.1222378E+00
          2   -1    0    0  502    0  0.00000000000E+00  0.00000000000E+00  0.11253391069E+04  0.11253391069E+04  0.00000000000E+00 0. -1.
          1   -1    0    0  501    0 -0.00000000000E+00 -0.00000000000E+00 -0.20895783835E+03  0.20895783835E+03  0.00000000000E+00 0. -1.
         25    2    1    2    0    0 -0.13528685106E+03 -0.23555429610E+03  0.31295706872E+03  0.43284550837E+03  0.12499899509E+03 0.  0.
          2    1    1    2  501    0  0.64111407158E+02  0.59937556408E+02 -0.12278501660E+03  0.15092694755E+03  0.00000000000E+00 0. -1.
          1    1    1    2  502    0  0.71175443898E+02  0.17561673969E+03  0.72620921644E+03  0.75052448935E+03  0.00000000000E+00 0. -1.
         22    1    3    3    0    0 -0.13083149399E+03 -0.21266878067E+03  0.32232106196E+03  0.40772019459E+03  0.00000000000E+00 0. -1.
         22    1    3    3    0    0 -0.44553570697E+01 -0.22885515435E+02 -0.93639932404E+01  0.25125313784E+02  0.00000000000E+00 0. -1.
</event>
<event>
 7    1  0.6017574E-006  0.8971947E+02  0.7818608E-02  0.1395811E+00
          2   -1    0    0  502    0  0.00000000000E+00  0.00000000000E+00  0.76002466322E+03  0.76002466322E+03  0.00000000000E+00 0. -1.
          1   -1    0    0  501    0 -0.00000000000E+00 -0.00000000000E+00 -0.13953611476E+03  0.13953611476E+03  0.00000000000E+00 0. -1.
         25    2    1    2    0    0  0.91182761777E+01  0.77706856139E+02  0.20585094952E+03  0.25322203247E+03  0.12500114343E+03 0.  0.
          2    1    1    2  501    0 -0.39513020247E+02  0.10066357339E+02 -0.10803651622E+03  0.11547510188E+03  0.00000000000E+00 0. -1.
          1    1    1    2  502    0  0.30394744069E+02 -0.87773213479E+02  0.52267411516E+03  0.53086364363E+03  0.00000000000E+00 0. -1.
         22    1    3    3    0    0 -0.56467670935E+02  0.22175150585E+02  0.71903827475E+02  0.94077072498E+02  0.00000000000E+00 0. -1.
         22    1    3    3    0    0  0.65585947113E+02  0.55531705554E+02  0.13394712204E+03  0.15914495997E+03  0.00000000000E+00 0. -1.
</event>
<event>
 7    1  0.6017574E-006  0.1519047E+03  0.7818608E-02  0.1316557E+00
          2   -1    0    0  502    0  0.00000000000E+00  0.00000000000E+00  0.18416036712E+03  0.18416036712E+03  0.00000000000E+00 0. -1.
          1   -1    0    0  501    0 -0.00000000000E+00 -0.00000000000E+00 -0.14766427912E+04  0.14766427912E+04  0.00000000000E+00 0. -1.
         25    2    1    2    0    0  0.18815892480E+03  0.52784811178E+02 -0.19023782781E+03  0.30000813869E+03  0.12499773949E+03 0.  0.
          2    1    1    2  501    0 -0.14307597973E+03 -0.39203708017E+02 -0.12225948093E+04  0.12315623145E+04  0.00000000000E+00 0. -1.
          1    1    1    2  502    0 -0.45082945079E+02 -0.13581103162E+02  0.12035021304E+03  0.12923270514E+03  0.00000000000E+00 0. -1.
         22    1    3    3    0    0  0.16931293018E+03  0.84639813808E+02 -0.13114845413E+03  0.23028391917E+03  0.00000000000E+00 0.  1.
         22    1    3    3    0    0  0.18845994624E+02 -0.31855002629E+02 -0.59089373685E+02  0.69724219525E+02  0.00000000000E+00 0.  1.
</event>
<event>
 7    1  0.6017574E-006  0.5986833E+02  0.7818608E-02  0.1420350E+00
          2   -1    0    0  502    0  0.00000000000E+00  0.00000000000E+00  0.28107650488E+04  0.28107650488E+04  0.00000000000E+00 0. -1.
          1   -1    0    0  501    0 -0.00000000000E+00 -0.00000000000E+00 -0.29114695898E+03  0.29114695898E+03  0.00000000000E+00 0. -1.
         25    2    1    2    0    0  0.41027388095E+02 -0.15032306863E+00  0.61891179183E+02  0.14542426911E+03  0.12503771757E+03 0.  0.
          2    1    1    2  501    0 -0.34939409535E+02  0.50211708007E+02 -0.24539040796E+03  0.25290004010E+03  0.00000000000E+00 0. -1.
          1    1    1    2  502    0 -0.60879785600E+01 -0.50061384938E+02  0.27031173186E+04  0.27035876986E+04  0.00000000000E+00 0. -1.
         22    1    3    3    0    0  0.70836130358E+01 -0.49427202491E+02 -0.10989204375E+02  0.51127179978E+02  0.00000000000E+00 0. -1.
         22    1    3    3    0    0  0.33943775059E+02  0.49276879422E+02  0.72880383558E+02  0.94297089130E+02  0.00000000000E+00 0. -1.
</event>
<event>
 7    1  0.6017574E-006  0.7198212E+02  0.7818608E-02  0.1372938E+00
          2   -1    0    0  502    0  0.00000000000E+00  0.00000000000E+00  0.53958395484E+02  0.53958395484E+02  0.00000000000E+00 0. -1.
          1   -1    0    0  501    0 -0.00000000000E+00 -0.00000000000E+00 -0.18760965171E+04  0.18760965171E+04  0.00000000000E+00 0. -1.
         25    2    1    2    0    0 -0.33141923276E+02 -0.44395249118E+02 -0.20110915533E+03  0.24318791305E+03  0.12500457380E+03 0.  0.
          2    1    1    2  501    0  0.73517788747E+02 -0.15584646357E+01 -0.16239612496E+04  0.16256252441E+04  0.00000000000E+00 0. -1.
          1    1    1    2  502    0 -0.40375865471E+02  0.45953713754E+02  0.29322833326E+01  0.61241755411E+02  0.00000000000E+00 0. -1.
         22    1    3    3    0    0 -0.12128476939E+02  0.11438512583E+02  0.12861706596E+02  0.21056187204E+02  0.00000000000E+00 0.  1.
         22    1    3    3    0    0 -0.21013446337E+02 -0.55833761702E+02 -0.21397086193E+03  0.22213172584E+03  0.00000000000E+00 0.  1.
</event>
<event>
 7    1  0.6017574E-006  0.1126210E+03  0.7818608E-02  0.1449066E+00
          2   -1    0    0  502    0  0.00000000000E+00  0.00000000000E+00  0.84183049806E+03  0.84183049806E+03  0.00000000000E+00 0. -1.
          1   -1    0    0  501    0 -0.00000000000E+00 -0.00000000000E+00 -0.19230580388E+04  0.19230580388E+04  0.00000000000E+00 0. -1.
         25    2    1    2    0    0  0.85198621585E+02 -0.74946675076E+02 -0.72875619946E+03  0.74805511815E+03  0.12500020928E+03 0.  0.
          2    1    1    2  501    0  0.11959940900E+02  0.17980880578E+02 -0.11807424590E+04  0.11809399252E+04  0.00000000000E+00 0. -1.
          1    1    1    2  502    0 -0.97158562486E+02  0.56965794498E+02  0.82827111777E+03  0.83589349354E+03  0.00000000000E+00 0. -1.
         22    1    3    3    0    0  0.15416816059E+02 -0.89867594610E+02 -0.50595358788E+03  0.51410397379E+03  0.00000000000E+00 0. -1.
         22    1    3    3    0    0  0.69781805527E+02  0.14920919533E+02 -0.22280261158E+03  0.23395114436E+03  0.00000000000E+00 0. -1.
</event>
<event>
 7    1  0.6017574E-006  0.6446445E+02  0.7818608E-02  0.1397038E+00
          2   -1    0    0  502    0  0.00000000000E+00  0.00000000000E+00  0.50291063603E+03  0.50291063603E+03  0.00000000000E+00 0. -1.
          1   -1    0    0  501    0 -0.00000000000E+00 -0.00000000000E+00 -0.50048867049E+02  0.50048867049E+02  0.00000000000E+00 0. -1.
         25    2    1    2    0    0 -0.79161215876E+01 -0.12085609849E+02  0.33519027165E+03  0.35803069893E+03  0.12499894487E+03 0.  0.
          2    1    1    2  501    0  0.22374621577E+02  0.66392077696E+02  0.65020157957E+01  0.70361977523E+02  0.00000000000E+00 0. -1.
          1    1    1    2  502    0 -0.14458499989E+02 -0.54306467847E+02  0.11116948154E+03  0.12456682663E+03  0.00000000000E+00 0. -1.
         22    1    3    3    0    0 -0.10683535023E+02 -0.50778742922E+02  0.56734251481E+02  0.76885589966E+02  0.00000000000E+00 0.  1.
         22    1    3    3    0    0  0.27674134354E+01  0.38693133073E+02  0.27845602017E+03  0.28114510896E+03  0.00000000000E+00 0.  1.
</event>
<event>
 7    1  0.6017574E-006  0.1451663E+03  0.7818608E-02  0.1248970E+00
          2   -1    0    0  502    0  0.00000000000E+00  0.00000000000E+00  0.11681810959E+04  0.11681810959E+04  0.00000000000E+00 0. -1.
          1   -1    0    0  501    0 -0.00000000000E+00 -0.00000000000E+00 -0.16869229221E+04  0.16869229221E+04  0.00000000000E+00 0. -1.
         25    2    1    2    0    0 -0.21565647873E+03  0.96617040786E+02  0.17156116446E+03  0.31765100015E+03  0.12500542130E+03 0.  0.
          2    1    1    2  501    0  0.13568589676E+03 -0.48155413571E+02 -0.16082870115E+04  0.16147187736E+04  0.00000000000E+00 0. -1.
          1    1    1    2  502    0  0.79970581969E+02 -0.48461627215E+02  0.91798402077E+03  0.92273424434E+03  0.00000000000E+00 0. -1.
         22    1    3    3    0    0 -0.12618606852E+03  0.26256922596E+02  0.15664643279E+03  0.20285574869E+03  0.00000000000E+00 0. -1.
         22    1    3    3    0    0 -0.89470410212E+02  0.70360118190E+02  0.14914731668E+02  0.11479525145E+03  0.00000000000E+00 0. -1.
</event>
<event>
 7    1  0.6017574E-006  0.8912743E+02  0.7818608E-02  0.1320275E+00
          2   -1    0    0  502    0  0.00000000000E+00  0.00000000000E+00  0.12145513306E+04  0.12145513306E+04  0.00000000000E+00 0. -1.
          1   -1    0    0  501    0 -0.00000000000E+00 -0.00000000000E+00 -0.81163266813E+03  0.81163266813E+03  0.00000000000E+00 0. -1.
         25    2    1    2    0    0  0.63076796584E+01 -0.51533225430E+02  0.80294961702E+02  0.15737529077E+03  0.12499696446E+03 0.  0.
          2    1    1    2  501    0 -0.77277092648E+02 -0.72934595805E+01 -0.76919706856E+03  0.77310353374E+03  0.00000000000E+00 0. -1.
          1    1    1    2  502    0  0.70969412990E+02  0.58826685011E+02  0.10918207694E+04  0.10957051742E+04  0.00000000000E+00 0. -1.
         22    1    3    3    0    0  0.52821273678E+02  0.88634314680E+01  0.55702604388E+02  0.77275012171E+02  0.00000000000E+00 0. -1.
         22    1    3    3    0    0 -0.46513594019E+02 -0.60396656898E+02  0.24592357314E+02  0.80100278597E+02  0.00000000000E+00 0. -1.
</event>
<event>
 7    1  0.6017574E-006  0.3495854E+02  0.7818608E-02  0.1580661E+00
          2   -1    0    0  502    0  0.00000000000E+00  0.00000000000E+00  0.82797280295E+03  0.82797280295E+03  0.00000000000E+00 0. -1.
          1   -1    0    0  501    0 -0.00000000000E+00 -0.00000000000E+00 -0.34858300363E+03  0.34858300363E+03  0.00000000000E+00 0. -1.
         25    2    1    2    0    0  0.55992287266E+01 -0.14228033632E+02  0.29388577374E+03  0.31973044856E+03  0.12499969370E+03 0.  0.
          2    1    1    2  501    0 -0.22444210151E+02 -0.17778294442E+02 -0.33442067240E+03  0.33564415152E+03  0.00000000000E+00 0. -1.
          1    1    1    2  502    0  0.16844981424E+02  0.32006328074E+02  0.51992469799E+03  0.52118120651E+03  0.00000000000E+00 0. -1.
         22    1    3    3    0    0 -0.24105264278E+02 -0.55159098431E+02  0.23264495122E+03  0.24030660256E+03  0.00000000000E+00 0. -1.
         22    1    3    3    0    0  0.29704493005E+02  0.40931064799E+02  0.61240822512E+02  0.79423845992E+02  0.00000000000E+00 0. -1.
</event>
<event>
 7    1  0.6017574E-006  0.5424457E+02  0.7818608E-02  0.1531508E+00
          2   -1    0    0  502    0  0.00000000000E+00  0.00000000000E+00  0.39267176234E+03  0.39267176234E+03  0.00000000000E+00 0. -1.
          1   -1    0    0  501    0 -0.00000000000E+00 -0.00000000000E+00 -0.13580707535E+04  0.13580707535E+04  0.00000000000E+00 0. -1.
         25    2    1    2    0    0 -0.32677915327E+01  0.32561328838E+02 -0.18561126967E+03  0.22615810555E+03  0.12500010672E+03 0.  0.
          2    1    1    2  501    0 -0.18185937779E+02  0.17502909464E+02 -0.11500552418E+04  0.11503321865E+04  0.00000000000E+00 0. -1.
          1    1    1    2  502    0  0.21453729312E+02 -0.50064238302E+02  0.37026752027E+03  0.37425222381E+03  0.00000000000E+00 0. -1.
         22    1    3    3    0    0 -0.63426163801E+02  0.97868641277E+01 -0.10454595896E+03  0.12267240317E+03  0.00000000000E+00 0. -1.
         22    1    3    3    0    0  0.60158372268E+02  0.22774464710E+02 -0.81065310706E+02  0.10348570238E+03  0.00000000000E+00 0. -1.
</event>
<event>
 7    1  0.6017574E-006  0.9507662E+02  0.7818608E-02  0.1351797E+00
          2   -1    0    0  502    0  0.00000000000E+00  0.00000000000E+00  0.16411910892E+03  0.16411910892E+03  0.00000000000E+00 0. -1.
          1   -1    0    0  501    0 -0.00000000000E+00 -0.00000000000E+00 -0.12913205727E+04  0.12913205727E+04  0.00000000000E+00 0. -1.
         25    2    1    2    0    0 -0.29671970895E+02 -0.68033042529E+02 -0.55617181556E+03  0.57485686394E+03  0.12499761942E+03 0.  0.
          2    1    1    2  501    0  0.84880211085E+02  0.65176351047E+02 -0.71676735603E+03  0.72471239098E+03  0.00000000000E+00 0. -1.
          1    1    1    2  502    0 -0.55208240190E+02  0.28566914817E+01  0.14573770776E+03  0.15587042675E+03  0.00000000000E+00 0. -1.
         22    1    3    3    0    0  0.10982425880E+02 -0.88754166071E+02 -0.45731035209E+03  0.46597282518E+03  0.00000000000E+00 0.  1.
         22    1    3    3    0    0 -0.40654396775E+02  0.20721123542E+02 -0.98861463467E+02  0.10888403876E+03  0.00000000000E+00 0.  1.
</event>
<event>
 7    1  0.6017574E-006  0.1376517E+03  0.7818608E-02  0.1336628E+00
          2   -1    0    0  502    0  0.00000000000E+00  0.00000000000E+00  0.18538744026E+04  0.18538744026E+04  0.00000000000E+00 0. -1.
          1   -1    0    0  501    0 -0.00000000000E+00 -0.00000000000E+00 -0.69250133131E+03  0.69250133131E+03  0.00000000000E+00 0. -1.
         25    2    1    2    0    0  0.14451103424E+03 -0.94293704153E+02  0.85395003480E+03  0.88013126086E+03  0.12500253092E+03 0.  0.
          2    1    1    2  501    0 -0.10101784186E+03  0.93121682254E+02 -0.67197698560E+03  0.68587850328E+03  0.00000000000E+00 0. -1.
          1    1    1    2  502    0 -0.43493192375E+02  0.11720218986E+01  0.97940002210E+03  0.98036596978E+03  0.00000000000E+00 0. -1.
         22    1    3    3    0    0  0.10787506100E+03 -0.12504885402E+03  0.65124603762E+03  0.67185984118E+03  0.00000000000E+00 0.  1.
         22    1    3    3    0    0  0.36635973236E+02  0.30755149871E+02  0.20270399718E+03  0.20827141967E+03  0.00000000000E+00 0.  1.
</event>
<event>
 7    1  0.6017574E-006  0.4873295E+02  0.7818608E-02  0.1469136E+00
          2   -1    0    0  502    0  0.00000000000E+00  0.00000000000E+00  0.44593748334E+03  0.44593748334E+03  0.00000000000E+00 0. -1.
          1   -1    0    0  501    0 -0.00000000000E+00 -0.00000000000E+00 -0.31579888930E+03  0.31579888930E+03  0.00000000000E+00 0. -1.
         25    2    1    2    0    0 -0.28979645790E+01  0.67371032302E+02  0.19634044664E+03  0.24232703885E+03  0.12500227431E+03 0.  0.
          2    1    1    2  501    0 -0.29345491369E+02 -0.31604339461E+02 -0.28862688314E+03  0.29183123515E+03  0.00000000000E+00 0. -1.
          1    1    1    2  502    0  0.32243455948E+02 -0.35766692841E+02  0.22242503054E+03  0.22757809864E+03  0.00000000000E+00 0. -1.
         22    1    3    3    0    0  0.20574072540E+02  0.83834748573E+02  0.19542616070E+03  0.21364208812E+03  0.00000000000E+00 0.  1.
         22    1    3    3    0    0 -0.23472037119E+02 -0.16463716271E+02  0.91428593475E+00  0.28684950736E+02  0.00000000000E+00 0.  1.
</event>
<event>
 7    1  0.6017574E-006  0.2620921E+02  0.7818608E-02  0.1681339E+00
          2   -1    0    0  502    0  0.00000000000E+00  0.00000000000E+00  0.19042361130E+03  0.19042361130E+03  0.00000000000E+00 0. -1.
          1   -1    0    0  501    0 -0.00000000000E+00 -0.00000000000E+00 -0.11751076162E+04  0.11751076162E+04  0.00000000000E+00 0. -1.
         25    2    1    2    0    0  0.97012014462E+01  0.71473614064E+01 -0.17803909753E+03  0.21787217738E+03  0.12500066937E+03 0.  0.
          2    1    1    2  501    0  0.15521336403E+02 -0.14620319671E+02 -0.97602018791E+03  0.97625307827E+03  0.00000000000E+00 0. -1.
          1    1    1    2  502    0 -0.25222537849E+02  0.74729582650E+01  0.16937528055E+03  0.17140597184E+03  0.00000000000E+00 0. -1.
         22    1    3    3    0    0  0.31229710675E+02  0.41916921876E+02 -0.22258868441E+02  0.56813558176E+02  0.00000000000E+00 0. -1.
         22    1    3    3    0    0 -0.21528509229E+02 -0.34769560469E+02 -0.15578022909E+03  0.16105861920E+03  0.00000000000E+00 0. -1.
</event>
<event>
 7    1  0.6017574E-006  0.7774881E+02  0.7818608E-02  0.1391249E+00
          2   -1    0    0  502    0  0.00000000000E+00  0.00000000000E+00  0.21783504003E+02  0.21783504003E+02  0.00000000000E+00 0. -1.
          1   -1    0    0  501    0 -0.00000000000E+00 -0.00000000000E+00 -0.13562970986E+04  0.13562970986E+04  0.00000000000E+00 0. -1.
         25    2    1    2    0    0 -0.12322546901E+02 -0.57821129256E+01 -0.78951224866E+03  0.79946217384E+03  0.12499959447E+03 0.  0.
          2    1    1    2  501    0  0.56442844672E+02 -0.58235668133E+02 -0.44301007665E+03  0.45037219693E+03  0.00000000000E+00 0. -1.
          1    1    1    2  502    0 -0.44120297771E+02  0.64017781058E+02 -0.10199126925E+03  0.12824623180E+03  0.00000000000E+00 0. -1.
         22    1    3    3    0    0  0.83699285731E+01  0.53636011238E+02 -0.22507093997E+03  0.23152495638E+03  0.00000000000E+00 0. -1.
         22    1    3    3    0    0 -0.20692475474E+02 -0.59418124164E+02 -0.56444130869E+03  0.56793721746E+03  0.00000000000E+00 0. -1.
</event>
<event>
 7    1  0.6017574E-006  0.8360833E+02  0.7818608E-02  0.1367316E+00
          2   -1    0    0  502    0  0.00000000000E+00  0.00000000000E+00  0.43354437300E+02  0.43354437300E+02  0.00000000000E+00 0. -1.
          1   -1    0    0  501    0 -0.00000000000E+00 -0.00000000000E+00 -0.14387097499E+04  0.14387097499E+04  0.00000000000E+00 0. -1.
         25    2    1    2    0    0 -0.53926244613E+02  0.59280752090E+02 -0.51039030794E+03  0.53154925438E+03  0.12499638381E+03 0.  0.
          2    1    1    2  501    0 -0.30777383955E+02 -0.45792136429E+02 -0.85918323486E+03  0.86095295934E+03  0.00000000000E+00 0. -1.
          1    1    1    2  502    0  0.84703628568E+02 -0.13488615660E+02 -0.25781769832E+02  0.89561973519E+02  0.00000000000E+00 0. -1.
         22    1    3    3    0    0  0.20007162214E+02  0.63780938766E+02 -0.15975967805E+03  0.17318039560E+03  0.00000000000E+00 0.  1.
         22    1    3    3    0    0 -0.73933406827E+02 -0.45001866765E+01 -0.35063062988E+03  0.35836885877E+03  0.00000000000E+00 0.  1.
</event>
<event>
 7    1  0.6017574E-006  0.1599043E+03  0.7818608E-02  0.1277896E+00
          2   -1    0    0  502    0  0.00000000000E+00  0.00000000000E+00  0.78793755622E+02  0.78793755622E+02  0.00000000000E+00 0. -1.
          1   -1    0    0  501    0 -0.00000000000E+00 -0.00000000000E+00 -0.15254877542E+04  0.15254877542E+04  0.00000000000E+00 0. -1.
         25    2    1    2    0    0  0.11684182489E+03  0.17701899158E+01 -0.38092092685E+03  0.41758880301E+03  0.12499804107E+03 0.  0.
          2    1    1    2  501    0 -0.17441653011E+03 -0.29682914152E+02 -0.10999944242E+04  0.11141319198E+04  0.00000000000E+00 0. -1.
          1    1    1    2  502    0  0.57574705217E+02  0.27912724236E+02  0.34221352454E+02  0.72560787061E+02  0.00000000000E+00 0. -1.
         22    1    3    3    0    0 -0.23822185279E+02  0.14330482747E+02 -0.90107475116E+02  0.94298548870E+02  0.00000000000E+00 0. -1.
         22    1    3    3    0    0  0.14066401017E+03 -0.12560292831E+02 -0.29081345173E+03  0.32329025414E+03  0.00000000000E+00 0. -1.
</event>
<event>
 7    1  0.6017574E-006  0.6226482E+02  0.7818608E-02  0.1402300E+00
          2   -1    0    0  502    0  0.00000000000E+00  0.00000000000E+00  0.67589167784E+03  0.67589167784E+03  0.00000000000E+00 0. -1.
          1   -1    0    0  501    0 -0.00000000000E+00 -0.00000000000E+00 -0.89595204863E+02  0.89595204863E+02  0.00000000000E+00 0. -1.
         25    2    1    2    0    0 -0.14681408850E+01  0.88598180872E+02  0.33263887271E+02  0.15678347697E+03  0.12499111714E+03 0.  0.
          2    1    1    2  501    0  0.36240163932E+02 -0.44946888008E+02  0.51284832821E+01  0.57964416362E+02  0.00000000000E+00 0. -1.
          1    1    1    2  502    0 -0.34772023047E+02 -0.43651292864E+02  0.54790410242E+03  0.55073898937E+03  0.00000000000E+00 0. -1.
         22    1    3    3    0    0  0.38651970747E+02  0.10307703163E+03  0.18386695520E+02  0.11161057236E+03  0.00000000000E+00 0.  1.
         22    1    3    3    0    0 -0.40120111632E+02 -0.14478850753E+02  0.14877191751E+02  0.45172904610E+02  0.00000000000E+00 0.  1.
</event>
<event>
 7    1  0.6017574E-006  0.4167120E+03  0.7818608E-02  0.1140260E+00
          2   -1    0    0  502    0  0.00000000000E+00  0.00000000000E+00  0.82069297724E+03  0.82069297724E+03  0.00000000000E+00 0. -1.
          1   -1    0    0  501    0 -0.00000000000E+00 -0.00000000000E+00 -0.10363574779E+04  0.10363574779E+04  0.00000000000E+00 0. -1.
         25    2    1    2    0    0  0.28506892599E+03  0.16420407076E+03  0.10334619805E+03  0.36678689689E+03  0.12499968664E+03 0.  0.
          2    1    1    2  501    0 -0.37767276862E+03 -0.21881253041E+03 -0.84624531785E+03  0.95218001533E+03  0.00000000000E+00 0. -1.
          1    1    1    2  502    0  0.92603842623E+02  0.54608459656E+02  0.52723461914E+03  0.53808354291E+03  0.00000000000E+00 0. -1.
         22    1    3    3    0    0  0.15591673138E+03  0.25516827661E+02  0.75975562940E+02  0.17530950283E+03  0.00000000000E+00 0.  1.
         22    1    3    3    0    0  0.12915219462E+03  0.13868724310E+03  0.27370635111E+02  0.19147739407E+03  0.00000000000E+00 0.  1.
</event>
<event>
 7    1  0.6017574E-006  0.2798149E+02  0.7818608E-02  0.1647454E+00
          2   -1    0    0  502    0  0.00000000000E+00  0.00000000000E+00  0.21078503553E+04  0.21078503553E+04  0.00000000000E+00 0. -1.
          1   -1    0    0  501    0 -0.00000000000E+00 -0.00000000000E+00 -0.13011526954E+03  0.13011526954E+03  0.00000000000E+00 0. -1.
         25    2    1    2    0    0  0.67751114753E+01 -0.33292987262E+01  0.40287860873E+03  0.42189257784E+03  0.12500074998E+03 0.  0.
          2    1    1    2  501    0 -0.25387106148E+02 -0.11984605221E+02 -0.11888771318E+03  0.12215737499E+03  0.00000000000E+00 0. -1.
          1    1    1    2  502    0  0.18611994672E+02  0.15313903947E+02  0.16937441902E+04  0.16939156720E+04  0.00000000000E+00 0. -1.
         22    1    3    3    0    0 -0.17585792810E+02 -0.19486596952E+02  0.10252549183E+02  0.28179821402E+02  0.00000000000E+00 0. -1.
         22    1    3    3    0    0  0.24360904285E+02  0.16157298226E+02  0.39262605955E+03  0.39371275643E+03  0.00000000000E+00 0. -1.
</event>
<event>
 7    1  0.6017574E-006  0.9753949E+02  0.7818608E-02  0.1379804E+00
          2   -1    0    0  502    0  0.00000000000E+00  0.00000000000E+00  0.33190855875E+03  0.33190855875E+03  0.00000000000E+00 0. -1.
          1   -1    0    0  501    0 -0.00000000000E+00 -0.00000000000E+00 -0.12019374525E+04  0.12019374525E+04  0.00000000000E+00 0. -1.
         25    2    1    2    0    0 -0.56480931081E+02  0.36197562568E+02 -0.92652780181E+03  0.93732558610E+03  0.12500051089E+03 0.  0.
          2    1    1    2  501    0 -0.39337972959E+02 -0.16535702740E+02 -0.26091257369E+03  0.26437903981E+03  0.00000000000E+00 0. -1.
          1    1    1    2  502    0  0.95818904041E+02 -0.19661859828E+02  0.31741148175E+03  0.33214138533E+03  0.00000000000E+00 0. -1.
         22    1    3    3    0    0 -0.73355418087E+02  0.58054879647E+02 -0.86300653551E+03  0.86806201780E+03  0.00000000000E+00 0.  1.
         22    1    3    3    0    0  0.16874487006E+02 -0.21857317079E+02 -0.63521266302E+02  0.69263568305E+02  0.00000000000E+00 0.  1.
</event>
<event>
 7    1  0.6017574E-006  0.6888003E+02  0.7818608E-02  0.1415409E+00
          2   -1    0    0  502    0  0.00000000000E+00  0.00000000000E+00  0.19746577921E+03  0.19746577921E+03  0.00000000000E+00 0. -1.
          1   -1    0    0  501    0 -0.00000000000E+00 -0.00000000000E+00 -0.20661390471E+04  0.20661390471E+04  0.00000000000E+00 0. -1.
         25    2    1    2    0    0  0.48848427352E+02 -0.19430079582E+02  0.77108938217E-01  0.13560598132E+03  0.12500111750E+03 0.  0.
          2    1    1    2  501    0 -0.12495896938E+02 -0.43786997042E+02 -0.19878368194E+04  0.19883582849E+04  0.00000000000E+00 0. -1.
          1    1    1    2  502    0 -0.36352530415E+02  0.63217076625E+02  0.11908644252E+03  0.13964056014E+03  0.00000000000E+00 0. -1.
         22    1    3    3    0    0 -0.77381804240E+01 -0.62686918933E+02  0.90831355022E+01  0.63812479909E+02  0.00000000000E+00 0.  1.
         22    1    3    3    0    0  0.56586607776E+02  0.43256839350E+02 -0.90060265639E+01  0.71793501410E+02  0.00000000000E+00 0.  1.
</event>
<event>
 7    1  0.6017574E-006  0.8193603E+02  0.7818608E-02  0.1357918E+00
          2   -1    0    0  502    0  0.00000000000E+00  0.00000000000E+00  0.95974799010E+03  0.95974799010E+03  0.00000000000E+00 0. -1.
          1   -1    0    0  501    0 -0.00000000000E+00 -0.00000000000E+00 -0.54550185373E+02  0.54550185373E+02  0.00000000000E+00 0. -1.
         25    2    1    2    0    0  0.36273830322E+02 -0.12135261926E+03  0.33827984224E+03  0.38222938911E+03  0.12499522096E+03 0.  0.
          2    1    1    2  501    0 -0.46401238283E+02  0.61292818929E+02  0.16929201010E+02  0.78717738873E+02  0.00000000000E+00 0. -1.
          1    1    1    2  502    0  0.10127407961E+02  0.60059800333E+02  0.54998876148E+03  0.55335104749E+03  0.00000000000E+00 0. -1.
         22    1    3    3    0    0  0.43470915611E+02  0.10380397118E+02  0.10714552816E+03  0.11609322699E+03  0.00000000000E+00 0.  1.
         22    1    3    3    0    0 -0.71970852890E+01 -0.13173301638E+03  0.23113431408E+03  0.26613616211E+03  0.00000000000E+00 0.  1.
</event>
<event>
 7    1  0.6017574E-006  0.4832128E+02  0.7818608E-02  0.1473797E+00
          2   -1    0    0  502    0  0.00000000000E+00  0.00000000000E+00  0.67616250786E+03  0.67616250786E+03  0.00000000000E+00 0. -1.
          1   -1    0    0  501    0 -0.00000000000E+00 -0.00000000000E+00 -0.19290095534E+03  0.19290095534E+03  0.00000000000E+00 0. -1.
         25    2    1    2    0    0  0.24905632493E+02 -0.33569280204E+02 -0.11898433958E+02  0.13234323077E+03  0.12500388353E+03 0.  0.
          2    1    1    2  501    0  0.23724003689E+02  0.34742425803E+02 -0.11612097674E+03  0.12350686516E+03  0.00000000000E+00 0. -1.
          1    1    1    2  502    0 -0.48629636182E+02 -0.11731455990E+01  0.61128096322E+03  0.61321336726E+03  0.00000000000E+00 0. -1.
         22    1    3    3    0    0  0.54781859787E+02  0.11315504135E+02 -0.42585265832E+02  0.70303610587E+02  0.00000000000E+00 0. -1.
         22    1    3    3    0    0 -0.29876227294E+02 -0.44884784339E+02  0.30686831873E+02  0.62039620187E+02  0.00000000000E+00 0. -1.
</event>
<event>
 7    1  0.6017574E-006  0.1074133E+03  0.7818608E-02  0.1274346E+00
          2   -1    0    0  502    0  0.00000000000E+00  0.00000000000E+00  0.12606162252E+03  0.12606162252E+03  0.00000000000E+00 0. -1.
          1   -1    0    0  501    0 -0.00000000000E+00 -0.00000000000E+00 -0.50346968537E+03  0.50346968537E+03  0.00000000000E+00 0. -1.
         25    2    1    2    0    0  0.11283246368E+02  0.16476978716E+03 -0.43050510779E+02  0.21155395398E+03  0.12500133822E+03 0.  0.
          2    1    1    2  501    0  0.52525276145E+02 -0.89672313510E+02 -0.29339698068E+03  0.31125844040E+03  0.00000000000E+00 0. -1.
          1    1    1    2  502    0 -0.63808522513E+02 -0.75097473651E+02 -0.40960571388E+02  0.10671891352E+03  0.00000000000E+00 0. -1.
         22    1    3    3    0    0  0.55372037601E+02  0.10347972851E+03  0.12201984651E+02  0.11799578463E+03  0.00000000000E+00 0. -1.
         22    1    3    3    0    0 -0.44088791233E+02  0.61290058654E+02 -0.55252495429E+02  0.93558169357E+02  0.00000000000E+00 0. -1.
</event>
<event>
 7    1  0.6017574E-006  0.5729611E+02  0.7818608E-02  0.1410671E+00
          2   -1    0    0  502    0  0.00000000000E+00  0.00000000000E+00  0.10179743789E+04  0.10179743789E+04  0.00000000000E+00 0. -1.
          1   -1    0    0  501    0 -0.00000000000E+00 -0.00000000000E+00 -0.51236213638E+03  0.51236213638E+03  0.00000000000E+00 0. -1.
         25    2    1    2    0    0 -0.84395296994E+01  0.29042343377E+02  0.56301492113E+03  0.57751683029E+03  0.12500081795E+03 0.  0.
          2    1    1    2  501    0 -0.57261748733E+02 -0.19840943173E+01 -0.50064763990E+03  0.50391557213E+03  0.00000000000E+00 0. -1.
          1    1    1    2  502    0  0.65701278433E+02 -0.27058249060E+02  0.44324496130E+03  0.44890411287E+03  0.00000000000E+00 0. -1.
         22    1    3    3    0    0 -0.19921504228E+02  0.74858618920E+02  0.27698386445E+03  0.28761213521E+03  0.00000000000E+00 0. -1.
         22    1    3    3    0    0  0.11481974529E+02 -0.45816275543E+02  0.28603105668E+03  0.28990469508E+03  0.00000000000E+00 0. -1.
</event>
<event>
 7    1  0.6017574E-006  0.7366463E+02  0.7818608E-02  0.1358087E+00
          2   -1    0    0  502    0  0.00000000000E+00  0.00000000000E+00  0.32684745783E+04  0.32684745783E+04  0.00000000000E+00 0. -1.
          1   -1    0    0  501    0 -0.00000000000E+00 -0.00000000000E+00 -0.22655933460E+03  0.22655933460E+03  0.00000000000E+00 0. -1.
         25    2    1    2    0    0  0.23810232967E+02  0.10274689068E+03  0.29402766503E+03  0.33645373764E+03  0.12499999613E+03 0.  0.
          2    1    1    2  501    0 -0.58403563102E+02 -0.44610746286E+02 -0.19836996674E+03  0.21154606726E+03  0.00000000000E+00 0. -1.
          1    1    1    2  502    0  0.34593330135E+02 -0.58136144398E+02  0.29462575454E+04  0.29470341080E+04  0.00000000000E+00 0. -1.
         22    1    3    3    0    0 -0.15930762695E+02  0.11852731015E+03  0.19762918630E+03  0.23099741931E+03  0.00000000000E+00 0.  1.
         22    1    3    3    0    0  0.39740995662E+02 -0.15780419465E+02  0.96398478734E+02  0.10545631834E+03  0.00000000000E+00 0.  1.
</event>
<event>
 7    1  0.6017574E-006  0.9250673E+02  0.7818608E-02  0.1383128E+00
          2   -1    0    0  502    0  0.00000000000E+00  0.00000000000E+00  0.45650504901E+02  0.45650504901E+02  0.00000000000E+00 0. -1.
          1   -1    0    0  501    0 -0.00000000000E+00 -0.00000000000E+00 -0.14126255904E+04  0.14126255904E+04  0.00000000000E+00 0. -1.
         25    2    1    2    0    0  0.10642749090E+03  0.18632116894E+02 -0.10677086162E+04  0.10804167921E+04  0.12499915551E+03 0.  0.
          2    1    1    2  501    0 -0.80951058604E+02  0.16987869284E+02 -0.31920016581E+03  0.32974294146E+03  0.00000000000E+00 0. -1.
          1    1    1    2  502    0 -0.25476432299E+02 -0.35619986177E+02  0.19933696476E+02  0.48116361803E+02  0.00000000000E+00 0. -1.
         22    1    3    3    0    0  0.49761214238E+02  0.26550175494E+02 -0.13983918957E+03  0.15078491038E+03  0.00000000000E+00 0.  1.
         22    1    3    3    0    0  0.56666276666E+02 -0.79180586007E+01 -0.92786942663E+03  0.92963188168E+03  0.00000000000E+00 0.  1.
</event>
<event>
 7    1  0.6017574E-006  0.5813080E+02  0.7818608E-02  0.1423956E+00
          2   -1    0    0  502    0  0.00000000000E+00  0.00000000000E+00  0.60674910546E+03  0.60674910546E+03  0.00000000000E+00 0. -1.
          1   -1    0    0  501    0 -0.00000000000E+00 -0.00000000000E+00 -0.82590344385E+03  0.82590344385E+03  0.00000000000E+00 0. -1.
         25    2    1    2    0    0  0.16894991113E+01 -0.90093026288E+02  0.14190477775E+03  0.20948018868E+03  0.12500150282E+03 0.  0.
          2    1    1    2  501    0 -0.30024989138E+02  0.40631184059E+02 -0.78942017484E+03  0.79103514811E+03  0.00000000000E+00 0. -1.
          1    1    1    2  502    0  0.28335490026E+02  0.49461842229E+02  0.42836105871E+03  0.43213721252E+03  0.00000000000E+00 0. -1.
         22    1    3    3    0    0 -0.47663161036E+02 -0.87219498834E+02  0.11884716581E+03  0.15493116768E+03  0.00000000000E+00 0.  1.
         22    1    3    3    0    0  0.49352660147E+02 -0.28735274539E+01  0.23057611939E+02  0.54549020999E+02  0.00000000000E+00 0.  1.
</event>
<event>
 7    1  0.6017574E-006  0.5568000E+03  0.7818608E-02  0.1186438E+00
          2   -1    0    0  502    0  0.00000000000E+00  0.00000000000E+00  0.28452709486E+04  0.28452709486E+04  0.00000000000E+00 0. -1.
          1   -1    0    0  501    0 -0.00000000000E+00 -0.00000000000E+00 -0.27802093693E+03  0.27802093693E+03  0.00000000000E+00 0. -1.
         25    2    1    2    0    0 -0.12351324764E+03 -0.54848652586E+03  0.14017005293E+04  0.15154144681E+04  0.12499457921E+03 0.  0.
          2    1    1    2  501    0 -0.42013902459E+02  0.21385415459E+02 -0.16265526843E+03  0.16934946219E+03  0.00000000000E+00 0. -1.
          1    1    1    2  502    0  0.16552715010E+03  0.52710111041E+03  0.13282047508E+04  0.14385279552E+04  0.00000000000E+00 0. -1.
         22    1    3    3    0    0 -0.11740448710E+03 -0.35527415330E+03  0.10406103434E+04  0.11058360748E+04  0.00000000000E+00 0. -1.
         22    1    3    3    0    0 -0.61087605416E+01 -0.19321237257E+03  0.36109018588E+03  0.40957839323E+03  0.00000000000E+00 0. -1.
</event>
<event>
 7    1  0.6017574E-006  0.1247350E+03  0.7818608E-02  0.1251965E+00
          2   -1    0    0  502    0  0.00000000000E+00  0.00000000000E+00  0.87824080352E+03  0.87824080352E+03  0.00000000000E+00 0. -1.
          1   -1    0    0  501    0 -0.00000000000E+00 -0.00000000000E+00 -0.21254624120E+04  0.21254624120E+04  0.00000000000E+00 0. -1.
         25    2    1    2    0    0 -0.17317963683E+03  0.14236577594E+03 -0.37134666592E+03  0.45142441818E+03  0.12500583292E+03 0.  0.
          2    1    1    2  501    0  0.98797700654E+02 -0.67379453700E+02 -0.17086514259E+04  0.17128311860E+04  0.00000000000E+00 0. -1.
          1    1    1    2  502    0  0.74381936179E+02 -0.74986322240E+02  0.83277648336E+03  0.83944761134E+03  0.00000000000E+00 0. -1.
         22    1    3    3    0    0 -0.40184344582E+02  0.71687567116E+02 -0.49133209743E+02  0.95749470641E+02  0.00000000000E+00 0.  1.
         22    1    3    3    0    0 -0.13299529225E+03  0.70678208825E+02 -0.32221345618E+03  0.35567494754E+03  0.00000000000E+00 0.  1.
</event>
<event>
 7    1  0.6017574E-006  0.6375034E+02  0.7818608E-02  0.1429872E+00
          2   -1    0    0  502    0  0.00000000000E+00  0.00000000000E+00  0.17636018475E+04  0.17636018475E+04  0.00000000000E+00 0. -1.
          1   -1    0    0  501    0 -0.00000000000E+00 -0.00000000000E+00 -0.43407354817E+02  0.43407354817E+02  0.00000000000E+00 0. -1.
         25    2    1    2    0    0  0.11538954236E+02  0.46345272089E+02  0.47495487729E+03  0.49344608044E+03  0.12500346847E+03 0.  0.
          2    1    1    2  501    0 -0.42245720366E+02  0.12438711620E+02 -0.18728819609E+02  0.47855941323E+02  0.00000000000E+00 0. -1.
          1    1    1    2  502    0  0.30706766130E+02 -0.58783983710E+02  0.12639684350E+04  0.12657071806E+04  0.00000000000E+00 0. -1.
         22    1    3    3    0    0  0.24002087269E+02  0.51318243259E+02  0.47657443309E+03  0.47993004965E+03  0.00000000000E+00 0.  1.
         22    1    3    3    0    0 -0.12463133033E+02 -0.49729711694E+01 -0.16195557994E+01  0.13516030787E+02  0.00000000000E+00 0.  1.
</event>
<event>
 7    1  0.6017574E-006  0.8604657E+02  0.7818608E-02  0.1435536E+00
          2   -1    0    0  502    0  0.00000000000E+00  0.00000000000E+00  0.10495468100E+03  0.10495468100E+03  0.00000000000E+00 0. -1.
          1   -1    0    0  501    0 -0.00000000000E+00 -0.00000000000E+00 -0.11053715636E+04  0.11053715636E+04  0.00000000000E+00 0. -1.
         25    2    1    2    0    0 -0.64521962039E+02 -0.44344133947E+02 -0.32934242146E+03  0.36086151725E+03  0.12500047303E+03 0.  0.
          2    1    1    2  501    0  0.15362787342E+02 -0.27226114725E+02 -0.73872998047E+03  0.73939114182E+03  0.00000000000E+00 0. -1.
          1    1    1    2  502    0  0.49159174698E+02  0.71570248673E+02  0.67655519284E+02  0.11007358558E+03  0.00000000000E+00 0. -1.
         22    1    3    3    0    0 -0.83119431120E+02  0.89202639642E+00 -0.27709122900E+03  0.28929083071E+03  0.00000000000E+00 0. -1.
         22    1    3    3    0    0  0.18597469080E+02 -0.45236160344E+02 -0.52251192455E+02  0.71570686540E+02  0.00000000000E+00 0. -1.
</event>
<event>
 7    1  0.6017574E-006  0.6608180E+02  0.7818608E-02  0.1392763E+00
          2   -1    0    0  502    0  0.00000000000E+00  0.00000000000E+00  0.24508567675E+04  0.24508567675E+04  0.00000000000E+00 0. -1.
          1   -1    0    0  501    0 -0.00000000000E+00 -0.00000000000E+00 -0.33268132595E+03  0.33268132595E+03  0.00000000000E+00 0. -1.
         25    2    1    2    0    0  0.55708976943E+02  0.36700337573E+02  0.89820308851E+03  0.90930947187E+03  0.12499809016E+03 0.  0.
          2    1    1    2  501    0 -0.47074444935E+02  0.31649528987E+02 -0.32389511317E+03  0.32882478676E+03  0.00000000000E+00 0. -1.
          1    1    1    2  502    0 -0.86345320073E+01 -0.68349866559E+02  0.15438674662E+04  0.15454038348E+04  0.00000000000E+00 0. -1.
         22    1    3    3    0    0  0.86401220200E+02  0.50595235218E+02  0.77995578433E+03  0.78635620058E+03  0.00000000000E+00 0. -1.
         22    1    3    3    0    0 -0.30692243257E+02 -0.13894897645E+02  0.11824730418E+03  0.12295327130E+03  0.00000000000E+00 0. -1.
</event>
<event>
 7    1  0.6017574E-006  0.1058764E+03  0.7818608E-02  0.1308216E+00
          2   -1    0    0  502    0  0.00000000000E+00  0.00000000000E+00  0.50516756354E+03  0.50516756354E+03  0.00000000000E+00 0. -1.
          1   -1    0    0  501    0 -0.00000000000E+00 -0.00000000000E+00 -0.68073885264E+03  0.68073885264E+03  0.00000000000E+00 0. -1.
         25    2    1    2    0    0  0.75120388525E+02 -0.49779710752E+02 -0.27577833703E+02  0.15654533222E+03  0.12499924701E+03 0.  0.
          2    1    1    2  501    0 -0.10770923507E+03 -0.15368437380E+02 -0.58057879069E+03  0.59068536496E+03  0.00000000000E+00 0. -1.
          1    1    1    2  502    0  0.32588846548E+02  0.65148148132E+02  0.43258533529E+03  0.43867571900E+03  0.00000000000E+00 0. -1.
         22    1    3    3    0    0  0.62077041213E+02 -0.81249437288E+02  0.13547486262E+02  0.10314341709E+03  0.00000000000E+00 0. -1.
         22    1    3    3    0    0  0.13043347311E+02  0.31469726536E+02 -0.41125319965E+02  0.53401915130E+02  0.00000000000E+00 0. -1.
</event>
<event>
 7    1  0.6017574E-006  0.1575396E+03  0.7818608E-02  0.1337031E+00
          2   -1    0    0  502    0  0.00000000000E+00  0.00000000000E+00  0.60480515910E+03  0.60480515910E+03  0.00000000000E+00 0. -1.
          1   -1    0    0  501    0 -0.00000000000E+00 -0.00000000000E+00 -0.11504913511E+04  0.11504913511E+04  0.00000000000E+00 0. -1.
         25    2    1    2    0    0  0.13675424931E+03 -0.10554892539E+03 -0.22412855691E+03  0.30935451546E+03  0.12499722341E+03 0.  0.
          2    1    1    2  501    0 -0.14004155247E+03  0.67808358174E+02 -0.87625018433E+03  0.88995729976E+03  0.00000000000E+00 0. -1.
          1    1    1    2  502    0  0.32873031552E+01  0.37740567221E+02  0.55469254928E+03  0.55598469493E+03  0.00000000000E+00 0. -1.
         22    1    3    3    0    0  0.15130883281E+03 -0.11330801898E+03 -0.17525878224E+03  0.25777647449E+03  0.00000000000E+00 0.  1.
         22    1    3    3    0    0 -0.14554583497E+02  0.77590935838E+01 -0.48869774673E+02  0.51578040972E+02  0.00000000000E+00 0.  1.
</event>
<event>
 7    1  0.6017574E-006  0.4942180E+02  0.7818608E-02  0.1503950E+00
          2   -1    0    0  502    0  0.00000000000E+00  0.00000000000E+00  0.11143306200E+04  0.11143306200E+04  0.00000000000E+00 0. -1.
          1   -1    0    0  501    0 -0.00000000000E+00 -0.00000000000E+00 -0.18023154196E+02  0.18023154196E+02  0.00000000000E+00 0. -1.
         25    2    1    2    0    0 -0.37066845316E+01 -0.20449339083E+02  0.47911848789E+03  0.49559224644E+03  0.12500093728E+03 0.  0.
          2    1    1    2  501    0  0.27679658229E+01 -0.33213126472E+02  0.23808432486E+02  0.40958697029E+02  0.00000000000E+00 0. -1.
          1    1    1    2  502    0  0.93871870869E+00  0.53662465556E+02  0.59338054540E+03  0.59580283069E+03  0.00000000000E+00 0. -1.
         22    1    3    3    0    0  0.12941947743E+02  0.71880889904E+01  0.45517072364E+03  0.45541140773E+03  0.00000000000E+00 0.  1.
         22    1    3    3    0    0 -0.16648632274E+02 -0.27637428074E+02  0.23947764249E+02  0.40180838713E+02  0.00000000000E+00 0.  1.
</event>
<event>
 7    1  0.6017574E-006  0.9298885E+02  0.7818608E-02  0.1463796E+00
          2   -1    0    0  502    0  0.00000000000E+00  0.00000000000E+00  0.83495713752E+03  0.83495713752E+03  0.00000000000E+00 0. -1.
          1   -1    0    0  501    0 -0.00000000000E+00 -0.00000000000E+00 -0.26254876517E+03  0.26254876517E+03  0.00000000000E+00 0. -1.
         25    2    1    2    0    0 -0.25392519793E+02 -0.69655612135E+02 -0.17313319547E+02  0.14635987491E+03  0.12499911034E+03 0.  0.
          2    1    1    2  501    0  0.26499360656E+02  0.93117259794E+02 -0.16755019966E+03  0.19350997285E+03  0.00000000000E+00 0. -1.
          1    1    1    2  502    0 -0.11068408637E+01 -0.23461647659E+02  0.75727189155E+03  0.75763605494E+03  0.00000000000E+00 0. -1.
         22    1    3    3    0    0  0.10910063572E+02 -0.97307595576E+02 -0.10775908668E+01  0.97923229349E+02  0.00000000000E+00 0. -1.
         22    1    3    3    0    0 -0.36302583365E+02  0.27651983441E+02 -0.16235728680E+02  0.48436645559E+02  0.00000000000E+00 0. -1.
</event>
<event>
 7    1  0.6017574E-006  0.4935454E+02  0.7818608E-02  0.1454798E+00
          2   -1    0    0  502    0  0.00000000000E+00  0.00000000000E+00  0.13890125075E+04  0.13890125075E+04  0.00000000000E+00 0. -1.
          1   -1    0    0  501    0 -0.00000000000E+00 -0.00000000000E+00 -0.53050325771E+03  0.53050325771E+03  0.00000000000E+00 0. -1.
         25    2    1    2    0    0 -0.29412545252E+01 -0.51005507810E+01  0.19170994241E+03  0.22893437587E+03  0.12499431923E+03 0.  0.
          2    1    1    2  501    0 -0.27081225943E+02  0.41580306021E+02 -0.51021345202E+03  0.51262079676E+03  0.00000000000E+00 0. -1.
          1    1    1    2  502    0  0.30022480469E+02 -0.36479755240E+02  0.11770127594E+04  0.11779605926E+04  0.00000000000E+00 0. -1.
         22    1    3    3    0    0  0.17005159281E+02  0.25495930925E+01 -0.13965767336E+02  0.22152167487E+02  0.00000000000E+00 0.  1.
         22    1    3    3    0    0 -0.19946413806E+02 -0.76501438736E+01  0.20567570974E+03  0.20678220838E+03  0.00000000000E+00 0.  1.
</event>
<event>
 7    1  0.6017574E-006  0.6799811E+02  0.7818608E-02  0.1458429E+00
          2   -1    0    0  502    0  0.00000000000E+00  0.00000000000E+00  0.48578861397E+03  0.48578861397E+03  0.00000000000E+00 0. -1.
          1   -1    0    0  501    0 -0.00000000000E+00 -0.00000000000E+00 -0.48620150781E+03  0.48620150781E+03  0.00000000000E+00 0. -1.
         25    2    1    2    0    0 -0.97438785070E+01  0.77509534000E+02  0.13111491428E+03  0.19727242692E+03  0.12499047423E+03 0.  0.
          2    1    1    2  501    0  0.36395013021E+02 -0.57386638776E+02 -0.44969617488E+03  0.45480157540E+03  0.00000000000E+00 0. -1.
          1    1    1    2  502    0 -0.26651134514E+02 -0.20122895224E+02  0.31816836676E+03  0.31991611946E+03  0.00000000000E+00 0. -1.
         22    1    3    3    0    0  0.14918302113E+02  0.10649095098E+03  0.82489527450E+02  0.13552638310E+03  0.00000000000E+00 0. -1.
         22    1    3    3    0    0 -0.24662180620E+02 -0.28981416978E+02  0.48625386828E+02  0.61746043818E+02  0.00000000000E+00 0. -1.
</event>
<event>
 7    1  0.6017574E-006  0.3852751E+03  0.7818608E-02  0.1201982E+00
          2   -1    0    0  502    0  0.00000000000E+00  0.00000000000E+00  0.88593427177E+03  0.88593427177E+03  0.00000000000E+00 0. -1.
          1   -1    0    0  501    0 -0.00000000000E+00 -0.00000000000E+00 -0.10967152157E+04  0.10967152157E+04  0.00000000000E+00 0. -1.
         25    2    1    2    0    0 -0.32194347580E+03 -0.12381020264E+03  0.84040561800E+02  0.37638244730E+03  0.12499745084E+03 0.  0.
          2    1    1    2  501    0 -0.54472330313E+02 -0.18264497415E+02 -0.88781234770E+03  0.88966937194E+03  0.00000000000E+00 0. -1.
          1    1    1    2  502    0  0.37641580612E+03  0.14207470005E+03  0.59299084196E+03  0.71659766825E+03  0.00000000000E+00 0. -1.
         22    1    3    3    0    0 -0.26785912211E+03 -0.50611046103E+02  0.84413932513E+02  0.28536940846E+03  0.00000000000E+00 0. -1.
         22    1    3    3    0    0 -0.54084353696E+02 -0.73199156535E+02 -0.37337071316E+00  0.91013038835E+02  0.00000000000E+00 0. -1.
</event>
<event>
 7    1  0.6017574E-006  0.4487149E+02  0.7818608E-02  0.1520576E+00
          2   -1    0    0  502    0  0.00000000000E+00  0.00000000000E+00  0.23286471417E+02  0.23286471417E+02  0.00000000000E+00 0. -1.
          1   -1    0    0  501    0 -0.00000000000E+00 -0.00000000000E+00 -0.14421251644E+04  0.14421251644E+04  0.00000000000E+00 0. -1.
         25    2    1    2    0    0  0.49453297198E+02  0.27659613678E+02 -0.47369415201E+03  0.49317807906E+03  0.12501114024E+03 0.  0.
          2    1    1    2  501    0 -0.19230307199E+02 -0.40422152151E+02 -0.93747334924E+03  0.93854144055E+03  0.00000000000E+00 0. -1.
          1    1    1    2  502    0 -0.30222990000E+02  0.12762538473E+02 -0.76711917530E+01  0.33692116225E+02  0.00000000000E+00 0. -1.
         22    1    3    3    0    0  0.27438402754E+02  0.66310630535E+02 -0.14822432168E+03  0.16468277143E+03  0.00000000000E+00 0.  1.
         22    1    3    3    0    0  0.22014894444E+02 -0.38651016857E+02 -0.32546983032E+03  0.32849530763E+03  0.00000000000E+00 0.  1.
</event>
<event>
 7    1  0.6017574E-006  0.5831125E+02  0.7818608E-02  0.1516358E+00
          2   -1    0    0  502    0  0.00000000000E+00  0.00000000000E+00  0.13078608276E+04  0.13078608276E+04  0.00000000000E+00 0. -1.
          1   -1    0    0  501    0 -0.00000000000E+00 -0.00000000000E+00 -0.27687821097E+03  0.27687821097E+03  0.00000000000E+00 0. -1.
         25    2    1    2    0    0  0.32481335034E+02  0.27412429160E+02 -0.21243964767E+02  0.13372672816E+03  0.12500021355E+03 0.  0.
          2    1    1    2  501    0 -0.67131487314E+01  0.25086716831E+02 -0.19786076611E+03  0.19955774225E+03  0.00000000000E+00 0. -1.
          1    1    1    2  502    0 -0.25768186302E+02 -0.52499145991E+02  0.12500873475E+04  0.12514545681E+04  0.00000000000E+00 0. -1.
         22    1    3    3    0    0  0.50030221426E+01 -0.33499057510E+02  0.33278244678E+02  0.47483246029E+02  0.00000000000E+00 0.  1.
         22    1    3    3    0    0  0.27478312891E+02  0.60911486670E+02 -0.54522209445E+02  0.86243482133E+02  0.00000000000E+00 0.  1.
</event>
<event>
 7    1  0.6017574E-006  0.6099676E+02  0.7818608E-02  0.1472998E+00
          2   -1    0    0  502    0  0.00000000000E+00  0.00000000000E+00  0.16529604465E+04  0.16529604465E+04  0.00000000000E+00 0. -1.
          1   -1    0    0  501    0 -0.00000000000E+00 -0.00000000000E+00 -0.51562765791E+03  0.51562765791E+03  0.00000000000E+00 0. -1.
         25    2    1    2    0    0 -0.56202386776E+02  0.74701283114E+02  0.11410175352E+04  0.11516419904E+04  0.12497707157E+03 0.  0.
          2    1    1    2  501    0  0.41619869244E+02 -0.44521888807E+02 -0.50793740785E+03  0.51158070956E+03  0.00000000000E+00 0. -1.
          1    1    1    2  502    0  0.14582517532E+02 -0.30179394306E+02  0.50425266123E+03  0.50536540445E+03  0.00000000000E+00 0. -1.
         22    1    3    3    0    0 -0.68920903602E+02  0.27067965366E+02  0.29365987726E+03  0.30285126583E+03  0.00000000000E+00 0. -1.
         22    1    3    3    0    0  0.12718516826E+02  0.47633317748E+02  0.84735765798E+03  0.84879072460E+03  0.00000000000E+00 0. -1.
</event>
<event>
 7    1  0.6017574E-006  0.1782138E+03  0.7818608E-02  0.1306061E+00
          2   -1    0    0  502    0  0.00000000000E+00  0.00000000000E+00  0.14726065924E+04  0.14726065924E+04  0.00000000000E+00 0. -1.
          1   -1    0    0  501    0 -0.00000000000E+00 -0.00000000000E+00 -0.97433205337E+03  0.97433205337E+03  0.00000000000E+00 0. -1.
         25    2    1    2    0    0  0.21386041582E+02  0.21730712282E+03 -0.33916106387E+02  0.25388021630E+03  0.12500045420E+03 0.  0.
          2    1    1    2  501    0 -0.23797076056E+02 -0.17323780906E+03 -0.82086476642E+03  0.83928338722E+03  0.00000000000E+00 0. -1.
          1    1    1    2  502    0  0.24110344741E+01 -0.44069313765E+02  0.13530554118E+04  0.13537750423E+04  0.00000000000E+00 0. -1.
         22    1    3    3    0    0 -0.18137459425E+02 -0.93583872956E+01 -0.94704154507E+01  0.22499680353E+02  0.00000000000E+00 0. -1.
         22    1    3    3    0    0  0.39523501007E+02  0.22666551012E+03 -0.24445690936E+02  0.23138053594E+03  0.00000000000E+00 0. -1.
</event>
<event>
 7    1  0.6017574E-006  0.1283180E+03  0.7818608E-02  0.1441215E+00
          2   -1    0    0  502    0  0.00000000000E+00  0.00000000000E+00  0.11990675340E+04  0.11990675340E+04  0.00000000000E+00 0. -1.
          1   -1    0    0  501    0 -0.00000000000E+00 -0.00000000000E+00 -0.14709397033E+04  0.14709397033E+04  0.00000000000E+00 0. -1.
         25    2    1    2    0    0 -0.82728797305E+02 -0.71287752685E+02  0.16793386099E+03  0.23612030318E+03  0.12500007328E+03 0.  0.
          2    1    1    2  501    0  0.93582764837E+02  0.88193519786E+02 -0.14338676784E+04  0.14396222942E+04  0.00000000000E+00 0. -1.
          1    1    1    2  502    0 -0.10853967532E+02 -0.16905767101E+02  0.99406164816E+03  0.99426463978E+03  0.00000000000E+00 0. -1.
         22    1    3    3    0    0  0.14135276251E+02  0.17911305322E+02  0.12749647362E+00  0.22817474628E+02  0.00000000000E+00 0.  1.
         22    1    3    3    0    0 -0.96864073556E+02 -0.89199058007E+02  0.16780636451E+03  0.21330282855E+03  0.00000000000E+00 0.  1.
</event>
<event>
 7    1  0.6017574E-006  0.8802897E+02  0.7818608E-02  0.1335781E+00
          2   -1    0    0  502    0  0.00000000000E+00  0.00000000000E+00  0.79586296138E+03  0.79586296138E+03  0.00000000000E+00 0. -1.
          1   -1    0    0  501    0 -0.00000000000E+00 -0.00000000000E+00 -0.18984000292E+03  0.18984000292E+03  0.00000000000E+00 0. -1.
         25    2    1    2    0    0 -0.26185504387E+02 -0.61913968970E+02 -0.73984257407E+02  0.16005311710E+03  0.12499723899E+03 0.  0.
          2    1    1    2  501    0  0.88725568080E+02 -0.36335343577E-01 -0.42092743832E+02  0.98204006205E+02  0.00000000000E+00 0. -1.
          1    1    1    2  502    0 -0.62540063693E+02  0.61950304314E+02  0.72209995970E+03  0.72744584099E+03  0.00000000000E+00 0. -1.
         22    1    3    3    0    0 -0.70649312423E+02 -0.65664695815E+02 -0.58573532619E+02  0.11284518752E+03  0.00000000000E+00 0.  1.
         22    1    3    3    0    0  0.44463808036E+02  0.37507268452E+01 -0.15410724788E+02  0.47207929582E+02  0.00000000000E+00 0.  1.
</event>
<event>
 7    1  0.6017574E-006  0.1175904E+03  0.7818608E-02  0.1368486E+00
          2   -1    0    0  502    0  0.00000000000E+00  0.00000000000E+00  0.13580552934E+04  0.13580552934E+04  0.00000000000E+00 0. -1.
          1   -1    0    0  501    0 -0.00000000000E+00 -0.00000000000E+00 -0.36240775376E+03  0.36240775376E+03  0.00000000000E+00 0. -1.
         25    2    1    2    0    0 -0.11393121045E+02  0.11290916493E+03  0.18674045722E+02  0.16985909617E+03  0.12500043935E+03 0.  0.
          2    1    1    2  501    0  0.49914294967E+02 -0.10786438402E+03 -0.27418781127E+03  0.29883961924E+03  0.00000000000E+00 0. -1.
          1    1    1    2  502    0 -0.38521173922E+02 -0.50447809085E+01  0.12511613052E+04  0.12517643318E+04  0.00000000000E+00 0. -1.
         22    1    3    3    0    0 -0.27364423563E+02  0.85592581905E+02 -0.43696060958E+02  0.99921206445E+02  0.00000000000E+00 0. -1.
         22    1    3    3    0    0  0.15971302518E+02  0.27316583020E+02  0.62370106680E+02  0.69937889725E+02  0.00000000000E+00 0. -1.
</event>
<event>
 7    1  0.6017574E-006  0.6474412E+02  0.7818608E-02  0.1477620E+00
          2   -1    0    0  502    0  0.00000000000E+00  0.00000000000E+00  0.18635893362E+04  0.18635893362E+04  0.00000000000E+00 0. -1.
          1   -1    0    0  501    0 -0.00000000000E+00 -0.00000000000E+00 -0.48070409326E+03  0.48070409326E+03  0.00000000000E+00 0. -1.
         25    2    1    2    0    0 -0.13231287977E+02 -0.54204212823E+02  0.76252379299E+03  0.77471324767E+03  0.12499967028E+03 0.  0.
          2    1    1    2  501    0  0.43207869300E+02  0.48276954195E+02 -0.47218367995E+03  0.47660781769E+03  0.00000000000E+00 0. -1.
          1    1    1    2  502    0 -0.29976581323E+02  0.59272586288E+01  0.10925451298E+04  0.10929723640E+04  0.00000000000E+00 0. -1.
         22    1    3    3    0    0 -0.41170511800E+02  0.26977259799E+02  0.34108392593E+03  0.34461721970E+03  0.00000000000E+00 0. -1.
         22    1    3    3    0    0  0.27939223822E+02 -0.81181472622E+02  0.42143986706E+03  0.43009602797E+03  0.00000000000E+00 0. -1.
</event>
<event>
 7    1  0.6017574E-006  0.9151131E+02  0.7818608E-02  0.1471754E+00
          2   -1    0    0  502    0  0.00000000000E+00  0.00000000000E+00  0.35598796596E+04  0.35598796596E+04  0.00000000000E+00 0. -1.
          1   -1    0    0  501    0 -0.00000000000E+00 -0.00000000000E+00 -0.80042792760E+01  0.80042792760E+01  0.00000000000E+00 0. -1.
         25    2    1    2    0    0  0.83435348446E+02  0.33123931724E+02  0.27828050916E+04  0.27870559342E+04  0.12497179736E+03 0.  0.
          2    1    1    2  501    0 -0.91295274682E+02 -0.11998070659E+02  0.37595798604E+03  0.38707000419E+03  0.00000000000E+00 0. -1.
          1    1    1    2  502    0  0.78599262360E+01 -0.21125861065E+02  0.39311230268E+03  0.39375800050E+03  0.00000000000E+00 0. -1.
         22    1    3    3    0    0  0.78211855126E+02 -0.11495112762E+02  0.83520357393E+03  0.83893637530E+03  0.00000000000E+00 0.  1.
         22    1    3    3    0    0  0.52234933206E+01  0.44619044487E+02  0.19476015177E+04  0.19481195589E+04  0.00000000000E+00 0.  1.
</event>
<event>
 7    1  0.6017574E-006  0.4540928E+02  0.7818608E-02  0.1581131E+00
          2   -1    0    0  502    0  0.00000000000E+00  0.00000000000E+00  0.96930621299E+03  0.96930621299E+03  0.00000000000E+00 0. -1.
          1   -1    0    0  501    0 -0.00000000000E+00 -0.00000000000E+00 -0.97652474533E+03  0.97652474533E+03  0.00000000000E+00 0. -1.
         25    2    1    2    0    0  0.55332713352E+02 -0.12961614630E+02  0.15977974908E+03  0.21068211675E+03  0.12501069345E+03 0.  0.
          2    1    1    2  501    0 -0.10563186738E+02  0.19274116198E+02 -0.95029461435E+03  0.95054875021E+03  0.00000000000E+00 0. -1.
          1    1    1    2  502    0 -0.44769526614E+02 -0.63125015672E+01  0.78329633292E+03  0.78460009136E+03  0.00000000000E+00 0. -1.
         22    1    3    3    0    0  0.78339452748E+02  0.32783751011E+02  0.11277556594E+03  0.14117426274E+03  0.00000000000E+00 0. -1.
         22    1    3    3    0    0 -0.23006739396E+02 -0.45745365641E+02  0.47004183146E+02  0.69507854006E+02  0.00000000000E+00 0. -1.
</event>
<event>
 7    1  0.6017574E-006  0.5539661E+02  0.7818608E-02  0.1503395E+00
          2   -1    0    0  502    0  0.00000000000E+00  0.00000000000E+00  0.57492501771E+03  0.57492501771E+03  0.00000000000E+00 0. -1.
          1   -1    0    0  501    0 -0.00000000000E+00 -0.00000000000E+00 -0.25164876743E+04  0.25164876743E+04  0.00000000000E+00 0. -1.
         25    2    1    2    0    0  0.67796238482E+02  0.12482496261E+02 -0.21270086600E+02  0.14431853186E+03  0.12499311736E+03 0.  0.
          2    1    1    2  501    0 -0.45192710039E+02 -0.31973799466E+02 -0.24329444334E+04  0.24335741864E+04  0.00000000000E+00 0. -1.
          1    1    1    2  502    0 -0.22603528443E+02  0.19491303205E+02  0.51265186339E+03  0.51351997374E+03  0.00000000000E+00 0. -1.
         22    1    3    3    0    0  0.24851632514E+02  0.34502738585E+01  0.52667464554E+02  0.58338408025E+02  0.00000000000E+00 0.  1.
         22    1    3    3    0    0  0.42944605968E+02  0.90322224027E+01 -0.73937551154E+02  0.85980123831E+02  0.00000000000E+00 0.  1.
</event>
<event>
 7    1  0.6017574E-006  0.9022390E+02  0.7818608E-02  0.1306373E+00
          2   -1    0    0  502    0  0.00000000000E+00  0.00000000000E+00  0.13715090887E+04  0.13715090887E+04  0.00000000000E+00 0. -1.
          1   -1    0    0  501    0 -0.00000000000E+00 -0.00000000000E+00 -0.83666468294E+02  0.83666468294E+02  0.00000000000E+00 0. -1.
         25    2    1    2    0    0  0.13551175733E+03 -0.61565386436E+02  0.70115631884E+03  0.72759799405E+03  0.12499969721E+03 0.  0.
          2    1    1    2  501    0 -0.49423789620E+02  0.73634478528E+02 -0.38281431196E+02  0.96593040034E+02  0.00000000000E+00 0. -1.
          1    1    1    2  502    0 -0.86087967710E+02 -0.12069092092E+02  0.62496773278E+03  0.63098452294E+03  0.00000000000E+00 0. -1.
         22    1    3    3    0    0  0.14501098263E+03 -0.85611765984E+02  0.59899737530E+03  0.62221814115E+03  0.00000000000E+00 0. -1.
         22    1    3    3    0    0 -0.94992253000E+01  0.24046379548E+02  0.10215894355E+03  0.10537985290E+03  0.00000000000E+00 0. -1.
</event>
<event>
 7    1  0.6017574E-006  0.2539786E+02  0.7818608E-02  0.1680499E+00
          2   -1    0    0  502    0  0.00000000000E+00  0.00000000000E+00  0.15161009467E+04  0.15161009467E+04  0.00000000000E+00 0. -1.
          1   -1    0    0  501    0 -0.00000000000E+00 -0.00000000000E+00 -0.36718940565E+03  0.36718940565E+03  0.00000000000E+00 0. -1.
         25    2    1    2    0    0  0.16299811125E+01 -0.46905508049E+02  0.40862553538E+02  0.13963367401E+03  0.12500012445E+03 0.  0.
          2    1    1    2  501    0  0.23804823161E+01  0.25167684566E+02 -0.31721527788E+03  0.31822101056E+03  0.00000000000E+00 0. -1.
          1    1    1    2  502    0 -0.40104634287E+01  0.21737823483E+02  0.14252642654E+04  0.14254356678E+04  0.00000000000E+00 0. -1.
         22    1    3    3    0    0  0.62416299142E+02 -0.12522670603E+02  0.20810678959E+02  0.66975339016E+02  0.00000000000E+00 0.  1.
         22    1    3    3    0    0 -0.60786318029E+02 -0.34382837447E+02  0.20051874579E+02  0.72658334997E+02  0.00000000000E+00 0.  1.
</event>
<event>
 7    1  0.6017574E-006  0.1630127E+03  0.7818608E-02  0.1262014E+00
          2   -1    0    0  502    0  0.00000000000E+00  0.00000000000E+00  0.63323953216E+03  0.63323953216E+03  0.00000000000E+00 0. -1.
          1   -1    0    0  501    0 -0.00000000000E+00 -0.00000000000E+00 -0.45679461229E+03  0.45679461229E+03  0.00000000000E+00 0. -1.
         25    2    1    2    0    0  0.75772751912E+02  0.16189171521E+03  0.31261440142E+02  0.22035025435E+03  0.12500607811E+03 0.  0.
          2    1    1    2  501    0  0.47501797799E+02 -0.55671895333E+02 -0.34526980958E+03  0.35294053626E+03  0.00000000000E+00 0. -1.
          1    1    1    2  502    0 -0.12327454971E+03 -0.10621981988E+03  0.49045328931E+03  0.51674335384E+03  0.00000000000E+00 0. -1.
         22    1    3    3    0    0  0.10614150120E+03  0.86990201715E+02  0.22230503787E+02  0.13902341087E+03  0.00000000000E+00 0.  1.
         22    1    3    3    0    0 -0.30368749290E+02  0.74901513500E+02  0.90309363551E+01  0.81326843474E+02  0.00000000000E+00 0.  1.
</event>
<event>
 7    1  0.6017574E-006  0.9759994E+02  0.7818608E-02  0.1360510E+00
          2   -1    0    0  502    0  0.00000000000E+00  0.00000000000E+00  0.29857106291E+04  0.29857106291E+04  0.00000000000E+00 0. -1.
          1   -1    0    0  501    0 -0.00000000000E+00 -0.00000000000E+00 -0.78125030160E+02  0.78125030160E+02  0.00000000000E+00 0. -1.
         25    2    1    2    0    0 -0.38670443895E+02  0.43994585464E+02  0.53178078553E+03  0.54940943243E+03  0.12501597421E+03 0.  0.
          2    1    1    2  501    0  0.88581789034E+02 -0.47430608351E+02 -0.32496735313E+02  0.10560508398E+03  0.00000000000E+00 0. -1.
          1    1    1    2  502    0 -0.49911345139E+02  0.34360228876E+01  0.24083015487E+04  0.24088211428E+04  0.00000000000E+00 0. -1.
         22    1    3    3    0    0 -0.14615489782E+02  0.33432524787E+01  0.47633629859E+03  0.47657219729E+03  0.00000000000E+00 0.  1.
         22    1    3    3    0    0 -0.24054954114E+02  0.40651332985E+02  0.55444486941E+02  0.72837235141E+02  0.00000000000E+00 0.  1.
</event>
<event>
 7    1  0.6017574E-006  0.3941394E+02  0.7818608E-02  0.1569569E+00
          2   -1    0    0  502    0  0.00000000000E+00  0.00000000000E+00  0.70567108322E+02  0.70567108322E+02  0.00000000000E+00 0. -1.
          1   -1    0    0  501    0 -0.00000000000E+00 -0.00000000000E+00 -0.78767216086E+03  0.78767216086E+03  0.00000000000E+00 0. -1.
         25    2    1    2    0    0 -0.32326002989E+02 -0.54747382208E+02 -0.78225512933E+02  0.16058190632E+03  0.12500028575E+03 0.  0.
          2    1    1    2  501    0  0.17645094817E+02  0.20710254830E+02 -0.65618478051E+03  0.65674860502E+03  0.00000000000E+00 0. -1.
          1    1    1    2  502    0  0.14680908172E+02  0.34037127378E+02  0.17305240905E+02  0.40908757836E+02  0.00000000000E+00 0. -1.
         22    1    3    3    0    0  0.69117763927E+01  0.29392319954E+02 -0.58261232759E+02  0.65620517887E+02  0.00000000000E+00 0. -1.
         22    1    3    3    0    0 -0.39237779382E+02 -0.84139702162E+02 -0.19964280174E+02  0.94961388435E+02  0.00000000000E+00 0. -1.
</event>
<event>
 7    1  0.6017574E-006  0.2893044E+03  0.7818608E-02  0.1192939E+00
          2   -1    0    0  502    0  0.00000000000E+00  0.00000000000E+00  0.32144109605E+04  0.32144109605E+04  0.00000000000E+00 0. -1.
          1   -1    0    0  501    0 -0.00000000000E+00 -0.00000000000E+00 -0.76478270911E+02  0.76478270911E+02  0.00000000000E+00 0. -1.
         25    2    1    2    0    0  0.55556457852E+02 -0.24472715169E+03  0.75806960591E+03  0.80825302266E+03  0.12500208974E+03 0.  0.
          2    1    1    2  501    0 -0.57810054781E+02 -0.61550442617E+02  0.13183964975E+01  0.84452339160E+02  0.00000000000E+00 0. -1.
          1    1    1    2  502    0  0.22535969293E+01  0.30627759431E+03  0.23785446871E+04  0.23981838695E+04  0.00000000000E+00 0. -1.
         22    1    3    3    0    0  0.16653483796E+02  0.62449934888E+01  0.15988765250E+02  0.23916084136E+02  0.00000000000E+00 0.  1.
         22    1    3    3    0    0  0.38902974056E+02 -0.25097214518E+03  0.74208084066E+03  0.78433693852E+03  0.00000000000E+00 0.  1.
</event>
<event>
 7    1  0.6017574E-006  0.2093327E+03  0.7818608E-02  0.1163147E+00
          2   -1    0    0  502    0  0.00000000000E+00  0.00000000000E+00  0.40950247274E+03  0.40950247274E+03  0.00000000000E+00 0. -1.
          1   -1    0    0  501    0 -0.00000000000E+00 -0.00000000000E+00 -0.46212025068E+03  0.46212025068E+03  0.00000000000E+00 0. -1.
         25    2    1    2    0    0  0.92265852236E+02 -0.40502821012E+02 -0.48832656434E+02  0.16781592531E+03  0.12499636177E+03 0.  0.
          2    1    1    2  501    0  0.13022159025E+03 -0.98555778440E+02 -0.27917987502E+03  0.32343825786E+03  0.00000000000E+00 0. -1.
          1    1    1    2  502    0 -0.22248744249E+03  0.13905859945E+03  0.27539475352E+03  0.38036854025E+03  0.00000000000E+00 0. -1.
         22    1    3    3    0    0  0.11409934801E+03 -0.21181465168E+02 -0.66474094038E+02  0.13373900277E+03  0.00000000000E+00 0. -1.
         22    1    3    3    0    0 -0.21833495774E+02 -0.19321355845E+02  0.17641437603E+02  0.34076922545E+02  0.00000000000E+00 0. -1.
</event>
<event>
 7    1  0.6017574E-006  0.9986794E+02  0.7818608E-02  0.1317934E+00
          2   -1    0    0  502    0  0.00000000000E+00  0.00000000000E+00  0.18373027728E+03  0.18373027728E+03  0.00000000000E+00 0. -1.
          1   -1    0    0  501    0 -0.00000000000E+00 -0.00000000000E+00 -0.41352358772E+03  0.41352358772E+03  0.00000000000E+00 0. -1.
         25    2    1    2    0    0  0.46125821960E+02  0.26536238254E+02 -0.12447310084E+03  0.18425560803E+03  0.12499925146E+03 0.  0.
          2    1    1    2  501    0 -0.11051331419E+03 -0.55831854775E+02 -0.23480529553E+03  0.26545040108E+03  0.00000000000E+00 0. -1.
          1    1    1    2  502    0  0.64387492229E+02  0.29295616520E+02  0.12948508593E+03  0.14754785591E+03  0.00000000000E+00 0. -1.
         22    1    3    3    0    0  0.26901486299E+02 -0.47680739071E+01  0.20845789547E+02  0.34365264959E+02  0.00000000000E+00 0.  1.
         22    1    3    3    0    0  0.19224335662E+02  0.31304312162E+02 -0.14531889039E+03  0.14989034307E+03  0.00000000000E+00 0.  1.
</event>
<event>
 7    1  0.6017574E-006  0.1035361E+03  0.7818608E-02  0.1389709E+00
          2   -1    0    0  502    0  0.00000000000E+00  0.00000000000E+00  0.65483496279E+02  0.65483496279E+02  0.00000000000E+00 0. -1.
          1   -1    0    0  501    0 -0.00000000000E+00 -0.00000000000E+00 -0.14393127413E+04  0.14393127413E+04  0.00000000000E+00 0. -1.
         25    2    1    2    0    0  0.30113385575E+02 -0.63394456098E+02 -0.46785474420E+03  0.48932660576E+03  0.12500716933E+03 0.  0.
          2    1    1    2  501    0  0.13469701408E+02 -0.34570646102E+02 -0.90747852880E+03  0.90823666666E+03  0.00000000000E+00 0. -1.
          1    1    1    2  502    0 -0.43583086983E+02  0.97965102200E+02  0.15040279625E+01  0.10723296517E+03  0.00000000000E+00 0. -1.
         22    1    3    3    0    0 -0.18495559682E+02 -0.20804646319E+02 -0.14497791013E+02  0.31386382089E+02  0.00000000000E+00 0. -1.
         22    1    3    3    0    0  0.48608945257E+02 -0.42589809779E+02 -0.45335695319E+03  0.45794022367E+03  0.00000000000E+00 0. -1.
</event>
<event>
 7    1  0.6017574E-006  0.8744736E+02  0.7818608E-02  0.1386902E+00
          2   -1    0    0  502    0  0.00000000000E+00  0.00000000000E+00  0.14521499017E+04  0.14521499017E+04  0.00000000000E+00 0. -1.
          1   -1    0    0  501    0 -0.00000000000E+00 -0.00000000000E+00 -0.16050992950E+03  0.16050992950E+03  0.00000000000E+00 0. -1.
         25    2    1    2    0    0 -0.87121967809E+02  0.31417054324E+02  0.36832444402E+03  0.39983153005E+03  0.12500035111E+03 0.  0.
          2    1    1    2  501    0  0.13931959663E+00 -0.44932663185E+02 -0.13940544853E+03  0.14646788970E+03  0.00000000000E+00 0. -1.
          1    1    1    2  502    0  0.86982648213E+02  0.13515608861E+02  0.10627209767E+04  0.10663604114E+04  0.00000000000E+00 0. -1.
         22    1    3    3    0    0 -0.28867655883E+02 -0.39127981712E+02  0.54947324009E+02  0.73372671512E+02  0.00000000000E+00 0. -1.
         22    1    3    3    0    0 -0.58254311926E+02  0.70545036037E+02  0.31337712001E+03  0.32645885853E+03  0.00000000000E+00 0. -1.
</event>
<event>
 7    1  0.6017574E-006  0.7537117E+02  0.7818608E-02  0.1413135E+00
          2   -1    0    0  502    0  0.00000000000E+00  0.00000000000E+00  0.10382315386E+03  0.10382315386E+03  0.00000000000E+00 0. -1.
          1   -1    0    0  501    0 -0.00000000000E+00 -0.00000000000E+00 -0.89027153627E+03  0.89027153627E+03  0.00000000000E+00 0. -1.
         25    2    1    2    0    0  0.40899260154E+02  0.67350763924E+01 -0.17758287378E+03  0.22108430088E+03  0.12499792118E+03 0.  0.
          2    1    1    2  501    0  0.36585848092E+02 -0.21338146940E+02 -0.67117703145E+03  0.67251204327E+03  0.00000000000E+00 0. -1.
          1    1    1    2  502    0 -0.77485108246E+02  0.14603070548E+02  0.62311522824E+02  0.10049834599E+03  0.00000000000E+00 0. -1.
         22    1    3    3    0    0  0.46659486706E+01  0.45535292967E+02 -0.15800480292E+03  0.16450152501E+03  0.00000000000E+00 0.  1.
         22    1    3    3    0    0  0.36233311483E+02 -0.38800216575E+02 -0.19578070862E+02  0.56582775877E+02  0.00000000000E+00 0.  1.
</event>
<event>
 7    1  0.6017574E-006  0.5443908E+02  0.7818608E-02  0.1489310E+00
          2   -1    0    0  502    0  0.00000000000E+00  0.00000000000E+00  0.33569418655E+04  0.33569418655E+04  0.00000000000E+00 0. -1.
          1   -1    0    0  501    0 -0.00000000000E+00 -0.00000000000E+00 -0.39114883481E+02  0.39114883481E+02  0.00000000000E+00 0. -1.
         25    2    1    2    0    0  0.74162965295E+02 -0.35948065660E+02  0.95873981687E+03  0.97036076511E+03  0.12500227666E+03 0.  0.
          2    1    1    2  501    0 -0.33423515173E+02  0.18429082151E+01 -0.24521683633E+02  0.41495067723E+02  0.00000000000E+00 0. -1.
          1    1    1    2  502    0 -0.40739450122E+02  0.34105157445E+02  0.23836088488E+04  0.23842009161E+04  0.00000000000E+00 0. -1.
         22    1    3    3    0    0  0.33644012057E+01  0.13109170361E+02  0.79885687674E+01  0.15715812864E+02  0.00000000000E+00 0.  1.
         22    1    3    3    0    0  0.70798564089E+02 -0.49057236021E+02  0.95075124810E+03  0.95464495225E+03  0.00000000000E+00 0.  1.
</event>
<event>
 7    1  0.6017574E-006  0.6064834E+02  0.7818608E-02  0.1487664E+00
          2   -1    0    0  502    0  0.00000000000E+00  0.00000000000E+00  0.14914053130E+03  0.14914053130E+03  0.00000000000E+00 0. -1.
          1   -1    0    0  501    0 -0.00000000000E+00 -0.00000000000E+00 -0.12202896797E+04  0.12202896797E+04  0.00000000000E+00 0. -1.
         25    2    1    2    0    0  0.51505678048E+02  0.28810564206E+02 -0.41626966132E+03  0.43862609421E+03  0.12501814310E+03 0.  0.
          2    1    1    2  501    0 -0.19801737219E+02  0.23058766954E+02 -0.78583702843E+03  0.78642459956E+03  0.00000000000E+00 0. -1.
          1    1    1    2  502    0 -0.31703940829E+02 -0.51869331161E+02  0.13095754132E+03  0.14437951727E+03  0.00000000000E+00 0. -1.
         22    1    3    3    0    0 -0.41206596047E+02  0.50395106359E+00 -0.11663590019E+03  0.12370194314E+03  0.00000000000E+00 0. -1.
         22    1    3    3    0    0  0.92712274095E+02  0.28306613143E+02 -0.29963376113E+03  0.31492415107E+03  0.00000000000E+00 0. -1.
</event>
<event>
 7    1  0.6017574E-006  0.5212849E+02  0.7818608E-02  0.1471613E+00
          2   -1    0    0  502    0  0.00000000000E+00  0.00000000000E+00  0.12976128763E+03  0.12976128763E+03  0.00000000000E+00 0. -1.
          1   -1    0    0  501    0 -0.00000000000E+00 -0.00000000000E+00 -0.16234242199E+03  0.16234242199E+03  0.00000000000E+00 0. -1.
         25    2    1    2    0    0  0.36770594266E+02  0.32617707281E+02  0.55925169244E+02  0.14549836160E+03  0.12500462888E+03 0.  0.
          2    1    1    2  501    0 -0.28384118330E+02  0.27627584260E+02 -0.74213515164E+02  0.84122454900E+02  0.00000000000E+00 0. -1.
          1    1    1    2  502    0 -0.83864759362E+01 -0.60245291541E+02 -0.14292788447E+02  0.62482893124E+02  0.00000000000E+00 0. -1.
         22    1    3    3    0    0  0.76853229084E+02  0.13336764756E+02  0.63246227454E+02  0.10042098088E+03  0.00000000000E+00 0. -1.
         22    1    3    3    0    0 -0.40082634817E+02  0.19280942525E+02 -0.73210582101E+01  0.45077380712E+02  0.00000000000E+00 0. -1.
</event>
<event>
 7    1  0.6017574E-006  0.1956022E+03  0.7818608E-02  0.1306628E+00
          2   -1    0    0  502    0  0.00000000000E+00  0.00000000000E+00  0.14026989801E+04  0.14026989801E+04  0.00000000000E+00 0. -1.
          1   -1    0    0  501    0 -0.00000000000E+00 -0.00000000000E+00 -0.34564071915E+03  0.34564071915E+03  0.00000000000E+00 0. -1.
         25    2    1    2    0    0 -0.15551705905E+03  0.81577925404E+02 -0.41548659058E+02  0.21951768166E+03  0.12498483077E+03 0.  0.
          2    1    1    2  501    0  0.64628775927E+00  0.39999009546E+02 -0.20579348031E+03  0.20964564148E+03  0.00000000000E+00 0. -1.
          1    1    1    2  502    0  0.15487077129E+03 -0.12157693495E+03  0.13044004003E+04  0.13191763761E+04  0.00000000000E+00 0. -1.
         22    1    3    3    0    0 -0.10450378489E+03  0.93691392283E+02 -0.73177476355E+02  0.15828474687E+03  0.00000000000E+00 0.  1.
         22    1    3    3    0    0 -0.51013274158E+02 -0.12113466879E+02  0.31628817297E+02  0.61232934796E+02  0.00000000000E+00 0.  1.
</event>
<event>
 7    1  0.6017574E-006  0.2200540E+03  0.7818608E-02  0.1277282E+00
          2   -1    0    0  502    0  0.00000000000E+00  0.00000000000E+00  0.76524589185E+03  0.76524589185E+03  0.00000000000E+00 0. -1.
          1   -1    0    0  501    0 -0.00000000000E+00 -0.00000000000E+00 -0.57387137036E+03  0.57387137036E+03  0.00000000000E+00 0. -1.
         25    2    1    2    0    0  0.14192709398E+03 -0.16757763525E+03  0.17082980938E+03  0.30501428767E+03  0.12500131227E+03 0.  0.
          2    1    1    2  501    0 -0.10376906394E+03  0.19461903492E+03 -0.48164411623E+03  0.52974110855E+03  0.00000000000E+00 0. -1.
          1    1    1    2  502    0 -0.38158030033E+02 -0.27041399670E+02  0.50218882835E+03  0.50436186599E+03  0.00000000000E+00 0. -1.
         22    1    3    3    0    0  0.24913421065E+02 -0.58697225702E+02 -0.90246278454E+01  0.64400984170E+02  0.00000000000E+00 0.  1.
         22    1    3    3    0    0  0.11701367291E+03 -0.10888040954E+03  0.17985443723E+03  0.24061330350E+03  0.00000000000E+00 0.  1.
</event>
<event>
 7    1  0.6017574E-006  0.7154683E+02  0.7818608E-02  0.1380129E+00
          2   -1    0    0  502    0  0.00000000000E+00  0.00000000000E+00  0.29081472929E+03  0.29081472929E+03  0.00000000000E+00 0. -1.
          1   -1    0    0  501    0 -0.00000000000E+00 -0.00000000000E+00 -0.27766720396E+04  0.27766720396E+04  0.00000000000E+00 0. -1.
         25    2    1    2    0    0  0.35993251959E+02 -0.77993861667E+02 -0.13795657720E+04  0.13878778774E+04  0.12499890675E+03 0.  0.
          2    1    1    2  501    0  0.29787384951E+02  0.49790988601E+02 -0.13878671936E+04  0.13890794714E+04  0.00000000000E+00 0. -1.
          1    1    1    2  502    0 -0.65780636910E+02  0.28202873066E+02  0.28157565532E+03  0.29052942004E+03  0.00000000000E+00 0. -1.
         22    1    3    3    0    0 -0.26727578289E+02 -0.79720867140E+02 -0.95593539536E+03  0.95962610438E+03  0.00000000000E+00 0.  1.
         22    1    3    3    0    0  0.62720830248E+02  0.17270054721E+01 -0.42363037663E+03  0.42825177303E+03  0.00000000000E+00 0.  1.
</event>
<event>
 7    1  0.6017574E-006  0.1839912E+03  0.7818608E-02  0.1301589E+00
          2   -1    0    0  502    0  0.00000000000E+00  0.00000000000E+00  0.21540610108E+04  0.21540610108E+04  0.00000000000E+00 0. -1.
          1   -1    0    0  501    0 -0.00000000000E+00 -0.00000000000E+00 -0.99426656018E+03  0.99426656018E+03  0.00000000000E+00 0. -1.
         25    2    1    2    0    0 -0.72711553294E+02  0.14956859160E+03  0.10257384752E+04  0.10466241434E+04  0.12499977791E+03 0.  0.
          2    1    1    2  501    0 -0.42127848169E+02  0.14450999297E+02 -0.97434520732E+03  0.97536258386E+03  0.00000000000E+00 0. -1.
          1    1    1    2  502    0  0.11483940146E+03 -0.16401959089E+03  0.11084011828E+04  0.11263408437E+04  0.00000000000E+00 0. -1.
         22    1    3    3    0    0 -0.21863745939E+02  0.10115086710E+01  0.23319010994E+02  0.31981601117E+02  0.00000000000E+00 0. -1.
         22    1    3    3    0    0 -0.50847807354E+02  0.14855708293E+03  0.10024194642E+04  0.10146425423E+04  0.00000000000E+00 0. -1.
</event>
<event>
 7    1  0.6017574E-006  0.1531866E+03  0.7818608E-02  0.1335135E+00
          2   -1    0    0  502    0  0.00000000000E+00  0.00000000000E+00  0.11589965712E+04  0.11589965712E+04  0.00000000000E+00 0. -1.
          1   -1    0    0  501    0 -0.00000000000E+00 -0.00000000000E+00 -0.47447268443E+02  0.47447268443E+02  0.00000000000E+00 0. -1.
         25    2    1    2    0    0  0.11468099784E+03  0.44417763901E+02  0.68576519718E+03  0.70783095321E+03  0.12500433453E+03 0.  0.
          2    1    1    2  501    0 -0.15417247237E+03 -0.47463617955E+02  0.15090341425E+03  0.22089315675E+03  0.00000000000E+00 0. -1.
          1    1    1    2  502    0  0.39491474533E+02  0.30458540543E+01  0.27488069137E+03  0.27771972972E+03  0.00000000000E+00 0. -1.
         22    1    3    3    0    0  0.62710811554E+02  0.10660506418E+01  0.57221453004E+03  0.57564159921E+03  0.00000000000E+00 0. -1.
         22    1    3    3    0    0  0.51970186285E+02  0.43351713259E+02  0.11355066713E+03  0.13218935400E+03  0.00000000000E+00 0. -1.
</event>
<event>
 7    1  0.6017574E-006  0.1430319E+03  0.7818608E-02  0.1300229E+00
          2   -1    0    0  502    0  0.00000000000E+00  0.00000000000E+00  0.20454060107E+04  0.20454060107E+04  0.00000000000E+00 0. -1.
          1   -1    0    0  501    0 -0.00000000000E+00 -0.00000000000E+00 -0.22159823507E+03  0.22159823507E+03  0.00000000000E+00 0. -1.
         25    2    1    2    0    0  0.14262093335E+03  0.13032977381E+03  0.17461682101E+03  0.28886467926E+03  0.12500075269E+03 0.  0.
          2    1    1    2  501    0 -0.54106770923E+02 -0.20927488939E+02 -0.15653454273E+03  0.16693880772E+03  0.00000000000E+00 0. -1.
          1    1    1    2  502    0 -0.88514162424E+02 -0.10940228487E+03  0.18057254973E+04  0.18112007588E+04  0.00000000000E+00 0. -1.
         22    1    3    3    0    0  0.75227689001E+02  0.10308954201E+02  0.11736459329E+03  0.13978529067E+03  0.00000000000E+00 0. -1.
         22    1    3    3    0    0  0.67393244346E+02  0.12002081961E+03  0.57252227713E+02  0.14907938858E+03  0.00000000000E+00 0. -1.
</event>
<event>
 7    1  0.6017574E-006  0.6851553E+02  0.7818608E-02  0.1402868E+00
          2   -1    0    0  502    0  0.00000000000E+00  0.00000000000E+00  0.26180262701E+04  0.26180262701E+04  0.00000000000E+00 0. -1.
          1   -1    0    0  501    0 -0.00000000000E+00 -0.00000000000E+00 -0.16051415087E+02  0.16051415087E+02  0.00000000000E+00 0. -1.
         25    2    1    2    0    0 -0.36603920171E+02 -0.10657531997E+03  0.10736943246E+04  0.10868039417E+04  0.12500063677E+03 0.  0.
          2    1    1    2  501    0  0.67488008702E+01  0.50036825228E+02  0.63628938450E+02  0.81227286058E+02  0.00000000000E+00 0. -1.
          1    1    1    2  502    0  0.29855119301E+02  0.56538494737E+02  0.14646515919E+04  0.14660464574E+04  0.00000000000E+00 0. -1.
         22    1    3    3    0    0 -0.79383927476E+02 -0.93355186415E+02  0.83528803949E+03  0.84422929806E+03  0.00000000000E+00 0. -1.
         22    1    3    3    0    0  0.42780007305E+02 -0.13220133550E+02  0.23840628514E+03  0.24257464367E+03  0.00000000000E+00 0. -1.
</event>
<event>
 7    1  0.6017574E-006  0.3544098E+02  0.7818608E-02  0.1570755E+00
          2   -1    0    0  502    0  0.00000000000E+00  0.00000000000E+00  0.75234537570E+03  0.75234537570E+03  0.00000000000E+00 0. -1.
          1   -1    0    0  501    0 -0.00000000000E+00 -0.00000000000E+00 -0.41710473610E+02  0.41710473610E+02  0.00000000000E+00 0. -1.
         25    2    1    2    0    0  0.26821818337E+02 -0.40501184724E+02  0.21105197425E+03  0.25005506918E+03  0.12499938354E+03 0.  0.
          2    1    1    2  501    0 -0.33392249772E+02  0.11194466239E+02 -0.75171759380E+01  0.36012030675E+02  0.00000000000E+00 0. -1.
          1    1    1    2  502    0  0.65704314352E+01  0.29306718485E+02  0.50710010378E+03  0.50798874945E+03  0.00000000000E+00 0. -1.
         22    1    3    3    0    0  0.26230278738E+02 -0.55078394359E+02  0.29226077179E+02  0.67644812330E+02  0.00000000000E+00 0. -1.
         22    1    3    3    0    0  0.59153959868E+00  0.14577209635E+02  0.18182589707E+03  0.18241025685E+03  0.00000000000E+00 0. -1.
</event>
<event>
 7    1  0.6017574E-006  0.4290487E+02  0.7818608E-02  0.1499815E+00
          2   -1    0    0  502    0  0.00000000000E+00  0.00000000000E+00  0.30680995395E+02  0.30680995395E+02  0.00000000000E+00 0. -1.
          1   -1    0    0  501    0 -0.00000000000E+00 -0.00000000000E+00 -0.11350936055E+04  0.11350936055E+04  0.00000000000E+00 0. -1.
         25    2    1    2    0    0 -0.94544085079E+01 -0.10725049320E+02 -0.66907255479E+03  0.68079926196E+03  0.12500055591E+03 0.  0.
          2    1    1    2  501    0  0.48907306617E+02  0.12526444091E+02 -0.44204289959E+03  0.44491657816E+03  0.00000000000E+00 0. -1.
          1    1    1    2  502    0 -0.39452898109E+02 -0.18013947711E+01  0.67028442963E+01  0.40058760764E+02  0.00000000000E+00 0. -1.
         22    1    3    3    0    0 -0.19961358405E+02 -0.64613200143E+02 -0.29058743056E+03  0.29835277149E+03  0.00000000000E+00 0.  1.
         22    1    3    3    0    0  0.10506949898E+02  0.53888150823E+02 -0.37848512424E+03  0.38244649046E+03  0.00000000000E+00 0.  1.
</event>
<event>
 7    1  0.6017574E-006  0.4970635E+02  0.7818608E-02  0.1515510E+00
          2   -1    0    0  502    0  0.00000000000E+00  0.00000000000E+00  0.14312257257E+04  0.14312257257E+04  0.00000000000E+00 0. -1.
          1   -1    0    0  501    0 -0.00000000000E+00 -0.00000000000E+00 -0.33754364427E+03  0.33754364427E+03  0.00000000000E+00 0. -1.
         25    2    1    2    0    0  0.28938741279E+02 -0.69949431183E+01  0.18390767071E+03  0.22435158383E+03  0.12500088737E+03 0.  0.
          2    1    1    2  501    0  0.49490681916E+01 -0.30236872570E+02 -0.31606419166E+03  0.31754579983E+03  0.00000000000E+00 0. -1.
          1    1    1    2  502    0 -0.33887809471E+02  0.37231815688E+02  0.12258386024E+04  0.12268719863E+04  0.00000000000E+00 0. -1.
         22    1    3    3    0    0  0.25713544075E+02  0.48985938755E+02  0.14739995499E+03  0.15744064048E+03  0.00000000000E+00 0.  1.
         22    1    3    3    0    0  0.32251972049E+01 -0.55980881873E+02  0.36507715723E+02  0.66910943347E+02  0.00000000000E+00 0.  1.
</event>
<event>
 7    1  0.6017574E-006  0.9462065E+02  0.7818608E-02  0.1296480E+00
          2   -1    0    0  502    0  0.00000000000E+00  0.00000000000E+00  0.89532154037E+03  0.89532154037E+03  0.00000000000E+00 0. -1.
          1   -1    0    0  501    0 -0.00000000000E+00 -0.00000000000E+00 -0.29567430915E+03  0.29567430915E+03  0.00000000000E+00 0. -1.
         25    2    1    2    0    0 -0.30532016629E+02 -0.17245791359E+01  0.25078814609E+02  0.13110699340E+03  0.12499967426E+03 0.  0.
          2    1    1    2  501    0 -0.16265648860E+02  0.89317211218E+02 -0.23101158741E+03  0.24821057405E+03  0.00000000000E+00 0. -1.
          1    1    1    2  502    0  0.46797665488E+02 -0.87592632082E+02  0.80558000402E+03  0.81167828206E+03  0.00000000000E+00 0. -1.
         22    1    3    3    0    0 -0.57189527453E+02 -0.16172912810E+02 -0.31241418169E+02  0.67143364291E+02  0.00000000000E+00 0.  1.
         22    1    3    3    0    0  0.26657510825E+02  0.14448333674E+02  0.56320232777E+02  0.63963629114E+02  0.00000000000E+00 0.  1.
</event>
<event>
 7    1  0.6017574E-006  0.4546394E+02  0.7818608E-02  0.1544809E+00
          2   -1    0    0  502    0  0.00000000000E+00  0.00000000000E+00  0.37947358868E+03  0.37947358868E+03  0.00000000000E+00 0. -1.
          1   -1    0    0  501    0 -0.00000000000E+00 -0.00000000000E+00 -0.49261581455E+02  0.49261581455E+02  0.00000000000E+00 0. -1.
         25    2    1    2    0    0  0.18761735749E+02  0.14926953659E+02  0.11802310909E+03  0.17357756714E+03  0.12499960344E+03 0.  0.
          2    1    1    2  501    0 -0.45863054353E+02 -0.20210858164E+02  0.10018480154E+02  0.51110355965E+02  0.00000000000E+00 0. -1.
          1    1    1    2  502    0  0.27101318604E+02  0.52839045045E+01  0.20217041797E+03  0.20404724703E+03  0.00000000000E+00 0. -1.
         22    1    3    3    0    0  0.62475432214E+02  0.40135780770E+02  0.86835248912E+02  0.11425594506E+03  0.00000000000E+00 0.  1.
         22    1    3    3    0    0 -0.43713696465E+02 -0.25208827111E+02  0.31187860183E+02  0.59321622076E+02  0.00000000000E+00 0.  1.
</event>
<event>
 7    1  0.6017574E-006  0.1882105E+03  0.7818608E-02  0.1380872E+00
          2   -1    0    0  502    0  0.00000000000E+00  0.00000000000E+00  0.21221395220E+04  0.21221395220E+04  0.00000000000E+00 0. -1.
          1   -1    0    0  501    0 -0.00000000000E+00 -0.00000000000E+00 -0.43145245431E+03  0.43145245431E+03  0.00000000000E+00 0. -1.
         25    2    1    2    0    0 -0.27622975465E+02 -0.20407761903E+03  0.55943341818E+03  0.60909619946E+03  0.12498690916E+03 0.  0.
          2    1    1    2  501    0  0.60569838801E+01  0.21069825840E+02 -0.40080031249E+03  0.40139944582E+03  0.00000000000E+00 0. -1.
          1    1    1    2  502    0  0.21565991585E+02  0.18300779319E+03  0.15320539620E+04  0.15430963310E+04  0.00000000000E+00 0. -1.
         22    1    3    3    0    0 -0.15273145455E+02 -0.22012253787E+03  0.51250697874E+03  0.55798799620E+03  0.00000000000E+00 0. -1.
         22    1    3    3    0    0 -0.12349830010E+02  0.16044918839E+02  0.46926439444E+02  0.51108203262E+02  0.00000000000E+00 0. -1.
</event>
<event>
 7    1  0.6017574E-006  0.7637692E+02  0.7818608E-02  0.1468638E+00
          2   -1    0    0  502    0  0.00000000000E+00  0.00000000000E+00  0.35548951926E+03  0.35548951926E+03  0.00000000000E+00 0. -1.
          1   -1    0    0  501    0 -0.00000000000E+00 -0.00000000000E+00 -0.57013896449E+03  0.57013896449E+03  0.00000000000E+00 0. -1.
         25    2    1    2    0    0 -0.10282694253E+02  0.82104972007E+02 -0.41940204441E+02  0.15565922382E+03  0.12499541184E+03 0.  0.
          2    1    1    2  501    0 -0.23868066713E+02 -0.13892061882E+02 -0.46605217418E+03  0.46686968530E+03  0.00000000000E+00 0. -1.
          1    1    1    2  502    0  0.34150760966E+02 -0.68212910125E+02  0.29334293338E+03  0.30309957464E+03  0.00000000000E+00 0. -1.
         22    1    3    3    0    0 -0.50049887387E+02  0.40125594803E+01 -0.45769667009E+02  0.67940814531E+02  0.00000000000E+00 0.  1.
         22    1    3    3    0    0  0.39767193134E+02  0.78092412526E+02  0.38294625677E+01  0.87718409285E+02  0.00000000000E+00 0.  1.
</event>
<event>
 7    1  0.6017574E-006  0.2561850E+03  0.7818608E-02  0.1182440E+00
          2   -1    0    0  502    0  0.00000000000E+00  0.00000000000E+00  0.32532810618E+04  0.32532810618E+04  0.00000000000E+00 0. -1.
          1   -1    0    0  501    0 -0.00000000000E+00 -0.00000000000E+00 -0.91914385053E+03  0.91914385053E+03  0.00000000000E+00 0. -1.
         25    2    1    2    0    0  0.11399093052E+03  0.33865912257E+03  0.28711424415E+03  0.47512600865E+03  0.12500480536E+03 0.  0.
          2    1    1    2  501    0 -0.38153286871E+02 -0.10011128684E+03 -0.81617679350E+03  0.82317829254E+03  0.00000000000E+00 0. -1.
          1    1    1    2  502    0 -0.75837643645E+02 -0.23854783572E+03  0.28631997606E+04  0.28741206111E+04  0.00000000000E+00 0. -1.
         22    1    3    3    0    0  0.10003419517E+03  0.32892548781E+03  0.29795854619E+03  0.45494847179E+03  0.00000000000E+00 0. -1.
         22    1    3    3    0    0  0.13956735343E+02  0.97336347556E+01 -0.10844302040E+02  0.20177536860E+02  0.00000000000E+00 0. -1.
</event>
<event>
 7    1  0.6017574E-006  0.8983923E+02  0.7818608E-02  0.1381322E+00
          2   -1    0    0  502    0  0.00000000000E+00  0.00000000000E+00  0.19254860439E+04  0.19254860439E+04  0.00000000000E+00 0. -1.
          1   -1    0    0  501    0 -0.00000000000E+00 -0.00000000000E+00 -0.31161503354E+03  0.31161503354E+03  0.00000000000E+00 0. -1.
         25    2    1    2    0    0 -0.64289404770E+01 -0.82293311285E+02  0.14793829220E+03  0.21053420550E+03  0.12500157210E+03 0.  0.
          2    1    1    2  501    0 -0.45080707284E+02  0.78570416159E+01 -0.27726734247E+03  0.28101811770E+03  0.00000000000E+00 0. -1.
          1    1    1    2  502    0  0.51509647761E+02  0.74436269669E+02  0.17432000606E+04  0.17455487542E+04  0.00000000000E+00 0. -1.
         22    1    3    3    0    0 -0.60046051228E+02 -0.22130721569E+02  0.38697896301E+02  0.74785187593E+02  0.00000000000E+00 0. -1.
         22    1    3    3    0    0  0.53617110751E+02 -0.60162589716E+02  0.10924039590E+03  0.13574901790E+03  0.00000000000E+00 0. -1.
</event>
<event>
 7    1  0.6017574E-006  0.7224975E+02  0.7818608E-02  0.1478110E+00
          2   -1    0    0  502    0  0.00000000000E+00  0.00000000000E+00  0.65701398740E+03  0.65701398740E+03  0.00000000000E+00 0. -1.
          1   -1    0    0  501    0 -0.00000000000E+00 -0.00000000000E+00 -0.96490355128E+02  0.96490355128E+02  0.00000000000E+00 0. -1.
         25    2    1    2    0    0  0.40886542069E+02  0.29095049240E+02  0.11229610631E+03  0.17536701806E+03  0.12499977728E+03 0.  0.
          2    1    1    2  501    0 -0.54184038812E+02 -0.52923654334E+02 -0.42366072075E+02  0.86785409564E+02  0.00000000000E+00 0. -1.
          1    1    1    2  502    0  0.13297496743E+02  0.23828605094E+02  0.49059359804E+03  0.49135191490E+03  0.00000000000E+00 0. -1.
         22    1    3    3    0    0  0.11363708912E+02 -0.49324977507E+02  0.36809638317E+02  0.62586234583E+02  0.00000000000E+00 0. -1.
         22    1    3    3    0    0  0.29522833157E+02  0.78420026747E+02  0.75486467992E+02  0.11278078348E+03  0.00000000000E+00 0. -1.
</event>
<event>
 7    1  0.6017574E-006  0.1552109E+03  0.7818608E-02  0.1280590E+00
          2   -1    0    0  502    0  0.00000000000E+00  0.00000000000E+00  0.13349189349E+04  0.13349189349E+04  0.00000000000E+00 0. -1.
          1   -1    0    0  501    0 -0.00000000000E+00 -0.00000000000E+00 -0.15290708014E+03  0.15290708014E+03  0.00000000000E+00 0. -1.
         25    2    1    2    0    0 -0.49411852394E+02  0.13542545805E+03  0.55474502918E+03  0.58664296775E+03  0.12500535335E+03 0.  0.
          2    1    1    2  501    0  0.10946496903E+03 -0.11258912489E+03 -0.90033679657E+02  0.18101092221E+03  0.00000000000E+00 0. -1.
          1    1    1    2  502    0 -0.60053116635E+02 -0.22836333155E+02  0.71730050520E+03  0.72017212505E+03  0.00000000000E+00 0. -1.
         22    1    3    3    0    0  0.15095069663E+02  0.12275973456E+03  0.32737529352E+03  0.34996056401E+03  0.00000000000E+00 0. -1.
         22    1    3    3    0    0 -0.64506922057E+02  0.12665723491E+02  0.22736973566E+03  0.23668240374E+03  0.00000000000E+00 0. -1.
</event>
<event>
 7    1  0.6017574E-006  0.1162392E+03  0.7818608E-02  0.1379086E+00
          2   -1    0    0  502    0  0.00000000000E+00  0.00000000000E+00  0.20969764147E+04  0.20969764147E+04  0.00000000000E+00 0. -1.
          1   -1    0    0  501    0 -0.00000000000E+00 -0.00000000000E+00 -0.14778958766E+02  0.14778958766E+02  0.00000000000E+00 0. -1.
         25    2    1    2    0    0 -0.10625580965E+03 -0.25400751786E+02  0.91316712933E+03  0.92813639292E+03  0.12500984954E+03 0.  0.
          2    1    1    2  501    0  0.12203484633E+03 -0.69768072011E+01  0.54452429432E+03  0.55807516220E+03  0.00000000000E+00 0. -1.
          1    1    1    2  502    0 -0.15779036682E+02  0.32377558987E+02  0.62450603233E+03  0.62554381840E+03  0.00000000000E+00 0. -1.
         22    1    3    3    0    0  0.16835694058E+02 -0.15784187478E+02  0.39180497957E+02  0.45471887896E+02  0.00000000000E+00 0.  1.
         22    1    3    3    0    0 -0.12309150371E+03 -0.96165643083E+01  0.87398663138E+03  0.88266450502E+03  0.00000000000E+00 0.  1.
</event>
<event>
 7    1  0.6017574E-006  0.1094282E+03  0.7818608E-02  0.1326493E+00
          2   -1    0    0  502    0  0.00000000000E+00  0.00000000000E+00  0.97513434073E+02  0.97513434073E+02  0.00000000000E+00 0. -1.
          1   -1    0    0  501    0 -0.00000000000E+00 -0.00000000000E+00 -0.54603454208E+03  0.54603454208E+03  0.00000000000E+00 0. -1.
         25    2    1    2    0    0 -0.37204500925E+02 -0.90278069303E+02 -0.38303776833E+03  0.41457859723E+03  0.12499270631E+03 0.  0.
          2    1    1    2  501    0  0.55590732423E+02  0.14720397153E+03 -0.32552839383E+02  0.16068299885E+03  0.00000000000E+00 0. -1.
          1    1    1    2  502    0 -0.18386231499E+02 -0.56925902230E+02 -0.32930500290E+02  0.68286380068E+02  0.00000000000E+00 0. -1.
         22    1    3    3    0    0 -0.12757359650E+02 -0.11772354479E+03 -0.25114959919E+03  0.27766473380E+03  0.00000000000E+00 0.  1.
         22    1    3    3    0    0 -0.24447141275E+02  0.27445475487E+02 -0.13188816914E+03  0.13691386344E+03  0.00000000000E+00 0.  1.
</event>
<event>
 7    1  0.6017574E-006  0.8260886E+02  0.7818608E-02  0.1463707E+00
          2   -1    0    0  502    0  0.00000000000E+00  0.00000000000E+00  0.14131433374E+04  0.14131433374E+04  0.00000000000E+00 0. -1.
          1   -1    0    0  501    0 -0.00000000000E+00 -0.00000000000E+00 -0.84256428800E+02  0.84256428800E+02  0.00000000000E+00 0. -1.
         25    2    1    2    0    0 -0.83466701212E+02  0.20790470282E+02  0.43771107110E+03  0.46326438163E+03  0.12499588658E+03 0.  0.
          2    1    1    2  501    0  0.13299182121E+02  0.22870369669E+02 -0.67191033652E+02  0.72211889998E+02  0.00000000000E+00 0. -1.
          1    1    1    2  502    0  0.70167519091E+02 -0.43660839950E+02  0.95836687119E+03  0.96192349461E+03  0.00000000000E+00 0. -1.
         22    1    3    3    0    0 -0.53192042492E+02  0.44109216236E+02  0.41068810958E+03  0.41646097019E+03  0.00000000000E+00 0. -1.
         22    1    3    3    0    0 -0.30274658720E+02 -0.23318745954E+02  0.27022961519E+02  0.46803411444E+02  0.00000000000E+00 0. -1.
</event>
<event>
 7    1  0.6017574E-006  0.1023200E+03  0.7818608E-02  0.1356123E+00
          2   -1    0    0  502    0  0.00000000000E+00  0.00000000000E+00  0.75555451064E+03  0.75555451064E+03  0.00000000000E+00 0. -1.
          1   -1    0    0  501    0 -0.00000000000E+00 -0.00000000000E+00 -0.45726656426E+03  0.45726656426E+03  0.00000000000E+00 0. -1.
         25    2    1    2    0    0 -0.24916999494E+02  0.67313610696E+02 -0.24261384992E+02  0.14616920957E+03  0.12499937590E+03 0.  0.
          2    1    1    2  501    0 -0.50705195412E+01 -0.10671945043E+03 -0.36347025227E+03  0.37884743045E+03  0.00000000000E+00 0. -1.
          1    1    1    2  502    0  0.29987519035E+02  0.39405839737E+02  0.68601958365E+03  0.68780443489E+03  0.00000000000E+00 0. -1.
         22    1    3    3    0    0  0.23082393248E+02  0.10788610889E+02  0.40412080918E+02  0.47773709162E+02  0.00000000000E+00 0. -1.
         22    1    3    3    0    0 -0.47999392742E+02  0.56524999807E+02 -0.64673465910E+02  0.98395500403E+02  0.00000000000E+00 0. -1.
</event>
<event>
 7    1  0.6017574E-006  0.1498720E+03  0.7818608E-02  0.1256626E+00
          2   -1    0    0  502    0  0.00000000000E+00  0.00000000000E+00  0.21293611465E+04  0.21293611465E+04  0.00000000000E+00 0. -1.
          1   -1    0    0  501    0 -0.00000000000E+00 -0.00000000000E+00 -0.89811309083E+03  0.89811309083E+03  0.00000000000E+00 0. -1.
         25    2    1    2    0    0  0.91940436296E+02 -0.20390301603E+03 -0.13257200267E+03  0.28849474468E+03  0.12499759216E+03 0.  0.
          2    1    1    2  501    0 -0.75085949576E+02  0.12167941057E+03 -0.67927548954E+03  0.69416062224E+03  0.00000000000E+00 0. -1.
          1    1    1    2  502    0 -0.16854486720E+02  0.82223605460E+02  0.20430955479E+04  0.20448188704E+04  0.00000000000E+00 0. -1.
         22    1    3    3    0    0 -0.13052685023E+02 -0.41951162333E+02 -0.75280969902E+02  0.87163622210E+02  0.00000000000E+00 0.  1.
         22    1    3    3    0    0  0.10499312132E+03 -0.16195185370E+03 -0.57291032767E+02  0.20133112247E+03  0.00000000000E+00 0.  1.
</event>
<event>
 7    1  0.6017574E-006  0.1642425E+03  0.7818608E-02  0.1275926E+00
          2   -1    0    0  502    0  0.00000000000E+00  0.00000000000E+00  0.38788398111E+03  0.38788398111E+03  0.00000000000E+00 0. -1.
          1   -1    0    0  501    0 -0.00000000000E+00 -0.00000000000E+00 -0.66752347177E+03  0.66752347177E+03  0.00000000000E+00 0. -1.
         25    2    1    2    0    0 -0.66104784011E+02 -0.10059417016E+03 -0.16754178296E+03  0.24121513615E+03  0.12500185332E+03 0.  0.
          2    1    1    2  501    0  0.16896214001E+02 -0.61188617010E+02 -0.44037214854E+03  0.44492376663E+03  0.00000000000E+00 0. -1.
          1    1    1    2  502    0  0.49208570010E+02  0.16178278717E+03  0.32827444083E+03  0.36926855010E+03  0.00000000000E+00 0. -1.
         22    1    3    3    0    0 -0.79860299758E+02 -0.52105915242E+02 -0.16521697720E+03  0.19075991045E+03  0.00000000000E+00 0.  1.
         22    1    3    3    0    0  0.13755515748E+02 -0.48488254919E+02 -0.23248057534E+01  0.50455225699E+02  0.00000000000E+00 0.  1.
</event>
<event>
 7    1  0.6017574E-006  0.1771459E+03  0.7818608E-02  0.1383178E+00
          2   -1    0    0  502    0  0.00000000000E+00  0.00000000000E+00  0.11334045137E+04  0.11334045137E+04  0.00000000000E+00 0. -1.
          1   -1    0    0  501    0 -0.00000000000E+00 -0.00000000000E+00 -0.15612717763E+04  0.15612717763E+04  0.00000000000E+00 0. -1.
         25    2    1    2    0    0  0.14937431479E+02 -0.16635469259E+03  0.43411377027E+02  0.21309141801E+03  0.12500557655E+03 0.  0.
          2    1    1    2  501    0 -0.36546154663E+02  0.17381326975E+03 -0.14709589077E+04  0.14816432709E+04  0.00000000000E+00 0. -1.
          1    1    1    2  502    0  0.21608723184E+02 -0.74585771635E+01  0.99968026808E+03  0.99994160113E+03  0.00000000000E+00 0. -1.
         22    1    3    3    0    0  0.39021786530E+02 -0.16624192114E+03  0.63036177259E+02  0.18202372321E+03  0.00000000000E+00 0. -1.
         22    1    3    3    0    0 -0.24084355051E+02 -0.11277144454E+00 -0.19624800232E+02  0.31067694794E+02  0.00000000000E+00 0. -1.
</event>
<event>
 7    1  0.6017574E-006  0.6778285E+02  0.7818608E-02  0.1463949E+00
          2   -1    0    0  502    0  0.00000000000E+00  0.00000000000E+00  0.32761181223E+03  0.32761181223E+03  0.00000000000E+00 0. -1.
          1   -1    0    0  501    0 -0.00000000000E+00 -0.00000000000E+00 -0.23690173370E+04  0.23690173370E+04  0.00000000000E+00 0. -1.
         25    2    1    2    0    0  0.43831147289E+02  0.89623910071E+02 -0.13797630908E+01  0.15994200347E+03  0.12500370394E+03 0.  0.
          2    1    1    2  501    0 -0.29753181483E+02 -0.60679496861E+02 -0.22868122264E+04  0.22878106154E+04  0.00000000000E+00 0. -1.
          1    1    1    2  502    0 -0.14077965806E+02 -0.28944413210E+02  0.24678646473E+03  0.24887653034E+03  0.00000000000E+00 0. -1.
         22    1    3    3    0    0  0.23301081213E+02 -0.28544498327E+02  0.13156628099E+02  0.39125766873E+02  0.00000000000E+00 0. -1.
         22    1    3    3    0    0  0.20530066076E+02  0.11816840840E+03 -0.14536391190E+02  0.12081623660E+03  0.00000000000E+00 0. -1.
</event>
<event>
 7    1  0.6017574E-006  0.8818760E+02  0.7818608E-02  0.1332175E+00
          2   -1    0    0  502    0  0.00000000000E+00  0.00000000000E+00  0.72969605832E+03  0.72969605832E+03  0.00000000000E+00 0. -1.
          1   -1    0    0  501    0 -0.00000000000E+00 -0.00000000000E+00 -0.91285325343E+03  0.91285325343E+03  0.00000000000E+00 0. -1.
         25    2    1    2    0    0  0.14584710953E+00 -0.26198071911E+02 -0.49222121988E+03  0.50852035194E+03  0.12499943515E+03 0.  0.
          2    1    1    2  501    0 -0.16385108234E+02  0.11287759261E+03 -0.40182041234E+03  0.41769542308E+03  0.00000000000E+00 0. -1.
          1    1    1    2  502    0  0.16239261125E+02 -0.86679520704E+02  0.71088443711E+03  0.71633353673E+03  0.00000000000E+00 0. -1.
         22    1    3    3    0    0 -0.35432547920E+02 -0.12615047750E+02 -0.45036119395E+03  0.45192898767E+03  0.00000000000E+00 0.  1.
         22    1    3    3    0    0  0.35578395029E+02 -0.13583024161E+02 -0.41860025934E+02  0.56591364265E+02  0.00000000000E+00 0.  1.
</event>
<event>
 7    1  0.6017574E-006  0.1504072E+03  0.7818608E-02  0.1214626E+00
          2   -1    0    0  502    0  0.00000000000E+00  0.00000000000E+00  0.39981547089E+04  0.39981547089E+04  0.00000000000E+00 0. -1.
          1   -1    0    0  501    0 -0.00000000000E+00 -0.00000000000E+00 -0.34129503793E+03  0.34129503793E+03  0.00000000000E+00 0. -1.
         25    2    1    2    0    0 -0.13352504246E+03 -0.15892598768E+03  0.22444617524E+03  0.33028166533E+03  0.12499394525E+03 0.  0.
          2    1    1    2  501    0  0.14598114592E+03  0.30997735610E+02 -0.26787897003E+03  0.30664392569E+03  0.00000000000E+00 0. -1.
          1    1    1    2  502    0 -0.12456103460E+02  0.12792825207E+03  0.37002924658E+04  0.37025241558E+04  0.00000000000E+00 0. -1.
         22    1    3    3    0    0 -0.11113959591E+03 -0.17368824503E+03  0.22255843937E+03  0.30340051940E+03  0.00000000000E+00 0.  1.
         22    1    3    3    0    0 -0.22385446551E+02  0.14762257352E+02  0.18877358713E+01  0.26881145923E+02  0.00000000000E+00 0.  1.
</event>
<event>
 7    1  0.6017574E-006  0.1169097E+03  0.7818608E-02  0.1392062E+00
          2   -1    0    0  502    0  0.00000000000E+00  0.00000000000E+00  0.30266132745E+03  0.30266132745E+03  0.00000000000E+00 0. -1.
          1   -1    0    0  501    0 -0.00000000000E+00 -0.00000000000E+00 -0.12212084032E+04  0.12212084032E+04  0.00000000000E+00 0. -1.
         25    2    1    2    0    0 -0.93074846562E+01 -0.14645644566E+03 -0.22754786414E+03  0.29822639158E+03  0.12499932165E+03 0.  0.
          2    1    1    2  501    0 -0.50405075867E+01  0.31846922289E+02 -0.94555692556E+03  0.94610651232E+03  0.00000000000E+00 0. -1.
          1    1    1    2  502    0  0.14347992243E+02  0.11460952338E+03  0.25455771399E+03  0.27953682670E+03  0.00000000000E+00 0. -1.
         22    1    3    3    0    0  0.99077589013E+01 -0.24827414703E+02 -0.15075318504E+03  0.15310482359E+03  0.00000000000E+00 0.  1.
         22    1    3    3    0    0 -0.19215243558E+02 -0.12162903096E+03 -0.76794679101E+02  0.14512156799E+03  0.00000000000E+00 0.  1.
</event>
<event>
 7    1  0.6017574E-006  0.1117982E+03  0.7818608E-02  0.1270727E+00
          2   -1    0    0  502    0  0.00000000000E+00  0.00000000000E+00  0.11086742692E+04  0.11086742692E+04  0.00000000000E+00 0. -1.
          1   -1    0    0  501    0 -0.00000000000E+00 -0.00000000000E+00 -0.29514375866E+03  0.29514375866E+03  0.00000000000E+00 0. -1.
         25    2    1    2    0    0 -0.11332982321E+03  0.14921108601E+02  0.87241808086E+02  0.19053301205E+03  0.12500162916E+03 0.  0.
          2    1    1    2  501    0  0.53287770189E+02  0.82290931752E+02 -0.23008978544E+03  0.25010536432E+03  0.00000000000E+00 0. -1.
          1    1    1    2  502    0  0.60042053023E+02 -0.97212040353E+02  0.95637848794E+03  0.96317965153E+03  0.00000000000E+00 0. -1.
         22    1    3    3    0    0 -0.33992360803E+01 -0.23444443042E+02 -0.20926215048E+02  0.31608593637E+02  0.00000000000E+00 0.  1.
         22    1    3    3    0    0 -0.10993058713E+03  0.38365551642E+02  0.10816802313E+03  0.15892441842E+03  0.00000000000E+00 0.  1.
</event>
<event>
 7    1  0.6017574E-006  0.9593019E+02  0.7818608E-02  0.1333678E+00
          2   -1    0    0  502    0  0.00000000000E+00  0.00000000000E+00  0.14517589683E+04  0.14517589683E+04  0.00000000000E+00 0. -1.
          1   -1    0    0  501    0 -0.00000000000E+00 -0.00000000000E+00 -0.10204413723E+04  0.10204413723E+04  0.00000000000E+00 0. -1.
         25    2    1    2    0    0  0.47441735450E+02  0.15006767002E+03 -0.85618403567E+02  0.21846404088E+03  0.12500000912E+03 0.  0.
          2    1    1    2  501    0 -0.30578761971E+02 -0.56290671828E+02 -0.86557679931E+03  0.86794406267E+03  0.00000000000E+00 0. -1.
          1    1    1    2  502    0 -0.16862973479E+02 -0.93776998196E+02  0.13825127988E+04  0.13857922370E+04  0.00000000000E+00 0. -1.
         22    1    3    3    0    0 -0.26363570709E+02  0.98152644161E+02 -0.77606287194E+02  0.12787382542E+03  0.00000000000E+00 0.  1.
         22    1    3    3    0    0  0.73805306159E+02  0.51915025862E+02 -0.80121163726E+01  0.90590215455E+02  0.00000000000E+00 0.  1.
</event>
<event>
 7    1  0.6017574E-006  0.8444753E+02  0.7818608E-02  0.1389497E+00
          2   -1    0    0  502    0  0.00000000000E+00  0.00000000000E+00  0.13301484726E+04  0.13301484726E+04  0.00000000000E+00 0. -1.
          1   -1    0    0  501    0 -0.00000000000E+00 -0.00000000000E+00 -0.39612579334E+03  0.39612579334E+03  0.00000000000E+00 0. -1.
         25    2    1    2    0    0 -0.18850163834E+02 -0.83458776182E+02 -0.51621318126E+01  0.15156499238E+03  0.12499841324E+03 0.  0.
          2    1    1    2  501    0 -0.26648386410E+02  0.80975595978E+02 -0.31162243620E+03  0.32307232377E+03  0.00000000000E+00 0. -1.
          1    1    1    2  502    0  0.45498550244E+02  0.24831802042E+01  0.12508072473E+04  0.12516369498E+04  0.00000000000E+00 0. -1.
         22    1    3    3    0    0  0.23674249507E+02  0.15927152342E+02 -0.29196886551E+02  0.40824042619E+02  0.00000000000E+00 0. -1.
         22    1    3    3    0    0 -0.42524413341E+02 -0.99385928524E+02  0.24034754739E+02  0.11074094976E+03  0.00000000000E+00 0. -1.
</event>
<event>
 7    1  0.6017574E-006  0.1141287E+03  0.7818608E-02  0.1329174E+00
          2   -1    0    0  502    0  0.00000000000E+00  0.00000000000E+00  0.11891525832E+04  0.11891525832E+04  0.00000000000E+00 0. -1.
          1   -1    0    0  501    0 -0.00000000000E+00 -0.00000000000E+00 -0.34253006606E+03  0.34253006606E+03  0.00000000000E+00 0. -1.
         25    2    1    2    0    0 -0.84210568778E+02  0.23369529425E+02 -0.11539983033E+03  0.19125695917E+03  0.12499819516E+03 0.  0.
          2    1    1    2  501    0  0.13224081589E+03  0.54570709970E+01 -0.16527433760E+03  0.21173809218E+03  0.00000000000E+00 0. -1.
          1    1    1    2  502    0 -0.48030247109E+02 -0.28826600422E+02  0.11272966851E+04  0.11286875980E+04  0.00000000000E+00 0. -1.
         22    1    3    3    0    0  0.10181913623E+02  0.52694438938E+02 -0.39717103870E+02  0.66766934929E+02  0.00000000000E+00 0.  1.
         22    1    3    3    0    0 -0.94392482401E+02 -0.29324909513E+02 -0.75682726459E+02  0.12449002424E+03  0.00000000000E+00 0.  1.
</event>
<event>
 7    1  0.6017574E-006  0.6507339E+02  0.7818608E-02  0.1396399E+00
          2   -1    0    0  502    0  0.00000000000E+00  0.00000000000E+00  0.38505015955E+03  0.38505015955E+03  0.00000000000E+00 0. -1.
          1   -1    0    0  501    0 -0.00000000000E+00 -0.00000000000E+00 -0.78071783887E+03  0.78071783887E+03  0.00000000000E+00 0. -1.
         25    2    1    2    0    0 -0.25503519615E+02 -0.21423321734E+01 -0.64853351199E+02  0.14313046683E+03  0.12500141709E+03 0.  0.
          2    1    1    2  501    0 -0.81575580800E+01 -0.55358164895E+02 -0.67234442493E+03  0.67466888020E+03  0.00000000000E+00 0. -1.
          1    1    1    2  502    0  0.33661077695E+02  0.57500497068E+02  0.34153009682E+03  0.34796865139E+03  0.00000000000E+00 0. -1.
         22    1    3    3    0    0 -0.27908842168E+02 -0.40799124203E+02  0.17246035640E+02  0.52353583948E+02  0.00000000000E+00 0. -1.
         22    1    3    3    0    0  0.24053225533E+01  0.38656792029E+02 -0.82099386840E+02  0.90776882883E+02  0.00000000000E+00 0. -1.
</event>
<event>
 7    1  0.6017574E-006  0.1303495E+03  0.7818608E-02  0.1264692E+00
          2   -1    0    0  502    0  0.00000000000E+00  0.00000000000E+00  0.24588192751E+04  0.24588192751E+04  0.00000000000E+00 0. -1.
          1   -1    0    0  501    0 -0.00000000000E+00 -0.00000000000E+00 -0.48876587943E+03  0.48876587943E+03  0.00000000000E+00 0. -1.
         25    2    1    2    0    0 -0.44459348140E+02 -0.20426832887E+03  0.17411814664E+03  0.29940640504E+03  0.12499953031E+03 0.  0.
          2    1    1    2  501    0  0.46443181208E+02  0.76106230630E+02 -0.41958538450E+03  0.42895340342E+03  0.00000000000E+00 0. -1.
          1    1    1    2  502    0 -0.19838330683E+01  0.12816209824E+03  0.22155206335E+04  0.22192253460E+04  0.00000000000E+00 0. -1.
         22    1    3    3    0    0 -0.53180179675E+02 -0.17371269308E+02  0.48564802604E+02  0.74083956155E+02  0.00000000000E+00 0. -1.
         22    1    3    3    0    0  0.87208315352E+01 -0.18689705956E+03  0.12555334403E+03  0.22532244889E+03  0.00000000000E+00 0. -1.
</event>
<event>
 7    1  0.1016712E-005  0.6572210E+02  0.7818608E-02  0.1434526E+00
          2   -1    0    0  502    0  0.00000000000E+00  0.00000000000E+00  0.21846913280E+04  0.21846913280E+04  0.00000000000E+00 0. -1.
          1   -1    0    0  501    0 -0.00000000000E+00 -0.00000000000E+00 -0.66628141675E+03  0.66628141675E+03  0.00000000000E+00 0. -1.
         25    2    1    2    0    0 -0.50019856611E+02  0.26294532538E+01 -0.27415788258E+03  0.30544531294E+03  0.12500157813E+03 0.  0.
          2    1    1    2  501    0 -0.33172938880E+01 -0.41107772005E+02 -0.37485007475E+03  0.37711196202E+03  0.00000000000E+00 0. -1.
          1    1    1    2  502    0  0.53337150499E+02  0.38478318752E+02  0.21674178686E+04  0.21684154698E+04  0.00000000000E+00 0. -1.
         22    1    3    3    0    0  0.37272079636E+02 -0.29731623448E+01 -0.14290697675E+03  0.14771747228E+03  0.00000000000E+00 0. -1.
         22    1    3    3    0    0 -0.87291936247E+02  0.56026155987E+01 -0.13125090583E+03  0.15772784065E+03  0.00000000000E+00 0. -1.
</event>
<event>
 7    1  0.6017574E-006  0.1317542E+03  0.7818608E-02  0.1310922E+00
          2   -1    0    0  502    0  0.00000000000E+00  0.00000000000E+00  0.26700253110E+03  0.26700253110E+03  0.00000000000E+00 0. -1.
          1   -1    0    0  501    0 -0.00000000000E+00 -0.00000000000E+00 -0.84505740982E+03  0.84505740982E+03  0.00000000000E+00 0. -1.
         25    2    1    2    0    0  0.71307947969E+02  0.90036939659E+02 -0.17390195989E+03  0.24301894622E+03  0.12499937048E+03 0.  0.
          2    1    1    2  501    0 -0.40196299043E+02  0.40577610637E+02 -0.61577473762E+03  0.61841799168E+03  0.00000000000E+00 0. -1.
          1    1    1    2  502    0 -0.31111648926E+02 -0.13061455030E+03  0.21162181880E+03  0.25062300301E+03  0.00000000000E+00 0. -1.
         22    1    3    3    0    0  0.65264370063E+01 -0.36865870825E+01 -0.11409798103E+03  0.11434393110E+03  0.00000000000E+00 0. -1.
         22    1    3    3    0    0  0.64781510963E+02  0.93723526742E+02 -0.59803978860E+02  0.12867501512E+03  0.00000000000E+00 0. -1.
</event>
<event>
 7    1  0.6017574E-006  0.6190687E+02  0.7818608E-02  0.1405200E+00
          2   -1    0    0  502    0  0.00000000000E+00  0.00000000000E+00  0.31795239290E+04  0.31795239290E+04  0.00000000000E+00 0. -1.
          1   -1    0    0  501    0 -0.00000000000E+00 -0.00000000000E+00 -0.43265822304E+03  0.43265822304E+03  0.00000000000E+00 0. -1.
         25    2    1    2    0    0  0.69139500386E+02  0.49954934551E+02  0.11372090747E+03  0.18929736218E+03  0.12500112212E+03 0.  0.
          2    1    1    2  501    0 -0.53939886435E+02  0.10025032580E+02 -0.39264647001E+03  0.39646092246E+03  0.00000000000E+00 0. -1.
          1    1    1    2  502    0 -0.15199613951E+02 -0.59979967131E+02  0.30257912685E+04  0.30264238675E+04  0.00000000000E+00 0. -1.
         22    1    3    3    0    0 -0.26480474585E+02  0.45752802012E+02  0.58296892109E+02  0.78696010418E+02  0.00000000000E+00 0. -1.
         22    1    3    3    0    0  0.95619974972E+02  0.42021325389E+01  0.55424015364E+02  0.11060135176E+03  0.00000000000E+00 0. -1.
</event>
<event>
 7    1  0.6017574E-006  0.1023658E+03  0.7818608E-02  0.1330140E+00
          2   -1    0    0  502    0  0.00000000000E+00  0.00000000000E+00  0.15898910034E+03  0.15898910034E+03  0.00000000000E+00 0. -1.
          1   -1    0    0  501    0 -0.00000000000E+00 -0.00000000000E+00 -0.46288147828E+03  0.46288147828E+03  0.00000000000E+00 0. -1.
         25    2    1    2    0    0 -0.64022265041E+01  0.58105455741E+02 -0.12230661548E+03  0.18439446123E+03  0.12500070660E+03 0.  0.
          2    1    1    2  501    0 -0.38179263833E+01 -0.11918072397E+03 -0.28947843131E+03  0.31307568369E+03  0.00000000000E+00 0. -1.
          1    1    1    2  502    0  0.10220152887E+02  0.61075268230E+02  0.10789266885E+03  0.12440043371E+03  0.00000000000E+00 0. -1.
         22    1    3    3    0    0  0.18401164872E+02  0.64273574322E+02 -0.80787954052E+01  0.67342127676E+02  0.00000000000E+00 0. -1.
         22    1    3    3    0    0 -0.24803391376E+02 -0.61681185812E+01 -0.11422782007E+03  0.11705233355E+03  0.00000000000E+00 0. -1.
</event>
<event>
 7    1  0.6017574E-006  0.1665492E+03  0.7818608E-02  0.1303053E+00
          2   -1    0    0  502    0  0.00000000000E+00  0.00000000000E+00  0.17397846853E+04  0.17397846853E+04  0.00000000000E+00 0. -1.
          1   -1    0    0  501    0 -0.00000000000E+00 -0.00000000000E+00 -0.13301093518E+03  0.13301093518E+03  0.00000000000E+00 0. -1.
         25    2    1    2    0    0  0.20825571398E+03 -0.39820677516E+02  0.85877468212E+03  0.89335043417E+03  0.12499965929E+03 0.  0.
          2    1    1    2  501    0 -0.16096545586E+03  0.28857841601E+02 -0.56851360504E+02  0.17313211774E+03  0.00000000000E+00 0. -1.
          1    1    1    2  502    0 -0.47290258123E+02  0.10962835914E+02  0.80485042850E+03  0.80631306857E+03  0.00000000000E+00 0. -1.
         22    1    3    3    0    0  0.83877609767E+02  0.21261678749E+02  0.16977159437E+03  0.19055158529E+03  0.00000000000E+00 0.  1.
         22    1    3    3    0    0  0.12437810421E+03 -0.61082356264E+02  0.68900308775E+03  0.70279884887E+03  0.00000000000E+00 0.  1.
</event>
<event>
 7    1  0.6017574E-006  0.1122746E+03  0.7818608E-02  0.1305212E+00
          2   -1    0    0  502    0  0.00000000000E+00  0.00000000000E+00  0.28098945471E+03  0.28098945471E+03  0.00000000000E+00 0. -1.
          1   -1    0    0  501    0 -0.00000000000E+00 -0.00000000000E+00 -0.15902124473E+03  0.15902124473E+03  0.00000000000E+00 0. -1.
         25    2    1    2    0    0  0.41190674451E+02 -0.40165250162E+02 -0.25391640602E+02  0.13992392039E+03  0.12499619635E+03 0.  0.
          2    1    1    2  501    0  0.54149344631E+02  0.99459930229E+02 -0.19649755349E+01  0.11326204295E+03  0.00000000000E+00 0. -1.
          1    1    1    2  502    0 -0.95340019082E+02 -0.59294680068E+02  0.14932482612E+03  0.18682473610E+03  0.00000000000E+00 0. -1.
         22    1    3    3    0    0 -0.28251504246E+02 -0.20787659153E+02  0.32227390479E+02  0.47632750942E+02  0.00000000000E+00 0. -1.
         22    1    3    3    0    0  0.69442178697E+02 -0.19377591009E+02 -0.57619031082E+02  0.92291169449E+02  0.00000000000E+00 0. -1.
</event>
<event>
 7    1  0.6017574E-006  0.1635942E+03  0.7818608E-02  0.1321109E+00
          2   -1    0    0  502    0  0.00000000000E+00  0.00000000000E+00  0.13609050568E+04  0.13609050568E+04  0.00000000000E+00 0. -1.
          1   -1    0    0  501    0 -0.00000000000E+00 -0.00000000000E+00 -0.61250741017E+03  0.61250741017E+03  0.00000000000E+00 0. -1.
         25    2    1    2    0    0 -0.13931057580E+03 -0.12284014687E+02 -0.23012483574E+03  0.29688326409E+03  0.12499559562E+03 0.  0.
          2    1    1    2  501    0  0.17809530823E+03  0.28334107912E+02 -0.32534762003E+03  0.37198364795E+03  0.00000000000E+00 0. -1.
          1    1    1    2  502    0 -0.38784732433E+02 -0.16050093224E+02  0.13038701024E+04  0.13045455550E+04  0.00000000000E+00 0. -1.
         22    1    3    3    0    0 -0.73255535973E+02  0.31946344592E+02 -0.37061291264E+02  0.88093596780E+02  0.00000000000E+00 0. -1.
         22    1    3    3    0    0 -0.66055039824E+02 -0.44230359280E+02 -0.19306354448E+03  0.20878966731E+03  0.00000000000E+00 0. -1.
</event>
<event>
 7    1  0.6017574E-006  0.1257391E+03  0.7818608E-02  0.1346909E+00
          2   -1    0    0  502    0  0.00000000000E+00  0.00000000000E+00  0.68407770731E+03  0.68407770731E+03  0.00000000000E+00 0. -1.
          1   -1    0    0  501    0 -0.00000000000E+00 -0.00000000000E+00 -0.60403771430E+03  0.60403771430E+03  0.00000000000E+00 0. -1.
         25    2    1    2    0    0 -0.79348421390E+02  0.85818927351E+02 -0.46272098323E+02  0.17727904552E+03  0.12500277048E+03 0.  0.
          2    1    1    2  501    0  0.49566077218E+02 -0.11763872180E+03 -0.48319501739E+03  0.49977303820E+03  0.00000000000E+00 0. -1.
          1    1    1    2  502    0  0.29782344171E+02  0.31819794450E+02  0.60950710872E+03  0.61106333789E+03  0.00000000000E+00 0. -1.
         22    1    3    3    0    0 -0.86108376027E+02  0.56861912768E+01 -0.39057173028E+01  0.86384256788E+02  0.00000000000E+00 0.  1.
         22    1    3    3    0    0  0.67599546370E+01  0.80132736074E+02 -0.42366381021E+02  0.90894788730E+02  0.00000000000E+00 0.  1.
</event>
<event>
 7    1  0.6017574E-006  0.7049179E+02  0.7818608E-02  0.1401578E+00
          2   -1    0    0  502    0  0.00000000000E+00  0.00000000000E+00  0.53590071475E+03  0.53590071475E+03  0.00000000000E+00 0. -1.
          1   -1    0    0  501    0 -0.00000000000E+00 -0.00000000000E+00 -0.76316272023E+03  0.76316272023E+03  0.00000000000E+00 0. -1.
         25    2    1    2    0    0 -0.11130723244E+03  0.21089118955E+02 -0.84704033310E+02  0.18876929644E+03  0.12500009235E+03 0.  0.
          2    1    1    2  501    0  0.41759478735E+02 -0.26720077191E+02 -0.62292061650E+03  0.62489031922E+03  0.00000000000E+00 0. -1.
          1    1    1    2  502    0  0.69547753705E+02  0.56309582361E+01  0.48036264434E+03  0.48540381932E+03  0.00000000000E+00 0. -1.
         22    1    3    3    0    0 -0.88572093065E+02 -0.75660465949E+01  0.78584332777E+01  0.89241334058E+02  0.00000000000E+00 0.  1.
         22    1    3    3    0    0 -0.22735139376E+02  0.28655165550E+02 -0.92562466588E+02  0.99527962382E+02  0.00000000000E+00 0.  1.
</event>
<event>
 7    1  0.6017574E-006  0.6615376E+02  0.7818608E-02  0.1418625E+00
          2   -1    0    0  502    0  0.00000000000E+00  0.00000000000E+00  0.22719442540E+04  0.22719442540E+04  0.00000000000E+00 0. -1.
          1   -1    0    0  501    0 -0.00000000000E+00 -0.00000000000E+00 -0.12858258965E+02  0.12858258965E+02  0.00000000000E+00 0. -1.
         25    2    1    2    0    0  0.27023047078E+02 -0.61279494107E+01  0.56290969716E+03  0.57728639659E+03  0.12499783875E+03 0.  0.
          2    1    1    2  501    0  0.42479127546E+02  0.18287658596E+02  0.10450006714E+03  0.11427676390E+03  0.00000000000E+00 0. -1.
          1    1    1    2  502    0 -0.69502174625E+02 -0.12159709185E+02  0.15916762307E+04  0.15932393524E+04  0.00000000000E+00 0. -1.
         22    1    3    3    0    0  0.44676841473E+02 -0.56363525700E+02  0.26154771869E+03  0.27125647705E+03  0.00000000000E+00 0. -1.
         22    1    3    3    0    0 -0.17653794395E+02  0.50235576289E+02  0.30136197848E+03  0.30602991954E+03  0.00000000000E+00 0. -1.
</event>
<event>
 7    1  0.6017574E-006  0.9949860E+02  0.7818608E-02  0.1344986E+00
          2   -1    0    0  502    0  0.00000000000E+00  0.00000000000E+00  0.26218330448E+03  0.26218330448E+03  0.00000000000E+00 0. -1.
          1   -1    0    0  501    0 -0.00000000000E+00 -0.00000000000E+00 -0.18906277897E+04  0.18906277897E+04  0.00000000000E+00 0. -1.
         25    2    1    2    0    0  0.17491795349E+01  0.80009287015E+02 -0.55963871096E+03  0.57898623483E+03  0.12500011070E+03 0.  0.
          2    1    1    2  501    0 -0.56949409410E+02 -0.89401810724E+02 -0.13160538274E+04  0.13203157182E+04  0.00000000000E+00 0. -1.
          1    1    1    2  502    0  0.55200229875E+02  0.93925237091E+01  0.24724805315E+03  0.25350914119E+03  0.00000000000E+00 0. -1.
         22    1    3    3    0    0 -0.52085859017E+02  0.18227653779E+02 -0.12425256591E+03  0.13595544935E+03  0.00000000000E+00 0.  1.
         22    1    3    3    0    0  0.53835038552E+02  0.61781633236E+02 -0.43538614505E+03  0.44303078548E+03  0.00000000000E+00 0.  1.
</event>
<event>
 7    1  0.6017574E-006  0.6008860E+02  0.7818608E-02  0.1404477E+00
          2   -1    0    0  502    0  0.00000000000E+00  0.00000000000E+00  0.44356749821E+03  0.44356749821E+03  0.00000000000E+00 0. -1.
          1   -1    0    0  501    0 -0.00000000000E+00 -0.00000000000E+00 -0.19348746461E+03  0.19348746461E+03  0.00000000000E+00 0. -1.
         25    2    1    2    0    0 -0.13478678300E+02 -0.18691549814E+02  0.48227554056E+02  0.13594730024E+03  0.12499889067E+03 0.  0.
          2    1    1    2  501    0  0.55050330724E+02 -0.24695520295E+02 -0.14082277301E+03  0.15320398504E+03  0.00000000000E+00 0. -1.
          1    1    1    2  502    0 -0.41571652423E+02  0.43387070109E+02  0.34267525255E+03  0.34790367754E+03  0.00000000000E+00 0. -1.
         22    1    3    3    0    0  0.50122218449E+02  0.26843591900E+01 -0.48038800605E+01  0.50423405579E+02  0.00000000000E+00 0. -1.
         22    1    3    3    0    0 -0.63600896750E+02 -0.21375909004E+02  0.53031434117E+02  0.85523894659E+02  0.00000000000E+00 0. -1.
</event>
<event>
 7    1  0.6017574E-006  0.3199328E+02  0.7818608E-02  0.1596851E+00
          2   -1    0    0  502    0  0.00000000000E+00  0.00000000000E+00  0.41206600041E+03  0.41206600041E+03  0.00000000000E+00 0. -1.
          1   -1    0    0  501    0 -0.00000000000E+00 -0.00000000000E+00 -0.13472127158E+03  0.13472127158E+03  0.00000000000E+00 0. -1.
         25    2    1    2    0    0 -0.20221195160E+02 -0.14392046169E+01  0.62646263526E+02  0.14127887066E+03  0.12499678763E+03 0.  0.
          2    1    1    2  501    0  0.18467622094E+02 -0.26848312140E+02 -0.91949727626E+02  0.97553253872E+02  0.00000000000E+00 0. -1.
          1    1    1    2  502    0  0.17535730669E+01  0.28287516756E+02  0.30664819292E+03  0.30795514746E+03  0.00000000000E+00 0. -1.
         22    1    3    3    0    0  0.42114967474E+01  0.60094106140E+02  0.26068001726E+02  0.65639766999E+02  0.00000000000E+00 0. -1.
         22    1    3    3    0    0 -0.24432691908E+02 -0.61533310757E+02  0.36578261800E+02  0.75639103663E+02  0.00000000000E+00 0. -1.
</event>
<event>
 7    1  0.6017574E-006  0.1413688E+03  0.7818608E-02  0.1314042E+00
          2   -1    0    0  502    0  0.00000000000E+00  0.00000000000E+00  0.18668809543E+03  0.18668809543E+03  0.00000000000E+00 0. -1.
          1   -1    0    0  501    0 -0.00000000000E+00 -0.00000000000E+00 -0.50063869015E+03  0.50063869015E+03  0.00000000000E+00 0. -1.
         25    2    1    2    0    0  0.12335265809E+03  0.99805346741E+02 -0.17906665146E+03  0.26993451355E+03  0.12499116148E+03 0.  0.
          2    1    1    2  501    0 -0.73951968480E+02 -0.11522615724E+03 -0.25342582654E+03  0.28804619510E+03  0.00000000000E+00 0. -1.
          1    1    1    2  502    0 -0.49400689606E+02  0.15420810496E+02  0.11854188327E+03  0.12934607693E+03  0.00000000000E+00 0. -1.
         22    1    3    3    0    0  0.55794725407E+01  0.13777481551E+02 -0.10557787495E+03  0.10661912207E+03  0.00000000000E+00 0.  1.
         22    1    3    3    0    0  0.11777318554E+03  0.86027865190E+02 -0.73488776506E+02  0.16331539148E+03  0.00000000000E+00 0.  1.
</event>
<event>
 7    1  0.6017574E-006  0.8808797E+02  0.7818608E-02  0.1434307E+00
          2   -1    0    0  502    0  0.00000000000E+00  0.00000000000E+00  0.19621523125E+04  0.19621523125E+04  0.00000000000E+00 0. -1.
          1   -1    0    0  501    0 -0.00000000000E+00 -0.00000000000E+00 -0.44430270573E+03  0.44430270573E+03  0.00000000000E+00 0. -1.
         25    2    1    2    0    0 -0.41557069238E+02  0.10167395380E+03 -0.66975832647E+02  0.17937230349E+03  0.12499631280E+03 0.  0.
          2    1    1    2  501    0 -0.87465006201E+01 -0.29553631526E+02 -0.31937222079E+03  0.32085593936E+03  0.00000000000E+00 0. -1.
          1    1    1    2  502    0  0.50303569858E+02 -0.72120322275E+02  0.19041976602E+04  0.19062267754E+04  0.00000000000E+00 0. -1.
         22    1    3    3    0    0 -0.66622774088E+02  0.66033917728E+02 -0.90081787585E+02  0.13005306906E+03  0.00000000000E+00 0.  1.
         22    1    3    3    0    0  0.25065704850E+02  0.35640036073E+02  0.23105954938E+02  0.49319234428E+02  0.00000000000E+00 0.  1.
</event>
<event>
 7    1  0.6017574E-006  0.1124212E+03  0.7818608E-02  0.1307291E+00
          2   -1    0    0  502    0  0.00000000000E+00  0.00000000000E+00  0.11842264187E+03  0.11842264187E+03  0.00000000000E+00 0. -1.
          1   -1    0    0  501    0 -0.00000000000E+00 -0.00000000000E+00 -0.41632720547E+03  0.41632720547E+03  0.00000000000E+00 0. -1.
         25    2    1    2    0    0 -0.26926261304E+02 -0.61572294181E+02  0.23641191284E+02  0.14387177432E+03  0.12499604218E+03 0.  0.
          2    1    1    2  501    0  0.95168716176E+02  0.72947279464E+02 -0.29197637830E+03  0.31563997783E+03  0.00000000000E+00 0. -1.
          1    1    1    2  502    0 -0.68242454872E+02 -0.11374985283E+02 -0.29569376575E+02  0.75238095193E+02  0.00000000000E+00 0. -1.
         22    1    3    3    0    0 -0.41230470183E+02 -0.81127666447E+02 -0.20713459977E+02  0.93331116777E+02  0.00000000000E+00 0. -1.
         22    1    3    3    0    0  0.14304208879E+02  0.19555372266E+02  0.44354651261E+02  0.50540657540E+02  0.00000000000E+00 0. -1.
</event>
<event>
 7    1  0.6017574E-006  0.6433469E+02  0.7818608E-02  0.1466899E+00
          2   -1    0    0  502    0  0.00000000000E+00  0.00000000000E+00  0.34429249077E+03  0.34429249077E+03  0.00000000000E+00 0. -1.
          1   -1    0    0  501    0 -0.00000000000E+00 -0.00000000000E+00 -0.50819299732E+03  0.50819299732E+03  0.00000000000E+00 0. -1.
         25    2    1    2    0    0 -0.89556684307E+02 -0.34679257909E+02 -0.22351396854E+03  0.27350134509E+03  0.12498576321E+03 0.  0.
          2    1    1    2  501    0  0.32770875741E+02  0.53076728705E+01 -0.25540002647E+03  0.25754858806E+03  0.00000000000E+00 0. -1.
          1    1    1    2  502    0  0.56785808566E+02  0.29371585039E+02  0.31501348846E+03  0.32143555493E+03  0.00000000000E+00 0. -1.
         22    1    3    3    0    0 -0.16668381674E+02 -0.18908982918E+02 -0.19013265670E+03  0.19179627663E+03  0.00000000000E+00 0. -1.
         22    1    3    3    0    0 -0.72888302632E+02 -0.15770274991E+02 -0.33381311833E+02  0.81705068470E+02  0.00000000000E+00 0. -1.
</event>
<event>
 7    1  0.6017574E-006  0.7241331E+02  0.7818608E-02  0.1383685E+00
          2   -1    0    0  502    0  0.00000000000E+00  0.00000000000E+00  0.20426181758E+03  0.20426181758E+03  0.00000000000E+00 0. -1.
          1   -1    0    0  501    0 -0.00000000000E+00 -0.00000000000E+00 -0.22030920037E+04  0.22030920037E+04  0.00000000000E+00 0. -1.
         25    2    1    2    0    0  0.72821988451E+02  0.76649715749E+02 -0.33836957087E+03  0.37589525181E+03  0.12500021166E+03 0.  0.
          2    1    1    2  501    0 -0.68468704852E+02 -0.21127538407E+02 -0.18410667338E+04  0.18424605978E+04  0.00000000000E+00 0. -1.
          1    1    1    2  502    0 -0.43532835987E+01 -0.55522177342E+02  0.18060611848E+03  0.18899797165E+03  0.00000000000E+00 0. -1.
         22    1    3    3    0    0  0.69499640816E+02  0.47508207105E+02 -0.33609365196E+03  0.34647679966E+03  0.00000000000E+00 0. -1.
         22    1    3    3    0    0  0.33223476354E+01  0.29141508644E+02 -0.22759189087E+01  0.29418452147E+02  0.00000000000E+00 0. -1.
</event>
<event>
 7    1  0.6017574E-006  0.1105468E+03  0.7818608E-02  0.1278393E+00
          2   -1    0    0  502    0  0.00000000000E+00  0.00000000000E+00  0.75707071248E+03  0.75707071248E+03  0.00000000000E+00 0. -1.
          1   -1    0    0  501    0 -0.00000000000E+00 -0.00000000000E+00 -0.32290644447E+03  0.32290644447E+03  0.00000000000E+00 0. -1.
         25    2    1    2    0    0 -0.58644749710E+01  0.39807295727E+02  0.56393294423E+02  0.14290914414E+03  0.12499522776E+03 0.  0.
          2    1    1    2  501    0 -0.58197988051E+02 -0.10599599413E+03 -0.26312799439E+03  0.28958331792E+03  0.00000000000E+00 0. -1.
          1    1    1    2  502    0  0.64062463022E+02  0.66188698404E+02  0.64089896798E+03  0.64748469489E+03  0.00000000000E+00 0. -1.
         22    1    3    3    0    0 -0.25782371287E+02  0.80384434176E+02  0.47420693012E+02  0.96825151964E+02  0.00000000000E+00 0. -1.
         22    1    3    3    0    0  0.19917896316E+02 -0.40577138450E+02  0.89726014106E+01  0.46083992172E+02  0.00000000000E+00 0. -1.
</event>
<event>
 7    1  0.6017574E-006  0.6179485E+02  0.7818608E-02  0.1507413E+00
          2   -1    0    0  502    0  0.00000000000E+00  0.00000000000E+00  0.25231452562E+03  0.25231452562E+03  0.00000000000E+00 0. -1.
          1   -1    0    0  501    0 -0.00000000000E+00 -0.00000000000E+00 -0.40280266098E+03  0.40280266098E+03  0.00000000000E+00 0. -1.
         25    2    1    2    0    0  0.71611342773E+02 -0.92983386020E+01  0.13342410799E+03  0.19657329189E+03  0.12499769188E+03 0.  0.
          2    1    1    2  501    0 -0.13583021750E+02  0.22208546821E+02 -0.36058580923E+03  0.36152433369E+03  0.00000000000E+00 0. -1.
          1    1    1    2  502    0 -0.58028321023E+02 -0.12910208219E+02  0.76673565880E+02  0.97019561027E+02  0.00000000000E+00 0. -1.
         22    1    3    3    0    0 -0.10531704116E+02 -0.59202612209E+01  0.11059096619E+03  0.11124894646E+03  0.00000000000E+00 0.  1.
         22    1    3    3    0    0  0.82143046889E+02 -0.33780773811E+01  0.22833141799E+02  0.85324345432E+02  0.00000000000E+00 0.  1.
</event>
<event>
 7    1  0.6017574E-006  0.8788667E+02  0.7818608E-02  0.1367958E+00
          2   -1    0    0  502    0  0.00000000000E+00  0.00000000000E+00  0.97045747325E+03  0.97045747325E+03  0.00000000000E+00 0. -1.
          1   -1    0    0  501    0 -0.00000000000E+00 -0.00000000000E+00 -0.65148876312E+03  0.65148876312E+03  0.00000000000E+00 0. -1.
         25    2    1    2    0    0 -0.14631145945E+02 -0.96471587831E+02  0.46124742324E+03  0.48774510962E+03  0.12500107528E+03 0.  0.
          2    1    1    2  501    0  0.49884207153E+02  0.15405856521E+02 -0.63321799849E+03  0.63536667220E+03  0.00000000000E+00 0. -1.
          1    1    1    2  502    0 -0.35253061208E+02  0.81065731311E+02  0.49093928537E+03  0.49883445454E+03  0.00000000000E+00 0. -1.
         22    1    3    3    0    0 -0.59402439661E+01  0.22910666256E+02  0.18729142899E+03  0.18878099613E+03  0.00000000000E+00 0.  1.
         22    1    3    3    0    0 -0.86909019793E+01 -0.11938225409E+03  0.27395599425E+03  0.29896411349E+03  0.00000000000E+00 0.  1.
</event>
<event>
 7    1  0.6017574E-006  0.6168505E+02  0.7818608E-02  0.1411956E+00
          2   -1    0    0  502    0  0.00000000000E+00  0.00000000000E+00  0.22397337128E+04  0.22397337128E+04  0.00000000000E+00 0. -1.
          1   -1    0    0  501    0 -0.00000000000E+00 -0.00000000000E+00 -0.13309530767E+02  0.13309530767E+02  0.00000000000E+00 0. -1.
         25    2    1    2    0    0  0.35671478087E+02  0.57730404553E+02  0.89190736058E+03  0.90317435983E+03  0.12497972015E+03 0.  0.
          2    1    1    2  501    0  0.26542683721E+02 -0.44980006223E+02  0.92472849036E+02  0.10620236734E+03  0.00000000000E+00 0. -1.
          1    1    1    2  502    0 -0.62214161808E+02 -0.12750398330E+02  0.12420439724E+04  0.12436665164E+04  0.00000000000E+00 0. -1.
         22    1    3    3    0    0  0.32530924557E+02  0.71858100348E+02  0.88226454414E+03  0.88578359292E+03  0.00000000000E+00 0.  1.
         22    1    3    3    0    0  0.31405535300E+01 -0.14127695795E+02  0.96428164342E+01  0.17390766911E+02  0.00000000000E+00 0.  1.
</event>
<event>
 7    1  0.6017574E-006  0.8731144E+02  0.7818608E-02  0.1469109E+00
          2   -1    0    0  502    0  0.00000000000E+00  0.00000000000E+00  0.15794251675E+03  0.15794251675E+03  0.00000000000E+00 0. -1.
          1   -1    0    0  501    0 -0.00000000000E+00 -0.00000000000E+00 -0.10963026965E+04  0.10963026965E+04  0.00000000000E+00 0. -1.
         25    2    1    2    0    0 -0.14805876931E+02 -0.61933949359E+02 -0.72533451684E+03  0.73877631567E+03  0.12500102076E+03 0.  0.
          2    1    1    2  501    0 -0.41672101779E+01 -0.23713112982E+02 -0.35107814740E+03  0.35190274644E+03  0.00000000000E+00 0. -1.
          1    1    1    2  502    0  0.18973087109E+02  0.85647062341E+02  0.13805248450E+03  0.16356615114E+03  0.00000000000E+00 0. -1.
         22    1    3    3    0    0 -0.13222296201E+02  0.34650044432E+02 -0.31747518720E+03  0.31963408639E+03  0.00000000000E+00 0. -1.
         22    1    3    3    0    0 -0.15835807298E+01 -0.96583993791E+02 -0.40785932965E+03  0.41914222928E+03  0.00000000000E+00 0. -1.
</event>
<event>
 7    1  0.6017574E-006  0.5375545E+02  0.7818608E-02  0.1510779E+00
          2   -1    0    0  502    0  0.00000000000E+00  0.00000000000E+00  0.27200857525E+03  0.27200857525E+03  0.00000000000E+00 0. -1.
          1   -1    0    0  501    0 -0.00000000000E+00 -0.00000000000E+00 -0.60476213572E+03  0.60476213572E+03  0.00000000000E+00 0. -1.
         25    2    1    2    0    0 -0.70616588614E+02 -0.33288097997E+02  0.11838761996E+03  0.18903252329E+03  0.12499146470E+03 0.  0.
          2    1    1    2  501    0  0.41375462514E+02  0.34034374175E+02 -0.56634782869E+03  0.56887619970E+03  0.00000000000E+00 0. -1.
          1    1    1    2  502    0  0.29241126100E+02 -0.74627617764E+00  0.11520664825E+03  0.11886198798E+03  0.00000000000E+00 0. -1.
         22    1    3    3    0    0 -0.87716001346E+02 -0.24776864947E+02  0.13555569883E+03  0.16335035174E+03  0.00000000000E+00 0. -1.
         22    1    3    3    0    0  0.17099412732E+02 -0.85112330506E+01 -0.17168078867E+02  0.25682171555E+02  0.00000000000E+00 0. -1.
</event>
<event>
 7    1  0.6017574E-006  0.1173332E+03  0.7818608E-02  0.1288782E+00
          2   -1    0    0  502    0  0.00000000000E+00  0.00000000000E+00  0.79037508629E+03  0.79037508629E+03  0.00000000000E+00 0. -1.
          1   -1    0    0  501    0 -0.00000000000E+00 -0.00000000000E+00 -0.29576951536E+03  0.29576951536E+03  0.00000000000E+00 0. -1.
         25    2    1    2    0    0 -0.10317472613E+03  0.55551201927E+02  0.15560322124E+03  0.23144783935E+03  0.12499911892E+03 0.  0.
          2    1    1    2  501    0 -0.15907122359E+02 -0.77036189193E+02 -0.24550327610E+03  0.25779734204E+03  0.00000000000E+00 0. -1.
          1    1    1    2  502    0  0.11908184849E+03  0.21484987267E+02  0.58450562580E+03  0.59689942026E+03  0.00000000000E+00 0. -1.
         22    1    3    3    0    0 -0.37489903186E+02  0.75663850568E+02  0.13587395540E+03  0.15997575716E+03  0.00000000000E+00 0.  1.
         22    1    3    3    0    0 -0.65684822947E+02 -0.20112648642E+02  0.19729265832E+02  0.71472082181E+02  0.00000000000E+00 0.  1.
</event>
<event>
 7    1  0.6017574E-006  0.2038778E+03  0.7818608E-02  0.1361771E+00
          2   -1    0    0  502    0  0.00000000000E+00  0.00000000000E+00  0.22225240411E+04  0.22225240411E+04  0.00000000000E+00 0. -1.
          1   -1    0    0  501    0 -0.00000000000E+00 -0.00000000000E+00 -0.16627013903E+04  0.16627013903E+04  0.00000000000E+00 0. -1.
         25    2    1    2    0    0 -0.96552260322E+02  0.19947504091E+03 -0.16640036889E+03  0.30399805790E+03  0.12495241303E+03 0.  0.
          2    1    1    2  501    0 -0.50886869923E+01 -0.23145158855E+02 -0.14225949622E+04  0.14227923319E+04  0.00000000000E+00 0. -1.
          1    1    1    2  502    0  0.10164094731E+03 -0.17632988205E+03  0.21488179819E+04  0.21584350416E+04  0.00000000000E+00 0. -1.
         22    1    3    3    0    0 -0.13029022366E+02  0.18590795267E+01 -0.65687978145E+02  0.66993447988E+02  0.00000000000E+00 0.  1.
         22    1    3    3    0    0 -0.83523237956E+02  0.19761596138E+03 -0.10071239075E+03  0.23700460991E+03  0.00000000000E+00 0.  1.
</event>
<event>
 7    1  0.6017574E-006  0.2805657E+02  0.7818608E-02  0.1679164E+00
          2   -1    0    0  502    0  0.00000000000E+00  0.00000000000E+00  0.11758324462E+04  0.11758324462E+04  0.00000000000E+00 0. -1.
          1   -1    0    0  501    0 -0.00000000000E+00 -0.00000000000E+00 -0.73193390026E+02  0.73193390026E+02  0.00000000000E+00 0. -1.
         25    2    1    2    0    0 -0.41583067706E+02  0.41847489832E+01  0.56197338359E+03  0.57722486620E+03  0.12501119412E+03 0.  0.
          2    1    1    2  501    0  0.17679563275E+02  0.96796319978E+01 -0.63695429544E+02  0.66808457384E+02  0.00000000000E+00 0. -1.
          1    1    1    2  502    0  0.23903504431E+02 -0.13864380981E+02  0.60436110216E+03  0.60499251267E+03  0.00000000000E+00 0. -1.
         22    1    3    3    0    0 -0.49759611158E+02  0.26181286379E+02  0.54588350861E+03  0.54877161336E+03  0.00000000000E+00 0. -1.
         22    1    3    3    0    0  0.81765434518E+01 -0.21996537396E+02  0.16089874974E+02  0.28453252836E+02  0.00000000000E+00 0. -1.
</event>
<event>
 7    1  0.6017574E-006  0.4532721E+02  0.7818608E-02  0.1514593E+00
          2   -1    0    0  502    0  0.00000000000E+00  0.00000000000E+00  0.13651937588E+04  0.13651937588E+04  0.00000000000E+00 0. -1.
          1   -1    0    0  501    0 -0.00000000000E+00 -0.00000000000E+00 -0.76642250762E+03  0.76642250762E+03  0.00000000000E+00 0. -1.
         25    2    1    2    0    0 -0.38492866245E+02 -0.68324947463E+02  0.23449096251E+02  0.14941597260E+03  0.12500109421E+03 0.  0.
          2    1    1    2  501    0  0.25604531157E+02  0.37070674159E+02 -0.70249387345E+03  0.70393712015E+03  0.00000000000E+00 0. -1.
          1    1    1    2  502    0  0.12888335088E+02  0.31254273305E+02  0.12778160284E+04  0.12782631737E+04  0.00000000000E+00 0. -1.
         22    1    3    3    0    0 -0.19890223410E+02  0.22677622416E+02 -0.29757105658E+02  0.42371935086E+02  0.00000000000E+00 0. -1.
         22    1    3    3    0    0 -0.18602642836E+02 -0.91002569879E+02  0.53206201909E+02  0.10704403751E+03  0.00000000000E+00 0. -1.
</event>
<event>
 7    1  0.6017574E-006  0.7542461E+02  0.7818608E-02  0.1416006E+00
          2   -1    0    0  502    0  0.00000000000E+00  0.00000000000E+00  0.55337495561E+03  0.55337495561E+03  0.00000000000E+00 0. -1.
          1   -1    0    0  501    0 -0.00000000000E+00 -0.00000000000E+00 -0.19059389340E+03  0.19059389340E+03  0.00000000000E+00 0. -1.
         25    2    1    2    0    0  0.78599670113E+02 -0.60263903625E+02  0.31837545729E+03  0.35608586176E+03  0.12499825168E+03 0.  0.
          2    1    1    2  501    0 -0.37478224721E+02  0.64992616149E+02 -0.16138477118E+03  0.17797107027E+03  0.00000000000E+00 0. -1.
          1    1    1    2  502    0 -0.41121445393E+02 -0.47287125243E+01  0.20579037610E+03  0.20991191698E+03  0.00000000000E+00 0. -1.
         22    1    3    3    0    0  0.90397296112E+02 -0.36757823904E+02  0.11416216402E+03  0.15018591297E+03  0.00000000000E+00 0.  1.
         22    1    3    3    0    0 -0.11797625999E+02 -0.23506079721E+02  0.20421329327E+03  0.20589994879E+03  0.00000000000E+00 0.  1.
</event>
<event>
 7    1  0.6017574E-006  0.1484128E+03  0.7818608E-02  0.1307216E+00
          2   -1    0    0  502    0  0.00000000000E+00  0.00000000000E+00  0.40949189093E+03  0.40949189093E+03  0.00000000000E+00 0. -1.
          1   -1    0    0  501    0 -0.00000000000E+00 -0.00000000000E+00 -0.42363760044E+03  0.42363760044E+03  0.00000000000E+00 0. -1.
         25    2    1    2    0    0  0.53970667176E+02 -0.12993840780E+03 -0.74298655104E+02  0.20234010994E+03  0.12499762878E+03 0.  0.
          2    1    1    2  501    0 -0.48379712227E+02 -0.20238284237E+02 -0.26629589429E+03  0.27141055252E+03  0.00000000000E+00 0. -1.
          1    1    1    2  502    0 -0.55909549491E+01  0.15017669203E+03  0.32644883989E+03  0.35937882892E+03  0.00000000000E+00 0. -1.
         22    1    3    3    0    0  0.90741113169E+02 -0.93978065338E+02 -0.29027605001E+02  0.13382237569E+03  0.00000000000E+00 0. -1.
         22    1    3    3    0    0 -0.36770445993E+02 -0.35960342459E+02 -0.45271050103E+02  0.68517734243E+02  0.00000000000E+00 0. -1.
</event>
<event>
 7    1  0.6017574E-006  0.2144567E+03  0.7818608E-02  0.1318304E+00
          2   -1    0    0  502    0  0.00000000000E+00  0.00000000000E+00  0.13574415664E+03  0.13574415664E+03  0.00000000000E+00 0. -1.
          1   -1    0    0  501    0 -0.00000000000E+00 -0.00000000000E+00 -0.61293147641E+03  0.61293147641E+03  0.00000000000E+00 0. -1.
         25    2    1    2    0    0 -0.98570835403E+02 -0.18397674725E+03 -0.17305559917E+03  0.29855749248E+03  0.12499873116E+03 0.  0.
          2    1    1    2  501    0  0.23974309820E+02 -0.22432309683E+02 -0.20789358759E+03  0.21047023498E+03  0.00000000000E+00 0. -1.
          1    1    1    2  502    0  0.74596525583E+02  0.20640905693E+03 -0.96238133004E+02  0.23964790560E+03  0.00000000000E+00 0. -1.
         22    1    3    3    0    0  0.20587737576E+02  0.87839762902E+00 -0.29263461260E+02  0.35790734636E+02  0.00000000000E+00 0. -1.
         22    1    3    3    0    0 -0.11915857298E+03 -0.18485514488E+03 -0.14379213791E+03  0.26276675785E+03  0.00000000000E+00 0. -1.
</event>
<event>
 7    1  0.6017574E-006  0.7997374E+02  0.7818608E-02  0.1370230E+00
          2   -1    0    0  502    0  0.00000000000E+00  0.00000000000E+00  0.68531512591E+03  0.68531512591E+03  0.00000000000E+00 0. -1.
          1   -1    0    0  501    0 -0.00000000000E+00 -0.00000000000E+00 -0.50532188467E+03  0.50532188467E+03  0.00000000000E+00 0. -1.
         25    2    1    2    0    0  0.12344452189E+03 -0.31452986174E+02 -0.24151764908E+03  0.30030612751E+03  0.12500062033E+03 0.  0.
          2    1    1    2  501    0 -0.55427779932E+02 -0.98940253816E+01 -0.22856613668E+03  0.23539883042E+03  0.00000000000E+00 0. -1.
          1    1    1    2  502    0 -0.68016741955E+02  0.41347011556E+02  0.65007702700E+03  0.65493205264E+03  0.00000000000E+00 0. -1.
         22    1    3    3    0    0  0.71442328966E+02  0.41537512936E+02 -0.76955048812E+02  0.11292232236E+03  0.00000000000E+00 0.  1.
         22    1    3    3    0    0  0.52002192921E+02 -0.72990499110E+02 -0.16456260026E+03  0.18738380516E+03  0.00000000000E+00 0.  1.
</event>
<event>
 7    1  0.6017574E-006  0.4244782E+02  0.7818608E-02  0.1600769E+00
          2   -1    0    0  502    0  0.00000000000E+00  0.00000000000E+00  0.25038793849E+04  0.25038793849E+04  0.00000000000E+00 0. -1.
          1   -1    0    0  501    0 -0.00000000000E+00 -0.00000000000E+00 -0.90820543130E+01  0.90820543130E+01  0.00000000000E+00 0. -1.
         25    2    1    2    0    0 -0.16684896592E+02 -0.17906924456E+02  0.20630153080E+04  0.20669435395E+04  0.12499756199E+03 0.  0.
          2    1    1    2  501    0  0.19038641670E+02  0.38636802938E+02  0.61138281547E+02  0.74787444725E+02  0.00000000000E+00 0. -1.
          1    1    1    2  502    0 -0.23537450780E+01 -0.20729878482E+02  0.37064374101E+03  0.37123045501E+03  0.00000000000E+00 0. -1.
         22    1    3    3    0    0  0.50486915050E+02  0.14614328358E+02  0.79872521672E+03  0.80045267131E+03  0.00000000000E+00 0. -1.
         22    1    3    3    0    0 -0.67171811642E+02 -0.32521252815E+02  0.12642900913E+04  0.12664908681E+04  0.00000000000E+00 0. -1.
</event>
<event>
 7    1  0.6017574E-006  0.1215878E+03  0.7818608E-02  0.1276589E+00
          2   -1    0    0  502    0  0.00000000000E+00  0.00000000000E+00  0.81911699362E+03  0.81911699362E+03  0.00000000000E+00 0. -1.
          1   -1    0    0  501    0 -0.00000000000E+00 -0.00000000000E+00 -0.29713113142E+03  0.29713113142E+03  0.00000000000E+00 0. -1.
         25    2    1    2    0    0 -0.25261610054E+02 -0.10975339229E+03 -0.18661187449E+03  0.25125931578E+03  0.12499318384E+03 0.  0.
          2    1    1    2  501    0  0.11026991325E+03  0.11555048025E+03  0.87382505432E+01  0.15996163377E+03  0.00000000000E+00 0. -1.
          1    1    1    2  502    0 -0.85008303198E+02 -0.57970879607E+01  0.69985948614E+03  0.70502717549E+03  0.00000000000E+00 0. -1.
         22    1    3    3    0    0  0.43417730078E+02 -0.68764007081E+01 -0.58525001214E+02  0.73195354626E+02  0.00000000000E+00 0. -1.
         22    1    3    3    0    0 -0.68679340132E+02 -0.10287699158E+03 -0.12808687327E+03  0.17806396116E+03  0.00000000000E+00 0. -1.
</event>
<event>
 7    1  0.6017574E-006  0.9961399E+02  0.7818608E-02  0.1377016E+00
          2   -1    0    0  502    0  0.00000000000E+00  0.00000000000E+00  0.54699733812E+02  0.54699733812E+02  0.00000000000E+00 0. -1.
          1   -1    0    0  501    0 -0.00000000000E+00 -0.00000000000E+00 -0.11317235733E+04  0.11317235733E+04  0.00000000000E+00 0. -1.
         25    2    1    2    0    0  0.11193655482E+03 -0.64197778239E+02 -0.38425997170E+03  0.42418400428E+03  0.12500078639E+03 0.  0.
          2    1    1    2  501    0 -0.42728575510E+02 -0.12459170659E+01 -0.66019099262E+03  0.66157345035E+03  0.00000000000E+00 0. -1.
          1    1    1    2  502    0 -0.69207979314E+02  0.65443695305E+02 -0.32572875143E+02  0.10066585246E+03  0.00000000000E+00 0. -1.
         22    1    3    3    0    0  0.50940379818E+02 -0.43152990855E+02 -0.33864762163E+03  0.34516563350E+03  0.00000000000E+00 0.  1.
         22    1    3    3    0    0  0.60996175006E+02 -0.21044787384E+02 -0.45612350074E+02  0.79018370780E+02  0.00000000000E+00 0.  1.
</event>
<event>
 7    1  0.6017574E-006  0.5832471E+02  0.7818608E-02  0.1523024E+00
          2   -1    0    0  502    0  0.00000000000E+00  0.00000000000E+00  0.12354492332E+04  0.12354492332E+04  0.00000000000E+00 0. -1.
          1   -1    0    0  501    0 -0.00000000000E+00 -0.00000000000E+00 -0.13606705292E+03  0.13606705292E+03  0.00000000000E+00 0. -1.
         25    2    1    2    0    0  0.45565234732E+02  0.18778374043E+02  0.35720896620E+03  0.38164529914E+03  0.12500428341E+03 0.  0.
          2    1    1    2  501    0 -0.58529007666E+02  0.23999347731E+01 -0.11673281235E+03  0.13060610209E+03  0.00000000000E+00 0. -1.
          1    1    1    2  502    0  0.12963772935E+02 -0.21178308816E+02  0.85890602645E+03  0.85926488491E+03  0.00000000000E+00 0. -1.
         22    1    3    3    0    0  0.66886809988E+02  0.23514433492E+02  0.35216252717E+03  0.35922864512E+03  0.00000000000E+00 0.  1.
         22    1    3    3    0    0 -0.21321575256E+02 -0.47360594491E+01  0.50464390341E+01  0.22416654020E+02  0.00000000000E+00 0.  1.
</event>
<event>
 7    1  0.6017574E-006  0.7959286E+02  0.7818608E-02  0.1344931E+00
          2   -1    0    0  502    0  0.00000000000E+00  0.00000000000E+00  0.18304921369E+03  0.18304921369E+03  0.00000000000E+00 0. -1.
          1   -1    0    0  501    0 -0.00000000000E+00 -0.00000000000E+00 -0.20691961191E+04  0.20691961191E+04  0.00000000000E+00 0. -1.
         25    2    1    2    0    0  0.40515344651E+02  0.25745699726E+02  0.35235650724E+01  0.13394695946E+03  0.12500015292E+03 0.  0.
          2    1    1    2  501    0  0.23726678033E+02 -0.75974130371E+02 -0.19885431720E+04  0.19901354152E+04  0.00000000000E+00 0. -1.
          1    1    1    2  502    0 -0.64242022684E+02  0.50228430645E+02  0.98872701562E+02  0.12816295813E+03  0.00000000000E+00 0. -1.
         22    1    3    3    0    0  0.53224459828E+02  0.67784851695E+02  0.17331792483E+02  0.87909159215E+02  0.00000000000E+00 0. -1.
         22    1    3    3    0    0 -0.12709115177E+02 -0.42039151968E+02 -0.13808227410E+02  0.46037800241E+02  0.00000000000E+00 0. -1.
</event>
<event>
 7    1  0.6017574E-006  0.6530407E+02  0.7818608E-02  0.1459394E+00
          2   -1    0    0  502    0  0.00000000000E+00  0.00000000000E+00  0.63437325304E+03  0.63437325304E+03  0.00000000000E+00 0. -1.
          1   -1    0    0  501    0 -0.00000000000E+00 -0.00000000000E+00 -0.10137045602E+04  0.10137045602E+04  0.00000000000E+00 0. -1.
         25    2    1    2    0    0  0.41634145938E+01 -0.78227748481E+02  0.25759286044E+03  0.29684445046E+03  0.12500252545E+03 0.  0.
          2    1    1    2  501    0 -0.28940063978E+02  0.18834898983E+02 -0.99087671922E+03  0.99147816588E+03  0.00000000000E+00 0. -1.
          1    1    1    2  502    0  0.24776649384E+02  0.59392849498E+02  0.35395255160E+03  0.35975519692E+03  0.00000000000E+00 0. -1.
         22    1    3    3    0    0  0.21173266697E+02  0.74789605673E+01 -0.23791646576E+01  0.22581020753E+02  0.00000000000E+00 0. -1.
         22    1    3    3    0    0 -0.17009852103E+02 -0.85706709049E+02  0.25997202509E+03  0.27426342971E+03  0.00000000000E+00 0. -1.
</event>
<event>
 7    1  0.6017574E-006  0.7176167E+02  0.7818608E-02  0.1498436E+00
          2   -1    0    0  502    0  0.00000000000E+00  0.00000000000E+00  0.12695187445E+02  0.12695187445E+02  0.00000000000E+00 0. -1.
          1   -1    0    0  501    0 -0.00000000000E+00 -0.00000000000E+00 -0.15434630718E+04  0.15434630718E+04  0.00000000000E+00 0. -1.
         25    2    1    2    0    0 -0.56702011139E+02  0.68204342056E+02 -0.97598908895E+03  0.98794742339E+03  0.12497383439E+03 0.  0.
          2    1    1    2  501    0  0.46943485001E+02 -0.46455522361E+02 -0.52897297504E+03  0.53307993272E+03  0.00000000000E+00 0. -1.
          1    1    1    2  502    0  0.97585261380E+01 -0.21748819695E+02 -0.25805820340E+02  0.35130903119E+02  0.00000000000E+00 0. -1.
         22    1    3    3    0    0 -0.60178098197E+02 -0.15565608591E+02 -0.57082961182E+03  0.57420391622E+03  0.00000000000E+00 0. -1.
         22    1    3    3    0    0  0.34760870580E+01  0.83769950647E+02 -0.40515947713E+03  0.41374350717E+03  0.00000000000E+00 0. -1.
</event>
<event>
 7    1  0.6017574E-006  0.1111767E+03  0.7818608E-02  0.1283712E+00
          2   -1    0    0  502    0  0.00000000000E+00  0.00000000000E+00  0.37513006624E+03  0.37513006624E+03  0.00000000000E+00 0. -1.
          1   -1    0    0  501    0 -0.00000000000E+00 -0.00000000000E+00 -0.25102342122E+04  0.25102342122E+04  0.00000000000E+00 0. -1.
         25    2    1    2    0    0  0.98685904696E+02 -0.15500370739E+03 -0.37970498997E+03  0.43995951114E+03  0.12499373963E+03 0.  0.
          2    1    1    2  501    0 -0.27691400415E+02  0.10458045007E+03 -0.20934882216E+04  0.20962816648E+04  0.00000000000E+00 0. -1.
          1    1    1    2  502    0 -0.70994504281E+02  0.50423257317E+02  0.33808906553E+03  0.34912310257E+03  0.00000000000E+00 0. -1.
         22    1    3    3    0    0  0.70239506675E+02 -0.13643728677E+03 -0.17627393107E+03  0.23371183174E+03  0.00000000000E+00 0.  1.
         22    1    3    3    0    0  0.28446398021E+02 -0.18566420620E+02 -0.20343105889E+03  0.20624767940E+03  0.00000000000E+00 0.  1.
</event>
<event>
 7    1  0.6017574E-006  0.6804979E+02  0.7818608E-02  0.1395237E+00
          2   -1    0    0  502    0  0.00000000000E+00  0.00000000000E+00  0.15290899999E+04  0.15290899999E+04  0.00000000000E+00 0. -1.
          1   -1    0    0  501    0 -0.00000000000E+00 -0.00000000000E+00 -0.79730328617E+02  0.79730328617E+02  0.00000000000E+00 0. -1.
         25    2    1    2    0    0 -0.16195231167E+02 -0.49796444698E+01  0.69604088353E+02  0.14407194655E+03  0.12499965718E+03 0.  0.
          2    1    1    2  501    0 -0.37074283103E+02 -0.39270301870E+02 -0.24132980049E+02  0.59152851179E+02  0.00000000000E+00 0. -1.
          1    1    1    2  502    0  0.53269514270E+02  0.44249946339E+02  0.14038885630E+04  0.14055955308E+04  0.00000000000E+00 0. -1.
         22    1    3    3    0    0 -0.26047827135E+02  0.51676231888E+02  0.57731008581E+01  0.58157122815E+02  0.00000000000E+00 0. -1.
         22    1    3    3    0    0  0.98525959682E+01 -0.56655876358E+02  0.63830987495E+02  0.85914823737E+02  0.00000000000E+00 0. -1.
</event>
<event>
 7    1  0.6017574E-006  0.1065560E+03  0.7818608E-02  0.1388454E+00
          2   -1    0    0  502    0  0.00000000000E+00  0.00000000000E+00  0.15795591931E+04  0.15795591931E+04  0.00000000000E+00 0. -1.
          1   -1    0    0  501    0 -0.00000000000E+00 -0.00000000000E+00 -0.30841861836E+03  0.30841861836E+03  0.00000000000E+00 0. -1.
         25    2    1    2    0    0  0.18636861043E+02  0.86585473514E+02  0.52443033810E+03  0.54634963622E+03  0.12500547456E+03 0.  0.
          2    1    1    2  501    0 -0.54657248741E+02 -0.91941788013E+02 -0.28751276364E+03  0.30676423599E+03  0.00000000000E+00 0. -1.
          1    1    1    2  502    0  0.36020387698E+02  0.53563144993E+01  0.10342230003E+04  0.10348639392E+04  0.00000000000E+00 0. -1.
         22    1    3    3    0    0  0.95722264874E+01 -0.30366610946E+02  0.17165856478E+03  0.17458642972E+03  0.00000000000E+00 0. -1.
         22    1    3    3    0    0  0.90646345558E+01  0.11695208446E+03  0.35277177331E+03  0.37176320650E+03  0.00000000000E+00 0. -1.
</event>
<event>
 7    1  0.6017574E-006  0.8213080E+02  0.7818608E-02  0.1400852E+00
          2   -1    0    0  502    0  0.00000000000E+00  0.00000000000E+00  0.25827405526E+04  0.25827405526E+04  0.00000000000E+00 0. -1.
          1   -1    0    0  501    0 -0.00000000000E+00 -0.00000000000E+00 -0.30331929732E+02  0.30331929732E+02  0.00000000000E+00 0. -1.
         25    2    1    2    0    0  0.43244970291E+02  0.31478527692E+01  0.14662641816E+04  0.14722203489E+04  0.12498827477E+03 0.  0.
          2    1    1    2  501    0 -0.82900613705E+02  0.12942968496E+02  0.38469510912E+02  0.92303496445E+02  0.00000000000E+00 0. -1.
          1    1    1    2  502    0  0.39655643414E+02 -0.16090821265E+02  0.10476749303E+04  0.10485486371E+04  0.00000000000E+00 0. -1.
         22    1    3    3    0    0 -0.14081165483E+02  0.34783826711E+02  0.16101935255E+03  0.16533428476E+03  0.00000000000E+00 0.  1.
         22    1    3    3    0    0  0.57326135774E+02 -0.31635973942E+02  0.13052448291E+04  0.13068860641E+04  0.00000000000E+00 0.  1.
</event>
<event>
 7    1  0.6017574E-006  0.5219372E+02  0.7818608E-02  0.1523384E+00
          2   -1    0    0  502    0  0.00000000000E+00  0.00000000000E+00  0.30493817441E+03  0.30493817441E+03  0.00000000000E+00 0. -1.
          1   -1    0    0  501    0 -0.00000000000E+00 -0.00000000000E+00 -0.16788524634E+04  0.16788524634E+04  0.00000000000E+00 0. -1.
         25    2    1    2    0    0  0.28541826405E+02 -0.45570796475E+02 -0.62408648318E+02  0.14970378796E+03  0.12500020559E+03 0.  0.
          2    1    1    2  501    0 -0.16715998940E+01  0.52223314776E+02 -0.15716277168E+04  0.15724960251E+04  0.00000000000E+00 0. -1.
          1    1    1    2  502    0 -0.26870226511E+02 -0.66525183004E+01  0.26012207614E+03  0.26159082471E+03  0.00000000000E+00 0. -1.
         22    1    3    3    0    0 -0.37855189611E+02 -0.51260147339E+02 -0.91096746069E+01  0.64370833901E+02  0.00000000000E+00 0. -1.
         22    1    3    3    0    0  0.66397016016E+02  0.56893508635E+01 -0.53298973711E+02  0.85332954055E+02  0.00000000000E+00 0. -1.
</event>
<event>
 7    1  0.6017574E-006  0.1449443E+03  0.7818608E-02  0.1267402E+00
          2   -1    0    0  502    0  0.00000000000E+00  0.00000000000E+00  0.18622764404E+04  0.18622764404E+04  0.00000000000E+00 0. -1.
          1   -1    0    0  501    0 -0.00000000000E+00 -0.00000000000E+00 -0.22635889955E+03  0.22635889955E+03  0.00000000000E+00 0. -1.
         25    2    1    2    0    0 -0.10889757397E+03 -0.10982953917E+03 -0.85040083271E+02  0.21628259400E+03  0.12500054165E+03 0.  0.
          2    1    1    2  501    0  0.13994767141E+03  0.38174874951E+02 -0.44981628300E+01  0.14513064900E+03  0.00000000000E+00 0. -1.
          1    1    1    2  502    0 -0.31050097439E+02  0.71654664217E+02  0.17254557869E+04  0.17272220969E+04  0.00000000000E+00 0. -1.
         22    1    3    3    0    0 -0.10303654899E+03 -0.16632149562E+02 -0.56253276191E+02  0.11856470769E+03  0.00000000000E+00 0. -1.
         22    1    3    3    0    0 -0.58610249821E+01 -0.93197389606E+02 -0.28786807080E+02  0.97717886311E+02  0.00000000000E+00 0. -1.
</event>
<event>
 7    1  0.6017574E-006  0.4439027E+02  0.7818608E-02  0.1577046E+00
          2   -1    0    0  502    0  0.00000000000E+00  0.00000000000E+00  0.82523475352E+03  0.82523475352E+03  0.00000000000E+00 0. -1.
          1   -1    0    0  501    0 -0.00000000000E+00 -0.00000000000E+00 -0.32246644478E+03  0.32246644478E+03  0.00000000000E+00 0. -1.
         25    2    1    2    0    0  0.38579937940E+02 -0.12722662392E+02  0.42490331277E+02  0.13813335592E+03  0.12500047206E+03 0.  0.
          2    1    1    2  501    0 -0.95129921251E+01 -0.21004560624E+02 -0.27348495592E+03  0.27445529636E+03  0.00000000000E+00 0. -1.
          1    1    1    2  502    0 -0.29066945815E+02  0.33727223016E+02  0.73376293338E+03  0.73511254602E+03  0.00000000000E+00 0. -1.
         22    1    3    3    0    0 -0.44441470694E+02 -0.89946025879E+01  0.29306455846E+02  0.53989031733E+02  0.00000000000E+00 0. -1.
         22    1    3    3    0    0  0.83021408634E+02 -0.37280598040E+01  0.13183875431E+02  0.84144324187E+02  0.00000000000E+00 0. -1.
</event>
<event>
 7    1  0.6017574E-006  0.1353797E+03  0.7818608E-02  0.1247598E+00
          2   -1    0    0  502    0  0.00000000000E+00  0.00000000000E+00  0.55648865109E+03  0.55648865109E+03  0.00000000000E+00 0. -1.
          1   -1    0    0  501    0 -0.00000000000E+00 -0.00000000000E+00 -0.35112272304E+03  0.35112272304E+03  0.00000000000E+00 0. -1.
         25    2    1    2    0    0 -0.42250544232E+02 -0.40190607759E+02  0.34134760544E+02  0.14209080726E+03  0.12499688873E+03 0.  0.
          2    1    1    2  501    0 -0.27769769664E+02 -0.97789068546E+02 -0.27501974283E+03  0.29320593613E+03  0.00000000000E+00 0. -1.
          1    1    1    2  502    0  0.70020313896E+02  0.13797967631E+03  0.44625091034E+03  0.47231463074E+03  0.00000000000E+00 0. -1.
         22    1    3    3    0    0 -0.46559710442E+02 -0.66643542932E+02  0.62889267202E+02  0.10278243225E+03  0.00000000000E+00 0.  1.
         22    1    3    3    0    0  0.43091662102E+01  0.26452935172E+02 -0.28754506658E+02  0.39308375009E+02  0.00000000000E+00 0.  1.
</event>
<event>
 7    1  0.6017574E-006  0.9911740E+02  0.7818608E-02  0.1317733E+00
          2   -1    0    0  502    0  0.00000000000E+00  0.00000000000E+00  0.82029783000E+03  0.82029783000E+03  0.00000000000E+00 0. -1.
          1   -1    0    0  501    0 -0.00000000000E+00 -0.00000000000E+00 -0.36326254120E+04  0.36326254120E+04  0.00000000000E+00 0. -1.
         25    2    1    2    0    0  0.31028612612E+02  0.28427729494E+01 -0.71964774097E+02  0.14756303420E+03  0.12500025677E+03 0.  0.
          2    1    1    2  501    0 -0.98029926086E+02  0.21838616834E+02 -0.35205150072E+04  0.35219472891E+04  0.00000000000E+00 0. -1.
          1    1    1    2  502    0  0.67001313474E+02 -0.24681389784E+02  0.78015219931E+03  0.78341291864E+03  0.00000000000E+00 0. -1.
         22    1    3    3    0    0  0.57885400486E+01  0.45600438219E+02 -0.84642455613E+02  0.96318494869E+02  0.00000000000E+00 0.  1.
         22    1    3    3    0    0  0.25240072563E+02 -0.42757665269E+02  0.12677681516E+02  0.51244539328E+02  0.00000000000E+00 0.  1.
</event>
<event>
 7    1  0.6017574E-006  0.4918437E+02  0.7818608E-02  0.1488289E+00
          2   -1    0    0  502    0  0.00000000000E+00  0.00000000000E+00  0.81645457250E+03  0.81645457250E+03  0.00000000000E+00 0. -1.
          1   -1    0    0  501    0 -0.00000000000E+00 -0.00000000000E+00 -0.10372698110E+04  0.10372698110E+04  0.00000000000E+00 0. -1.
         25    2    1    2    0    0  0.58250323517E+02 -0.47136587953E+02  0.10435015079E+02  0.14611333108E+03  0.12500103146E+03 0.  0.
          2    1    1    2  501    0 -0.37200238351E+02  0.29302000750E+01 -0.96825896965E+03  0.96897774800E+03  0.00000000000E+00 0. -1.
          1    1    1    2  502    0 -0.21050085166E+02  0.44206387878E+02  0.73700871607E+03  0.73863330441E+03  0.00000000000E+00 0. -1.
         22    1    3    3    0    0  0.14311615674E+02 -0.83546821085E+02  0.22689999135E+02  0.87748103782E+02  0.00000000000E+00 0. -1.
         22    1    3    3    0    0  0.43938707843E+02  0.36410233132E+02 -0.12254984056E+02  0.58365227301E+02  0.00000000000E+00 0. -1.
</event>
<event>
 7    1  0.6017574E-006  0.3061938E+02  0.7818608E-02  0.1624647E+00
          2   -1    0    0  502    0  0.00000000000E+00  0.00000000000E+00  0.25648264166E+03  0.25648264166E+03  0.00000000000E+00 0. -1.
          1   -1    0    0  501    0 -0.00000000000E+00 -0.00000000000E+00 -0.29081095901E+04  0.29081095901E+04  0.00000000000E+00 0. -1.
         25    2    1    2    0    0  0.14901238112E+02  0.26472230864E+02 -0.13146919903E+04  0.13209704902E+04  0.12500072197E+03 0.  0.
          2    1    1    2  501    0  0.15054643172E+02 -0.20096934204E+02 -0.15892531867E+04  0.15894515471E+04  0.00000000000E+00 0. -1.
          1    1    1    2  502    0 -0.29955881284E+02 -0.63752966605E+01  0.25231822868E+03  0.25417019446E+03  0.00000000000E+00 0. -1.
         22    1    3    3    0    0  0.43271421718E+02 -0.97666190525E+01 -0.11213209489E+04  0.11221980544E+04  0.00000000000E+00 0. -1.
         22    1    3    3    0    0 -0.28370183605E+02  0.36238849917E+02 -0.19337104143E+03  0.19877243577E+03  0.00000000000E+00 0. -1.
</event>
<event>
 7    1  0.6017574E-006  0.5328159E+02  0.7818608E-02  0.1443535E+00
          2   -1    0    0  502    0  0.00000000000E+00  0.00000000000E+00  0.94686803119E+03  0.94686803119E+03  0.00000000000E+00 0. -1.
          1   -1    0    0  501    0 -0.00000000000E+00 -0.00000000000E+00 -0.58119591915E+03  0.58119591915E+03  0.00000000000E+00 0. -1.
         25    2    1    2    0    0 -0.47424361850E+02 -0.37348893505E+02  0.19168657923E+03  0.23666966952E+03  0.12499911149E+03 0.  0.
          2    1    1    2  501    0 -0.55013047264E+01  0.47234958167E+02 -0.55670019358E+03  0.55872758224E+03  0.00000000000E+00 0. -1.
          1    1    1    2  502    0  0.52925666577E+02 -0.98860646625E+01  0.73068572639E+03  0.73266669858E+03  0.00000000000E+00 0. -1.
         22    1    3    3    0    0  0.38732972587E+02 -0.25410180402E+02  0.37331118751E+02  0.59493973314E+02  0.00000000000E+00 0. -1.
         22    1    3    3    0    0 -0.86157334437E+02 -0.11938713103E+02  0.15435546048E+03  0.17717569621E+03  0.00000000000E+00 0. -1.
</event>
<event>
 7    1  0.6017574E-006  0.6649824E+02  0.7818608E-02  0.1422946E+00
          2   -1    0    0  502    0  0.00000000000E+00  0.00000000000E+00  0.28542883931E+04  0.28542883931E+04  0.00000000000E+00 0. -1.
          1   -1    0    0  501    0 -0.00000000000E+00 -0.00000000000E+00 -0.61285212570E+01  0.61285212570E+01  0.00000000000E+00 0. -1.
         25    2    1    2    0    0 -0.66492668927E+01  0.35982938473E+02  0.18968639824E+04  0.19013304884E+04  0.12500269512E+03 0.  0.
          2    1    1    2  501    0  0.38899490502E+02 -0.66655242088E+02  0.63576120712E+03  0.64042829742E+03  0.00000000000E+00 0. -1.
          1    1    1    2  502    0 -0.32250223609E+02  0.30672303616E+02  0.31553468227E+03  0.31865812849E+03  0.00000000000E+00 0. -1.
         22    1    3    3    0    0  0.35683810356E+02  0.64614815509E+02  0.84199535746E+03  0.84522458003E+03  0.00000000000E+00 0.  1.
         22    1    3    3    0    0 -0.42333077249E+02 -0.28631877036E+02  0.10548686250E+04  0.10561059084E+04  0.00000000000E+00 0.  1.
</event>
<event>
 7    1  0.6017574E-006  0.8115512E+02  0.7818608E-02  0.1506049E+00
          2   -1    0    0  502    0  0.00000000000E+00  0.00000000000E+00  0.37733691571E+02  0.37733691571E+02  0.00000000000E+00 0. -1.
          1   -1    0    0  501    0 -0.00000000000E+00 -0.00000000000E+00 -0.69733731548E+03  0.69733731548E+03  0.00000000000E+00 0. -1.
         25    2    1    2    0    0 -0.15564996914E+02 -0.87433661843E+02 -0.54036648848E+03  0.56170089501E+03  0.12500015691E+03 0.  0.
          2    1    1    2  501    0  0.18805863283E+00  0.74633066776E+02 -0.13055587890E+03  0.15038273684E+03  0.00000000000E+00 0. -1.
          1    1    1    2  502    0  0.15376938281E+02  0.12800595067E+02  0.11318743475E+02  0.22987375205E+02  0.00000000000E+00 0. -1.
         22    1    3    3    0    0  0.37822771960E+02 -0.14454398044E+02 -0.56810921053E+02  0.69763690072E+02  0.00000000000E+00 0. -1.
         22    1    3    3    0    0 -0.53387768875E+02 -0.72979263800E+02 -0.48355556743E+03  0.49193720493E+03  0.00000000000E+00 0. -1.
</event>
<event>
 7    1  0.6017574E-006  0.8085606E+02  0.7818608E-02  0.1358282E+00
          2   -1    0    0  502    0  0.00000000000E+00  0.00000000000E+00  0.12957407409E+04  0.12957407409E+04  0.00000000000E+00 0. -1.
          1   -1    0    0  501    0 -0.00000000000E+00 -0.00000000000E+00 -0.18503377027E+03  0.18503377027E+03  0.00000000000E+00 0. -1.
         25    2    1    2    0    0 -0.18580647922E+02 -0.17807977797E+02  0.44623723766E+03  0.46412837350E+03  0.12500044105E+03 0.  0.
          2    1    1    2  501    0  0.21343103503E+02  0.79277737885E+02 -0.16531699076E+03  0.18458113454E+03  0.00000000000E+00 0. -1.
          1    1    1    2  502    0 -0.27624555801E+01 -0.61469760088E+02  0.82978672370E+03  0.83206500311E+03  0.00000000000E+00 0. -1.
         22    1    3    3    0    0  0.44786532638E+02  0.11632767668E+02  0.91047872331E+02  0.10213163000E+03  0.00000000000E+00 0. -1.
         22    1    3    3    0    0 -0.63367180560E+02 -0.29440745466E+02  0.35518936533E+03  0.36199674350E+03  0.00000000000E+00 0. -1.
</event>
<event>
 7    1  0.6017574E-006  0.7202394E+02  0.7818608E-02  0.1375191E+00
          2   -1    0    0  502    0  0.00000000000E+00  0.00000000000E+00  0.63284339466E+02  0.63284339466E+02  0.00000000000E+00 0. -1.
          1   -1    0    0  501    0 -0.00000000000E+00 -0.00000000000E+00 -0.13062759617E+04  0.13062759617E+04  0.00000000000E+00 0. -1.
         25    2    1    2    0    0 -0.85829289084E+02 -0.86117123447E+02 -0.43968712329E+03  0.47300399878E+03  0.12500076261E+03 0.  0.
          2    1    1    2  501    0  0.31543466962E+02  0.60530851014E+02 -0.82861670014E+03  0.83142324359E+03  0.00000000000E+00 0. -1.
          1    1    1    2  502    0  0.54285822122E+02  0.25586272433E+02  0.25312201191E+02  0.65133058808E+02  0.00000000000E+00 0. -1.
         22    1    3    3    0    0  0.32451463757E+02 -0.25763887691E+02 -0.11326659423E+03  0.12060761493E+03  0.00000000000E+00 0. -1.
         22    1    3    3    0    0 -0.11828075284E+03 -0.60353235756E+02 -0.32642052906E+03  0.35239638385E+03  0.00000000000E+00 0. -1.
</event>
<event>
 7    1  0.6017574E-006  0.4241735E+02  0.7818608E-02  0.1587093E+00
          2   -1    0    0  502    0  0.00000000000E+00  0.00000000000E+00  0.91473229261E+03  0.91473229261E+03  0.00000000000E+00 0. -1.
          1   -1    0    0  501    0 -0.00000000000E+00 -0.00000000000E+00 -0.96633872715E+02  0.96633872715E+02  0.00000000000E+00 0. -1.
         25    2    1    2    0    0 -0.20895572350E+02 -0.45853631135E+02  0.29246894318E+03  0.32203009395E+03  0.12500447294E+03 0.  0.
          2    1    1    2  501    0 -0.15140876595E+01  0.42340814482E+02 -0.76142783893E+02  0.87136448008E+02  0.00000000000E+00 0. -1.
          1    1    1    2  502    0  0.22409660010E+02  0.35128166522E+01  0.60177226061E+03  0.60219962337E+03  0.00000000000E+00 0. -1.
         22    1    3    3    0    0  0.40734518131E+02 -0.31427094061E+02  0.21943030921E+03  0.22538106356E+03  0.00000000000E+00 0.  1.
         22    1    3    3    0    0 -0.61630090482E+02 -0.14426537073E+02  0.73038633963E+02  0.96649030393E+02  0.00000000000E+00 0.  1.
</event>
<event>
 7    1  0.6017574E-006  0.1068152E+03  0.7818608E-02  0.1314660E+00
          2   -1    0    0  502    0  0.00000000000E+00  0.00000000000E+00  0.13566303833E+04  0.13566303833E+04  0.00000000000E+00 0. -1.
          1   -1    0    0  501    0 -0.00000000000E+00 -0.00000000000E+00 -0.91121288924E+03  0.91121288924E+03  0.00000000000E+00 0. -1.
         25    2    1    2    0    0 -0.13922144085E+03 -0.12718147430E+02  0.30791171738E+03  0.36052428469E+03  0.12499509305E+03 0.  0.
          2    1    1    2  501    0  0.89016847890E+02  0.58748697129E+02 -0.88055075091E+03  0.88698649006E+03  0.00000000000E+00 0. -1.
          1    1    1    2  502    0  0.50204592957E+02 -0.46030549700E+02  0.10180565276E+04  0.10203324978E+04  0.00000000000E+00 0. -1.
         22    1    3    3    0    0 -0.45525641122E+02  0.38996665549E+02  0.19899613701E+03  0.20782874313E+03  0.00000000000E+00 0. -1.
         22    1    3    3    0    0 -0.93695799725E+02 -0.51714812979E+02  0.10891558037E+03  0.15269554157E+03  0.00000000000E+00 0. -1.
</event>
<event>
 7    1  0.6017574E-006  0.1886065E+03  0.7818608E-02  0.1166597E+00
          2   -1    0    0  502    0  0.00000000000E+00  0.00000000000E+00  0.18612724448E+03  0.18612724448E+03  0.00000000000E+00 0. -1.
          1   -1    0    0  501    0 -0.00000000000E+00 -0.00000000000E+00 -0.63906679303E+03  0.63906679303E+03  0.00000000000E+00 0. -1.
         25    2    1    2    0    0  0.15693166862E+03  0.76601074575E+01 -0.19847741483E+03  0.28232041539E+03  0.12500122754E+03 0.  0.
          2    1    1    2  501    0 -0.18320387836E+03 -0.17985087248E+03 -0.26423561875E+03  0.36841615002E+03  0.00000000000E+00 0. -1.
          1    1    1    2  502    0  0.26272209743E+02  0.17219076502E+03  0.97734850314E+01  0.17445747210E+03  0.00000000000E+00 0. -1.
         22    1    3    3    0    0  0.16128664174E+03 -0.19091649463E+01 -0.11478755811E+03  0.19797274866E+03  0.00000000000E+00 0. -1.
         22    1    3    3    0    0 -0.43549731250E+01  0.95692724037E+01 -0.83689856712E+02  0.84347666723E+02  0.00000000000E+00 0. -1.
</event>
<event>
 7    1  0.6017574E-006  0.5258864E+02  0.7818608E-02  0.1448842E+00
          2   -1    0    0  502    0  0.00000000000E+00  0.00000000000E+00  0.17035177656E+03  0.17035177656E+03  0.00000000000E+00 0. -1.
          1   -1    0    0  501    0 -0.00000000000E+00 -0.00000000000E+00 -0.77003157081E+03  0.77003157081E+03  0.00000000000E+00 0. -1.
         25    2    1    2    0    0 -0.90595916095E+01  0.91817828170E+02 -0.18227900467E+03  0.23950981827E+03  0.12500691075E+03 0.  0.
          2    1    1    2  501    0 -0.12345032897E+02 -0.44648265838E+02 -0.55340432468E+03  0.55533972850E+03  0.00000000000E+00 0. -1.
          1    1    1    2  502    0  0.21404624506E+02 -0.47169562332E+02  0.13600353509E+03  0.14553380060E+03  0.00000000000E+00 0. -1.
         22    1    3    3    0    0 -0.30963203657E+02  0.53880357526E+02 -0.11495826627E+02  0.63197839659E+02  0.00000000000E+00 0.  1.
         22    1    3    3    0    0  0.21903612047E+02  0.37937470644E+02 -0.17078317804E+03  0.17631197861E+03  0.00000000000E+00 0.  1.
</event>
<event>
 7    1  0.6017574E-006  0.7206625E+02  0.7818608E-02  0.1378445E+00
          2   -1    0    0  502    0  0.00000000000E+00  0.00000000000E+00  0.21371725992E+04  0.21371725992E+04  0.00000000000E+00 0. -1.
          1   -1    0    0  501    0 -0.00000000000E+00 -0.00000000000E+00 -0.50675538890E+03  0.50675538890E+03  0.00000000000E+00 0. -1.
         25    2    1    2    0    0  0.60899451797E+02 -0.83354207715E+01  0.16313868463E+03  0.21451824434E+03  0.12500249703E+03 0.  0.
          2    1    1    2  501    0 -0.22711102451E+02 -0.53803001295E+02 -0.47860749782E+03  0.48215733334E+03  0.00000000000E+00 0. -1.
          1    1    1    2  502    0 -0.38188349347E+02  0.62138422067E+02  0.19458860235E+04  0.19472524104E+04  0.00000000000E+00 0. -1.
         22    1    3    3    0    0  0.89731282642E+01 -0.23607383943E+02  0.15816054539E+03  0.16016423984E+03  0.00000000000E+00 0. -1.
         22    1    3    3    0    0  0.51926323533E+02  0.15271963171E+02  0.49781392440E+01  0.54354004499E+02  0.00000000000E+00 0. -1.
</event>
<event>
 7    1  0.6017574E-006  0.1850661E+03  0.7818608E-02  0.1193065E+00
          2   -1    0    0  502    0  0.00000000000E+00  0.00000000000E+00  0.13827081391E+03  0.13827081391E+03  0.00000000000E+00 0. -1.
          1   -1    0    0  501    0 -0.00000000000E+00 -0.00000000000E+00 -0.28814987394E+04  0.28814987394E+04  0.00000000000E+00 0. -1.
         25    2    1    2    0    0 -0.30110579072E+03  0.76295119472E+02 -0.30791076688E+03  0.45488398771E+03  0.12499903781E+03 0.  0.
          2    1    1    2  501    0  0.17127765643E+03 -0.53453941503E+02 -0.24261171202E+04  0.24327428225E+04  0.00000000000E+00 0. -1.
          1    1    1    2  502    0  0.12982813429E+03 -0.22841177969E+02 -0.92000384640E+01  0.13214274317E+03  0.00000000000E+00 0. -1.
         22    1    3    3    0    0 -0.37209654275E+02  0.59703167956E+02 -0.61161459717E+02  0.93218832808E+02  0.00000000000E+00 0. -1.
         22    1    3    3    0    0 -0.26389613645E+03  0.16591951516E+02 -0.24674930717E+03  0.36166515491E+03  0.00000000000E+00 0. -1.
</event>
<event>
 7    1  0.6017574E-006  0.5110904E+02  0.7818608E-02  0.1508609E+00
          2   -1    0    0  502    0  0.00000000000E+00  0.00000000000E+00  0.71542107593E+02  0.71542107593E+02  0.00000000000E+00 0. -1.
          1   -1    0    0  501    0 -0.00000000000E+00 -0.00000000000E+00 -0.20079841853E+04  0.20079841853E+04  0.00000000000E+00 0. -1.
         25    2    1    2    0    0  0.51932815613E+02  0.13997543976E+02 -0.13041421084E+04  0.13112226143E+04  0.12500062643E+03 0.  0.
          2    1    1    2  501    0 -0.18765123628E+02  0.24952657002E+02 -0.69027693557E+03  0.69098264287E+03  0.00000000000E+00 0. -1.
          1    1    1    2  502    0 -0.33167691986E+02 -0.38950200978E+02  0.57976966305E+02  0.77321035752E+02  0.00000000000E+00 0. -1.
         22    1    3    3    0    0  0.31496014938E+01 -0.29387840624E+02 -0.98641418927E+03  0.98685688829E+03  0.00000000000E+00 0. -1.
         22    1    3    3    0    0  0.48783214120E+02  0.43385384600E+02 -0.31772791917E+03  0.32436572599E+03  0.00000000000E+00 0. -1.
</event>
<event>
 7    1  0.6017574E-006  0.4311859E+02  0.7818608E-02  0.1564057E+00
          2   -1    0    0  502    0  0.00000000000E+00  0.00000000000E+00  0.12073965287E+03  0.12073965287E+03  0.00000000000E+00 0. -1.
          1   -1    0    0  501    0 -0.00000000000E+00 -0.00000000000E+00 -0.52168054177E+03  0.52168054177E+03  0.00000000000E+00 0. -1.
         25    2    1    2    0    0  0.48973057073E+01  0.45121008032E+02 -0.98736399489E+02  0.16563175415E+03  0.12500044972E+03 0.  0.
          2    1    1    2  501    0  0.22855965137E+02 -0.11852468918E+02 -0.38366255699E+03  0.38452546574E+03  0.00000000000E+00 0. -1.
          1    1    1    2  502    0 -0.27753270844E+02 -0.33268539114E+02  0.81458067574E+02  0.92262974752E+02  0.00000000000E+00 0. -1.
         22    1    3    3    0    0 -0.16940584691E+02  0.85357002239E+02 -0.60529432033E+02  0.10600289328E+03  0.00000000000E+00 0.  1.
         22    1    3    3    0    0  0.21837890398E+02 -0.40235994208E+02 -0.38206967455E+02  0.59628860874E+02  0.00000000000E+00 0.  1.
</event>
<event>
 7    1  0.6017574E-006  0.1675071E+03  0.7818608E-02  0.1265332E+00
          2   -1    0    0  502    0  0.00000000000E+00  0.00000000000E+00  0.10102983746E+04  0.10102983746E+04  0.00000000000E+00 0. -1.
          1   -1    0    0  501    0 -0.00000000000E+00 -0.00000000000E+00 -0.13289023541E+04  0.13289023541E+04  0.00000000000E+00 0. -1.
         25    2    1    2    0    0  0.16138661971E+03  0.10176186791E+03  0.30145422392E+03  0.37802233653E+03  0.12500047603E+03 0.  0.
          2    1    1    2  501    0 -0.81525440832E+00 -0.68943816616E+02 -0.12796622612E+04  0.12815184030E+04  0.00000000000E+00 0. -1.
          1    1    1    2  502    0 -0.16057136530E+03 -0.32818051297E+02  0.65960405773E+03  0.67965998913E+03  0.00000000000E+00 0. -1.
         22    1    3    3    0    0  0.13186995855E+03  0.12649301221E+03  0.27879630812E+03  0.33334299082E+03  0.00000000000E+00 0.  1.
         22    1    3    3    0    0  0.29516661162E+02 -0.24731144296E+02  0.22657915801E+02  0.44679345707E+02  0.00000000000E+00 0.  1.
</event>
<event>
 7    1  0.6017574E-006  0.1113976E+03  0.7818608E-02  0.1389416E+00
          2   -1    0    0  502    0  0.00000000000E+00  0.00000000000E+00  0.15353666164E+04  0.15353666164E+04  0.00000000000E+00 0. -1.
          1   -1    0    0  501    0 -0.00000000000E+00 -0.00000000000E+00 -0.89528013231E+02  0.89528013231E+02  0.00000000000E+00 0. -1.
         25    2    1    2    0    0 -0.54875960941E+01 -0.11263913884E+03  0.60195502217E+03  0.62505439524E+03  0.12500183591E+03 0.  0.
          2    1    1    2  501    0 -0.28747182771E+02  0.10787129637E+03 -0.37509856990E+02  0.11776929340E+03  0.00000000000E+00 0. -1.
          1    1    1    2  502    0  0.34234778866E+02  0.47678424758E+01  0.88139343794E+03  0.88207094094E+03  0.00000000000E+00 0. -1.
         22    1    3    3    0    0 -0.10643016104E+02 -0.13803385708E+03  0.44702115410E+03  0.46796851571E+03  0.00000000000E+00 0. -1.
         22    1    3    3    0    0  0.51554200100E+01  0.25394718231E+02  0.15493386807E+03  0.15708587952E+03  0.00000000000E+00 0. -1.
</event>
<event>
 7    1  0.6017574E-006  0.5625413E+02  0.7818608E-02  0.1515365E+00
          2   -1    0    0  502    0  0.00000000000E+00  0.00000000000E+00  0.98213595669E+03  0.98213595669E+03  0.00000000000E+00 0. -1.
          1   -1    0    0  501    0 -0.00000000000E+00 -0.00000000000E+00 -0.49168486807E+03  0.49168486807E+03  0.00000000000E+00 0. -1.
         25    2    1    2    0    0  0.80952209859E+02 -0.10282206205E+02  0.13256366220E+03  0.19964220542E+03  0.12499960641E+03 0.  0.
          2    1    1    2  501    0 -0.25405946053E+02  0.94292429428E+01 -0.45679810816E+03  0.45760122851E+03  0.00000000000E+00 0. -1.
          1    1    1    2  502    0 -0.55546263806E+02  0.85296326180E+00  0.81468553457E+03  0.81657739083E+03  0.00000000000E+00 0. -1.
         22    1    3    3    0    0 -0.34621420015E+01 -0.48229743728E+02  0.79240307555E+02  0.92828449026E+02  0.00000000000E+00 0. -1.
         22    1    3    3    0    0  0.84414351861E+02  0.37947537523E+02  0.53323354645E+02  0.10681375639E+03  0.00000000000E+00 0. -1.
</event>
<event>
 7    1  0.6017574E-006  0.4824555E+02  0.7818608E-02  0.1544666E+00
          2   -1    0    0  502    0  0.00000000000E+00  0.00000000000E+00  0.17137709117E+03  0.17137709117E+03  0.00000000000E+00 0. -1.
          1   -1    0    0  501    0 -0.00000000000E+00 -0.00000000000E+00 -0.18154432730E+04  0.18154432730E+04  0.00000000000E+00 0. -1.
         25    2    1    2    0    0  0.21520204325E+02  0.10740017193E+02 -0.16865905316E+03  0.21130361728E+03  0.12499950120E+03 0.  0.
          2    1    1    2  501    0  0.15669320044E+02  0.20802659866E+02 -0.16213927112E+04  0.16216018630E+04  0.00000000000E+00 0. -1.
          1    1    1    2  502    0 -0.37189524369E+02 -0.31542677059E+02  0.14598558247E+03  0.15391488391E+03  0.00000000000E+00 0. -1.
         22    1    3    3    0    0 -0.19884016872E+02 -0.96905529433E+01  0.11773236686E+02  0.25057734243E+02  0.00000000000E+00 0. -1.
         22    1    3    3    0    0  0.41404221197E+02  0.20430570137E+02 -0.18043228985E+03  0.18624588304E+03  0.00000000000E+00 0. -1.
</event>
<event>
 7    1  0.6017574E-006  0.7892590E+02  0.7818608E-02  0.1362973E+00
          2   -1    0    0  502    0  0.00000000000E+00  0.00000000000E+00  0.13910559150E+04  0.13910559150E+04  0.00000000000E+00 0. -1.
          1   -1    0    0  501    0 -0.00000000000E+00 -0.00000000000E+00 -0.11118852226E+03  0.11118852226E+03  0.00000000000E+00 0. -1.
         25    2    1    2    0    0 -0.29942733238E+02  0.98141701471E+00  0.24279290852E+03  0.27471966403E+03  0.12499986768E+03 0.  0.
          2    1    1    2  501    0  0.69404479709E+02  0.45012435123E+02 -0.76278654927E+02  0.11252348340E+03  0.00000000000E+00 0. -1.
          1    1    1    2  502    0 -0.39461746472E+02 -0.45993852138E+02  0.11133531392E+04  0.11150012899E+04  0.00000000000E+00 0. -1.
         22    1    3    3    0    0 -0.28475323605E+02 -0.95314729106E+01  0.25601156044E+03  0.25776658454E+03  0.00000000000E+00 0.  1.
         22    1    3    3    0    0 -0.14674096327E+01  0.10512889925E+02 -0.13218651912E+02  0.16953079483E+02  0.00000000000E+00 0.  1.
</event>
<event>
 7    1  0.6017574E-006  0.1647883E+03  0.7818608E-02  0.1381596E+00
          2   -1    0    0  502    0  0.00000000000E+00  0.00000000000E+00  0.41746183730E+03  0.41746183730E+03  0.00000000000E+00 0. -1.
          1   -1    0    0  501    0 -0.00000000000E+00 -0.00000000000E+00 -0.92922802780E+03  0.92922802780E+03  0.00000000000E+00 0. -1.
         25    2    1    2    0    0  0.17789541725E+03 -0.53053049740E+02 -0.20184164305E+03  0.30137402112E+03  0.12499938470E+03 0.  0.
          2    1    1    2  501    0 -0.15447569037E+03  0.44619630721E+02 -0.66764320035E+03  0.68673218458E+03  0.00000000000E+00 0. -1.
          1    1    1    2  502    0 -0.23419726871E+02  0.84334190181E+01  0.35771865289E+03  0.35858365940E+03  0.00000000000E+00 0. -1.
         22    1    3    3    0    0  0.90206534050E+02 -0.87889210279E+02 -0.14122605990E+03  0.18922614001E+03  0.00000000000E+00 0. -1.
         22    1    3    3    0    0  0.87688883195E+02  0.34836160540E+02 -0.60615583151E+02  0.11214788111E+03  0.00000000000E+00 0. -1.
</event>
<event>
 7    1  0.6017574E-006  0.7736563E+02  0.7818608E-02  0.1447538E+00
          2   -1    0    0  502    0  0.00000000000E+00  0.00000000000E+00  0.77179717450E+03  0.77179717450E+03  0.00000000000E+00 0. -1.
          1   -1    0    0  501    0 -0.00000000000E+00 -0.00000000000E+00 -0.33712047959E+03  0.33712047959E+03  0.00000000000E+00 0. -1.
         25    2    1    2    0    0 -0.10014968367E+03 -0.23298765078E+02  0.18850635473E+03  0.24845986104E+03  0.12499946072E+03 0.  0.
          2    1    1    2  501    0  0.76832956963E+02  0.16859933919E+01 -0.30186848735E+03  0.31149755939E+03  0.00000000000E+00 0. -1.
          1    1    1    2  502    0  0.23316726710E+02  0.21612771686E+02  0.54803882754E+03  0.54896023365E+03  0.00000000000E+00 0. -1.
         22    1    3    3    0    0 -0.34574278107E+02 -0.60893553843E+02  0.14555083975E+03  0.16151920183E+03  0.00000000000E+00 0.  1.
         22    1    3    3    0    0 -0.65575405566E+02  0.37594788765E+02  0.42955514975E+02  0.86940659212E+02  0.00000000000E+00 0.  1.
</event>
<event>
 7    1  0.6017574E-006  0.7367894E+02  0.7818608E-02  0.1426709E+00
          2   -1    0    0  502    0  0.00000000000E+00  0.00000000000E+00  0.28682419326E+03  0.28682419326E+03  0.00000000000E+00 0. -1.
          1   -1    0    0  501    0 -0.00000000000E+00 -0.00000000000E+00 -0.32649707832E+03  0.32649707832E+03  0.00000000000E+00 0. -1.
         25    2    1    2    0    0  0.83195910742E+02 -0.45037761747E+01 -0.59671443630E+02  0.16163997575E+03  0.12499982805E+03 0.  0.
          2    1    1    2  501    0 -0.16352403637E+02  0.35440729810E+02 -0.20823269976E+03  0.21185916002E+03  0.00000000000E+00 0. -1.
          1    1    1    2  502    0 -0.66843507105E+02 -0.30936953635E+02  0.22823125833E+03  0.23982213580E+03  0.00000000000E+00 0. -1.
         22    1    3    3    0    0 -0.48087949862E+01  0.28034330331E+02  0.23006317398E+02  0.36583313499E+02  0.00000000000E+00 0.  1.
         22    1    3    3    0    0  0.88004705728E+02 -0.32538106506E+02 -0.82677761029E+02  0.12505666225E+03  0.00000000000E+00 0.  1.
</event>
<event>
 7    1  0.6017574E-006  0.7819594E+02  0.7818608E-02  0.1457035E+00
          2   -1    0    0  502    0  0.00000000000E+00  0.00000000000E+00  0.65457225571E+02  0.65457225571E+02  0.00000000000E+00 0. -1.
          1   -1    0    0  501    0 -0.00000000000E+00 -0.00000000000E+00 -0.23857855027E+04  0.23857855027E+04  0.00000000000E+00 0. -1.
         25    2    1    2    0    0  0.10061337352E+03  0.32223120184E+02 -0.41964768668E+03  0.45043114151E+03  0.12499060724E+03 0.  0.
          2    1    1    2  501    0 -0.27488287301E+02 -0.10247404927E+02 -0.19214559513E+04  0.19216798869E+04  0.00000000000E+00 0. -1.
          1    1    1    2  502    0 -0.73125086214E+02 -0.21975715257E+02  0.20775360836E+02  0.79131699797E+02  0.00000000000E+00 0. -1.
         22    1    3    3    0    0  0.12864746212E+03  0.15703143784E+02 -0.35774123440E+03  0.38049382258E+03  0.00000000000E+00 0. -1.
         22    1    3    3    0    0 -0.28034088604E+02  0.16519976400E+02 -0.61906452286E+02  0.69937318928E+02  0.00000000000E+00 0. -1.
</event>
<event>
 7    1  0.6017574E-006  0.7490682E+02  0.7818608E-02  0.1436388E+00
          2   -1    0    0  502    0  0.00000000000E+00  0.00000000000E+00  0.24726777615E+04  0.24726777615E+04  0.00000000000E+00 0. -1.
          1   -1    0    0  501    0 -0.00000000000E+00 -0.00000000000E+00 -0.20725660780E+02  0.20725660780E+02  0.00000000000E+00 0. -1.
         25    2    1    2    0    0  0.97340170419E+02 -0.10786106528E+02  0.12068663882E+04  0.12172684431E+04  0.12499813891E+03 0.  0.
          2    1    1    2  501    0 -0.67190633406E+02  0.29869283661E+02  0.73364541434E+02  0.10387064679E+03  0.00000000000E+00 0. -1.
          1    1    1    2  502    0 -0.30149537013E+02 -0.19083177132E+02  0.11717211710E+04  0.11722643323E+04  0.00000000000E+00 0. -1.
         22    1    3    3    0    0  0.68412953169E+02  0.16148047641E+02  0.11155829924E+04  0.11177953769E+04  0.00000000000E+00 0. -1.
         22    1    3    3    0    0  0.28927217250E+02 -0.26934154169E+02  0.91283395839E+02  0.99473066277E+02  0.00000000000E+00 0. -1.
</event>
<event>
 7    1  0.6017574E-006  0.5758247E+02  0.7818608E-02  0.1431951E+00
          2   -1    0    0  502    0  0.00000000000E+00  0.00000000000E+00  0.27721717080E+03  0.27721717080E+03  0.00000000000E+00 0. -1.
          1   -1    0    0  501    0 -0.00000000000E+00 -0.00000000000E+00 -0.28009429989E+03  0.28009429989E+03  0.00000000000E+00 0. -1.
         25    2    1    2    0    0 -0.25942581730E+01  0.81661163812E+02  0.28551493566E+02  0.15203220464E+03  0.12499331027E+03 0.  0.
          2    1    1    2  501    0  0.34359292932E+02 -0.45682380480E+02 -0.21141367351E+03  0.21900498223E+03  0.00000000000E+00 0. -1.
          1    1    1    2  502    0 -0.31765034759E+02 -0.35978783332E+02  0.17998505085E+03  0.18627428382E+03  0.00000000000E+00 0. -1.
         22    1    3    3    0    0 -0.34822797600E+02  0.76306330380E+02  0.62738708297E+02  0.10474458844E+03  0.00000000000E+00 0.  1.
         22    1    3    3    0    0  0.32228539427E+02  0.53548334320E+01 -0.34187214730E+02  0.47287616198E+02  0.00000000000E+00 0.  1.
</event>
<event>
 7    1  0.6017574E-006  0.1082128E+03  0.7818608E-02  0.1276029E+00
          2   -1    0    0  502    0  0.00000000000E+00  0.00000000000E+00  0.53800594000E+02  0.53800594000E+02  0.00000000000E+00 0. -1.
          1   -1    0    0  501    0 -0.00000000000E+00 -0.00000000000E+00 -0.17130287445E+04  0.17130287445E+04  0.00000000000E+00 0. -1.
         25    2    1    2    0    0  0.28618515516E+02 -0.68735247716E+02 -0.12403202235E+03  0.19118873183E+03  0.12500253959E+03 0.  0.
          2    1    1    2  501    0 -0.60261077122E+02 -0.89881065159E+02 -0.11846231499E+04  0.11895553836E+04  0.00000000000E+00 0. -1.
          1    1    1    2  502    0  0.31642561607E+02  0.15861631287E+03 -0.35057297822E+03  0.38608522307E+03  0.00000000000E+00 0. -1.
         22    1    3    3    0    0  0.15168291377E+02 -0.38438445823E+02  0.18193932614E+02  0.45150973019E+02  0.00000000000E+00 0. -1.
         22    1    3    3    0    0  0.13450224139E+02 -0.30296801893E+02 -0.14222595496E+03  0.14603775881E+03  0.00000000000E+00 0. -1.
</event>
<event>
 7    1  0.6017574E-006  0.1114916E+03  0.7818608E-02  0.1321182E+00
          2   -1    0    0  502    0  0.00000000000E+00  0.00000000000E+00  0.15261026074E+03  0.15261026074E+03  0.00000000000E+00 0. -1.
          1   -1    0    0  501    0 -0.00000000000E+00 -0.00000000000E+00 -0.10404097790E+04  0.10404097790E+04  0.00000000000E+00 0. -1.
         25    2    1    2    0    0  0.14462405331E+03 -0.72258602317E+02 -0.20095012745E+03  0.28660498824E+03  0.12499617257E+03 0.  0.
          2    1    1    2  501    0 -0.61248210092E+02  0.60918536909E+01 -0.76931097396E+03  0.77176928455E+03  0.00000000000E+00 0. -1.
          1    1    1    2  502    0 -0.83375843221E+02  0.66166748626E+02  0.82461583163E+02  0.13464576694E+03  0.00000000000E+00 0. -1.
         22    1    3    3    0    0  0.95248891393E+02 -0.18925236896E+02 -0.18962928657E+03  0.21304877899E+03  0.00000000000E+00 0.  1.
         22    1    3    3    0    0  0.49375161920E+02 -0.53333365420E+02 -0.11320840884E+02  0.73556209255E+02  0.00000000000E+00 0.  1.
</event>
<event>
 7    1  0.6017574E-006  0.3911851E+02  0.7818608E-02  0.1551098E+00
          2   -1    0    0  502    0  0.00000000000E+00  0.00000000000E+00  0.69780470383E+02  0.69780470383E+02  0.00000000000E+00 0. -1.
          1   -1    0    0  501    0 -0.00000000000E+00 -0.00000000000E+00 -0.17082945270E+04  0.17082945270E+04  0.00000000000E+00 0. -1.
         25    2    1    2    0    0 -0.26619877487E+02 -0.36571596294E+02 -0.61036298193E+03  0.62467056309E+03  0.12499697259E+03 0.  0.
          2    1    1    2  501    0  0.38513926165E+02  0.81427017902E+01 -0.10866086472E+04  0.10873214696E+04  0.00000000000E+00 0. -1.
          1    1    1    2  502    0 -0.11894048677E+02  0.28428894504E+02  0.58457572512E+02  0.66082964678E+02  0.00000000000E+00 0. -1.
         22    1    3    3    0    0 -0.52414678596E+02 -0.60994290345E+02 -0.25129880031E+03  0.26385353707E+03  0.00000000000E+00 0.  1.
         22    1    3    3    0    0  0.25794801109E+02  0.24422694051E+02 -0.35906418162E+03  0.36081702602E+03  0.00000000000E+00 0.  1.
</event>
<event>
 7    1  0.6017574E-006  0.1540332E+03  0.7818608E-02  0.1265172E+00
          2   -1    0    0  502    0  0.00000000000E+00  0.00000000000E+00  0.25981588089E+04  0.25981588089E+04  0.00000000000E+00 0. -1.
          1   -1    0    0  501    0 -0.00000000000E+00 -0.00000000000E+00 -0.40765102125E+03  0.40765102125E+03  0.00000000000E+00 0. -1.
         25    2    1    2    0    0 -0.22190765702E+02 -0.10925360864E+03  0.77051245042E+03  0.78850663296E+03  0.12499797157E+03 0.  0.
          2    1    1    2  501    0 -0.58836405360E+02 -0.46666226401E+02 -0.39082645993E+03  0.39797585488E+03  0.00000000000E+00 0. -1.
          1    1    1    2  502    0  0.81027171063E+02  0.15591983504E+03  0.18108217972E+04  0.18193273423E+04  0.00000000000E+00 0. -1.
         22    1    3    3    0    0 -0.44283277791E+02 -0.12812686157E+03  0.56994438171E+03  0.58584477431E+03  0.00000000000E+00 0. -1.
         22    1    3    3    0    0  0.22092512088E+02  0.18873252929E+02  0.20056806871E+03  0.20266185865E+03  0.00000000000E+00 0. -1.
</event>
<event>
 7    1  0.6017574E-006  0.1429093E+03  0.7818608E-02  0.1318494E+00
          2   -1    0    0  502    0  0.00000000000E+00  0.00000000000E+00  0.92656766026E+03  0.92656766026E+03  0.00000000000E+00 0. -1.
          1   -1    0    0  501    0 -0.00000000000E+00 -0.00000000000E+00 -0.36841483879E+03  0.36841483879E+03  0.00000000000E+00 0. -1.
         25    2    1    2    0    0  0.17585630258E+03  0.65847785011E+01 -0.17752548310E+02  0.21657910733E+03  0.12499023281E+03 0.  0.
          2    1    1    2  501    0 -0.13348764473E+03 -0.31568098739E+02 -0.23172294469E+03  0.26927870182E+03  0.00000000000E+00 0. -1.
          1    1    1    2  502    0 -0.42368657841E+02  0.24983320238E+02  0.80762831448E+03  0.80912468990E+03  0.00000000000E+00 0. -1.
         22    1    3    3    0    0  0.12273522121E+03 -0.42840564149E+02 -0.47161166716E+02  0.13828746910E+03  0.00000000000E+00 0. -1.
         22    1    3    3    0    0  0.53121081361E+02  0.49425342650E+02  0.29408618406E+02  0.78291638235E+02  0.00000000000E+00 0. -1.
</event>
<event>
 7    1  0.6017574E-006  0.2225634E+03  0.7818608E-02  0.1323728E+00
          2   -1    0    0  502    0  0.00000000000E+00  0.00000000000E+00  0.20996941316E+04  0.20996941316E+04  0.00000000000E+00 0. -1.
          1   -1    0    0  501    0 -0.00000000000E+00 -0.00000000000E+00 -0.10455324210E+03  0.10455324210E+03  0.00000000000E+00 0. -1.
         25    2    1    2    0    0 -0.97082352590E+02  0.18061739725E+03  0.15670589288E+04  0.15853536499E+04  0.12499952604E+03 0.  0.
          2    1    1    2  501    0  0.12694531524E+03 -0.18471287750E+03  0.37613530827E+02  0.22726358679E+03  0.00000000000E+00 0. -1.
          1    1    1    2  502    0 -0.29862962653E+02  0.40954802558E+01  0.39046842991E+03  0.39163013706E+03  0.00000000000E+00 0. -1.
         22    1    3    3    0    0  0.31611786570E+00  0.11281266222E+03  0.97600260322E+03  0.98250082859E+03  0.00000000000E+00 0.  1.
         22    1    3    3    0    0 -0.97398470456E+02  0.67804735030E+02  0.59105632558E+03  0.60285282130E+03  0.00000000000E+00 0.  1.
</event>
<event>
 7    1  0.6017574E-006  0.8765213E+02  0.7818608E-02  0.1360809E+00
          2   -1    0    0  502    0  0.00000000000E+00  0.00000000000E+00  0.41380512671E+03  0.41380512671E+03  0.00000000000E+00 0. -1.
          1   -1    0    0  501    0 -0.00000000000E+00 -0.00000000000E+00 -0.36844437077E+03  0.36844437077E+03  0.00000000000E+00 0. -1.
         25    2    1    2    0    0  0.38219242033E+02  0.90241640025E+02  0.27399244581E+03  0.31669995106E+03  0.12499093802E+03 0.  0.
          2    1    1    2  501    0  0.34895421088E+02 -0.43244339206E+02 -0.32849360450E+03  0.33316033900E+03  0.00000000000E+00 0. -1.
          1    1    1    2  502    0 -0.73114663121E+02 -0.46997300818E+02  0.99861914635E+02  0.13238920742E+03  0.00000000000E+00 0. -1.
         22    1    3    3    0    0  0.71246859097E+02  0.83740891657E+02  0.13716187588E+03  0.17578973822E+03  0.00000000000E+00 0. -1.
         22    1    3    3    0    0 -0.33027617064E+02  0.65007483678E+01  0.13683056992E+03  0.14091021284E+03  0.00000000000E+00 0. -1.
</event>
<event>
 7    1  0.6017574E-006  0.9562799E+02  0.7818608E-02  0.1339711E+00
          2   -1    0    0  502    0  0.00000000000E+00  0.00000000000E+00  0.11116779344E+03  0.11116779344E+03  0.00000000000E+00 0. -1.
          1   -1    0    0  501    0 -0.00000000000E+00 -0.00000000000E+00 -0.71410382610E+03  0.71410382610E+03  0.00000000000E+00 0. -1.
         25    2    1    2    0    0  0.14720447636E+03 -0.35229683255E+02 -0.35689932914E+02  0.19952341040E+03  0.12500212617E+03 0.  0.
          2    1    1    2  501    0 -0.92743566360E+02  0.78097958174E+01 -0.55601191121E+03  0.56374782255E+03  0.00000000000E+00 0. -1.
          1    1    1    2  502    0 -0.54460909995E+02  0.27419887438E+02 -0.11234188531E+02  0.62000386584E+02  0.00000000000E+00 0. -1.
         22    1    3    3    0    0  0.14908430668E+03 -0.67128602787E+02 -0.36637814199E+02  0.16755509315E+03  0.00000000000E+00 0.  1.
         22    1    3    3    0    0 -0.18798303232E+01  0.31898919532E+02  0.94788128480E+00  0.31968317258E+02  0.00000000000E+00 0.  1.
</event>
<event>
 7    1  0.6017574E-006  0.9329229E+02  0.7818608E-02  0.1313560E+00
          2   -1    0    0  502    0  0.00000000000E+00  0.00000000000E+00  0.20403003821E+04  0.20403003821E+04  0.00000000000E+00 0. -1.
          1   -1    0    0  501    0 -0.00000000000E+00 -0.00000000000E+00 -0.38280859572E+03  0.38280859572E+03  0.00000000000E+00 0. -1.
         25    2    1    2    0    0 -0.27177465135E+02 -0.78193025519E+01 -0.28545512251E+02  0.13130434930E+03  0.12500491899E+03 0.  0.
          2    1    1    2  501    0  0.86738853438E+02  0.59355885845E+02 -0.29295867308E+03  0.31124192200E+03  0.00000000000E+00 0. -1.
          1    1    1    2  502    0 -0.59561388303E+02 -0.51536583293E+02  0.19789959717E+04  0.19805627065E+04  0.00000000000E+00 0. -1.
         22    1    3    3    0    0 -0.68777969043E+01  0.57677105211E+02 -0.31107430277E+01  0.58168971780E+02  0.00000000000E+00 0.  1.
         22    1    3    3    0    0 -0.20299668231E+02 -0.65496407762E+02 -0.25434769224E+02  0.73135377524E+02  0.00000000000E+00 0.  1.
</event>
<event>
 7    1  0.6017574E-006  0.4950121E+02  0.7818608E-02  0.1524370E+00
          2   -1    0    0  502    0  0.00000000000E+00  0.00000000000E+00  0.18656099439E+04  0.18656099439E+04  0.00000000000E+00 0. -1.
          1   -1    0    0  501    0 -0.00000000000E+00 -0.00000000000E+00 -0.96963516021E+03  0.96963516021E+03  0.00000000000E+00 0. -1.
         25    2    1    2    0    0  0.24340727022E+02  0.33575039937E+02  0.26435306828E+03  0.29534415656E+03  0.12500348717E+03 0.  0.
          2    1    1    2  501    0  0.22964260583E+02 -0.17703984358E+02 -0.95352666961E+03  0.95396745122E+03  0.00000000000E+00 0. -1.
          1    1    1    2  502    0 -0.47304987605E+02 -0.15871055579E+02  0.15851483850E+04  0.15859334963E+04  0.00000000000E+00 0. -1.
         22    1    3    3    0    0  0.31855061636E+02 -0.27548086698E+02  0.26754357131E+02  0.49894264781E+02  0.00000000000E+00 0.  1.
         22    1    3    3    0    0 -0.75143346141E+01  0.61123126635E+02  0.23759871115E+03  0.24544989178E+03  0.00000000000E+00 0.  1.
</event>
<event>
 7    1  0.6017574E-006  0.1115374E+03  0.7818608E-02  0.1311364E+00
          2   -1    0    0  502    0  0.00000000000E+00  0.00000000000E+00  0.41012935314E+03  0.41012935314E+03  0.00000000000E+00 0. -1.
          1   -1    0    0  501    0 -0.00000000000E+00 -0.00000000000E+00 -0.63994379506E+03  0.63994379506E+03  0.00000000000E+00 0. -1.
         25    2    1    2    0    0  0.43291646543E+02  0.11448651103E+03  0.15105647987E+03  0.23115234536E+03  0.12502807200E+03 0.  0.
          2    1    1    2  501    0 -0.90040876943E+02 -0.66213282245E+02 -0.58936284448E+03  0.59986675247E+03  0.00000000000E+00 0. -1.
          1    1    1    2  502    0  0.46749230400E+02 -0.48273228783E+02  0.20849192269E+03  0.21905405038E+03  0.00000000000E+00 0. -1.
         22    1    3    3    0    0  0.28372680308E+02  0.60624344525E+02 -0.32721262037E+01  0.67015124761E+02  0.00000000000E+00 0. -1.
         22    1    3    3    0    0  0.14918966235E+02  0.53862166503E+02  0.15432860607E+03  0.16413722060E+03  0.00000000000E+00 0. -1.
</event>
<event>
 7    1  0.6017574E-006  0.4706047E+02  0.7818608E-02  0.1468075E+00
          2   -1    0    0  502    0  0.00000000000E+00  0.00000000000E+00  0.36159476425E+03  0.36159476425E+03  0.00000000000E+00 0. -1.
          1   -1    0    0  501    0 -0.00000000000E+00 -0.00000000000E+00 -0.53985003475E+02  0.53985003475E+02  0.00000000000E+00 0. -1.
         25    2    1    2    0    0 -0.17721347371E+02  0.53671536974E+02  0.20705144077E+03  0.24837499880E+03  0.12500064348E+03 0.  0.
          2    1    1    2  501    0  0.44542921594E+02 -0.17536240493E+02 -0.90494343763E+01  0.48718413944E+02  0.00000000000E+00 0. -1.
          1    1    1    2  502    0 -0.26821574223E+02 -0.36135296481E+02  0.10960775438E+03  0.11848635498E+03  0.00000000000E+00 0. -1.
         22    1    3    3    0    0 -0.21340711121E+01  0.23967657141E+02 -0.11917122382E+02  0.26851827763E+02  0.00000000000E+00 0.  1.
         22    1    3    3    0    0 -0.15587276259E+02  0.29703879833E+02  0.21896856315E+03  0.22152317104E+03  0.00000000000E+00 0.  1.
</event>
<event>
 7    1  0.6017574E-006  0.7235358E+02  0.7818608E-02  0.1440865E+00
          2   -1    0    0  502    0  0.00000000000E+00  0.00000000000E+00  0.12684806256E+03  0.12684806256E+03  0.00000000000E+00 0. -1.
          1   -1    0    0  501    0 -0.00000000000E+00 -0.00000000000E+00 -0.99591799232E+03  0.99591799232E+03  0.00000000000E+00 0. -1.
         25    2    1    2    0    0 -0.33380686848E+02  0.94044009006E+02 -0.19942529985E+02  0.16118162758E+03  0.12499306654E+03 0.  0.
          2    1    1    2  501    0  0.21456849499E+02 -0.28560830435E+02 -0.88517121419E+03  0.88589175177E+03  0.00000000000E+00 0. -1.
          1    1    1    2  502    0  0.11923837349E+02 -0.65483178571E+02  0.36043814405E+02  0.75692675536E+02  0.00000000000E+00 0. -1.
         22    1    3    3    0    0 -0.34567255166E+02  0.10979191682E+03  0.21263856841E+02  0.11705260244E+03  0.00000000000E+00 0. -1.
         22    1    3    3    0    0  0.11865683176E+01 -0.15747907816E+02 -0.41206386826E+02  0.44129025145E+02  0.00000000000E+00 0. -1.
</event>
<event>
 7    1  0.6017574E-006  0.1311011E+03  0.7818608E-02  0.1252181E+00
          2   -1    0    0  502    0  0.00000000000E+00  0.00000000000E+00  0.35423768787E+04  0.35423768787E+04  0.00000000000E+00 0. -1.
          1   -1    0    0  501    0 -0.00000000000E+00 -0.00000000000E+00 -0.41333758587E+02  0.41333758587E+02  0.00000000000E+00 0. -1.
         25    2    1    2    0    0 -0.13668505318E+03 -0.11432008695E+03  0.23397564931E+04  0.23498588900E+04  0.12499787957E+03 0.  0.
          2    1    1    2  501    0  0.36950518048E+02  0.12472169559E+03  0.90699603695E+02  0.15857887705E+03  0.00000000000E+00 0. -1.
          1    1    1    2  502    0  0.99734535136E+02 -0.10401608647E+02  0.10705870233E+04  0.10752728702E+04  0.00000000000E+00 0. -1.
         22    1    3    3    0    0 -0.43111282151E+02 -0.10938882799E+03  0.15751120024E+04  0.15794943236E+04  0.00000000000E+00 0.  1.
         22    1    3    3    0    0 -0.93573771032E+02 -0.49312589545E+01  0.76464449074E+03  0.77036456640E+03  0.00000000000E+00 0.  1.
</event>
<event>
 7    1  0.6017574E-006  0.1538154E+03  0.7818608E-02  0.1305736E+00
          2   -1    0    0  502    0  0.00000000000E+00  0.00000000000E+00  0.59971421496E+03  0.59971421496E+03  0.00000000000E+00 0. -1.
          1   -1    0    0  501    0 -0.00000000000E+00 -0.00000000000E+00 -0.43529587985E+03  0.43529587985E+03  0.00000000000E+00 0. -1.
         25    2    1    2    0    0 -0.18113785837E+03  0.24226635879E+02 -0.98120675560E+02  0.24217777420E+03  0.12499821487E+03 0.  0.
          2    1    1    2  501    0  0.29868283001E+02 -0.41693584867E+02 -0.25151905110E+03  0.25669495985E+03  0.00000000000E+00 0. -1.
          1    1    1    2  502    0  0.15126957537E+03  0.17466948988E+02  0.51405806177E+03  0.53613736076E+03  0.00000000000E+00 0. -1.
         22    1    3    3    0    0 -0.85832169053E+02  0.33520617176E+02 -0.11241987692E+03  0.14535825311E+03  0.00000000000E+00 0.  1.
         22    1    3    3    0    0 -0.95305689319E+02 -0.92939812964E+01  0.14299201356E+02  0.96819521091E+02  0.00000000000E+00 0.  1.
</event>
<event>
 7    1  0.6017574E-006  0.8410016E+02  0.7818608E-02  0.1327554E+00
          2   -1    0    0  502    0  0.00000000000E+00  0.00000000000E+00  0.62903483583E+03  0.62903483583E+03  0.00000000000E+00 0. -1.
          1   -1    0    0  501    0 -0.00000000000E+00 -0.00000000000E+00 -0.13042443853E+03  0.13042443853E+03  0.00000000000E+00 0. -1.
         25    2    1    2    0    0 -0.58755718404E+02 -0.15722697979E+02  0.94527909430E+02  0.16810502102E+03  0.12499733899E+03 0.  0.
          2    1    1    2  501    0 -0.70983666319E+01  0.76784272465E+02 -0.72825032905E+02  0.10606458751E+03  0.00000000000E+00 0. -1.
          1    1    1    2  502    0  0.65854085036E+02 -0.61061574487E+02  0.47690752077E+03  0.48528966583E+03  0.00000000000E+00 0. -1.
         22    1    3    3    0    0 -0.31345937226E+02  0.27379330209E+02  0.10760924041E+03  0.11537739867E+03  0.00000000000E+00 0. -1.
         22    1    3    3    0    0 -0.27409781177E+02 -0.43102028188E+02 -0.13081330980E+02  0.52727622346E+02  0.00000000000E+00 0. -1.
</event>
<event>
 7    1  0.6017574E-006  0.2362560E+03  0.7818608E-02  0.1233560E+00
          2   -1    0    0  502    0  0.00000000000E+00  0.00000000000E+00  0.20257965843E+03  0.20257965843E+03  0.00000000000E+00 0. -1.
          1   -1    0    0  501    0 -0.00000000000E+00 -0.00000000000E+00 -0.19853138323E+04  0.19853138323E+04  0.00000000000E+00 0. -1.
         25    2    1    2    0    0 -0.18298804477E+03  0.43716815955E+02  0.57988705603E+02  0.23320038107E+03  0.12499577283E+03 0.  0.
          2    1    1    2  501    0  0.21601908277E+03 -0.10220073970E+03 -0.18672479307E+04  0.18824781725E+04  0.00000000000E+00 0. -1.
          1    1    1    2  502    0 -0.33031037998E+02  0.58483923742E+02  0.26525051204E+02  0.72214937159E+02  0.00000000000E+00 0. -1.
         22    1    3    3    0    0 -0.10012529577E+03 -0.11277794706E+02 -0.24838437814E+02  0.10377481149E+03  0.00000000000E+00 0. -1.
         22    1    3    3    0    0 -0.82862748999E+02  0.54994610661E+02  0.82827143417E+02  0.12942556958E+03  0.00000000000E+00 0. -1.
</event>
<event>
 7    1  0.6017574E-006  0.8386205E+02  0.7818608E-02  0.1413940E+00
          2   -1    0    0  502    0  0.00000000000E+00  0.00000000000E+00  0.89974224041E+02  0.89974224041E+02  0.00000000000E+00 0. -1.
          1   -1    0    0  501    0 -0.00000000000E+00 -0.00000000000E+00 -0.83096670592E+03  0.83096670592E+03  0.00000000000E+00 0. -1.
         25    2    1    2    0    0 -0.25499932913E+02  0.10286696751E+03 -0.29458483105E+03  0.33710217505E+03  0.12500317656E+03 0.  0.
          2    1    1    2  501    0  0.42540443295E+02 -0.69094059506E+02 -0.50643081207E+03  0.51288970139E+03  0.00000000000E+00 0. -1.
          1    1    1    2  502    0 -0.17040510382E+02 -0.33772908003E+02  0.60023161251E+02  0.70949053522E+02  0.00000000000E+00 0. -1.
         22    1    3    3    0    0 -0.39463544688E+00  0.53269001436E+02 -0.27188785496E+03  0.27705730080E+03  0.00000000000E+00 0.  1.
         22    1    3    3    0    0 -0.25105297466E+02  0.49597966074E+02 -0.22696976092E+02  0.60044874246E+02  0.00000000000E+00 0.  1.
</event>
<event>
 7    1  0.6017574E-006  0.7819367E+02  0.7818608E-02  0.1368276E+00
          2   -1    0    0  502    0  0.00000000000E+00  0.00000000000E+00  0.29271635807E+03  0.29271635807E+03  0.00000000000E+00 0. -1.
          1   -1    0    0  501    0 -0.00000000000E+00 -0.00000000000E+00 -0.50366441480E+03  0.50366441480E+03  0.00000000000E+00 0. -1.
         25    2    1    2    0    0 -0.44888326983E+02  0.10064670209E+03  0.27086200938E+02  0.16883625573E+03  0.12500919337E+03 0.  0.
          2    1    1    2  501    0  0.52964722946E+02 -0.24900750174E+02 -0.42324924233E+03  0.42727652682E+03  0.00000000000E+00 0. -1.
          1    1    1    2  502    0 -0.80763959624E+01 -0.75745951914E+02  0.18521498466E+03  0.20026799032E+03  0.00000000000E+00 0. -1.
         22    1    3    3    0    0  0.35105268931E+02  0.22062586781E+02  0.37907763031E+02  0.56179499287E+02  0.00000000000E+00 0. -1.
         22    1    3    3    0    0 -0.79993595914E+02  0.78584115307E+02 -0.10821562093E+02  0.11265675644E+03  0.00000000000E+00 0. -1.
</event>
<event>
 7    1  0.6017574E-006  0.5831857E+02  0.7818608E-02  0.1463620E+00
          2   -1    0    0  502    0  0.00000000000E+00  0.00000000000E+00  0.37802132758E+04  0.37802132758E+04  0.00000000000E+00 0. -1.
          1   -1    0    0  501    0 -0.00000000000E+00 -0.00000000000E+00 -0.28516867347E+04  0.28516867347E+04  0.00000000000E+00 0. -1.
         25    2    1    2    0    0 -0.51014330722E+02  0.60938054138E+02 -0.60763242386E+03  0.62542617989E+03  0.12499934230E+03 0.  0.
          2    1    1    2  501    0  0.37254972584E+02 -0.42707409899E+01 -0.22347747098E+04  0.22350892992E+04  0.00000000000E+00 0. -1.
          1    1    1    2  502    0  0.13759358138E+02 -0.56667313148E+02  0.37709336747E+04  0.37713845314E+04  0.00000000000E+00 0. -1.
         22    1    3    3    0    0  0.12182063471E+02  0.61128412485E+02 -0.13629966664E+03  0.14987556375E+03  0.00000000000E+00 0. -1.
         22    1    3    3    0    0 -0.63196394194E+02 -0.19035834670E+00 -0.47133275722E+03  0.47555061613E+03  0.00000000000E+00 0. -1.
</event>
<event>
 7    1  0.6017574E-006  0.2672658E+03  0.7818608E-02  0.1159567E+00
          2   -1    0    0  502    0  0.00000000000E+00  0.00000000000E+00  0.16693010855E+04  0.16693010855E+04  0.00000000000E+00 0. -1.
          1   -1    0    0  501    0 -0.00000000000E+00 -0.00000000000E+00 -0.44893894888E+03  0.44893894888E+03  0.00000000000E+00 0. -1.
         25    2    1    2    0    0  0.60107460832E+02  0.31121419502E+03  0.61859986850E+03  0.70622792170E+03  0.12499959221E+03 0.  0.
          2    1    1    2  501    0  0.86364265687E+02 -0.10159384075E+03 -0.37726598809E+03  0.40013712729E+03  0.00000000000E+00 0. -1.
          1    1    1    2  502    0 -0.14647172652E+03 -0.20962035428E+03  0.97902825624E+03  0.10118749854E+04  0.00000000000E+00 0. -1.
         22    1    3    3    0    0  0.91063228341E+02  0.14731841187E+03  0.29187010480E+03  0.33938677656E+03  0.00000000000E+00 0.  1.
         22    1    3    3    0    0 -0.30955767509E+02  0.16389578315E+03  0.32672976371E+03  0.36684114514E+03  0.00000000000E+00 0.  1.
</event>
<event>
 7    1  0.6017574E-006  0.7664246E+02  0.7818608E-02  0.1356355E+00
          2   -1    0    0  502    0  0.00000000000E+00  0.00000000000E+00  0.25842207943E+04  0.25842207943E+04  0.00000000000E+00 0. -1.
          1   -1    0    0  501    0 -0.00000000000E+00 -0.00000000000E+00 -0.95372504287E+01  0.95372504287E+01  0.00000000000E+00 0. -1.
         25    2    1    2    0    0 -0.38270980946E+02  0.23741950426E+01  0.99847555188E+03  0.10070000348E+04  0.12500135015E+03 0.  0.
          2    1    1    2  501    0  0.93878889112E+02 -0.37884369134E+02  0.61392028846E+03  0.62221105087E+03  0.00000000000E+00 0. -1.
          1    1    1    2  502    0 -0.55607908167E+02  0.35510174091E+02  0.96228770356E+03  0.96454695912E+03  0.00000000000E+00 0. -1.
         22    1    3    3    0    0 -0.65166559016E+01 -0.57377187367E+02  0.60491352683E+03  0.60766354455E+03  0.00000000000E+00 0.  1.
         22    1    3    3    0    0 -0.31754325044E+02  0.59751382410E+02  0.39356202506E+03  0.39933649022E+03  0.00000000000E+00 0.  1.
</event>
<event>
 7    1  0.6017574E-006  0.5246108E+02  0.7818608E-02  0.1460631E+00
          2   -1    0    0  502    0  0.00000000000E+00  0.00000000000E+00  0.23117994673E+03  0.23117994673E+03  0.00000000000E+00 0. -1.
          1   -1    0    0  501    0 -0.00000000000E+00 -0.00000000000E+00 -0.24219614707E+04  0.24219614707E+04  0.00000000000E+00 0. -1.
         25    2    1    2    0    0  0.60440690617E+01 -0.77401242409E+02  0.73614861518E+02  0.16453503920E+03  0.12500059276E+03 0.  0.
          2    1    1    2  501    0  0.22771328334E+02  0.36000790173E+02 -0.23706263575E+04  0.23710090504E+04  0.00000000000E+00 0. -1.
          1    1    1    2  502    0 -0.28815397395E+02  0.41400452235E+02  0.10622997197E+03  0.11759732785E+03  0.00000000000E+00 0. -1.
         22    1    3    3    0    0  0.37784180878E+02 -0.14836183564E+01  0.73039672367E+02  0.82247426631E+02  0.00000000000E+00 0. -1.
         22    1    3    3    0    0 -0.31740111816E+02 -0.75917624052E+02  0.57518915095E+00  0.82287612570E+02  0.00000000000E+00 0. -1.
</event>
<event>
 7    1  0.6017574E-006  0.5283949E+02  0.7818608E-02  0.1446737E+00
          2   -1    0    0  502    0  0.00000000000E+00  0.00000000000E+00  0.24802867919E+03  0.24802867919E+03  0.00000000000E+00 0. -1.
          1   -1    0    0  501    0 -0.00000000000E+00 -0.00000000000E+00 -0.13485028311E+04  0.13485028311E+04  0.00000000000E+00 0. -1.
         25    2    1    2    0    0  0.71200198949E+02 -0.60353045125E+02  0.11401681544E+03  0.19322928159E+03  0.12500305067E+03 0.  0.
          2    1    1    2  501    0 -0.26833104188E+02  0.45376580677E+02 -0.13025237571E+04  0.13035901148E+04  0.00000000000E+00 0. -1.
          1    1    1    2  502    0 -0.44367094761E+02  0.14976464448E+02  0.88032789761E+02  0.99712113898E+02  0.00000000000E+00 0. -1.
         22    1    3    3    0    0  0.76908732488E+02 -0.94238807417E+02  0.88337350049E+02  0.15033094615E+03  0.00000000000E+00 0.  1.
         22    1    3    3    0    0 -0.57085335393E+01  0.33885762292E+02  0.25679465391E+02  0.42898335446E+02  0.00000000000E+00 0.  1.
</event>
<event>
 7    1  0.6017574E-006  0.1119494E+03  0.7818608E-02  0.1436448E+00
          2   -1    0    0  502    0  0.00000000000E+00  0.00000000000E+00  0.64292689864E+03  0.64292689864E+03  0.00000000000E+00 0. -1.
          1   -1    0    0  501    0 -0.00000000000E+00 -0.00000000000E+00 -0.19174797482E+04  0.19174797482E+04  0.00000000000E+00 0. -1.
         25    2    1    2    0    0 -0.85707880096E+01  0.13126877002E+03 -0.27815269027E+03  0.33211493054E+03  0.12500583823E+03 0.  0.
          2    1    1    2  501    0  0.17638060751E+02 -0.10919430808E+03 -0.16102168006E+04  0.16140113516E+04  0.00000000000E+00 0. -1.
          1    1    1    2  502    0 -0.90672727416E+01 -0.22074461944E+02  0.61381664132E+03  0.61428036471E+03  0.00000000000E+00 0. -1.
         22    1    3    3    0    0 -0.45677348169E+02  0.72431798326E+02 -0.23533992151E+03  0.25043495004E+03  0.00000000000E+00 0. -1.
         22    1    3    3    0    0  0.37106560159E+02  0.58836971696E+02 -0.42812768754E+02  0.81679980495E+02  0.00000000000E+00 0. -1.
</event>
<event>
 7    1  0.6017574E-006  0.1325106E+03  0.7818608E-02  0.1379389E+00
          2   -1    0    0  502    0  0.00000000000E+00  0.00000000000E+00  0.24642103823E+04  0.24642103823E+04  0.00000000000E+00 0. -1.
          1   -1    0    0  501    0 -0.00000000000E+00 -0.00000000000E+00 -0.10507847751E+04  0.10507847751E+04  0.00000000000E+00 0. -1.
         25    2    1    2    0    0 -0.80366521505E+02 -0.99909892176E+02  0.10469395458E+04  0.10621432599E+04  0.12500051059E+03 0.  0.
          2    1    1    2  501    0  0.56137851970E+02  0.12006675617E+03 -0.10387954457E+04  0.10472170083E+04  0.00000000000E+00 0. -1.
          1    1    1    2  502    0  0.24228669535E+02 -0.20156863992E+02  0.14052815071E+04  0.14056348893E+04  0.00000000000E+00 0. -1.
         22    1    3    3    0    0 -0.10955972312E+03 -0.49675917433E+02  0.66145680609E+03  0.67230657890E+03  0.00000000000E+00 0.  1.
         22    1    3    3    0    0  0.29193201617E+02 -0.50233974743E+02  0.38548273967E+03  0.38983668096E+03  0.00000000000E+00 0.  1.
</event>
<event>
 7    1  0.7822797E-006  0.7514477E+02  0.7818608E-02  0.1377488E+00
          2   -1    0    0  502    0  0.00000000000E+00  0.00000000000E+00  0.32639265548E+04  0.32639265548E+04  0.00000000000E+00 0. -1.
          1   -1    0    0  501    0 -0.00000000000E+00 -0.00000000000E+00 -0.10537326428E+04  0.10537326428E+04  0.00000000000E+00 0. -1.
         25    2    1    2    0    0  0.12065101853E+02  0.13036250723E+03 -0.12301416456E+03  0.21885564792E+03  0.12500143987E+03 0.  0.
          2    1    1    2  501    0  0.64339448175E+00 -0.56443959187E+02 -0.88145752492E+03  0.88326309938E+03  0.00000000000E+00 0. -1.
          1    1    1    2  502    0 -0.12708496334E+02 -0.73918548038E+02  0.32146656015E+04  0.32155404503E+04  0.00000000000E+00 0. -1.
         22    1    3    3    0    0  0.20605978793E+02  0.28057472315E+02  0.22000223183E+02  0.41180552872E+02  0.00000000000E+00 0. -1.
         22    1    3    3    0    0 -0.85408769403E+01  0.10230503491E+03 -0.14501438774E+03  0.17767509504E+03  0.00000000000E+00 0. -1.
</event>
<event>
 7    1  0.6017574E-006  0.4418227E+02  0.7818608E-02  0.1532747E+00
          2   -1    0    0  502    0  0.00000000000E+00  0.00000000000E+00  0.37813079874E+03  0.37813079874E+03  0.00000000000E+00 0. -1.
          1   -1    0    0  501    0 -0.00000000000E+00 -0.00000000000E+00 -0.78035883780E+02  0.78035883780E+02  0.00000000000E+00 0. -1.
         25    2    1    2    0    0  0.77916332405E+01 -0.57007870674E+02  0.28416748367E+03  0.31573487575E+03  0.12500698429E+03 0.  0.
          2    1    1    2  501    0 -0.28089662325E+02  0.33926199297E+02 -0.50637353969E+02  0.67113022173E+02  0.00000000000E+00 0. -1.
          1    1    1    2  502    0  0.20298029084E+02  0.23081671378E+02  0.66564785256E+02  0.73318784595E+02  0.00000000000E+00 0. -1.
         22    1    3    3    0    0 -0.12380212189E+02 -0.61089743687E+01  0.25170673209E+03  0.25208504161E+03  0.00000000000E+00 0.  1.
         22    1    3    3    0    0  0.20171845430E+02 -0.50898896306E+02  0.32460751578E+02  0.63649834141E+02  0.00000000000E+00 0.  1.
</event>
<event>
 7    1  0.6017574E-006  0.1108613E+03  0.7818608E-02  0.1333826E+00
          2   -1    0    0  502    0  0.00000000000E+00  0.00000000000E+00  0.31649740820E+03  0.31649740820E+03  0.00000000000E+00 0. -1.
          1   -1    0    0  501    0 -0.00000000000E+00 -0.00000000000E+00 -0.12213240577E+04  0.12213240577E+04  0.00000000000E+00 0. -1.
         25    2    1    2    0    0 -0.59644206157E+02  0.25510651684E+02  0.74036910894E+02  0.15910748254E+03  0.12500200858E+03 0.  0.
          2    1    1    2  501    0  0.11178616424E+03 -0.69093880511E+01 -0.11722353638E+04  0.11775736216E+04  0.00000000000E+00 0. -1.
          1    1    1    2  502    0 -0.52141958087E+02 -0.18601263633E+02  0.19337180337E+03  0.20114036179E+03  0.00000000000E+00 0. -1.
         22    1    3    3    0    0 -0.15034954084E+02  0.64735697822E+02  0.30267351153E+01  0.66527599854E+02  0.00000000000E+00 0.  1.
         22    1    3    3    0    0 -0.44609252073E+02 -0.39225046138E+02  0.71010175779E+02  0.92579882691E+02  0.00000000000E+00 0.  1.
</event>
<event>
 7    1  0.6017574E-006  0.7162618E+02  0.7818608E-02  0.1413520E+00
          2   -1    0    0  502    0  0.00000000000E+00  0.00000000000E+00  0.99480755744E+03  0.99480755744E+03  0.00000000000E+00 0. -1.
          1   -1    0    0  501    0 -0.00000000000E+00 -0.00000000000E+00 -0.36364549968E+03  0.36364549968E+03  0.00000000000E+00 0. -1.
         25    2    1    2    0    0  0.29856907601E+02 -0.22020342879E+02  0.13745475831E+03  0.18946919761E+03  0.12501374257E+03 0.  0.
          2    1    1    2  501    0 -0.72099277449E+02  0.82335119466E+01 -0.33313559605E+03  0.34094782868E+03  0.00000000000E+00 0. -1.
          1    1    1    2  502    0  0.42242369848E+02  0.13786830933E+02  0.82684289550E+03  0.82803603083E+03  0.00000000000E+00 0. -1.
         22    1    3    3    0    0 -0.22573276652E+02  0.34300380575E+02  0.90363466077E+02  0.99255352137E+02  0.00000000000E+00 0.  1.
         22    1    3    3    0    0  0.52430184254E+02 -0.56320723455E+02  0.47091292229E+02  0.90213845473E+02  0.00000000000E+00 0.  1.
</event>
<event>
 7    1  0.6017574E-006  0.1016388E+03  0.7818608E-02  0.1338609E+00
          2   -1    0    0  502    0  0.00000000000E+00  0.00000000000E+00  0.13499162644E+04  0.13499162644E+04  0.00000000000E+00 0. -1.
          1   -1    0    0  501    0 -0.00000000000E+00 -0.00000000000E+00 -0.86940247231E+03  0.86940247231E+03  0.00000000000E+00 0. -1.
         25    2    1    2    0    0 -0.29453339524E+02  0.11333551715E+03 -0.59329721683E+02  0.18126073828E+03  0.12499200258E+03 0.  0.
          2    1    1    2  501    0 -0.26421803612E+02 -0.98084799365E+02 -0.74500816851E+03  0.75190152994E+03  0.00000000000E+00 0. -1.
          1    1    1    2  502    0  0.55875143136E+02 -0.15250717782E+02  0.12848516823E+04  0.12861564685E+04  0.00000000000E+00 0. -1.
         22    1    3    3    0    0 -0.39450054353E+02  0.13860008669E+03 -0.49786195712E+02  0.15246296633E+03  0.00000000000E+00 0. -1.
         22    1    3    3    0    0  0.99967148293E+01 -0.25264569538E+02 -0.95435259709E+01  0.28797771950E+02  0.00000000000E+00 0. -1.
</event>
<event>
 7    1  0.6017574E-006  0.5657981E+02  0.7818608E-02  0.1421786E+00
          2   -1    0    0  502    0  0.00000000000E+00  0.00000000000E+00  0.72230375499E+03  0.72230375499E+03  0.00000000000E+00 0. -1.
          1   -1    0    0  501    0 -0.00000000000E+00 -0.00000000000E+00 -0.11803801180E+04  0.11803801180E+04  0.00000000000E+00 0. -1.
         25    2    1    2    0    0 -0.65049622601E+02 -0.22895686627E+02  0.15316682985E+02  0.14357953299E+03  0.12499926260E+03 0.  0.
          2    1    1    2  501    0  0.15413942539E+02  0.50475001318E+02 -0.11143690551E+04  0.11156180826E+04  0.00000000000E+00 0. -1.
          1    1    1    2  502    0  0.49635680062E+02 -0.27579314691E+02  0.64097600903E+03  0.64348625742E+03  0.00000000000E+00 0. -1.
         22    1    3    3    0    0 -0.94304987738E+02  0.14279113230E+02  0.12419388537E+02  0.96185056004E+02  0.00000000000E+00 0. -1.
         22    1    3    3    0    0  0.29255365137E+02 -0.37174799857E+02  0.28972944484E+01  0.47394476986E+02  0.00000000000E+00 0. -1.
</event>
<event>
 7    1  0.6017574E-006  0.5376048E+02  0.7818608E-02  0.1484710E+00
          2   -1    0    0  502    0  0.00000000000E+00  0.00000000000E+00  0.24615489031E+04  0.24615489031E+04  0.00000000000E+00 0. -1.
          1   -1    0    0  501    0 -0.00000000000E+00 -0.00000000000E+00 -0.38205270067E+03  0.38205270067E+03  0.00000000000E+00 0. -1.
         25    2    1    2    0    0  0.72599329995E+02  0.13747934172E+02  0.73594786220E+02  0.16279667831E+03  0.12500758978E+03 0.  0.
          2    1    1    2  501    0 -0.42812545229E+02 -0.32136197207E+02 -0.33519707650E+03  0.33944473673E+03  0.00000000000E+00 0. -1.
          1    1    1    2  502    0 -0.29786784766E+02  0.18388263035E+02  0.23410984927E+04  0.23413601887E+04  0.00000000000E+00 0. -1.
         22    1    3    3    0    0 -0.35250127546E+02  0.12267451960E+02  0.17510380124E+02  0.41227118280E+02  0.00000000000E+00 0. -1.
         22    1    3    3    0    0  0.10784945754E+03  0.14804822126E+01  0.56084406095E+02  0.12156956003E+03  0.00000000000E+00 0. -1.
</event>
<event>
 7    1  0.6017574E-006  0.1296331E+03  0.7818608E-02  0.1335062E+00
          2   -1    0    0  502    0  0.00000000000E+00  0.00000000000E+00  0.26208066830E+04  0.26208066830E+04  0.00000000000E+00 0. -1.
          1   -1    0    0  501    0 -0.00000000000E+00 -0.00000000000E+00 -0.45750882161E+03  0.45750882161E+03  0.00000000000E+00 0. -1.
         25    2    1    2    0    0  0.71684117808E+02 -0.12647700627E+03  0.13905144979E+04  0.14036704110E+04  0.12500003118E+03 0.  0.
          2    1    1    2  501    0 -0.96338592270E+02  0.86656053960E+02 -0.44116121948E+03  0.45979736583E+03  0.00000000000E+00 0. -1.
          1    1    1    2  502    0  0.24654474462E+02  0.39820952306E+02  0.12139445829E+04  0.12148477278E+04  0.00000000000E+00 0. -1.
         22    1    3    3    0    0 -0.24279921716E+02  0.84055457885E+01  0.15486411262E+03  0.15698108541E+03  0.00000000000E+00 0. -1.
         22    1    3    3    0    0  0.95964039523E+02 -0.13488255206E+03  0.12356503853E+04  0.12466893256E+04  0.00000000000E+00 0. -1.
</event>
<event>
 7    1  0.6017574E-006  0.5895511E+02  0.7818608E-02  0.1542853E+00
          2   -1    0    0  502    0  0.00000000000E+00  0.00000000000E+00  0.70771561633E+03  0.70771561633E+03  0.00000000000E+00 0. -1.
          1   -1    0    0  501    0 -0.00000000000E+00 -0.00000000000E+00 -0.14814672121E+04  0.14814672121E+04  0.00000000000E+00 0. -1.
         25    2    1    2    0    0  0.10482735866E+02 -0.36158870010E+02  0.30564934463E+03  0.33236093362E+03  0.12499966677E+03 0.  0.
          2    1    1    2  501    0 -0.20061747198E+02  0.55478998216E+02 -0.14672190932E+04  0.14684046650E+04  0.00000000000E+00 0. -1.
          1    1    1    2  502    0  0.95790113313E+01 -0.19320128207E+02  0.38781815274E+03  0.38841722980E+03  0.00000000000E+00 0. -1.
         22    1    3    3    0    0 -0.52945205211E+02  0.75278607717E+01  0.12069939772E+03  0.13201593863E+03  0.00000000000E+00 0.  1.
         22    1    3    3    0    0  0.63427941077E+02 -0.43686730782E+02  0.18494994690E+03  0.20034499498E+03  0.00000000000E+00 0.  1.
</event>
<event>
 7    1  0.6017574E-006  0.6164844E+02  0.7818608E-02  0.1394124E+00
          2   -1    0    0  502    0  0.00000000000E+00  0.00000000000E+00  0.35343291016E+04  0.35343291016E+04  0.00000000000E+00 0. -1.
          1   -1    0    0  501    0 -0.00000000000E+00 -0.00000000000E+00 -0.71868089399E+02  0.71868089399E+02  0.00000000000E+00 0. -1.
         25    2    1    2    0    0 -0.29608772098E+02  0.30666112964E+02  0.20101718414E+04  0.20145055721E+04  0.12499911350E+03 0.  0.
          2    1    1    2  501    0  0.57729852737E+02  0.22500684904E+02 -0.55212504860E+02  0.82990586280E+02  0.00000000000E+00 0. -1.
          1    1    1    2  502    0 -0.28121080640E+02 -0.53166797868E+02  0.15075016756E+04  0.15087010326E+04  0.00000000000E+00 0. -1.
         22    1    3    3    0    0 -0.53716323754E+02 -0.29472954945E+02  0.12797025804E+04  0.12811685263E+04  0.00000000000E+00 0. -1.
         22    1    3    3    0    0  0.24107551656E+02  0.60139067909E+02  0.73046926098E+03  0.73333704582E+03  0.00000000000E+00 0. -1.
</event>
<event>
 7    1  0.6017574E-006  0.5747968E+02  0.7818608E-02  0.1476513E+00
          2   -1    0    0  502    0  0.00000000000E+00  0.00000000000E+00  0.64317123210E+03  0.64317123210E+03  0.00000000000E+00 0. -1.
          1   -1    0    0  501    0 -0.00000000000E+00 -0.00000000000E+00 -0.12528956926E+03  0.12528956926E+03  0.00000000000E+00 0. -1.
         25    2    1    2    0    0 -0.12452408254E+02  0.68930554976E+02  0.36776462772E+03  0.39469271567E+03  0.12500013807E+03 0.  0.
          2    1    1    2  501    0 -0.18950314279E+02 -0.54189965879E+02 -0.10319677095E+03  0.11808996717E+03  0.00000000000E+00 0. -1.
          1    1    1    2  502    0  0.31402722533E+02 -0.14740589096E+02  0.25331380606E+03  0.25567811852E+03  0.00000000000E+00 0. -1.
         22    1    3    3    0    0 -0.44794478738E+02  0.18367278805E+02  0.30118680079E+03  0.30505309575E+03  0.00000000000E+00 0. -1.
         22    1    3    3    0    0  0.32342070484E+02  0.50563276170E+02  0.66577826926E+02  0.89639619915E+02  0.00000000000E+00 0. -1.
</event>
<event>
 7    1  0.6017574E-006  0.8496609E+02  0.7818608E-02  0.1339541E+00
          2   -1    0    0  502    0  0.00000000000E+00  0.00000000000E+00  0.29934346627E+04  0.29934346627E+04  0.00000000000E+00 0. -1.
          1   -1    0    0  501    0 -0.00000000000E+00 -0.00000000000E+00 -0.43361283499E+03  0.43361283499E+03  0.00000000000E+00 0. -1.
         25    2    1    2    0    0 -0.36334140999E+02  0.64012426066E+02  0.76740787794E+02  0.16411064400E+03  0.12500157786E+03 0.  0.
          2    1    1    2  501    0  0.66869504499E+02  0.15868670834E+02 -0.38625754484E+03  0.39232414697E+03  0.00000000000E+00 0. -1.
          1    1    1    2  502    0 -0.30535363500E+02 -0.79881096900E+02  0.28693385848E+04  0.28706127068E+04  0.00000000000E+00 0. -1.
         22    1    3    3    0    0 -0.94094167829E+00  0.25046422424E+02  0.10248974919E+03  0.10550998691E+03  0.00000000000E+00 0.  1.
         22    1    3    3    0    0 -0.35393199321E+02  0.38966003643E+02 -0.25748961399E+02  0.58600657088E+02  0.00000000000E+00 0.  1.
</event>
<event>
 7    1  0.6017574E-006  0.4468022E+02  0.7818608E-02  0.1559787E+00
          2   -1    0    0  502    0  0.00000000000E+00  0.00000000000E+00  0.11595319929E+03  0.11595319929E+03  0.00000000000E+00 0. -1.
          1   -1    0    0  501    0 -0.00000000000E+00 -0.00000000000E+00 -0.12232286535E+03  0.12232286535E+03  0.00000000000E+00 0. -1.
         25    2    1    2    0    0 -0.29825103989E+02 -0.48165217682E+02 -0.26502977564E+02  0.13977501247E+03  0.12500088507E+03 0.  0.
          2    1    1    2  501    0 -0.71743682856E+01  0.24497552190E+02 -0.24854555130E+02  0.35627945974E+02  0.00000000000E+00 0. -1.
          1    1    1    2  502    0  0.36999472274E+02  0.23667665492E+02  0.44987866637E+02  0.62873106198E+02  0.00000000000E+00 0. -1.
         22    1    3    3    0    0 -0.12688695782E+02  0.39087194180E+02 -0.29851094934E+02  0.50792712255E+02  0.00000000000E+00 0.  1.
         22    1    3    3    0    0 -0.17136408206E+02 -0.87252411862E+02  0.33481173697E+01  0.88982300216E+02  0.00000000000E+00 0.  1.
</event>
<event>
 7    1  0.6017574E-006  0.7412586E+02  0.7818608E-02  0.1348935E+00
          2   -1    0    0  502    0  0.00000000000E+00  0.00000000000E+00  0.23553169964E+04  0.23553169964E+04  0.00000000000E+00 0. -1.
          1   -1    0    0  501    0 -0.00000000000E+00 -0.00000000000E+00 -0.83509389223E+02  0.83509389223E+02  0.00000000000E+00 0. -1.
         25    2    1    2    0    0  0.93185945185E+02  0.15363763555E+02  0.39575247812E+03  0.42563593247E+03  0.12500502974E+03 0.  0.
          2    1    1    2  501    0 -0.35867480467E+02 -0.63188765823E+02 -0.48390201476E+02  0.87297811429E+02  0.00000000000E+00 0. -1.
          1    1    1    2  502    0 -0.57318464718E+02  0.47825002268E+02  0.19244453305E+04  0.19258926417E+04  0.00000000000E+00 0. -1.
         22    1    3    3    0    0  0.43519626784E+02 -0.39562164208E+02  0.29379601793E+03  0.29962513730E+03  0.00000000000E+00 0.  1.
         22    1    3    3    0    0  0.49666318401E+02  0.54925927762E+02  0.10195646019E+03  0.12601079517E+03  0.00000000000E+00 0.  1.
</event>
<event>
 7    1  0.6017574E-006  0.4923527E+02  0.7818608E-02  0.1575275E+00
          2   -1    0    0  502    0  0.00000000000E+00  0.00000000000E+00  0.11202458800E+04  0.11202458800E+04  0.00000000000E+00 0. -1.
          1   -1    0    0  501    0 -0.00000000000E+00 -0.00000000000E+00 -0.44275083715E+03  0.44275083715E+03  0.00000000000E+00 0. -1.
         25    2    1    2    0    0  0.26491522586E+02  0.58069831812E+02  0.14630102548E+03  0.20273808523E+03  0.12499934005E+03 0.  0.
          2    1    1    2  501    0 -0.18621013039E+02 -0.97498698980E+01 -0.41363169686E+03  0.41416540505E+03  0.00000000000E+00 0. -1.
          1    1    1    2  502    0 -0.78705095475E+01 -0.48319961914E+02  0.94482571426E+03  0.94609322689E+03  0.00000000000E+00 0. -1.
         22    1    3    3    0    0 -0.17894944208E+02  0.25983366118E+02 -0.13121965299E+02  0.34169435411E+02  0.00000000000E+00 0. -1.
         22    1    3    3    0    0  0.44386466794E+02  0.32086465693E+02  0.15942299078E+03  0.16856864982E+03  0.00000000000E+00 0. -1.
</event>
<event>
 7    1  0.6017574E-006  0.7510086E+02  0.7818608E-02  0.1453140E+00
          2   -1    0    0  502    0  0.00000000000E+00  0.00000000000E+00  0.80592170648E+03  0.80592170648E+03  0.00000000000E+00 0. -1.
          1   -1    0    0  501    0 -0.00000000000E+00 -0.00000000000E+00 -0.69876786863E+02  0.69876786863E+02  0.00000000000E+00 0. -1.
         25    2    1    2    0    0 -0.85111142185E+02 -0.18712539985E+02  0.47191840809E+03  0.49590949230E+03  0.12500069996E+03 0.  0.
          2    1    1    2  501    0  0.73991330955E+02 -0.10682457272E+02 -0.32560891505E+02  0.81541667909E+02  0.00000000000E+00 0. -1.
          1    1    1    2  502    0  0.11119811230E+02  0.29394997257E+02  0.29668740303E+03  0.29834733312E+03  0.00000000000E+00 0. -1.
         22    1    3    3    0    0 -0.61463105759E+02 -0.29627989322E+02  0.89190541505E+02  0.11229641052E+03  0.00000000000E+00 0. -1.
         22    1    3    3    0    0 -0.23648036425E+02  0.10915449337E+02  0.38272786658E+03  0.38361308179E+03  0.00000000000E+00 0. -1.
</event>
<event>
 7    1  0.6017574E-006  0.1588507E+03  0.7818608E-02  0.1361979E+00
          2   -1    0    0  502    0  0.00000000000E+00  0.00000000000E+00  0.87678847441E+03  0.87678847441E+03  0.00000000000E+00 0. -1.
          1   -1    0    0  501    0 -0.00000000000E+00 -0.00000000000E+00 -0.14524956606E+03  0.14524956606E+03  0.00000000000E+00 0. -1.
         25    2    1    2    0    0  0.36482076442E+02 -0.17362116405E+03  0.10213269084E+03  0.23985073716E+03  0.12498815572E+03 0.  0.
          2    1    1    2  501    0 -0.17517183249E+02  0.14991039990E+03 -0.11159681665E+01  0.15093450597E+03  0.00000000000E+00 0. -1.
          1    1    1    2  502    0 -0.18964893193E+02  0.23710764146E+02  0.63052218568E+03  0.63125279734E+03  0.00000000000E+00 0. -1.
         22    1    3    3    0    0  0.22221144081E+02  0.12923598912E+02 -0.19117453319E+01  0.25776994071E+02  0.00000000000E+00 0. -1.
         22    1    3    3    0    0  0.14260932361E+02 -0.18654476296E+03  0.10404443617E+03  0.21407374309E+03  0.00000000000E+00 0. -1.
</event>
<event>
 7    1  0.6017574E-006  0.8090142E+02  0.7818608E-02  0.1462110E+00
          2   -1    0    0  502    0  0.00000000000E+00  0.00000000000E+00  0.33204467762E+04  0.33204467762E+04  0.00000000000E+00 0. -1.
          1   -1    0    0  501    0 -0.00000000000E+00 -0.00000000000E+00 -0.37521027749E+03  0.37521027749E+03  0.00000000000E+00 0. -1.
         25    2    1    2    0    0  0.11872368879E+02 -0.80749815487E+02 -0.16685035846E+03  0.22388958991E+03  0.12500408196E+03 0.  0.
          2    1    1    2  501    0  0.25760534881E+02  0.91229773083E+01 -0.17830190292E+03  0.18038404159E+03  0.00000000000E+00 0. -1.
          1    1    1    2  502    0 -0.37632903760E+02  0.71626838178E+02  0.32903887601E+04  0.32913834222E+04  0.00000000000E+00 0. -1.
         22    1    3    3    0    0  0.63364454150E+01 -0.11341393533E+03 -0.11019519497E+03  0.15825881416E+03  0.00000000000E+00 0.  1.
         22    1    3    3    0    0  0.55359234637E+01  0.32664119843E+02 -0.56655163497E+02  0.65630775742E+02  0.00000000000E+00 0.  1.
</event>
<event>
 7    1  0.6017574E-006  0.2749738E+03  0.7818608E-02  0.1100074E+00
          2   -1    0    0  502    0  0.00000000000E+00  0.00000000000E+00  0.14549242008E+04  0.14549242008E+04  0.00000000000E+00 0. -1.
          1   -1    0    0  501    0 -0.00000000000E+00 -0.00000000000E+00 -0.11987089730E+04  0.11987089730E+04  0.00000000000E+00 0. -1.
         25    2    1    2    0    0 -0.27741101775E+02 -0.89974339997E+02  0.21345280052E+03  0.26467534655E+03  0.12500396169E+03 0.  0.
          2    1    1    2  501    0 -0.22125284160E+03  0.19253731223E+03 -0.11393834750E+04  0.11765280020E+04  0.00000000000E+00 0. -1.
          1    1    1    2  502    0  0.24899394337E+03 -0.10256297223E+03  0.11821459022E+04  0.12124298253E+04  0.00000000000E+00 0. -1.
         22    1    3    3    0    0 -0.42967587448E+02 -0.78843846118E+01  0.15925130764E+03  0.16513435765E+03  0.00000000000E+00 0.  1.
         22    1    3    3    0    0  0.15226485672E+02 -0.82089955385E+02  0.54201492874E+02  0.99540988898E+02  0.00000000000E+00 0.  1.
</event>
<event>
 7    1  0.6017574E-006  0.6255313E+02  0.7818608E-02  0.1501367E+00
          2   -1    0    0  502    0  0.00000000000E+00  0.00000000000E+00  0.57917853122E+03  0.57917853122E+03  0.00000000000E+00 0. -1.
          1   -1    0    0  501    0 -0.00000000000E+00 -0.00000000000E+00 -0.16823240619E+03  0.16823240619E+03  0.00000000000E+00 0. -1.
         25    2    1    2    0    0 -0.24218269720E+02 -0.45163930434E+02 -0.10343485712E+03  0.17014678401E+03  0.12499941296E+03 0.  0.
          2    1    1    2  501    0 -0.25802409130E+02  0.72503001933E+01 -0.23553403968E+02  0.35680442938E+02  0.00000000000E+00 0. -1.
          1    1    1    2  502    0  0.50020678850E+02  0.37913630241E+02  0.53793438612E+03  0.54158371047E+03  0.00000000000E+00 0. -1.
         22    1    3    3    0    0 -0.12524984778E+02  0.41712526389E+02 -0.16173550445E+02  0.46458517362E+02  0.00000000000E+00 0. -1.
         22    1    3    3    0    0 -0.11693284942E+02 -0.86876456824E+02 -0.87261306680E+02  0.12368826665E+03  0.00000000000E+00 0. -1.
</event>
<event>
 7    1  0.6017574E-006  0.9906710E+02  0.7818608E-02  0.1301370E+00
          2   -1    0    0  502    0  0.00000000000E+00  0.00000000000E+00  0.10695510669E+04  0.10695510669E+04  0.00000000000E+00 0. -1.
          1   -1    0    0  501    0 -0.00000000000E+00 -0.00000000000E+00 -0.67692441092E+03  0.67692441092E+03  0.00000000000E+00 0. -1.
         25    2    1    2    0    0  0.19410537219E+02  0.77344566730E+02  0.50628961037E+02  0.15667806135E+03  0.12500308898E+03 0.  0.
          2    1    1    2  501    0 -0.93077952533E+02 -0.39360314658E+02 -0.61801016935E+03  0.62621825990E+03  0.00000000000E+00 0. -1.
          1    1    1    2  502    0  0.73667415315E+02 -0.37984252072E+02  0.96000786427E+03  0.96357915655E+03  0.00000000000E+00 0. -1.
         22    1    3    3    0    0 -0.38980630925E+02  0.80861062395E+02  0.29802765685E+02  0.94584384765E+02  0.00000000000E+00 0.  1.
         22    1    3    3    0    0  0.58391168144E+02 -0.35164956650E+01  0.20826195352E+02  0.62093676585E+02  0.00000000000E+00 0.  1.
</event>
<event>
 7    1  0.6236625E-006  0.6724868E+02  0.7818608E-02  0.1381780E+00
          2   -1    0    0  502    0  0.00000000000E+00  0.00000000000E+00  0.15567985244E+04  0.15567985244E+04  0.00000000000E+00 0. -1.
          1   -1    0    0  501    0 -0.00000000000E+00 -0.00000000000E+00 -0.14690354731E+04  0.14690354731E+04  0.00000000000E+00 0. -1.
         25    2    1    2    0    0 -0.25215909564E+02 -0.12536820518E+03 -0.11751319387E+03  0.21397923049E+03  0.12499892553E+03 0.  0.
          2    1    1    2  501    0  0.12384050174E+02  0.59632279472E+02 -0.13018335633E+04  0.13032574572E+04  0.00000000000E+00 0. -1.
          1    1    1    2  502    0  0.12831859391E+02  0.65735925706E+02  0.15071098084E+04  0.15085973098E+04  0.00000000000E+00 0. -1.
         22    1    3    3    0    0 -0.66295756308E+02 -0.82090147703E+02 -0.33064673318E+02  0.11057663531E+03  0.00000000000E+00 0. -1.
         22    1    3    3    0    0  0.41079846744E+02 -0.43278057475E+02 -0.84448520552E+02  0.10340259518E+03  0.00000000000E+00 0. -1.
</event>
<event>
 7    1  0.6017574E-006  0.8906240E+02  0.7818608E-02  0.1379119E+00
          2   -1    0    0  502    0  0.00000000000E+00  0.00000000000E+00  0.15131906658E+03  0.15131906658E+03  0.00000000000E+00 0. -1.
          1   -1    0    0  501    0 -0.00000000000E+00 -0.00000000000E+00 -0.52147096411E+03  0.52147096411E+03  0.00000000000E+00 0. -1.
         25    2    1    2    0    0 -0.94154562956E+01 -0.10468950284E+03 -0.31675788736E+02  0.16636279962E+03  0.12499873072E+03 0.  0.
          2    1    1    2  501    0 -0.32084893035E+02  0.82636296660E+02 -0.41075582334E+03  0.42021249897E+03  0.00000000000E+00 0. -1.
          1    1    1    2  502    0  0.41500349330E+02  0.22053206185E+02  0.72279714538E+02  0.86214732101E+02  0.00000000000E+00 0. -1.
         22    1    3    3    0    0 -0.45888324503E+02 -0.11407225821E+03 -0.11120692447E+02  0.12345804234E+03  0.00000000000E+00 0. -1.
         22    1    3    3    0    0  0.36472868207E+02  0.93827553642E+01 -0.20555096288E+02  0.42904757276E+02  0.00000000000E+00 0. -1.
</event>
<event>
 7    1  0.6017574E-006  0.7710067E+02  0.7818608E-02  0.1451313E+00
          2   -1    0    0  502    0  0.00000000000E+00  0.00000000000E+00  0.40694263533E+03  0.40694263533E+03  0.00000000000E+00 0. -1.
          1   -1    0    0  501    0 -0.00000000000E+00 -0.00000000000E+00 -0.25334003976E+03  0.25334003976E+03  0.00000000000E+00 0. -1.
         25    2    1    2    0    0  0.11423618460E+02 -0.50721769512E+02  0.19417029048E+03  0.23670624987E+03  0.12499820024E+03 0.  0.
          2    1    1    2  501    0 -0.36671273991E+02  0.68754777554E+02 -0.22419272586E+03  0.23734864673E+03  0.00000000000E+00 0. -1.
          1    1    1    2  502    0  0.25247655530E+02 -0.18033008043E+02  0.18362503095E+03  0.18622777849E+03  0.00000000000E+00 0. -1.
         22    1    3    3    0    0  0.43842815689E+02 -0.93860077078E+01  0.11019521346E+02  0.46170547744E+02  0.00000000000E+00 0. -1.
         22    1    3    3    0    0 -0.32419197229E+02 -0.41335761804E+02  0.18315076913E+03  0.19053570213E+03  0.00000000000E+00 0. -1.
</event>
<event>
 7    1  0.6017574E-006  0.8631162E+02  0.7818608E-02  0.1451538E+00
          2   -1    0    0  502    0  0.00000000000E+00  0.00000000000E+00  0.39925765543E+03  0.39925765543E+03  0.00000000000E+00 0. -1.
          1   -1    0    0  501    0 -0.00000000000E+00 -0.00000000000E+00 -0.90472537667E+03  0.90472537667E+03  0.00000000000E+00 0. -1.
         25    2    1    2    0    0 -0.56670116597E+02 -0.31614378299E+02 -0.19999883071E+02  0.14225979480E+03  0.12500753123E+03 0.  0.
          2    1    1    2  501    0  0.65116111577E+02  0.57963395921E+02 -0.82071707035E+03  0.82533409770E+03  0.00000000000E+00 0. -1.
          1    1    1    2  502    0 -0.84459949798E+01 -0.26349017622E+02  0.33524923218E+03  0.33638913960E+03  0.00000000000E+00 0. -1.
         22    1    3    3    0    0 -0.31365354927E+02 -0.26691801978E+02 -0.72720836142E+02  0.83573666856E+02  0.00000000000E+00 0.  1.
         22    1    3    3    0    0 -0.25304761670E+02 -0.49225763207E+01  0.52720953071E+02  0.58686127948E+02  0.00000000000E+00 0.  1.
</event>
<event>
 7    1  0.6017574E-006  0.1098380E+03  0.7818608E-02  0.1348769E+00
          2   -1    0    0  502    0  0.00000000000E+00  0.00000000000E+00  0.29637239290E+03  0.29637239290E+03  0.00000000000E+00 0. -1.
          1   -1    0    0  501    0 -0.00000000000E+00 -0.00000000000E+00 -0.17369597864E+04  0.17369597864E+04  0.00000000000E+00 0. -1.
         25    2    1    2    0    0  0.10593041039E+03  0.95206557207E+02 -0.22467042644E+03  0.29391820950E+03  0.12500229191E+03 0.  0.
          2    1    1    2  501    0 -0.78326465740E+01 -0.48475805053E+02 -0.14659596534E+04  0.14667818377E+04  0.00000000000E+00 0. -1.
          1    1    1    2  502    0 -0.98097763812E+02 -0.46730752153E+02  0.25004268633E+03  0.27263213209E+03  0.00000000000E+00 0. -1.
         22    1    3    3    0    0  0.90812753292E+02  0.11084398226E+03 -0.23049089591E+03  0.27140264859E+03  0.00000000000E+00 0.  1.
         22    1    3    3    0    0  0.15117657093E+02 -0.15637425057E+02  0.58204694739E+01  0.22515560914E+02  0.00000000000E+00 0.  1.
</event>
<event>
 7    1  0.6017574E-006  0.9716268E+02  0.7818608E-02  0.1457214E+00
          2   -1    0    0  502    0  0.00000000000E+00  0.00000000000E+00  0.10125977909E+04  0.10125977909E+04  0.00000000000E+00 0. -1.
          1   -1    0    0  501    0 -0.00000000000E+00 -0.00000000000E+00 -0.28007013233E+02  0.28007013233E+02  0.00000000000E+00 0. -1.
         25    2    1    2    0    0  0.49175029018E+02 -0.60782844272E+02  0.29936722027E+03  0.33370428708E+03  0.12500032403E+03 0.  0.
          2    1    1    2  501    0  0.10767704692E+02 -0.20976526909E+02  0.12705384826E+02  0.26784042807E+02  0.00000000000E+00 0. -1.
          1    1    1    2  502    0 -0.59942733710E+02  0.81759371181E+02  0.67251817257E+03  0.68011647424E+03  0.00000000000E+00 0. -1.
         22    1    3    3    0    0 -0.26782720998E+01 -0.28349974620E+02  0.25868783149E+03  0.26025043393E+03  0.00000000000E+00 0.  1.
         22    1    3    3    0    0  0.51853301117E+02 -0.32432869652E+02  0.40679388781E+02  0.73453853148E+02  0.00000000000E+00 0.  1.
</event>
<event>
 7    1  0.6017574E-006  0.2824913E+02  0.7818608E-02  0.1640675E+00
          2   -1    0    0  502    0  0.00000000000E+00  0.00000000000E+00  0.75647794946E+02  0.75647794946E+02  0.00000000000E+00 0. -1.
          1   -1    0    0  501    0 -0.00000000000E+00 -0.00000000000E+00 -0.24229633969E+03  0.24229633969E+03  0.00000000000E+00 0. -1.
         25    2    1    2    0    0  0.29760712004E+02 -0.27176093849E+02 -0.11650178003E+03  0.17556119854E+03  0.12499931850E+03 0.  0.
          2    1    1    2  501    0 -0.17399415565E+01  0.24751459671E+02 -0.90138597292E+02  0.93491330476E+02  0.00000000000E+00 0. -1.
          1    1    1    2  502    0 -0.28020770447E+02  0.24246341780E+01  0.39991832578E+02  0.48891605622E+02  0.00000000000E+00 0. -1.
         22    1    3    3    0    0  0.23018823753E+02 -0.77234934833E+02 -0.66484633608E+02  0.10447635097E+03  0.00000000000E+00 0. -1.
         22    1    3    3    0    0  0.67418882502E+01  0.50058840984E+02 -0.50017146426E+02  0.71084847572E+02  0.00000000000E+00 0. -1.
</event>
<event>
 7    1  0.6017574E-006  0.1283403E+03  0.7818608E-02  0.1334808E+00
          2   -1    0    0  502    0  0.00000000000E+00  0.00000000000E+00  0.18720838656E+04  0.18720838656E+04  0.00000000000E+00 0. -1.
          1   -1    0    0  501    0 -0.00000000000E+00 -0.00000000000E+00 -0.86591136173E+03  0.86591136173E+03  0.00000000000E+00 0. -1.
         25    2    1    2    0    0  0.77974652888E+02 -0.23361028466E+02  0.99521838740E+03  0.10063343817E+04  0.12499385975E+03 0.  0.
          2    1    1    2  501    0 -0.12475654960E+03  0.31065465357E+02 -0.85489813931E+03  0.86451147384E+03  0.00000000000E+00 0. -1.
          1    1    1    2  502    0  0.46781896716E+02 -0.77044368907E+01  0.86585225580E+03  0.86714937184E+03  0.00000000000E+00 0. -1.
         22    1    3    3    0    0  0.73714304581E+02 -0.60356407211E+02  0.45678160957E+03  0.46661133016E+03  0.00000000000E+00 0. -1.
         22    1    3    3    0    0  0.42603483067E+01  0.36995378745E+02  0.53843677782E+03  0.53972305151E+03  0.00000000000E+00 0. -1.
</event>
<event>
 7    1  0.6017574E-006  0.3831300E+02  0.7818608E-02  0.1530705E+00
          2   -1    0    0  502    0  0.00000000000E+00  0.00000000000E+00  0.47687338723E+04  0.47687338723E+04  0.00000000000E+00 0. -1.
          1   -1    0    0  501    0 -0.00000000000E+00 -0.00000000000E+00 -0.66684879824E+03  0.66684879824E+03  0.00000000000E+00 0. -1.
         25    2    1    2    0    0 -0.41480079988E+02  0.44811565253E+02  0.20422860253E+04  0.20470186766E+04  0.12499831968E+03 0.  0.
          2    1    1    2  501    0  0.50708254105E+01 -0.35565897027E+02 -0.66386726768E+03  0.66483862357E+03  0.00000000000E+00 0. -1.
          1    1    1    2  502    0  0.36409254577E+02 -0.92456682260E+01  0.27234663164E+04  0.27237253703E+04  0.00000000000E+00 0. -1.
         22    1    3    3    0    0 -0.10123520219E+01  0.22386383976E+01 -0.11681702121E+01  0.27204742484E+01  0.00000000000E+00 0. -1.
         22    1    3    3    0    0 -0.40467727966E+02  0.42572926855E+02  0.20434541955E+04  0.20442982024E+04  0.00000000000E+00 0. -1.
</event>
<event>
 7    1  0.6017574E-006  0.8802984E+02  0.7818608E-02  0.1412733E+00
          2   -1    0    0  502    0  0.00000000000E+00  0.00000000000E+00  0.10840709899E+04  0.10840709899E+04  0.00000000000E+00 0. -1.
          1   -1    0    0  501    0 -0.00000000000E+00 -0.00000000000E+00 -0.22794576860E+03  0.22794576860E+03  0.00000000000E+00 0. -1.
         25    2    1    2    0    0 -0.12027923030E+03 -0.19277800021E+02  0.13453049945E+03  0.22036983250E+03  0.12500272388E+03 0.  0.
          2    1    1    2  501    0  0.36351940739E+02 -0.13446760572E+01 -0.18115427434E+03  0.18477051404E+03  0.00000000000E+00 0. -1.
          1    1    1    2  502    0  0.83927289564E+02  0.20622476078E+02  0.90274899616E+03  0.90687641194E+03  0.00000000000E+00 0. -1.
         22    1    3    3    0    0  0.12672713865E+01 -0.27009211907E+02  0.84467684501E+02  0.88689871065E+02  0.00000000000E+00 0.  1.
         22    1    3    3    0    0 -0.12154650169E+03  0.77314118864E+01  0.50062814950E+02  0.13167996143E+03  0.00000000000E+00 0.  1.
</event>
<event>
 7    1  0.6017574E-006  0.5182399E+02  0.7818608E-02  0.1446336E+00
          2   -1    0    0  502    0  0.00000000000E+00  0.00000000000E+00  0.62678743146E+03  0.62678743146E+03  0.00000000000E+00 0. -1.
          1   -1    0    0  501    0 -0.00000000000E+00 -0.00000000000E+00 -0.86657079184E+03  0.86657079184E+03  0.00000000000E+00 0. -1.
         25    2    1    2    0    0  0.56051461730E+02 -0.79175032403E+02  0.69910800127E+01  0.15838043379E+03  0.12500013796E+03 0.  0.
          2    1    1    2  501    0 -0.35169593780E+02  0.32498782188E+02 -0.78894715877E+03  0.79039907041E+03  0.00000000000E+00 0. -1.
          1    1    1    2  502    0 -0.20881867950E+02  0.46676250215E+02  0.54217271838E+03  0.54457871910E+03  0.00000000000E+00 0. -1.
         22    1    3    3    0    0  0.93361385241E+02 -0.49418712368E+02  0.22877186541E+02  0.10808294523E+03  0.00000000000E+00 0.  1.
         22    1    3    3    0    0 -0.37309923511E+02 -0.29756320035E+02 -0.15886106528E+02  0.50297488556E+02  0.00000000000E+00 0.  1.
</event>
<event>
 7    1  0.6017574E-006  0.4765461E+02  0.7818608E-02  0.1479470E+00
          2   -1    0    0  502    0  0.00000000000E+00  0.00000000000E+00  0.62728353638E+03  0.62728353638E+03  0.00000000000E+00 0. -1.
          1   -1    0    0  501    0 -0.00000000000E+00 -0.00000000000E+00 -0.14977305802E+04  0.14977305802E+04  0.00000000000E+00 0. -1.
         25    2    1    2    0    0 -0.37272744035E+02 -0.80306707489E+02  0.35485812223E+03  0.38650886146E+03  0.12500555332E+03 0.  0.
          2    1    1    2  501    0  0.18654062689E+02  0.43806048928E+02 -0.14798841368E+04  0.14806498582E+04  0.00000000000E+00 0. -1.
          1    1    1    2  502    0  0.18618681346E+02  0.36500658561E+02  0.25457897080E+03  0.25785539697E+03  0.00000000000E+00 0. -1.
         22    1    3    3    0    0 -0.71134741435E+02 -0.74755751722E+02  0.17297561259E+03  0.20141781551E+03  0.00000000000E+00 0. -1.
         22    1    3    3    0    0  0.33861997400E+02 -0.55509557677E+01  0.18188250964E+03  0.18509104595E+03  0.00000000000E+00 0. -1.
</event>
<event>
 7    1  0.6017574E-006  0.1189095E+03  0.7818608E-02  0.1296521E+00
          2   -1    0    0  502    0  0.00000000000E+00  0.00000000000E+00  0.59512357512E+03  0.59512357512E+03  0.00000000000E+00 0. -1.
          1   -1    0    0  501    0 -0.00000000000E+00 -0.00000000000E+00 -0.12579888386E+04  0.12579888386E+04  0.00000000000E+00 0. -1.
         25    2    1    2    0    0 -0.14921878687E+03  0.26786478891E+02  0.15690205500E+03  0.25144824360E+03  0.12499681012E+03 0.  0.
          2    1    1    2  501    0  0.57610721654E+02  0.43542819347E+02 -0.12010781031E+04  0.12032470993E+04  0.00000000000E+00 0. -1.
          1    1    1    2  502    0  0.91608065215E+02 -0.70329298238E+02  0.38131078462E+03  0.39841707076E+03  0.00000000000E+00 0. -1.
         22    1    3    3    0    0 -0.51830059377E+02  0.67532585825E+02  0.10066400526E+03  0.13183416537E+03  0.00000000000E+00 0.  1.
         22    1    3    3    0    0 -0.97388727491E+02 -0.40746106934E+02  0.56238049741E+02  0.11961407823E+03  0.00000000000E+00 0.  1.
</event>
<event>
 7    1  0.6017574E-006  0.5207879E+02  0.7818608E-02  0.1479477E+00
          2   -1    0    0  502    0  0.00000000000E+00  0.00000000000E+00  0.25072769592E+03  0.25072769592E+03  0.00000000000E+00 0. -1.
          1   -1    0    0  501    0 -0.00000000000E+00 -0.00000000000E+00 -0.44112097423E+03  0.44112097423E+03  0.00000000000E+00 0. -1.
         25    2    1    2    0    0 -0.45730768584E+02 -0.23646105665E+02  0.18190897852E+03  0.22664546001E+03  0.12500738605E+03 0.  0.
          2    1    1    2  501    0  0.50401392851E+02 -0.13554085532E+02 -0.40925008499E+03  0.41256471698E+03  0.00000000000E+00 0. -1.
          1    1    1    2  502    0 -0.46706242676E+01  0.37200191198E+02  0.36947828158E+02  0.52638493157E+02  0.00000000000E+00 0. -1.
         22    1    3    3    0    0 -0.48870338360E+02 -0.65496657913E+02  0.71697183148E+02  0.10871342254E+03  0.00000000000E+00 0.  1.
         22    1    3    3    0    0  0.31395697760E+01  0.41850552248E+02  0.11021179537E+03  0.11793203747E+03  0.00000000000E+00 0.  1.
</event>
<event>
 7    1  0.6017574E-006  0.1312002E+03  0.7818608E-02  0.1323311E+00
          2   -1    0    0  502    0  0.00000000000E+00  0.00000000000E+00  0.19783749808E+04  0.19783749808E+04  0.00000000000E+00 0. -1.
          1   -1    0    0  501    0 -0.00000000000E+00 -0.00000000000E+00 -0.44582235172E+02  0.44582235172E+02  0.00000000000E+00 0. -1.
         25    2    1    2    0    0 -0.12735451058E+03 -0.20129892659E+02  0.42484968515E+03  0.46124619497E+03  0.12500565372E+03 0.  0.
          2    1    1    2  501    0  0.13126721654E+03 -0.31043000248E+02  0.14972743576E+03  0.20152680969E+03  0.00000000000E+00 0. -1.
          1    1    1    2  502    0 -0.39127059548E+01  0.51172892907E+02  0.13592156247E+04  0.13601842113E+04  0.00000000000E+00 0. -1.
         22    1    3    3    0    0  0.72692487785E+01 -0.30708636931E+02  0.16925351940E+03  0.17217031158E+03  0.00000000000E+00 0.  1.
         22    1    3    3    0    0 -0.13462375936E+03  0.10578744272E+02  0.25559616575E+03  0.28907588339E+03  0.00000000000E+00 0.  1.
</event>
<event>
 7    1  0.6017574E-006  0.1070386E+03  0.7818608E-02  0.1306211E+00
          2   -1    0    0  502    0  0.00000000000E+00  0.00000000000E+00  0.39474477980E+03  0.39474477980E+03  0.00000000000E+00 0. -1.
          1   -1    0    0  501    0 -0.00000000000E+00 -0.00000000000E+00 -0.17477817006E+04  0.17477817006E+04  0.00000000000E+00 0. -1.
         25    2    1    2    0    0  0.13969833758E+02  0.17489178819E+03 -0.34949489404E+03  0.41055516466E+03  0.12500627359E+03 0.  0.
          2    1    1    2  501    0  0.11917054079E+02 -0.72408250053E+02 -0.13590766898E+04  0.13610563617E+04  0.00000000000E+00 0. -1.
          1    1    1    2  502    0 -0.25886887837E+02 -0.10248353813E+03  0.35553466303E+03  0.37091495409E+03  0.00000000000E+00 0. -1.
         22    1    3    3    0    0  0.51677797613E+01  0.42913959472E+02 -0.74964414714E+01  0.43869243211E+02  0.00000000000E+00 0. -1.
         22    1    3    3    0    0  0.88020539965E+01  0.13197782872E+03 -0.34199845257E+03  0.36668592145E+03  0.00000000000E+00 0. -1.
</event>
<event>
 7    1  0.6017574E-006  0.1868735E+03  0.7818608E-02  0.1310259E+00
          2   -1    0    0  502    0  0.00000000000E+00  0.00000000000E+00  0.16597644267E+04  0.16597644267E+04  0.00000000000E+00 0. -1.
          1   -1    0    0  501    0 -0.00000000000E+00 -0.00000000000E+00 -0.95597375383E+03  0.95597375383E+03  0.00000000000E+00 0. -1.
         25    2    1    2    0    0  0.21604024380E+03 -0.22162555635E+02 -0.19850259431E+03  0.31965756380E+03  0.12495244028E+03 0.  0.
          2    1    1    2  501    0 -0.29837469010E+02  0.27404031579E+02 -0.69087379832E+03  0.69206059035E+03  0.00000000000E+00 0. -1.
          1    1    1    2  502    0 -0.18620277479E+03 -0.52414759449E+01  0.15931670655E+04  0.16040200264E+04  0.00000000000E+00 0. -1.
         22    1    3    3    0    0  0.10905874408E+03  0.46932976876E+02 -0.12593730043E+03  0.17308009019E+03  0.00000000000E+00 0. -1.
         22    1    3    3    0    0  0.10698149972E+03 -0.69095532511E+02 -0.72565293877E+02  0.14657747361E+03  0.00000000000E+00 0. -1.
</event>
<event>
 7    1  0.6017574E-006  0.1343996E+03  0.7818608E-02  0.1305949E+00
          2   -1    0    0  502    0  0.00000000000E+00  0.00000000000E+00  0.45180801187E+03  0.45180801187E+03  0.00000000000E+00 0. -1.
          1   -1    0    0  501    0 -0.00000000000E+00 -0.00000000000E+00 -0.43986204105E+03  0.43986204105E+03  0.00000000000E+00 0. -1.
         25    2    1    2    0    0  0.71099908707E+02 -0.94024336473E+02  0.17391079727E+02  0.17269251477E+03  0.12499792853E+03 0.  0.
          2    1    1    2  501    0 -0.12189888484E+03  0.64844365364E+02 -0.34646410455E+03  0.37296314239E+03  0.00000000000E+00 0. -1.
          1    1    1    2  502    0  0.50798976130E+02  0.29179971109E+02  0.34101899564E+03  0.34601439576E+03  0.00000000000E+00 0. -1.
         22    1    3    3    0    0  0.53414508048E+02 -0.76636828795E+02  0.68530420738E+02  0.11585651369E+03  0.00000000000E+00 0.  1.
         22    1    3    3    0    0  0.17685400659E+02 -0.17387507679E+02 -0.51139341011E+02  0.56836001080E+02  0.00000000000E+00 0.  1.
</event>
<event>
 7    1  0.6017574E-006  0.8610204E+02  0.7818608E-02  0.1336097E+00
          2   -1    0    0  502    0  0.00000000000E+00  0.00000000000E+00  0.35663256445E+03  0.35663256445E+03  0.00000000000E+00 0. -1.
          1   -1    0    0  501    0 -0.00000000000E+00 -0.00000000000E+00 -0.59703345376E+03  0.59703345376E+03  0.00000000000E+00 0. -1.
         25    2    1    2    0    0  0.63513759588E+02 -0.15460958284E+01  0.43131612940E+02  0.14670369963E+03  0.12500100552E+03 0.  0.
          2    1    1    2  501    0 -0.39648700846E+01 -0.69768093163E+02 -0.53465602352E+03  0.53920345928E+03  0.00000000000E+00 0. -1.
          1    1    1    2  502    0 -0.59548889503E+02  0.71314188992E+02  0.25112352127E+03  0.26775885929E+03  0.00000000000E+00 0. -1.
         22    1    3    3    0    0  0.62942845170E+02 -0.54090700161E+02  0.77460560947E+01  0.83352306429E+02  0.00000000000E+00 0.  1.
         22    1    3    3    0    0  0.57091441814E+00  0.52544604333E+02  0.35385556845E+02  0.63351393205E+02  0.00000000000E+00 0.  1.
</event>
<event>
 7    1  0.6017574E-006  0.1419154E+03  0.7818608E-02  0.1249809E+00
          2   -1    0    0  502    0  0.00000000000E+00  0.00000000000E+00  0.47947837147E+04  0.47947837147E+04  0.00000000000E+00 0. -1.
          1   -1    0    0  501    0 -0.00000000000E+00 -0.00000000000E+00 -0.53118979838E+02  0.53118979838E+02  0.00000000000E+00 0. -1.
         25    2    1    2    0    0  0.21876390149E+03  0.70126316502E+02  0.43014038316E+03  0.50340946861E+03  0.12499999598E+03 0.  0.
          2    1    1    2  501    0 -0.81130314048E+02 -0.49140061935E+02  0.13143777455E+03  0.16208874768E+03  0.00000000000E+00 0. -1.
          1    1    1    2  502    0 -0.13763358744E+03 -0.20986254568E+02  0.41800865771E+04  0.41824044783E+04  0.00000000000E+00 0. -1.
         22    1    3    3    0    0  0.13094798031E+03  0.77611658329E+02  0.35970465572E+03  0.39058722765E+03  0.00000000000E+00 0. -1.
         22    1    3    3    0    0  0.87815921174E+02 -0.74853418270E+01  0.70435727439E+02  0.11282224095E+03  0.00000000000E+00 0. -1.
</event>
<event>
 7    1  0.6017574E-006  0.6967569E+02  0.7818608E-02  0.1385534E+00
          2   -1    0    0  502    0  0.00000000000E+00  0.00000000000E+00  0.55824495960E+03  0.55824495960E+03  0.00000000000E+00 0. -1.
          1   -1    0    0  501    0 -0.00000000000E+00 -0.00000000000E+00 -0.17909321580E+03  0.17909321580E+03  0.00000000000E+00 0. -1.
         25    2    1    2    0    0  0.27566116992E+02 -0.88078742257E+02  0.18401489388E+03  0.24084385896E+03  0.12500611020E+03 0.  0.
          2    1    1    2  501    0 -0.51937942339E+02  0.23532699486E+02 -0.14165895269E+03  0.15270427852E+03  0.00000000000E+00 0. -1.
          1    1    1    2  502    0  0.24371825347E+02  0.64546042771E+02  0.33679580263E+03  0.34379003792E+03  0.00000000000E+00 0. -1.
         22    1    3    3    0    0  0.30580541740E+02 -0.49057279673E+02  0.19233237286E+03  0.20083208875E+03  0.00000000000E+00 0. -1.
         22    1    3    3    0    0 -0.30144247483E+01 -0.39021462584E+02 -0.83174789826E+01  0.40011770210E+02  0.00000000000E+00 0. -1.
</event>
<event>
 7    1  0.6017574E-006  0.1309736E+03  0.7818608E-02  0.1348407E+00
          2   -1    0    0  502    0  0.00000000000E+00  0.00000000000E+00  0.11185338715E+04  0.11185338715E+04  0.00000000000E+00 0. -1.
          1   -1    0    0  501    0 -0.00000000000E+00 -0.00000000000E+00 -0.23122065406E+03  0.23122065406E+03  0.00000000000E+00 0. -1.
         25    2    1    2    0    0 -0.76831402874E+02 -0.14579516829E+03  0.43820009599E+02  0.21143455272E+03  0.12500032512E+03 0.  0.
          2    1    1    2  501    0  0.33735042885E+02  0.23838621598E+02 -0.14020023724E+03  0.14615895293E+03  0.00000000000E+00 0. -1.
          1    1    1    2  502    0  0.43096359989E+02  0.12195654669E+03  0.98369344511E+03  0.99216101994E+03  0.00000000000E+00 0. -1.
         22    1    3    3    0    0  0.25739599355E+02 -0.15146446877E+02  0.33693081612E+02  0.45024055531E+02  0.00000000000E+00 0.  1.
         22    1    3    3    0    0 -0.10257100223E+03 -0.13064872142E+03  0.10126927987E+02  0.16641049719E+03  0.00000000000E+00 0.  1.
</event>
<event>
 7    1  0.6017574E-006  0.1267428E+03  0.7818608E-02  0.1383198E+00
          2   -1    0    0  502    0  0.00000000000E+00  0.00000000000E+00  0.13405127634E+04  0.13405127634E+04  0.00000000000E+00 0. -1.
          1   -1    0    0  501    0 -0.00000000000E+00 -0.00000000000E+00 -0.32695199382E+02  0.32695199382E+02  0.00000000000E+00 0. -1.
         25    2    1    2    0    0  0.98526410676E+02  0.14949650310E+02  0.24533510693E+03  0.29282324176E+03  0.12500076232E+03 0.  0.
          2    1    1    2  501    0  0.31604806700E+02  0.46520713408E+01  0.49654191843E+02  0.59042733184E+02  0.00000000000E+00 0. -1.
          1    1    1    2  502    0 -0.13013121738E+03 -0.19601721650E+02  0.10128282652E+04  0.10213419878E+04  0.00000000000E+00 0. -1.
         22    1    3    3    0    0  0.76613516899E+01 -0.47850005688E+02  0.90059168834E+02  0.10226912166E+03  0.00000000000E+00 0. -1.
         22    1    3    3    0    0  0.90865058986E+02  0.62799655997E+02  0.15527593809E+03  0.19055412010E+03  0.00000000000E+00 0. -1.
</event>
<event>
 7    1  0.6017574E-006  0.4249458E+02  0.7818608E-02  0.1521234E+00
          2   -1    0    0  502    0  0.00000000000E+00  0.00000000000E+00  0.12283002584E+03  0.12283002584E+03  0.00000000000E+00 0. -1.
          1   -1    0    0  501    0 -0.00000000000E+00 -0.00000000000E+00 -0.18945735380E+03  0.18945735380E+03  0.00000000000E+00 0. -1.
         25    2    1    2    0    0  0.27802541487E+02  0.11573597520E+02 -0.80361503492E+02  0.15162452828E+03  0.12500038743E+03 0.  0.
          2    1    1    2  501    0 -0.16109821912E+02  0.30496826036E+02 -0.63315677092E+02  0.72100330970E+02  0.00000000000E+00 0. -1.
          1    1    1    2  502    0 -0.11692719575E+02 -0.42070423556E+02  0.77049852627E+02  0.88562520397E+02  0.00000000000E+00 0. -1.
         22    1    3    3    0    0 -0.50051511576E+02  0.38911622802E+01 -0.27952126656E+02  0.57459693173E+02  0.00000000000E+00 0.  1.
         22    1    3    3    0    0  0.77854053063E+02  0.76824352393E+01 -0.52409376836E+02  0.94164835103E+02  0.00000000000E+00 0.  1.
</event>
<event>
 7    1  0.6017574E-006  0.8502193E+02  0.7818608E-02  0.1389896E+00
          2   -1    0    0  502    0  0.00000000000E+00  0.00000000000E+00  0.11839766897E+04  0.11839766897E+04  0.00000000000E+00 0. -1.
          1   -1    0    0  501    0 -0.00000000000E+00 -0.00000000000E+00 -0.11814976913E+03  0.11814976913E+03  0.00000000000E+00 0. -1.
         25    2    1    2    0    0  0.44034536728E+02  0.12703332998E+02  0.20610883824E+03  0.24536831330E+03  0.12499736348E+03 0.  0.
          2    1    1    2  501    0 -0.77467242462E+02 -0.42993469786E+02 -0.77948635638E+02  0.11800678750E+03  0.00000000000E+00 0. -1.
          1    1    1    2  502    0  0.33432705734E+02  0.30290136788E+02  0.93766671795E+03  0.93875135800E+03  0.00000000000E+00 0. -1.
         22    1    3    3    0    0  0.80163070526E+02  0.68845017390E+01  0.18809513281E+03  0.20458077433E+03  0.00000000000E+00 0. -1.
         22    1    3    3    0    0 -0.36128533798E+02  0.58188312594E+01  0.18013705434E+02  0.40787538968E+02  0.00000000000E+00 0. -1.
</event>
<event>
 7    1  0.6017574E-006  0.4703244E+02  0.7818608E-02  0.1569372E+00
          2   -1    0    0  502    0  0.00000000000E+00  0.00000000000E+00  0.10277740174E+04  0.10277740174E+04  0.00000000000E+00 0. -1.
          1   -1    0    0  501    0 -0.00000000000E+00 -0.00000000000E+00 -0.63498174304E+02  0.63498174304E+02  0.00000000000E+00 0. -1.
         25    2    1    2    0    0  0.57814612829E+02 -0.29824421805E+02  0.19727556443E+03  0.24243449661E+03  0.12499924492E+03 0.  0.
          2    1    1    2  501    0 -0.12519121760E+02  0.19089878923E+02 -0.37008156826E+02  0.43482819119E+02  0.00000000000E+00 0. -1.
          1    1    1    2  502    0 -0.45295491070E+02  0.10734542883E+02  0.80400843550E+03  0.80535487599E+03  0.00000000000E+00 0. -1.
         22    1    3    3    0    0 -0.11207555988E+02  0.26097920830E+02  0.26890577858E+01  0.28529665519E+02  0.00000000000E+00 0. -1.
         22    1    3    3    0    0  0.69022168817E+02 -0.55922342635E+02  0.19458650665E+03  0.21390483109E+03  0.00000000000E+00 0. -1.
</event>
<event>
 7    1  0.6017574E-006  0.9314449E+02  0.7818608E-02  0.1401296E+00
          2   -1    0    0  502    0  0.00000000000E+00  0.00000000000E+00  0.13544415821E+04  0.13544415821E+04  0.00000000000E+00 0. -1.
          1   -1    0    0  501    0 -0.00000000000E+00 -0.00000000000E+00 -0.47397043467E+03  0.47397043467E+03  0.00000000000E+00 0. -1.
         25    2    1    2    0    0 -0.80356918208E+02 -0.89658167822E+02 -0.17146100698E+03  0.24397019831E+03  0.12500703735E+03 0.  0.
          2    1    1    2  501    0  0.45624322819E+02  0.75248365146E+02 -0.25870666975E+03  0.27326367535E+03  0.00000000000E+00 0. -1.
          1    1    1    2  502    0  0.34732595389E+02  0.14409802676E+02  0.13106388242E+04  0.13111781431E+04  0.00000000000E+00 0. -1.
         22    1    3    3    0    0  0.15375308806E+02 -0.32883411632E+02 -0.11209466346E+03  0.11782585649E+03  0.00000000000E+00 0.  1.
         22    1    3    3    0    0 -0.95732227014E+02 -0.56774756190E+02 -0.59366343519E+02  0.12614434182E+03  0.00000000000E+00 0.  1.
</event>
<event>
 7    1  0.6017574E-006  0.1703680E+03  0.7818608E-02  0.1274141E+00
          2   -1    0    0  502    0  0.00000000000E+00  0.00000000000E+00  0.26015141612E+04  0.26015141612E+04  0.00000000000E+00 0. -1.
          1   -1    0    0  501    0 -0.00000000000E+00 -0.00000000000E+00 -0.40793182402E+02  0.40793182402E+02  0.00000000000E+00 0. -1.
         25    2    1    2    0    0 -0.17405830296E+03 -0.10579972136E+02  0.13716483433E+04  0.13883279154E+04  0.12500797754E+03 0.  0.
          2    1    1    2  501    0  0.16954807192E+02 -0.59899753863E+02  0.10789263224E+02  0.63181122186E+02  0.00000000000E+00 0. -1.
          1    1    1    2  502    0  0.15710349577E+03  0.70479725998E+02  0.11782833723E+04  0.11907983060E+04  0.00000000000E+00 0. -1.
         22    1    3    3    0    0 -0.11940559612E+03 -0.40794238032E+02  0.54906600173E+03  0.56337850553E+03  0.00000000000E+00 0. -1.
         22    1    3    3    0    0 -0.54652706845E+02  0.30214265897E+02  0.82258234155E+03  0.82494940988E+03  0.00000000000E+00 0. -1.
</event>
<event>
 7    1  0.6017574E-006  0.1041826E+03  0.7818608E-02  0.1448128E+00
          2   -1    0    0  502    0  0.00000000000E+00  0.00000000000E+00  0.47428636928E+02  0.47428636928E+02  0.00000000000E+00 0. -1.
          1   -1    0    0  501    0 -0.00000000000E+00 -0.00000000000E+00 -0.20983981690E+04  0.20983981690E+04  0.00000000000E+00 0. -1.
         25    2    1    2    0    0  0.72972719283E+02 -0.41723660359E+02 -0.15956889646E+04  0.16027833064E+04  0.12500069522E+03 0.  0.
          2    1    1    2  501    0  0.11675244635E+02 -0.20402171669E+02 -0.43557753590E+03  0.43621135900E+03  0.00000000000E+00 0. -1.
          1    1    1    2  502    0 -0.84647963918E+02  0.62125832028E+02 -0.19703031553E+02  0.10683214054E+03  0.00000000000E+00 0. -1.
         22    1    3    3    0    0  0.36749560673E+02 -0.46008600483E+02 -0.14864425624E+04  0.14876084205E+04  0.00000000000E+00 0.  1.
         22    1    3    3    0    0  0.36223158610E+02  0.42849401238E+01 -0.10924640222E+03  0.11517488584E+03  0.00000000000E+00 0.  1.
</event>
<event>
 7    1  0.6017574E-006  0.1679270E+03  0.7818608E-02  0.1220378E+00
          2   -1    0    0  502    0  0.00000000000E+00  0.00000000000E+00  0.86071653157E+03  0.86071653157E+03  0.00000000000E+00 0. -1.
          1   -1    0    0  501    0 -0.00000000000E+00 -0.00000000000E+00 -0.33933292408E+03  0.33933292408E+03  0.00000000000E+00 0. -1.
         25    2    1    2    0    0  0.79148442580E+02  0.24664970260E+02 -0.80336866323E+02  0.17015133627E+03  0.12499851368E+03 0.  0.
          2    1    1    2  501    0  0.93287324822E+02 -0.55109089262E+02 -0.19017495165E+03  0.21887450498E+03  0.00000000000E+00 0. -1.
          1    1    1    2  502    0 -0.17243576740E+03  0.30444119003E+02  0.79189542546E+03  0.81102361441E+03  0.00000000000E+00 0. -1.
         22    1    3    3    0    0  0.40767981170E+02 -0.40675952488E+02 -0.74477416748E+02  0.94145881508E+02  0.00000000000E+00 0.  1.
         22    1    3    3    0    0  0.38380461410E+02  0.65340922748E+02 -0.58594495750E+01  0.76005454757E+02  0.00000000000E+00 0.  1.
</event>
<event>
 7    1  0.6017574E-006  0.5415980E+02  0.7818608E-02  0.1560875E+00
          2   -1    0    0  502    0  0.00000000000E+00  0.00000000000E+00  0.24466680989E+03  0.24466680989E+03  0.00000000000E+00 0. -1.
          1   -1    0    0  501    0 -0.00000000000E+00 -0.00000000000E+00 -0.67374881368E+03  0.67374881368E+03  0.00000000000E+00 0. -1.
         25    2    1    2    0    0 -0.43496786566E+02 -0.37129853444E+02 -0.21077766658E+03  0.25162486710E+03  0.12496900637E+03 0.  0.
          2    1    1    2  501    0  0.25524545251E+02  0.47825173720E+02 -0.44039429814E+03  0.44371825237E+03  0.00000000000E+00 0. -1.
          1    1    1    2  502    0  0.17972241314E+02 -0.10695320275E+02  0.22208996094E+03  0.22307250410E+03  0.00000000000E+00 0. -1.
         22    1    3    3    0    0 -0.47207215715E+02  0.16562867791E+00 -0.11146126593E+02  0.48505512949E+02  0.00000000000E+00 0.  1.
         22    1    3    3    0    0  0.37104291491E+01 -0.37295482122E+02 -0.19963153999E+03  0.20311935415E+03  0.00000000000E+00 0.  1.
</event>
<event>
 7    1  0.6017574E-006  0.8325686E+02  0.7818608E-02  0.1463805E+00
          2   -1    0    0  502    0  0.00000000000E+00  0.00000000000E+00  0.19573664809E+03  0.19573664809E+03  0.00000000000E+00 0. -1.
          1   -1    0    0  501    0 -0.00000000000E+00 -0.00000000000E+00 -0.13091883702E+04  0.13091883702E+04  0.00000000000E+00 0. -1.
         25    2    1    2    0    0 -0.18989636669E+02  0.78273492922E+02 -0.72689812531E+03  0.74195218985E+03  0.12499928582E+03 0.  0.
          2    1    1    2  501    0  0.44684616606E+02 -0.72994921342E+02 -0.57064220096E+03  0.57702469186E+03  0.00000000000E+00 0. -1.
          1    1    1    2  502    0 -0.25694979937E+02 -0.52785715794E+01  0.18408860416E+03  0.18594813657E+03  0.00000000000E+00 0. -1.
         22    1    3    3    0    0  0.13357166433E+02  0.14018572037E+02 -0.55845758022E+03  0.55879316671E+03  0.00000000000E+00 0.  1.
         22    1    3    3    0    0 -0.32346803102E+02  0.64254920885E+02 -0.16844054509E+03  0.18315902314E+03  0.00000000000E+00 0.  1.
</event>
<event>
 7    1  0.6017574E-006  0.1385989E+03  0.7818608E-02  0.1254312E+00
          2   -1    0    0  502    0  0.00000000000E+00  0.00000000000E+00  0.26884666991E+03  0.26884666991E+03  0.00000000000E+00 0. -1.
          1   -1    0    0  501    0 -0.00000000000E+00 -0.00000000000E+00 -0.23930314264E+03  0.23930314264E+03  0.00000000000E+00 0. -1.
         25    2    1    2    0    0  0.12847645982E+03 -0.65004829496E+02 -0.50808628840E+02  0.19733206525E+03  0.12500639434E+03 0.  0.
          2    1    1    2  501    0 -0.14511935295E+03 -0.26354948345E+02 -0.45555953704E+02  0.15436824421E+03  0.00000000000E+00 0. -1.
          1    1    1    2  502    0  0.16642893128E+02  0.91359777841E+02  0.12590810981E+03  0.15644950308E+03  0.00000000000E+00 0. -1.
         22    1    3    3    0    0  0.13154201044E+02  0.34623503566E+02 -0.11788111169E+01  0.37056842822E+02  0.00000000000E+00 0. -1.
         22    1    3    3    0    0  0.11532225878E+03 -0.99628333062E+02 -0.49629817723E+02  0.16027522243E+03  0.00000000000E+00 0. -1.
</event>
<event>
 7    1  0.6017574E-006  0.1195742E+03  0.7818608E-02  0.1429124E+00
          2   -1    0    0  502    0  0.00000000000E+00  0.00000000000E+00  0.13569754550E+04  0.13569754550E+04  0.00000000000E+00 0. -1.
          1   -1    0    0  501    0 -0.00000000000E+00 -0.00000000000E+00 -0.63771273764E+03  0.63771273764E+03  0.00000000000E+00 0. -1.
         25    2    1    2    0    0  0.71648578856E+01 -0.13784317316E+03 -0.16027293381E+03  0.24569165925E+03  0.12499961016E+03 0.  0.
          2    1    1    2  501    0  0.12369435426E+02  0.20113526173E+02 -0.43169804151E+03  0.43234333106E+03  0.00000000000E+00 0. -1.
          1    1    1    2  502    0 -0.19534293312E+02  0.11772964698E+03  0.13112336927E+04  0.13166532023E+04  0.00000000000E+00 0. -1.
         22    1    3    3    0    0  0.46166589379E+02 -0.13487318825E+03 -0.14600008301E+03  0.20405429455E+03  0.00000000000E+00 0. -1.
         22    1    3    3    0    0 -0.39001731494E+02 -0.29699849101E+01 -0.14272850796E+02  0.41637364707E+02  0.00000000000E+00 0. -1.
</event>
<event>
 7    1  0.6017574E-006  0.6101737E+02  0.7818608E-02  0.1465770E+00
          2   -1    0    0  502    0  0.00000000000E+00  0.00000000000E+00  0.38770580841E+04  0.38770580841E+04  0.00000000000E+00 0. -1.
          1   -1    0    0  501    0 -0.00000000000E+00 -0.00000000000E+00 -0.23621950234E+04  0.23621950234E+04  0.00000000000E+00 0. -1.
         25    2    1    2    0    0 -0.22041932712E+02 -0.13595276083E+02 -0.92242359729E+02  0.15749260465E+03  0.12499835703E+03 0.  0.
          2    1    1    2  501    0 -0.31976224806E+02 -0.14926747277E+02 -0.22369457145E+04  0.22372240425E+04  0.00000000000E+00 0. -1.
          1    1    1    2  502    0  0.54018157518E+02  0.28522023360E+02  0.38440511349E+04  0.38445364604E+04  0.00000000000E+00 0. -1.
         22    1    3    3    0    0 -0.56960709877E+02 -0.39443873691E+02 -0.18183002113E+02  0.71630742054E+02  0.00000000000E+00 0.  1.
         22    1    3    3    0    0  0.34918777165E+02  0.25848597608E+02 -0.74059357617E+02  0.85861862591E+02  0.00000000000E+00 0.  1.
</event>
<event>
 7    1  0.6017574E-006  0.7837601E+02  0.7818608E-02  0.1381942E+00
          2   -1    0    0  502    0  0.00000000000E+00  0.00000000000E+00  0.13882220455E+04  0.13882220455E+04  0.00000000000E+00 0. -1.
          1   -1    0    0  501    0 -0.00000000000E+00 -0.00000000000E+00 -0.13526293141E+03  0.13526293141E+03  0.00000000000E+00 0. -1.
         25    2    1    2    0    0 -0.41058700193E+02  0.11461786852E+03  0.35068795789E+03  0.39170177690E+03  0.12500066228E+03 0.  0.
          2    1    1    2  501    0 -0.15965102049E+01 -0.52164826052E+02 -0.10733388445E+03  0.11934940584E+03  0.00000000000E+00 0. -1.
          1    1    1    2  502    0  0.42655210398E+02 -0.62453042471E+02  0.10096050406E+04  0.10124337941E+04  0.00000000000E+00 0. -1.
         22    1    3    3    0    0 -0.41816864531E+02 -0.61219111274E+01  0.39250194305E+02  0.57677601441E+02  0.00000000000E+00 0. -1.
         22    1    3    3    0    0  0.75816433743E+00  0.12073977965E+03  0.31143776359E+03  0.33402417546E+03  0.00000000000E+00 0. -1.
</event>
<event>
 7    1  0.6017574E-006  0.1733045E+03  0.7818608E-02  0.1229218E+00
          2   -1    0    0  502    0  0.00000000000E+00  0.00000000000E+00  0.67656569661E+03  0.67656569661E+03  0.00000000000E+00 0. -1.
          1   -1    0    0  501    0 -0.00000000000E+00 -0.00000000000E+00 -0.19520890235E+04  0.19520890235E+04  0.00000000000E+00 0. -1.
         25    2    1    2    0    0  0.96180700359E+02 -0.15552820352E+02 -0.26877676929E+03  0.31202511663E+03  0.12500441733E+03 0.  0.
          2    1    1    2  501    0 -0.19161593730E+03  0.23354093962E+02 -0.16525399732E+04  0.16637759598E+04  0.00000000000E+00 0. -1.
          1    1    1    2  502    0  0.95435236942E+02 -0.78012736092E+01  0.64579341569E+03  0.65285364368E+03  0.00000000000E+00 0. -1.
         22    1    3    3    0    0  0.38635584457E+02  0.11350699836E+02 -0.48477817964E+01  0.40559188373E+02  0.00000000000E+00 0.  1.
         22    1    3    3    0    0  0.57545115902E+02 -0.26903520189E+02 -0.26392898750E+03  0.27146592826E+03  0.00000000000E+00 0.  1.
</event>
<event>
 7    1  0.6017574E-006  0.8570705E+02  0.7818608E-02  0.1347910E+00
          2   -1    0    0  502    0  0.00000000000E+00  0.00000000000E+00  0.10114205565E+04  0.10114205565E+04  0.00000000000E+00 0. -1.
          1   -1    0    0  501    0 -0.00000000000E+00 -0.00000000000E+00 -0.77830743875E+03  0.77830743875E+03  0.00000000000E+00 0. -1.
         25    2    1    2    0    0 -0.75052779134E+02 -0.19760721181E+02 -0.23098418962E+03  0.27386567876E+03  0.12500123357E+03 0.  0.
          2    1    1    2  501    0  0.79473660099E+02 -0.43478544862E+02 -0.52095477828E+03  0.52877247236E+03  0.00000000000E+00 0. -1.
          1    1    1    2  502    0 -0.44208809649E+01  0.63239266043E+02  0.98505208561E+03  0.98708984410E+03  0.00000000000E+00 0. -1.
         22    1    3    3    0    0 -0.36192576561E+02 -0.19666892456E+02 -0.23136540904E+03  0.23500349308E+03  0.00000000000E+00 0.  1.
         22    1    3    3    0    0 -0.38860202574E+02 -0.93828725218E-01  0.38121942902E+00  0.38862185684E+02  0.00000000000E+00 0.  1.
</event>
<event>
 7    1  0.6017574E-006  0.2058567E+03  0.7818608E-02  0.1248356E+00
          2   -1    0    0  502    0  0.00000000000E+00  0.00000000000E+00  0.42121348058E+03  0.42121348058E+03  0.00000000000E+00 0. -1.
          1   -1    0    0  501    0 -0.00000000000E+00 -0.00000000000E+00 -0.96455960685E+03  0.96455960685E+03  0.00000000000E+00 0. -1.
         25    2    1    2    0    0 -0.92613305378E+02  0.24893273289E+03 -0.69210092753E+02  0.30159516184E+03  0.12499949948E+03 0.  0.
          2    1    1    2  501    0  0.70764418187E+02 -0.18628601586E+03 -0.76258771931E+03  0.78819420971E+03  0.00000000000E+00 0. -1.
          1    1    1    2  502    0  0.21848887191E+02 -0.62646717029E+02  0.28845168579E+03  0.29598371588E+03  0.00000000000E+00 0. -1.
         22    1    3    3    0    0  0.10441539664E+02  0.46881622240E+02 -0.56878873858E+02  0.74445406479E+02  0.00000000000E+00 0. -1.
         22    1    3    3    0    0 -0.10305484504E+03  0.20205111065E+03 -0.12331218894E+02  0.22714975536E+03  0.00000000000E+00 0. -1.
</event>
<event>
 7    1  0.6017574E-006  0.8956375E+02  0.7818608E-02  0.1377908E+00
          2   -1    0    0  502    0  0.00000000000E+00  0.00000000000E+00  0.12308253054E+04  0.12308253054E+04  0.00000000000E+00 0. -1.
          1   -1    0    0  501    0 -0.00000000000E+00 -0.00000000000E+00 -0.42681059646E+02  0.42681059646E+02  0.00000000000E+00 0. -1.
         25    2    1    2    0    0  0.49108623568E+01  0.73823999632E+02  0.41043270457E+03  0.43537781312E+03  0.12499894273E+03 0.  0.
          2    1    1    2  501    0  0.46835928134E+02  0.58312409825E+01 -0.69781094564E+01  0.47710602041E+02  0.00000000000E+00 0. -1.
          1    1    1    2  502    0 -0.51746790491E+02 -0.79655240614E+02  0.78468965060E+03  0.79041794985E+03  0.00000000000E+00 0. -1.
         22    1    3    3    0    0  0.62240250792E+02  0.52134675049E+02  0.27469246599E+03  0.28643991348E+03  0.00000000000E+00 0.  1.
         22    1    3    3    0    0 -0.57329388435E+02  0.21689324583E+02  0.13574023858E+03  0.14893789964E+03  0.00000000000E+00 0.  1.
</event>
<event>
 7    1  0.6017574E-006  0.3489168E+02  0.7818608E-02  0.1630178E+00
          2   -1    0    0  502    0  0.00000000000E+00  0.00000000000E+00  0.76819446473E+03  0.76819446473E+03  0.00000000000E+00 0. -1.
          1   -1    0    0  501    0 -0.00000000000E+00 -0.00000000000E+00 -0.12870180398E+04  0.12870180398E+04  0.00000000000E+00 0. -1.
         25    2    1    2    0    0  0.64965415645E+00  0.56207311862E+02 -0.11477843568E+04  0.11559384144E+04  0.12500001695E+03 0.  0.
          2    1    1    2  501    0 -0.81273304110E+00 -0.21323389624E+02 -0.13391331979E+03  0.13560281965E+03  0.00000000000E+00 0. -1.
          1    1    1    2  502    0  0.16307888465E+00 -0.34883922239E+02  0.76287410150E+03  0.76367127048E+03  0.00000000000E+00 0. -1.
         22    1    3    3    0    0 -0.90304181621E+01  0.42999594766E+02 -0.11628287080E+03  0.12430695734E+03  0.00000000000E+00 0.  1.
         22    1    3    3    0    0  0.96800723185E+01  0.13207717096E+02 -0.10315014860E+04  0.10316314571E+04  0.00000000000E+00 0.  1.
</event>
<event>
 7    1  0.6017574E-006  0.1703793E+03  0.7818608E-02  0.1202309E+00
          2   -1    0    0  502    0  0.00000000000E+00  0.00000000000E+00  0.42060765161E+03  0.42060765161E+03  0.00000000000E+00 0. -1.
          1   -1    0    0  501    0 -0.00000000000E+00 -0.00000000000E+00 -0.17275351070E+04  0.17275351070E+04  0.00000000000E+00 0. -1.
         25    2    1    2    0    0 -0.10044906129E+03 -0.28385536252E+02  0.83069264747E+02  0.18281832089E+03  0.12500513240E+03 0.  0.
          2    1    1    2  501    0 -0.12380647374E+03 -0.37833246019E+02 -0.16271443665E+04  0.16322861842E+04  0.00000000000E+00 0. -1.
          1    1    1    2  502    0  0.22425553504E+03  0.66218782271E+02  0.23714764641E+03  0.33303825354E+03  0.00000000000E+00 0. -1.
         22    1    3    3    0    0 -0.91480881804E+02  0.97588291409E+01  0.10362314348E+03  0.13857035161E+03  0.00000000000E+00 0.  1.
         22    1    3    3    0    0 -0.89681794903E+01 -0.38144365393E+02 -0.20553878731E+02  0.44247969281E+02  0.00000000000E+00 0.  1.
</event>
<event>
 7    1  0.6017574E-006  0.3170496E+03  0.7818608E-02  0.1176459E+00
          2   -1    0    0  502    0  0.00000000000E+00  0.00000000000E+00  0.79244043986E+03  0.79244043986E+03  0.00000000000E+00 0. -1.
          1   -1    0    0  501    0 -0.00000000000E+00 -0.00000000000E+00 -0.18426366262E+04  0.18426366262E+04  0.00000000000E+00 0. -1.
         25    2    1    2    0    0  0.26971198391E+03  0.22013997061E+03  0.34527856099E+03  0.50601184028E+03  0.12499814761E+03 0.  0.
          2    1    1    2  501    0 -0.75217944750E+00 -0.92591509842E+02 -0.17004089065E+04  0.17029281261E+04  0.00000000000E+00 0. -1.
          1    1    1    2  502    0 -0.26895980446E+03 -0.12754846077E+03  0.30493415918E+03  0.42613709964E+03  0.00000000000E+00 0. -1.
         22    1    3    3    0    0  0.18868314827E+03  0.17825862105E+03  0.17565731241E+03  0.31342137423E+03  0.00000000000E+00 0.  1.
         22    1    3    3    0    0  0.81028835634E+02  0.41881349556E+02  0.16962124858E+03  0.19259046605E+03  0.00000000000E+00 0.  1.
</event>
<event>
 7    1  0.6017574E-006  0.5425401E+02  0.7818608E-02  0.1550224E+00
          2   -1    0    0  502    0  0.00000000000E+00  0.00000000000E+00  0.53822415857E+03  0.53822415857E+03  0.00000000000E+00 0. -1.
          1   -1    0    0  501    0 -0.00000000000E+00 -0.00000000000E+00 -0.12318377684E+04  0.12318377684E+04  0.00000000000E+00 0. -1.
         25    2    1    2    0    0 -0.43215573327E+02 -0.42519300179E+02  0.83094380457E+02  0.16188584651E+03  0.12500749806E+03 0.  0.
          2    1    1    2  501    0  0.22014248352E+02  0.49575046765E+02 -0.11915243267E+04  0.11927583718E+04  0.00000000000E+00 0. -1.
          1    1    1    2  502    0  0.21201324975E+02 -0.70557465858E+01  0.41481633640E+03  0.41541770868E+03  0.00000000000E+00 0. -1.
         22    1    3    3    0    0 -0.14592852833E+02  0.16954541992E+02 -0.26049722766E+02  0.34336509784E+02  0.00000000000E+00 0. -1.
         22    1    3    3    0    0 -0.28622720494E+02 -0.59473842171E+02  0.10914410322E+03  0.12754933673E+03  0.00000000000E+00 0. -1.
</event>
<event>
 7    1  0.6017574E-006  0.5002125E+02  0.7818608E-02  0.1566875E+00
          2   -1    0    0  502    0  0.00000000000E+00  0.00000000000E+00  0.73349462975E+02  0.73349462975E+02  0.00000000000E+00 0. -1.
          1   -1    0    0  501    0 -0.00000000000E+00 -0.00000000000E+00 -0.43790785179E+03  0.43790785179E+03  0.00000000000E+00 0. -1.
         25    2    1    2    0    0  0.39970699830E+02 -0.49968313940E+02 -0.33466455380E+03  0.36293237413E+03  0.12500022151E+03 0.  0.
          2    1    1    2  501    0 -0.33928089808E+02  0.29018964042E+02 -0.81152065055E+02  0.92622206920E+02  0.00000000000E+00 0. -1.
          1    1    1    2  502    0 -0.60426100216E+01  0.20949349897E+02  0.51258230038E+02  0.55702733718E+02  0.00000000000E+00 0. -1.
         22    1    3    3    0    0  0.42358020388E+02 -0.21191738292E+02 -0.33035988690E+03  0.33373784103E+03  0.00000000000E+00 0.  1.
         22    1    3    3    0    0 -0.23873205580E+01 -0.28776575647E+02 -0.43046668931E+01  0.29194533093E+02  0.00000000000E+00 0.  1.
</event>
<event>
 7    1  0.6017574E-006  0.9860238E+02  0.7818608E-02  0.1373546E+00
          2   -1    0    0  502    0  0.00000000000E+00  0.00000000000E+00  0.15219483675E+04  0.15219483675E+04  0.00000000000E+00 0. -1.
          1   -1    0    0  501    0 -0.00000000000E+00 -0.00000000000E+00 -0.16214113355E+03  0.16214113355E+03  0.00000000000E+00 0. -1.
         25    2    1    2    0    0 -0.10452867580E+02  0.57453361892E+02  0.11527916012E+04  0.11610162352E+04  0.12498028397E+03 0.  0.
          2    1    1    2  501    0 -0.52190539750E+01 -0.99031693244E+02 -0.14091745423E+03  0.17231437461E+03  0.00000000000E+00 0. -1.
          1    1    1    2  502    0  0.15671921555E+02  0.41578331353E+02  0.34793308705E+03  0.35075889130E+03  0.00000000000E+00 0. -1.
         22    1    3    3    0    0 -0.11896382495E+02 -0.38424269673E+02  0.43332270924E+03  0.43518561415E+03  0.00000000000E+00 0.  1.
         22    1    3    3    0    0  0.14435149155E+01  0.95877631565E+02  0.71946889192E+03  0.72583062102E+03  0.00000000000E+00 0.  1.
</event>
<event>
 7    1  0.7087146E-006  0.5648920E+02  0.7818608E-02  0.1453759E+00
          2   -1    0    0  502    0  0.00000000000E+00  0.00000000000E+00  0.96537207788E+03  0.96537207788E+03  0.00000000000E+00 0. -1.
          1   -1    0    0  501    0 -0.00000000000E+00 -0.00000000000E+00 -0.86489714438E+03  0.86489714438E+03  0.00000000000E+00 0. -1.
         25    2    1    2    0    0  0.15255295805E+02  0.16383245549E+01 -0.14937096165E+03  0.19537644748E+03  0.12499945555E+03 0.  0.
          2    1    1    2  501    0  0.41380304956E+02 -0.42055762687E+01 -0.69104488326E+03  0.69229549124E+03  0.00000000000E+00 0. -1.
          1    1    1    2  502    0 -0.56635600761E+02  0.25672517138E+01  0.94089077841E+03  0.94259728354E+03  0.00000000000E+00 0. -1.
         22    1    3    3    0    0  0.49099098495E+02  0.41861368513E+02 -0.45468938122E+02  0.78933642895E+02  0.00000000000E+00 0.  1.
         22    1    3    3    0    0 -0.33843802690E+02 -0.40223043958E+02 -0.10390202353E+03  0.11644280458E+03  0.00000000000E+00 0.  1.
</event>
<event>
 7    1  0.6017574E-006  0.1094109E+03  0.7818608E-02  0.1453789E+00
          2   -1    0    0  502    0  0.00000000000E+00  0.00000000000E+00  0.13873610963E+04  0.13873610963E+04  0.00000000000E+00 0. -1.
          1   -1    0    0  501    0 -0.00000000000E+00 -0.00000000000E+00 -0.18040548298E+03  0.18040548298E+03  0.00000000000E+00 0. -1.
         25    2    1    2    0    0  0.11579805930E+03  0.29413825855E+02  0.18042753999E+02  0.17385385258E+03  0.12500102958E+03 0.  0.
          2    1    1    2  501    0 -0.70207480798E+01 -0.20289826647E+02 -0.99040928318E+02  0.10134137088E+03  0.00000000000E+00 0. -1.
          1    1    1    2  502    0 -0.10877731122E+03 -0.91239992077E+01  0.12879537876E+04  0.12925713558E+04  0.00000000000E+00 0. -1.
         22    1    3    3    0    0  0.31423599494E+02 -0.28706512635E+02  0.50815278835E+02  0.66284983487E+02  0.00000000000E+00 0. -1.
         22    1    3    3    0    0  0.84374459803E+02  0.58120338490E+02 -0.32772524836E+02  0.10756886909E+03  0.00000000000E+00 0. -1.
</event>
<event>
 7    1  0.6017574E-006  0.1322141E+03  0.7818608E-02  0.1245439E+00
          2   -1    0    0  502    0  0.00000000000E+00  0.00000000000E+00  0.28481534903E+03  0.28481534903E+03  0.00000000000E+00 0. -1.
          1   -1    0    0  501    0 -0.00000000000E+00 -0.00000000000E+00 -0.13271382385E+04  0.13271382385E+04  0.00000000000E+00 0. -1.
         25    2    1    2    0    0  0.50001401247E+02 -0.19111918156E+02 -0.19837060230E+01  0.13599068969E+03  0.12499650815E+03 0.  0.
          2    1    1    2  501    0 -0.12585996181E+03 -0.55457154083E+02 -0.12411346773E+04  0.12487319621E+04  0.00000000000E+00 0. -1.
          1    1    1    2  502    0  0.75858560566E+02  0.74569072239E+02  0.20079549394E+03  0.22723093568E+03  0.00000000000E+00 0. -1.
         22    1    3    3    0    0  0.29502484388E+02 -0.69460993215E+02 -0.21107519558E+02  0.78362960290E+02  0.00000000000E+00 0.  1.
         22    1    3    3    0    0  0.20498916859E+02  0.50349075059E+02  0.19123813535E+02  0.57627729400E+02  0.00000000000E+00 0.  1.
</event>
<event>
 7    1  0.6017574E-006  0.5370710E+02  0.7818608E-02  0.1486056E+00
          2   -1    0    0  502    0  0.00000000000E+00  0.00000000000E+00  0.79769382497E+03  0.79769382497E+03  0.00000000000E+00 0. -1.
          1   -1    0    0  501    0 -0.00000000000E+00 -0.00000000000E+00 -0.32800315227E+03  0.32800315227E+03  0.00000000000E+00 0. -1.
         25    2    1    2    0    0 -0.75552405367E+02  0.33656712854E+01  0.31154264312E+02  0.14935342209E+03  0.12496544644E+03 0.  0.
          2    1    1    2  501    0  0.25892730056E+02 -0.23117552899E+02 -0.26676823372E+03  0.26901699806E+03  0.00000000000E+00 0. -1.
          1    1    1    2  502    0  0.49659675311E+02  0.19751881613E+02  0.70530464211E+03  0.70732655709E+03  0.00000000000E+00 0. -1.
         22    1    3    3    0    0 -0.71449576372E+02 -0.44558310744E+02 -0.11598646303E+02  0.85000080095E+02  0.00000000000E+00 0.  1.
         22    1    3    3    0    0 -0.41028289955E+01  0.47923982029E+02  0.42752910615E+02  0.64353341991E+02  0.00000000000E+00 0.  1.
</event>
<event>
 7    1  0.6017574E-006  0.7850748E+02  0.7818608E-02  0.1452591E+00
          2   -1    0    0  502    0  0.00000000000E+00  0.00000000000E+00  0.14282210964E+04  0.14282210964E+04  0.00000000000E+00 0. -1.
          1   -1    0    0  501    0 -0.00000000000E+00 -0.00000000000E+00 -0.26707084506E+03  0.26707084506E+03  0.00000000000E+00 0. -1.
         25    2    1    2    0    0  0.33008397320E+02 -0.81488928209E+02  0.33511572046E+03  0.36831652997E+03  0.12499808172E+03 0.  0.
          2    1    1    2  501    0 -0.52402546809E+02  0.58358141103E+02 -0.24411225569E+03  0.25640298930E+03  0.00000000000E+00 0. -1.
          1    1    1    2  502    0  0.19394149489E+02  0.23130787106E+02  0.10701467865E+04  0.10705724222E+04  0.00000000000E+00 0. -1.
         22    1    3    3    0    0 -0.14504168955E+02 -0.50350205233E+02  0.35329803463E+02  0.63195799677E+02  0.00000000000E+00 0. -1.
         22    1    3    3    0    0  0.47512566275E+02 -0.31138722977E+02  0.29978591700E+03  0.30512073029E+03  0.00000000000E+00 0. -1.
</event>
<event>
 7    1  0.6017574E-006  0.5160441E+02  0.7818608E-02  0.1467532E+00
          2   -1    0    0  502    0  0.00000000000E+00  0.00000000000E+00  0.55218234900E+03  0.55218234900E+03  0.00000000000E+00 0. -1.
          1   -1    0    0  501    0 -0.00000000000E+00 -0.00000000000E+00 -0.26217551947E+04  0.26217551947E+04  0.00000000000E+00 0. -1.
         25    2    1    2    0    0  0.19478653203E+01  0.10537284858E+02 -0.23814775843E+03  0.26917443040E+03  0.12500276230E+03 0.  0.
          2    1    1    2  501    0  0.13853188985E+02  0.38800671711E+02 -0.23666641308E+04  0.23670227103E+04  0.00000000000E+00 0. -1.
          1    1    1    2  502    0 -0.15801054306E+02 -0.49337956570E+02  0.53523904356E+03  0.53774040300E+03  0.00000000000E+00 0. -1.
         22    1    3    3    0    0  0.18596297278E+01 -0.57068712779E+02 -0.12386428504E+03  0.13639155879E+03  0.00000000000E+00 0.  1.
         22    1    3    3    0    0  0.88235592484E-01  0.67605997638E+02 -0.11428347339E+03  0.13278287161E+03  0.00000000000E+00 0.  1.
</event>
<event>
 7    1  0.6017574E-006  0.5333087E+02  0.7818608E-02  0.1469967E+00
          2   -1    0    0  502    0  0.00000000000E+00  0.00000000000E+00  0.21275852835E+04  0.21275852835E+04  0.00000000000E+00 0. -1.
          1   -1    0    0  501    0 -0.00000000000E+00 -0.00000000000E+00 -0.48113800576E+03  0.48113800576E+03  0.00000000000E+00 0. -1.
         25    2    1    2    0    0 -0.33969276913E+02  0.13742888378E+02  0.12313924450E+04  0.12382631114E+04  0.12500160239E+03 0.  0.
          2    1    1    2  501    0  0.48285868295E+02  0.22722723649E+02 -0.47578045653E+03  0.47876391892E+03  0.00000000000E+00 0. -1.
          1    1    1    2  502    0 -0.14316591381E+02 -0.36465612027E+02  0.89083528926E+03  0.89169625896E+03  0.00000000000E+00 0. -1.
         22    1    3    3    0    0 -0.51540153061E+02 -0.45064683183E+02  0.59934369983E+03  0.60324131455E+03  0.00000000000E+00 0.  1.
         22    1    3    3    0    0  0.17570876148E+02  0.58807571561E+02  0.63204874522E+03  0.63502179686E+03  0.00000000000E+00 0.  1.
</event>
<event>
 7    1  0.6017574E-006  0.7519566E+02  0.7818608E-02  0.1344549E+00
          2   -1    0    0  502    0  0.00000000000E+00  0.00000000000E+00  0.73267346883E+03  0.73267346883E+03  0.00000000000E+00 0. -1.
          1   -1    0    0  501    0 -0.00000000000E+00 -0.00000000000E+00 -0.16726125495E+03  0.16726125495E+03  0.00000000000E+00 0. -1.
         25    2    1    2    0    0 -0.41901217679E+02 -0.34074936466E+02  0.15793919392E+03  0.20853371343E+03  0.12499882928E+03 0.  0.
          2    1    1    2  501    0 -0.32214697121E+02  0.67029956932E+02 -0.12896159068E+03  0.14886871299E+03  0.00000000000E+00 0. -1.
          1    1    1    2  502    0  0.74115914801E+02 -0.32955020466E+02  0.53643461063E+03  0.54253229737E+03  0.00000000000E+00 0. -1.
         22    1    3    3    0    0 -0.54103967136E+02  0.11916495648E+02  0.14297397258E+02  0.57215886751E+02  0.00000000000E+00 0. -1.
         22    1    3    3    0    0  0.12202749456E+02 -0.45991432113E+02  0.14364179666E+03  0.15131782668E+03  0.00000000000E+00 0. -1.
</event>
<event>
 7    1  0.6017574E-006  0.1296068E+03  0.7818608E-02  0.1302486E+00
          2   -1    0    0  502    0  0.00000000000E+00  0.00000000000E+00  0.33688184153E+04  0.33688184153E+04  0.00000000000E+00 0. -1.
          1   -1    0    0  501    0 -0.00000000000E+00 -0.00000000000E+00 -0.99775075547E+03  0.99775075547E+03  0.00000000000E+00 0. -1.
         25    2    1    2    0    0  0.71326205974E+02  0.17839978401E+03  0.14473290759E+04  0.14653669492E+04  0.12499972510E+03 0.  0.
          2    1    1    2  501    0 -0.48405641329E+02 -0.12003204403E+03 -0.98397903058E+03  0.99245429634E+03  0.00000000000E+00 0. -1.
          1    1    1    2  502    0 -0.22920564646E+02 -0.58367739978E+02  0.19077176144E+04  0.19087479252E+04  0.00000000000E+00 0. -1.
         22    1    3    3    0    0  0.50542135056E+02  0.18259642710E+02  0.18178604936E+03  0.18956289117E+03  0.00000000000E+00 0. -1.
         22    1    3    3    0    0  0.20784070919E+02  0.16014014130E+03  0.12655430266E+04  0.12758040581E+04  0.00000000000E+00 0. -1.
</event>
<event>
 7    1  0.6017574E-006  0.7528351E+02  0.7818608E-02  0.1345736E+00
          2   -1    0    0  502    0  0.00000000000E+00  0.00000000000E+00  0.68322995846E+03  0.68322995846E+03  0.00000000000E+00 0. -1.
          1   -1    0    0  501    0 -0.00000000000E+00 -0.00000000000E+00 -0.21401205936E+04  0.21401205936E+04  0.00000000000E+00 0. -1.
         25    2    1    2    0    0 -0.13385601754E+01  0.56248950330E+02  0.41037075709E+02  0.14306763440E+03  0.12497427844E+03 0.  0.
          2    1    1    2  501    0 -0.68285882440E+02 -0.32608015328E+02 -0.20861303475E+04  0.20875023523E+04  0.00000000000E+00 0. -1.
          1    1    1    2  502    0  0.69624442615E+02 -0.23640935002E+02  0.58820263665E+03  0.59278056528E+03  0.00000000000E+00 0. -1.
         22    1    3    3    0    0 -0.13631613173E+02  0.62188625981E+01 -0.42420949038E+02  0.44989243681E+02  0.00000000000E+00 0. -1.
         22    1    3    3    0    0  0.12293052998E+02  0.50030087732E+02  0.83458024747E+02  0.98078390714E+02  0.00000000000E+00 0. -1.
</event>
<event>
 7    1  0.6017574E-006  0.7790760E+02  0.7818608E-02  0.1464646E+00
          2   -1    0    0  502    0  0.00000000000E+00  0.00000000000E+00  0.59361681199E+03  0.59361681199E+03  0.00000000000E+00 0. -1.
          1   -1    0    0  501    0 -0.00000000000E+00 -0.00000000000E+00 -0.60570807467E+03  0.60570807467E+03  0.00000000000E+00 0. -1.
         25    2    1    2    0    0  0.78477967229E+02 -0.34197878843E+02 -0.18483562702E+03  0.23899279241E+03  0.12500023819E+03 0.  0.
          2    1    1    2  501    0 -0.77122138303E+02  0.63679077243E+01 -0.38964391385E+03  0.39725401705E+03  0.00000000000E+00 0. -1.
          1    1    1    2  502    0 -0.13558289261E+01  0.27829971119E+02  0.56238827819E+03  0.56307807719E+03  0.00000000000E+00 0. -1.
         22    1    3    3    0    0 -0.50286355034E+01 -0.55581010544E+02 -0.34248731256E+02  0.65479092089E+02  0.00000000000E+00 0. -1.
         22    1    3    3    0    0  0.83506602732E+02  0.21383131701E+02 -0.15058689577E+03  0.17351370032E+03  0.00000000000E+00 0. -1.
</event>
<event>
 7    1  0.6017574E-006  0.1209366E+03  0.7818608E-02  0.1365484E+00
          2   -1    0    0  502    0  0.00000000000E+00  0.00000000000E+00  0.35820448793E+04  0.35820448793E+04  0.00000000000E+00 0. -1.
          1   -1    0    0  501    0 -0.00000000000E+00 -0.00000000000E+00 -0.97003826950E+02  0.97003826950E+02  0.00000000000E+00 0. -1.
         25    2    1    2    0    0  0.12953504775E+03  0.89597715872E+02  0.76036938742E+03  0.78650710779E+03  0.12499898397E+03 0.  0.
          2    1    1    2  501    0 -0.95989394281E+02 -0.70240414730E+02 -0.41592431333E+02  0.12600638881E+03  0.00000000000E+00 0. -1.
          1    1    1    2  502    0 -0.33545653472E+02 -0.19357301142E+02  0.27662640962E+04  0.27665352096E+04  0.00000000000E+00 0. -1.
         22    1    3    3    0    0  0.13288624364E+03  0.29144712931E+02  0.44318802609E+03  0.46359874300E+03  0.00000000000E+00 0.  1.
         22    1    3    3    0    0 -0.33511958822E+01  0.60453002941E+02  0.31718136133E+03  0.32290836479E+03  0.00000000000E+00 0.  1.
</event>
<event>
 7    1  0.6017574E-006  0.6704957E+02  0.7818608E-02  0.1511440E+00
          2   -1    0    0  502    0  0.00000000000E+00  0.00000000000E+00  0.67413569346E+03  0.67413569346E+03  0.00000000000E+00 0. -1.
          1   -1    0    0  501    0 -0.00000000000E+00 -0.00000000000E+00 -0.79557283086E+02  0.79557283086E+02  0.00000000000E+00 0. -1.
         25    2    1    2    0    0 -0.41071895813E+02 -0.35757187109E+02  0.41425343820E+02  0.14250119924E+03  0.12500022248E+03 0.  0.
          2    1    1    2  501    0  0.44913334085E+02  0.58785218654E+02  0.18802099617E+02  0.76331045196E+02  0.00000000000E+00 0. -1.
          1    1    1    2  502    0 -0.38414382719E+01 -0.23028031545E+02  0.53435096694E+03  0.53486073211E+03  0.00000000000E+00 0. -1.
         22    1    3    3    0    0 -0.67425761900E+02 -0.31044099185E+02 -0.18817721144E+02  0.76577255703E+02  0.00000000000E+00 0.  1.
         22    1    3    3    0    0  0.26353866087E+02 -0.47130879238E+01  0.60243064964E+02  0.65923943539E+02  0.00000000000E+00 0.  1.
</event>
<event>
 7    1  0.6017574E-006  0.1166320E+03  0.7818608E-02  0.1286946E+00
          2   -1    0    0  502    0  0.00000000000E+00  0.00000000000E+00  0.26483618786E+04  0.26483618786E+04  0.00000000000E+00 0. -1.
          1   -1    0    0  501    0 -0.00000000000E+00 -0.00000000000E+00 -0.33609917119E+03  0.33609917119E+03  0.00000000000E+00 0. -1.
         25    2    1    2    0    0  0.80859139561E+02 -0.18044204889E+01  0.70810040461E+03  0.72358298880E+03  0.12499880918E+03 0.  0.
          2    1    1    2  501    0 -0.83870364365E+02  0.82260059444E+02 -0.31698011050E+03  0.33804932458E+03  0.00000000000E+00 0. -1.
          1    1    1    2  502    0  0.30112248047E+01 -0.80455638955E+02  0.19211424133E+04  0.19228287364E+04  0.00000000000E+00 0. -1.
         22    1    3    3    0    0  0.98039508080E+01 -0.20206237359E+02  0.53617284734E+03  0.53664302074E+03  0.00000000000E+00 0.  1.
         22    1    3    3    0    0  0.71055188753E+02  0.18401816870E+02  0.17192755727E+03  0.18693996806E+03  0.00000000000E+00 0.  1.
</event>
<event>
 7    1  0.6017574E-006  0.1388652E+03  0.7818608E-02  0.1237342E+00
          2   -1    0    0  502    0  0.00000000000E+00  0.00000000000E+00  0.11322744158E+04  0.11322744158E+04  0.00000000000E+00 0. -1.
          1   -1    0    0  501    0 -0.00000000000E+00 -0.00000000000E+00 -0.68658329282E+03  0.68658329282E+03  0.00000000000E+00 0. -1.
         25    2    1    2    0    0  0.17138351568E+02 -0.10474028047E+02 -0.93322242824E+02  0.15727792627E+03  0.12499550683E+03 0.  0.
          2    1    1    2  501    0 -0.83213054433E+02 -0.11166396368E+03 -0.54816040293E+03  0.56557323182E+03  0.00000000000E+00 0. -1.
          1    1    1    2  502    0  0.66074702865E+02  0.12213799173E+03  0.10871737687E+04  0.10960065505E+04  0.00000000000E+00 0. -1.
         22    1    3    3    0    0 -0.54188282588E+02  0.18247781481E+01 -0.40242622854E+02  0.67521614904E+02  0.00000000000E+00 0.  1.
         22    1    3    3    0    0  0.71326634155E+02 -0.12298806195E+02 -0.53079619970E+02  0.89756311366E+02  0.00000000000E+00 0.  1.
</event>
<event>
 7    1  0.6017574E-006  0.5101804E+02  0.7818608E-02  0.1502549E+00
          2   -1    0    0  502    0  0.00000000000E+00  0.00000000000E+00  0.96444329776E+03  0.96444329776E+03  0.00000000000E+00 0. -1.
          1   -1    0    0  501    0 -0.00000000000E+00 -0.00000000000E+00 -0.61118717407E+02  0.61118717407E+02  0.00000000000E+00 0. -1.
         25    2    1    2    0    0  0.38006048956E+02 -0.64947546274E+01  0.26907673397E+03  0.29919007985E+03  0.12500309404E+03 0.  0.
          2    1    1    2  501    0 -0.29635609357E+01 -0.32461492616E+02 -0.39147135117E+02  0.50941430920E+02  0.00000000000E+00 0. -1.
          1    1    1    2  502    0 -0.35042488020E+02  0.38956247243E+02  0.67339498149E+03  0.67543050439E+03  0.00000000000E+00 0. -1.
         22    1    3    3    0    0  0.55072376092E+02 -0.55647019360E+02  0.17414507346E+03  0.19093471131E+03  0.00000000000E+00 0. -1.
         22    1    3    3    0    0 -0.17066327136E+02  0.49152264733E+02  0.94931660513E+02  0.10825536854E+03  0.00000000000E+00 0. -1.
</event>
<event>
 7    1  0.6017574E-006  0.6375648E+02  0.7818608E-02  0.1464031E+00
          2   -1    0    0  502    0  0.00000000000E+00  0.00000000000E+00  0.23331835369E+04  0.23331835369E+04  0.00000000000E+00 0. -1.
          1   -1    0    0  501    0 -0.00000000000E+00 -0.00000000000E+00 -0.84137867234E+03  0.84137867234E+03  0.00000000000E+00 0. -1.
         25    2    1    2    0    0  0.82299358191E-01 -0.70201987703E+02  0.10833225594E+04  0.10927663342E+04  0.12498867069E+03 0.  0.
          2    1    1    2  501    0 -0.31048713137E+02  0.55688479394E+02 -0.83520666454E+03  0.83763679588E+03  0.00000000000E+00 0. -1.
          1    1    1    2  502    0  0.30966413779E+02  0.14513508309E+02  0.12436889697E+04  0.12441590791E+04  0.00000000000E+00 0. -1.
         22    1    3    3    0    0 -0.45642640895E+02  0.82908013166E+01  0.53110000065E+03  0.53312212367E+03  0.00000000000E+00 0.  1.
         22    1    3    3    0    0  0.45724940253E+02 -0.78492789020E+02  0.55222255871E+03  0.55964421058E+03  0.00000000000E+00 0.  1.
</event>
<event>
 7    1  0.6017574E-006  0.2952583E+03  0.7818608E-02  0.1261558E+00
          2   -1    0    0  502    0  0.00000000000E+00  0.00000000000E+00  0.48828882885E+03  0.48828882885E+03  0.00000000000E+00 0. -1.
          1   -1    0    0  501    0 -0.00000000000E+00 -0.00000000000E+00 -0.37443375855E+03  0.37443375855E+03  0.00000000000E+00 0. -1.
         25    2    1    2    0    0  0.21910153450E+03  0.20690995865E+03 -0.71177231212E+02  0.33392861122E+03  0.12499962294E+03 0.  0.
          2    1    1    2  501    0 -0.34256289845E+02  0.21764981940E+02 -0.10696134084E+03  0.11440251863E+03  0.00000000000E+00 0. -1.
          1    1    1    2  502    0 -0.18484524466E+03 -0.22867494059E+03  0.29199364235E+03  0.41439145756E+03  0.00000000000E+00 0. -1.
         22    1    3    3    0    0  0.23115616258E+03  0.19937321547E+03 -0.51375318268E+02  0.30955173053E+03  0.00000000000E+00 0.  1.
         22    1    3    3    0    0 -0.12054628077E+02  0.75367431763E+01 -0.19801912944E+02  0.24376880687E+02  0.00000000000E+00 0.  1.
</event>
<event>
 7    1  0.6017574E-006  0.9343581E+02  0.7818608E-02  0.1348538E+00
          2   -1    0    0  502    0  0.00000000000E+00  0.00000000000E+00  0.33720542600E+03  0.33720542600E+03  0.00000000000E+00 0. -1.
          1   -1    0    0  501    0 -0.00000000000E+00 -0.00000000000E+00 -0.11663301191E+04  0.11663301191E+04  0.00000000000E+00 0. -1.
         25    2    1    2    0    0  0.12775883700E+03 -0.37081857008E+02 -0.38730270924E+03  0.42816489678E+03  0.12499762277E+03 0.  0.
          2    1    1    2  501    0 -0.72041558268E+02  0.52602392044E+02 -0.75330255804E+03  0.75856558168E+03  0.00000000000E+00 0. -1.
          1    1    1    2  502    0 -0.55717278736E+02 -0.15520535036E+02  0.31148057417E+03  0.31680506663E+03  0.00000000000E+00 0. -1.
         22    1    3    3    0    0  0.12224560507E+03 -0.20775598018E+02 -0.17125699673E+03  0.21143455810E+03  0.00000000000E+00 0. -1.
         22    1    3    3    0    0  0.55132319372E+01 -0.16306258990E+02 -0.21604571251E+03  0.21673033868E+03  0.00000000000E+00 0. -1.
</event>
<event>
 7    1  0.6017574E-006  0.8722237E+02  0.7818608E-02  0.1341586E+00
          2   -1    0    0  502    0  0.00000000000E+00  0.00000000000E+00  0.10026891712E+04  0.10026891712E+04  0.00000000000E+00 0. -1.
          1   -1    0    0  501    0 -0.00000000000E+00 -0.00000000000E+00 -0.53404763486E+03  0.53404763486E+03  0.00000000000E+00 0. -1.
         25    2    1    2    0    0  0.13573382657E+03  0.12962298357E+02  0.58186305585E+02  0.19391249347E+03  0.12499886444E+03 0.  0.
          2    1    1    2  501    0 -0.53526772292E+02 -0.38224702494E+02 -0.46173907433E+03  0.46640027444E+03  0.00000000000E+00 0. -1.
          1    1    1    2  502    0 -0.82207054278E+02  0.25262404136E+02  0.87219430505E+03  0.87642403813E+03  0.00000000000E+00 0. -1.
         22    1    3    3    0    0  0.15156991462E+03 -0.11447465881E+02  0.62778682385E+02  0.16445560634E+03  0.00000000000E+00 0.  1.
         22    1    3    3    0    0 -0.15836088051E+02  0.24409764238E+02 -0.45923768006E+01  0.29456887134E+02  0.00000000000E+00 0.  1.
</event>
<event>
 7    1  0.6017574E-006  0.1219856E+03  0.7818608E-02  0.1268412E+00
          2   -1    0    0  502    0  0.00000000000E+00  0.00000000000E+00  0.77592451441E+03  0.77592451441E+03  0.00000000000E+00 0. -1.
          1   -1    0    0  501    0 -0.00000000000E+00 -0.00000000000E+00 -0.12525413290E+04  0.12525413290E+04  0.00000000000E+00 0. -1.
         25    2    1    2    0    0 -0.45698445469E+02 -0.15422296410E+03 -0.23862434984E+03  0.31374895370E+03  0.12499502007E+03 0.  0.
          2    1    1    2  501    0 -0.49043385359E+02  0.77703483612E+02 -0.96914508447E+03  0.97349128387E+03  0.00000000000E+00 0. -1.
          1    1    1    2  502    0  0.94741830828E+02  0.76519480487E+02  0.73115261973E+03  0.74122560583E+03  0.00000000000E+00 0. -1.
         22    1    3    3    0    0 -0.25200192812E+01 -0.15719301663E+03 -0.20799952862E+03  0.26072935945E+03  0.00000000000E+00 0.  1.
         22    1    3    3    0    0 -0.43178426188E+02  0.29700525290E+01 -0.30624821214E+02  0.53019594250E+02  0.00000000000E+00 0.  1.
</event>
<event>
 7    1  0.6017574E-006  0.7271107E+02  0.7818608E-02  0.1364145E+00
          2   -1    0    0  502    0  0.00000000000E+00  0.00000000000E+00  0.89677262966E+03  0.89677262966E+03  0.00000000000E+00 0. -1.
          1   -1    0    0  501    0 -0.00000000000E+00 -0.00000000000E+00 -0.16559059128E+03  0.16559059128E+03  0.00000000000E+00 0. -1.
         25    2    1    2    0    0 -0.10203437497E+02  0.41299993138E+02  0.34182210475E+03  0.36644088664E+03  0.12500708994E+03 0.  0.
          2    1    1    2  501    0 -0.64922000031E+02 -0.32741926449E+02 -0.14182783006E+03  0.15938015314E+03  0.00000000000E+00 0. -1.
          1    1    1    2  502    0  0.75125437528E+02 -0.85580666888E+01  0.53118776369E+03  0.53654218116E+03  0.00000000000E+00 0. -1.
         22    1    3    3    0    0 -0.38396118298E+02  0.59052534074E+02  0.99899130817E+02  0.12223461056E+03  0.00000000000E+00 0. -1.
         22    1    3    3    0    0  0.28192680801E+02 -0.17752540937E+02  0.24192297393E+03  0.24420627608E+03  0.00000000000E+00 0. -1.
</event>
<event>
 7    1  0.6017574E-006  0.1117824E+03  0.7818608E-02  0.1412090E+00
          2   -1    0    0  502    0  0.00000000000E+00  0.00000000000E+00  0.48414139098E+03  0.48414139098E+03  0.00000000000E+00 0. -1.
          1   -1    0    0  501    0 -0.00000000000E+00 -0.00000000000E+00 -0.18478392605E+03  0.18478392605E+03  0.00000000000E+00 0. -1.
         25    2    1    2    0    0  0.98275477513E+02  0.89706530101E+02  0.83161906475E+02  0.20064454304E+03  0.12504798655E+03 0.  0.
          2    1    1    2  501    0 -0.28005522277E+02 -0.66782488461E+01 -0.11558918545E+03  0.11912081295E+03  0.00000000000E+00 0. -1.
          1    1    1    2  502    0 -0.70269955236E+02 -0.83028281255E+02  0.33178474391E+03  0.34915996104E+03  0.00000000000E+00 0. -1.
         22    1    3    3    0    0  0.72255438063E+02  0.29807171555E+02  0.10578646186E+03  0.13152981152E+03  0.00000000000E+00 0.  1.
         22    1    3    3    0    0  0.26020039450E+02  0.59899358546E+02 -0.22624555382E+02  0.69114731522E+02  0.00000000000E+00 0.  1.
</event>
<event>
 7    1  0.6017574E-006  0.6264875E+02  0.7818608E-02  0.1389723E+00
          2   -1    0    0  502    0  0.00000000000E+00  0.00000000000E+00  0.70304365049E+03  0.70304365049E+03  0.00000000000E+00 0. -1.
          1   -1    0    0  501    0 -0.00000000000E+00 -0.00000000000E+00 -0.15040354735E+04  0.15040354735E+04  0.00000000000E+00 0. -1.
         25    2    1    2    0    0  0.98770102399E+02 -0.74440206297E+02 -0.35295748522E+03  0.39433510925E+03  0.12499725824E+03 0.  0.
          2    1    1    2  501    0 -0.47944031043E+02  0.38213087212E+02 -0.11281277610E+04  0.11297925099E+04  0.00000000000E+00 0. -1.
          1    1    1    2  502    0 -0.50826071357E+02  0.36227119085E+02  0.68009342324E+03  0.68295150488E+03  0.00000000000E+00 0. -1.
         22    1    3    3    0    0  0.59017953821E+01 -0.67182298254E+02 -0.23236937622E+03  0.24195830094E+03  0.00000000000E+00 0.  1.
         22    1    3    3    0    0  0.92868307017E+02 -0.72579080427E+01 -0.12058810900E+03  0.15237680831E+03  0.00000000000E+00 0.  1.
</event>
<event>
 7    1  0.6017574E-006  0.4440368E+02  0.7818608E-02  0.1525232E+00
          2   -1    0    0  502    0  0.00000000000E+00  0.00000000000E+00  0.86651074153E+03  0.86651074153E+03  0.00000000000E+00 0. -1.
          1   -1    0    0  501    0 -0.00000000000E+00 -0.00000000000E+00 -0.11253040995E+04  0.11253040995E+04  0.00000000000E+00 0. -1.
         25    2    1    2    0    0  0.32411970170E+02 -0.18920597022E+02  0.75405977429E+02  0.15073013052E+03  0.12499994405E+03 0.  0.
          2    1    1    2  501    0 -0.21015125745E+02 -0.24318396126E+02 -0.10867407698E+04  0.10872159494E+04  0.00000000000E+00 0. -1.
          1    1    1    2  502    0 -0.11396844424E+02  0.43238993148E+02  0.75254143436E+03  0.75386876114E+03  0.00000000000E+00 0. -1.
         22    1    3    3    0    0 -0.19665722234E+02 -0.36770838883E+02  0.85159582026E+02  0.94820829115E+02  0.00000000000E+00 0. -1.
         22    1    3    3    0    0  0.52077692403E+02  0.17850241862E+02 -0.97536045965E+01  0.55909301402E+02  0.00000000000E+00 0. -1.
</event>
<event>
 7    1  0.6017574E-006  0.1297289E+03  0.7818608E-02  0.1367403E+00
          2   -1    0    0  502    0  0.00000000000E+00  0.00000000000E+00  0.87022919778E+03  0.87022919778E+03  0.00000000000E+00 0. -1.
          1   -1    0    0  501    0 -0.00000000000E+00 -0.00000000000E+00 -0.20862526415E+03  0.20862526415E+03  0.00000000000E+00 0. -1.
         25    2    1    2    0    0 -0.99862652686E+02  0.57644560443E+02  0.11383176791E+03  0.20463996459E+03  0.12499759585E+03 0.  0.
          2    1    1    2  501    0  0.12782002127E+03 -0.35713299163E+02 -0.13570534390E+03  0.18981395612E+03  0.00000000000E+00 0. -1.
          1    1    1    2  502    0 -0.27957368589E+02 -0.21931261280E+02  0.68347750962E+03  0.68440054123E+03  0.00000000000E+00 0. -1.
         22    1    3    3    0    0 -0.55320444177E+01  0.70667531329E+02  0.70655609517E+02  0.10008355837E+03  0.00000000000E+00 0.  1.
         22    1    3    3    0    0 -0.94330608268E+02 -0.13022970886E+02  0.43176158397E+02  0.10455640622E+03  0.00000000000E+00 0.  1.
</event>
<event>
 7    1  0.6017574E-006  0.9165204E+02  0.7818608E-02  0.1336223E+00
          2   -1    0    0  502    0  0.00000000000E+00  0.00000000000E+00  0.27143375924E+04  0.27143375924E+04  0.00000000000E+00 0. -1.
          1   -1    0    0  501    0 -0.00000000000E+00 -0.00000000000E+00 -0.44814202504E+03  0.44814202504E+03  0.00000000000E+00 0. -1.
         25    2    1    2    0    0  0.24758184094E+02 -0.87022937816E+02  0.35744924278E+03  0.38933256282E+03  0.12499569563E+03 0.  0.
          2    1    1    2  501    0 -0.65487642063E+02  0.34205321381E+01 -0.42878299911E+03  0.43376859226E+03  0.00000000000E+00 0. -1.
          1    1    1    2  502    0  0.40729457969E+02  0.83602405678E+02  0.23375293237E+04  0.23393784623E+04  0.00000000000E+00 0. -1.
         22    1    3    3    0    0 -0.43193567183E+02 -0.63891876501E+02  0.13367111233E+03  0.15432375838E+03  0.00000000000E+00 0. -1.
         22    1    3    3    0    0  0.67951751277E+02 -0.23131061315E+02  0.22377813045E+03  0.23500880444E+03  0.00000000000E+00 0. -1.
</event>
<event>
 7    1  0.6017574E-006  0.6252574E+02  0.7818608E-02  0.1388079E+00
          2   -1    0    0  502    0  0.00000000000E+00  0.00000000000E+00  0.88647570319E+03  0.88647570319E+03  0.00000000000E+00 0. -1.
          1   -1    0    0  501    0 -0.00000000000E+00 -0.00000000000E+00 -0.74254422387E+03  0.74254422387E+03  0.00000000000E+00 0. -1.
         25    2    1    2    0    0  0.21185633091E+02 -0.54738813673E+02 -0.23624999713E+03  0.27365052076E+03  0.12500151037E+03 0.  0.
          2    1    1    2  501    0 -0.61849358080E+02  0.70401597372E+01 -0.48446814878E+03  0.48845091271E+03  0.00000000000E+00 0. -1.
          1    1    1    2  502    0  0.40663724989E+02  0.47698653935E+02  0.86464962523E+03  0.86691849359E+03  0.00000000000E+00 0. -1.
         22    1    3    3    0    0  0.16976002443E+02 -0.94256652721E+02 -0.14109007046E+03  0.17052539172E+03  0.00000000000E+00 0.  1.
         22    1    3    3    0    0  0.42096306478E+01  0.39517839048E+02 -0.95159926675E+02  0.10312512903E+03  0.00000000000E+00 0.  1.
</event>
<event>
 7    1  0.6017574E-006  0.7864152E+02  0.7818608E-02  0.1426738E+00
          2   -1    0    0  502    0  0.00000000000E+00  0.00000000000E+00  0.10664921433E+04  0.10664921433E+04  0.00000000000E+00 0. -1.
          1   -1    0    0  501    0 -0.00000000000E+00 -0.00000000000E+00 -0.66216195904E+03  0.66216195904E+03  0.00000000000E+00 0. -1.
         25    2    1    2    0    0 -0.48081110536E+02 -0.89211851661E+02 -0.64495415744E+02  0.17336517491E+03  0.12500111020E+03 0.  0.
          2    1    1    2  501    0  0.56295423537E+02  0.53586350457E+02 -0.54011890624E+03  0.54568223770E+03  0.00000000000E+00 0. -1.
          1    1    1    2  502    0 -0.82143130007E+01  0.35625501204E+02  0.10089445063E+04  0.10096066898E+04  0.00000000000E+00 0. -1.
         22    1    3    3    0    0  0.13613242047E+02 -0.93483658522E+02 -0.18426927962E+02  0.96250020488E+02  0.00000000000E+00 0.  1.
         22    1    3    3    0    0 -0.61694352583E+02  0.42718068615E+01 -0.46068487782E+02  0.77115154419E+02  0.00000000000E+00 0.  1.
</event>
<event>
 7    1  0.6017574E-006  0.2667720E+03  0.7818608E-02  0.1129784E+00
          2   -1    0    0  502    0  0.00000000000E+00  0.00000000000E+00  0.78358054676E+03  0.78358054676E+03  0.00000000000E+00 0. -1.
          1   -1    0    0  501    0 -0.00000000000E+00 -0.00000000000E+00 -0.12593053072E+04  0.12593053072E+04  0.00000000000E+00 0. -1.
         25    2    1    2    0    0 -0.27321340404E+03 -0.73979430412E+02 -0.32941793717E+03  0.45195034251E+03  0.12499765795E+03 0.  0.
          2    1    1    2  501    0  0.16049721772E+03  0.22788008281E+03 -0.83291785933E+03  0.87831705518E+03  0.00000000000E+00 0. -1.
          1    1    1    2  502    0  0.11271618631E+03 -0.15390065239E+03  0.68661103603E+03  0.71261845630E+03  0.00000000000E+00 0. -1.
         22    1    3    3    0    0 -0.13874508415E+03 -0.42696246914E+02 -0.77195447724E+02  0.16441503893E+03  0.00000000000E+00 0. -1.
         22    1    3    3    0    0 -0.13446831989E+03 -0.31283183498E+02 -0.25222248944E+03  0.28753530358E+03  0.00000000000E+00 0. -1.
</event>
<event>
 7    1  0.6017574E-006  0.2027966E+03  0.7818608E-02  0.1249039E+00
          2   -1    0    0  502    0  0.00000000000E+00  0.00000000000E+00  0.38091311148E+04  0.38091311148E+04  0.00000000000E+00 0. -1.
          1   -1    0    0  501    0 -0.00000000000E+00 -0.00000000000E+00 -0.97122206491E+03  0.97122206491E+03  0.00000000000E+00 0. -1.
         25    2    1    2    0    0  0.57986448092E+02  0.25247982131E+03  0.35160364186E+02  0.28977551145E+03  0.12500042999E+03 0.  0.
          2    1    1    2  501    0  0.16046048262E+02 -0.64936407737E+02 -0.83979662354E+03  0.84245627876E+03  0.00000000000E+00 0. -1.
          1    1    1    2  502    0 -0.74032496354E+02 -0.18754341358E+03  0.36425453092E+04  0.36481213895E+04  0.00000000000E+00 0. -1.
         22    1    3    3    0    0  0.70935402953E+02  0.25585815637E+03  0.49584309194E+02  0.27009966918E+03  0.00000000000E+00 0.  1.
         22    1    3    3    0    0 -0.12948954861E+02 -0.33783350542E+01 -0.14423945008E+02  0.19675842278E+02  0.00000000000E+00 0.  1.
</event>
<event>
 7    1  0.6017574E-006  0.1290452E+03  0.7818608E-02  0.1248110E+00
          2   -1    0    0  502    0  0.00000000000E+00  0.00000000000E+00  0.17419967393E+03  0.17419967393E+03  0.00000000000E+00 0. -1.
          1   -1    0    0  501    0 -0.00000000000E+00 -0.00000000000E+00 -0.13911108620E+04  0.13911108620E+04  0.00000000000E+00 0. -1.
         25    2    1    2    0    0 -0.13798837889E+03  0.64022116767E+02 -0.40256869768E+03  0.44813784366E+03  0.12500538558E+03 0.  0.
          2    1    1    2  501    0  0.12462319286E+03  0.41233407590E+02 -0.94204391839E+03  0.95114556104E+03  0.00000000000E+00 0. -1.
          1    1    1    2  502    0  0.13365186026E+02 -0.10525552436E+03  0.12770142798E+03  0.16602713125E+03  0.00000000000E+00 0. -1.
         22    1    3    3    0    0 -0.22058980381E+02 -0.36076773216E+02 -0.66409244961E+02  0.78729409990E+02  0.00000000000E+00 0.  1.
         22    1    3    3    0    0 -0.11592939851E+03  0.10009888998E+03 -0.33615945272E+03  0.36940843367E+03  0.00000000000E+00 0.  1.
</event>
<event>
 7    1  0.6017574E-006  0.8557357E+02  0.7818608E-02  0.1323699E+00
          2   -1    0    0  502    0  0.00000000000E+00  0.00000000000E+00  0.28423320484E+04  0.28423320484E+04  0.00000000000E+00 0. -1.
          1   -1    0    0  501    0 -0.00000000000E+00 -0.00000000000E+00 -0.36132559356E+02  0.36132559356E+02  0.00000000000E+00 0. -1.
         25    2    1    2    0    0  0.30968523451E+02  0.34031358260E+02  0.98668684819E+03  0.99563679001E+03  0.12499799373E+03 0.  0.
          2    1    1    2  501    0  0.71678541374E+02 -0.31798790012E+02  0.20719005434E+02  0.81106433320E+02  0.00000000000E+00 0. -1.
          1    1    1    2  502    0 -0.10264706482E+03 -0.22325682477E+01  0.17987936354E+04  0.18017213844E+04  0.00000000000E+00 0. -1.
         22    1    3    3    0    0  0.16241936307E+02  0.23469150281E+02  0.97170262902E+03  0.97212170059E+03  0.00000000000E+00 0.  1.
         22    1    3    3    0    0  0.14726587144E+02  0.10562207979E+02  0.14984219170E+02  0.23515089420E+02  0.00000000000E+00 0.  1.
</event>
<event>
 7    1  0.6017574E-006  0.1380451E+03  0.7818608E-02  0.1357215E+00
          2   -1    0    0  502    0  0.00000000000E+00  0.00000000000E+00  0.22988709669E+03  0.22988709669E+03  0.00000000000E+00 0. -1.
          1   -1    0    0  501    0 -0.00000000000E+00 -0.00000000000E+00 -0.22938703383E+04  0.22938703383E+04  0.00000000000E+00 0. -1.
         25    2    1    2    0    0  0.38302433732E+02  0.11048343195E+03 -0.23530395391E+03  0.29097629223E+03  0.12500234698E+03 0.  0.
          2    1    1    2  501    0  0.35256984804E+02  0.89136156187E+01 -0.20062117952E+04  0.20065413713E+04  0.00000000000E+00 0. -1.
          1    1    1    2  502    0 -0.73559418537E+02 -0.11939704757E+03  0.17753250743E+03  0.22623977152E+03  0.00000000000E+00 0. -1.
         22    1    3    3    0    0  0.57946636118E+02  0.88102939709E+02 -0.78739242036E+02  0.13160474482E+03  0.00000000000E+00 0. -1.
         22    1    3    3    0    0 -0.19644202386E+02  0.22380492237E+02 -0.15656471188E+03  0.15937154741E+03  0.00000000000E+00 0. -1.
</event>
<event>
 7    1  0.6017574E-006  0.1106749E+03  0.7818608E-02  0.1399512E+00
          2   -1    0    0  502    0  0.00000000000E+00  0.00000000000E+00  0.16741948732E+04  0.16741948732E+04  0.00000000000E+00 0. -1.
          1   -1    0    0  501    0 -0.00000000000E+00 -0.00000000000E+00 -0.25817806969E+03  0.25817806969E+03  0.00000000000E+00 0. -1.
         25    2    1    2    0    0 -0.37929284130E+02  0.10504091395E+03  0.60871018051E+02  0.17833168343E+03  0.12499873711E+03 0.  0.
          2    1    1    2  501    0  0.63706148633E+01 -0.11089414415E+03 -0.18380208803E+03  0.21475870996E+03  0.00000000000E+00 0. -1.
          1    1    1    2  502    0  0.31558669267E+02  0.58532302019E+01  0.15389478735E+04  0.15392825495E+04  0.00000000000E+00 0. -1.
         22    1    3    3    0    0 -0.56445578179E+01 -0.29018346050E+02  0.13823284979E+02  0.32634470243E+02  0.00000000000E+00 0. -1.
         22    1    3    3    0    0 -0.32284726313E+02  0.13405926000E+03  0.47047733072E+02  0.14569721319E+03  0.00000000000E+00 0. -1.
</event>
<event>
 7    1  0.6017574E-006  0.1049744E+03  0.7818608E-02  0.1421118E+00
          2   -1    0    0  502    0  0.00000000000E+00  0.00000000000E+00  0.17637019209E+04  0.17637019209E+04  0.00000000000E+00 0. -1.
          1   -1    0    0  501    0 -0.00000000000E+00 -0.00000000000E+00 -0.72128440077E+03  0.72128440077E+03  0.00000000000E+00 0. -1.
         25    2    1    2    0    0 -0.69681247456E+02 -0.11207515058E+03  0.74863801242E+02  0.19658288853E+03  0.12499571074E+03 0.  0.
          2    1    1    2  501    0  0.94850969430E+01  0.26972546946E+02 -0.65844566243E+03  0.65906613911E+03  0.00000000000E+00 0. -1.
          1    1    1    2  502    0  0.60196150513E+02  0.85102603633E+02  0.16259993813E+04  0.16293372940E+04  0.00000000000E+00 0. -1.
         22    1    3    3    0    0 -0.78755571927E+02 -0.14710819094E+02  0.13802774467E+02  0.81298000535E+02  0.00000000000E+00 0. -1.
         22    1    3    3    0    0  0.90743244711E+01 -0.97364331486E+02  0.61061026775E+02  0.11528488800E+03  0.00000000000E+00 0. -1.
</event>
<event>
 7    1  0.6017574E-006  0.7807665E+02  0.7818608E-02  0.1383216E+00
          2   -1    0    0  502    0  0.00000000000E+00  0.00000000000E+00  0.14703132397E+04  0.14703132397E+04  0.00000000000E+00 0. -1.
          1   -1    0    0  501    0 -0.00000000000E+00 -0.00000000000E+00 -0.75790423674E+03  0.75790423674E+03  0.00000000000E+00 0. -1.
         25    2    1    2    0    0  0.85215811962E+02  0.38544185663E+02  0.95356154242E+02  0.18293289212E+03  0.12499703201E+03 0.  0.
          2    1    1    2  501    0 -0.81772040897E+01 -0.51200814113E+02 -0.71202768754E+03  0.71391303242E+03  0.00000000000E+00 0. -1.
          1    1    1    2  502    0 -0.77038607872E+02  0.12656628450E+02  0.13290805363E+04  0.13313715519E+04  0.00000000000E+00 0. -1.
         22    1    3    3    0    0  0.10888959648E+03  0.47826203657E+02  0.10196892373E+03  0.15665870989E+03  0.00000000000E+00 0. -1.
         22    1    3    3    0    0 -0.23673784520E+02 -0.92820179941E+01 -0.66127694879E+01  0.26274182230E+02  0.00000000000E+00 0. -1.
</event>
<event>
 7    1  0.6017574E-006  0.8056933E+02  0.7818608E-02  0.1424563E+00
          2   -1    0    0  502    0  0.00000000000E+00  0.00000000000E+00  0.21213912049E+04  0.21213912049E+04  0.00000000000E+00 0. -1.
          1   -1    0    0  501    0 -0.00000000000E+00 -0.00000000000E+00 -0.76010258269E+02  0.76010258269E+02  0.00000000000E+00 0. -1.
         25    2    1    2    0    0 -0.31589096194E+02 -0.61782507274E+02  0.16806573111E+04  0.16867274590E+04  0.12500229657E+03 0.  0.
          2    1    1    2  501    0 -0.26953174664E+02 -0.24288644962E+02 -0.61782861099E+02  0.71648683338E+02  0.00000000000E+00 0. -1.
          1    1    1    2  502    0  0.58542270859E+02  0.86071152235E+02  0.42650649659E+03  0.43902532086E+03  0.00000000000E+00 0. -1.
         22    1    3    3    0    0 -0.68754586474E+02 -0.47818099274E+02  0.65916604778E+03  0.66446492935E+03  0.00000000000E+00 0.  1.
         22    1    3    3    0    0  0.37165490279E+02 -0.13964408000E+02  0.10214912634E+04  0.10222625296E+04  0.00000000000E+00 0.  1.
</event>
<event>
 7    1  0.6017574E-006  0.6030137E+02  0.7818608E-02  0.1481294E+00
          2   -1    0    0  502    0  0.00000000000E+00  0.00000000000E+00  0.13812392301E+04  0.13812392301E+04  0.00000000000E+00 0. -1.
          1   -1    0    0  501    0 -0.00000000000E+00 -0.00000000000E+00 -0.34406977098E+03  0.34406977098E+03  0.00000000000E+00 0. -1.
         25    2    1    2    0    0  0.18243504904E+02  0.44018927294E+02 -0.49334419380E+02  0.14257764949E+03  0.12499603901E+03 0.  0.
          2    1    1    2  501    0  0.86792797474E+01 -0.61254542412E+02 -0.24406222595E+03  0.25178129200E+03  0.00000000000E+00 0. -1.
          1    1    1    2  502    0 -0.26922784652E+02  0.17235615117E+02  0.13305661045E+04  0.13309500596E+04  0.00000000000E+00 0. -1.
         22    1    3    3    0    0 -0.26592360257E+00  0.48941168735E+02 -0.87283913032E+02  0.10006892718E+03  0.00000000000E+00 0. -1.
         22    1    3    3    0    0  0.18509428507E+02 -0.49222414406E+01  0.37949493652E+02  0.42508722316E+02  0.00000000000E+00 0. -1.
</event>
<event>
 7    1  0.6017574E-006  0.5942105E+02  0.7818608E-02  0.1511727E+00
          2   -1    0    0  502    0  0.00000000000E+00  0.00000000000E+00  0.33232913452E+04  0.33232913452E+04  0.00000000000E+00 0. -1.
          1   -1    0    0  501    0 -0.00000000000E+00 -0.00000000000E+00 -0.15286025021E+02  0.15286025021E+02  0.00000000000E+00 0. -1.
         25    2    1    2    0    0  0.34090213866E+02  0.91856715798E+01  0.43601441560E+03  0.45495047008E+03  0.12499936148E+03 0.  0.
          2    1    1    2  501    0  0.20332096733E+02  0.16670184860E+02  0.25927981463E+02  0.36926270372E+02  0.00000000000E+00 0. -1.
          1    1    1    2  502    0 -0.54422310599E+02 -0.25855856440E+02  0.28460629231E+04  0.28467006298E+04  0.00000000000E+00 0. -1.
         22    1    3    3    0    0 -0.87608655508E+01  0.18819538998E+02  0.39275447500E+03  0.39330268935E+03  0.00000000000E+00 0. -1.
         22    1    3    3    0    0  0.42851079417E+02 -0.96338674185E+01  0.43259940600E+02  0.61647780733E+02  0.00000000000E+00 0. -1.
</event>
<event>
 7    1  0.6017574E-006  0.6675570E+02  0.7818608E-02  0.1404610E+00
          2   -1    0    0  502    0  0.00000000000E+00  0.00000000000E+00  0.11223623334E+03  0.11223623334E+03  0.00000000000E+00 0. -1.
          1   -1    0    0  501    0 -0.00000000000E+00 -0.00000000000E+00 -0.20104629778E+04  0.20104629778E+04  0.00000000000E+00 0. -1.
         25    2    1    2    0    0  0.14011125152E+02  0.29549802078E+02 -0.14848206642E+04  0.14904325561E+04  0.12500918820E+03 0.  0.
          2    1    1    2  501    0 -0.39445177276E+02  0.32508539892E+02 -0.51116436287E+03  0.51371366835E+03  0.00000000000E+00 0. -1.
          1    1    1    2  502    0  0.25434052124E+02 -0.62058341970E+02  0.97758282630E+02  0.11855298663E+03  0.00000000000E+00 0. -1.
         22    1    3    3    0    0  0.41954263554E+02 -0.94719713919E+01 -0.19359277385E+03  0.19831298636E+03  0.00000000000E+00 0. -1.
         22    1    3    3    0    0 -0.27943138402E+02  0.39021773470E+02 -0.12912278903E+04  0.12921195698E+04  0.00000000000E+00 0. -1.
</event>
<event>
 7    1  0.6017574E-006  0.4010702E+02  0.7818608E-02  0.1608455E+00
          2   -1    0    0  502    0  0.00000000000E+00  0.00000000000E+00  0.33303959342E+03  0.33303959342E+03  0.00000000000E+00 0. -1.
          1   -1    0    0  501    0 -0.00000000000E+00 -0.00000000000E+00 -0.65720232357E+02  0.65720232357E+02  0.00000000000E+00 0. -1.
         25    2    1    2    0    0 -0.21523678124E+02  0.34059541991E+02  0.54820217599E+02  0.14231797653E+03  0.12500331621E+03 0.  0.
          2    1    1    2  501    0 -0.14276471523E+02 -0.15521452068E+02 -0.14691713443E+02  0.25701742301E+02  0.00000000000E+00 0. -1.
          1    1    1    2  502    0  0.35800149647E+02 -0.18538089923E+02  0.22719085691E+03  0.23074010695E+03  0.00000000000E+00 0. -1.
         22    1    3    3    0    0 -0.41398909804E+01 -0.23631520283E+02  0.75024750854E+02  0.78767383408E+02  0.00000000000E+00 0.  1.
         22    1    3    3    0    0 -0.17383787144E+02  0.57691062274E+02 -0.20204533255E+02  0.63550593119E+02  0.00000000000E+00 0.  1.
</event>
<event>
 7    1  0.6017574E-006  0.7179809E+02  0.7818608E-02  0.1393064E+00
          2   -1    0    0  502    0  0.00000000000E+00  0.00000000000E+00  0.61357931918E+03  0.61357931918E+03  0.00000000000E+00 0. -1.
          1   -1    0    0  501    0 -0.00000000000E+00 -0.00000000000E+00 -0.18159302752E+04  0.18159302752E+04  0.00000000000E+00 0. -1.
         25    2    1    2    0    0  0.51681831342E+02 -0.83351643505E+02 -0.12682594254E+03  0.20329321822E+03  0.12499921882E+03 0.  0.
          2    1    1    2  501    0 -0.50745259602E+02  0.11728088978E+02 -0.16482283092E+04  0.16490509964E+04  0.00000000000E+00 0. -1.
          1    1    1    2  502    0 -0.93657174007E+00  0.71623554527E+02  0.57270329569E+03  0.57716537979E+03  0.00000000000E+00 0. -1.
         22    1    3    3    0    0  0.57780277078E+01  0.25052202869E+02 -0.65903736622E+02  0.70741084056E+02  0.00000000000E+00 0. -1.
         22    1    3    3    0    0  0.45903803635E+02 -0.10840384637E+03 -0.60922205918E+02  0.13255213416E+03  0.00000000000E+00 0. -1.
</event>
<event>
 7    1  0.6017574E-006  0.7557638E+02  0.7818608E-02  0.1513889E+00
          2   -1    0    0  502    0  0.00000000000E+00  0.00000000000E+00  0.18120064123E+04  0.18120064123E+04  0.00000000000E+00 0. -1.
          1   -1    0    0  501    0 -0.00000000000E+00 -0.00000000000E+00 -0.14020091127E+03  0.14020091127E+03  0.00000000000E+00 0. -1.
         25    2    1    2    0    0  0.75225150047E+02 -0.13241223337E+02  0.37482996648E+03  0.40243908343E+03  0.12500223560E+03 0.  0.
          2    1    1    2  501    0  0.14218377924E+00  0.20372114827E+02 -0.12456165346E+03  0.12621667398E+03  0.00000000000E+00 0. -1.
          1    1    1    2  502    0 -0.75367333827E+02 -0.71308914897E+01  0.14215371881E+04  0.14235515662E+04  0.00000000000E+00 0. -1.
         22    1    3    3    0    0  0.91261200063E+02  0.65006774367E+01  0.36306507407E+03  0.37441569606E+03  0.00000000000E+00 0. -1.
         22    1    3    3    0    0 -0.16036050016E+02 -0.19741900774E+02  0.11764892404E+02  0.28023387368E+02  0.00000000000E+00 0. -1.
</event>
<event>
 7    1  0.6017574E-006  0.6447048E+02  0.7818608E-02  0.1473277E+00
          2   -1    0    0  502    0  0.00000000000E+00  0.00000000000E+00  0.74598230908E+03  0.74598230908E+03  0.00000000000E+00 0. -1.
          1   -1    0    0  501    0 -0.00000000000E+00 -0.00000000000E+00 -0.11088866842E+03  0.11088866842E+03  0.00000000000E+00 0. -1.
         25    2    1    2    0    0  0.41966126617E+02  0.35340856859E+02  0.44258754203E+03  0.46316279221E+03  0.12500363108E+03 0.  0.
          2    1    1    2  501    0 -0.22964924265E+02 -0.60650948263E+02 -0.89169941414E+02  0.11025971034E+03  0.00000000000E+00 0. -1.
          1    1    1    2  502    0 -0.19001202353E+02  0.25310091403E+02  0.28167604005E+03  0.28344847495E+03  0.00000000000E+00 0. -1.
         22    1    3    3    0    0  0.62035443908E+01 -0.21438939484E+02  0.84416163973E+01  0.23861537599E+02  0.00000000000E+00 0. -1.
         22    1    3    3    0    0  0.35762582227E+02  0.56779796343E+02  0.43414592563E+03  0.43930125461E+03  0.00000000000E+00 0. -1.
</event>
<event>
 7    1  0.6017574E-006  0.3674836E+02  0.7818608E-02  0.1561032E+00
          2   -1    0    0  502    0  0.00000000000E+00  0.00000000000E+00  0.30516325631E+03  0.30516325631E+03  0.00000000000E+00 0. -1.
          1   -1    0    0  501    0 -0.00000000000E+00 -0.00000000000E+00 -0.54549073017E+03  0.54549073017E+03  0.00000000000E+00 0. -1.
         25    2    1    2    0    0 -0.22369224938E+02  0.32019700745E+02 -0.93984847798E+02  0.16119244155E+03  0.12499683251E+03 0.  0.
          2    1    1    2  501    0  0.30542738357E+02  0.39126666599E+01 -0.41608040394E+03  0.41721825269E+03  0.00000000000E+00 0. -1.
          1    1    1    2  502    0 -0.81735134190E+01 -0.35932367405E+02  0.26973777788E+03  0.27224329223E+03  0.00000000000E+00 0. -1.
         22    1    3    3    0    0 -0.18860136542E+02  0.49181642947E+02  0.11789745461E+02  0.53977188250E+02  0.00000000000E+00 0. -1.
         22    1    3    3    0    0 -0.35090883963E+01 -0.17161942202E+02 -0.10577459326E+03  0.10721525330E+03  0.00000000000E+00 0. -1.
</event>
<event>
 7    1  0.6017574E-006  0.7746147E+02  0.7818608E-02  0.1342947E+00
          2   -1    0    0  502    0  0.00000000000E+00  0.00000000000E+00  0.61003533689E+03  0.61003533689E+03  0.00000000000E+00 0. -1.
          1   -1    0    0  501    0 -0.00000000000E+00 -0.00000000000E+00 -0.54012486585E+02  0.54012486585E+02  0.00000000000E+00 0. -1.
         25    2    1    2    0    0 -0.30182430581E+02 -0.18820206317E+02  0.65208519163E+02  0.14540793069E+03  0.12500454414E+03 0.  0.
          2    1    1    2  501    0 -0.45484917057E+02  0.57349245636E+02  0.14342232633E+03  0.16102104627E+03  0.00000000000E+00 0. -1.
          1    1    1    2  502    0  0.75667347638E+02 -0.38529039319E+02  0.34739200482E+03  0.35761884651E+03  0.00000000000E+00 0. -1.
         22    1    3    3    0    0  0.15521727084E+02  0.12758135823E+02 -0.29450751187E+02  0.35651658963E+02  0.00000000000E+00 0.  1.
         22    1    3    3    0    0 -0.45704157665E+02 -0.31578342140E+02  0.94659270350E+02  0.10975627173E+03  0.00000000000E+00 0.  1.
</event>
<event>
 7    1  0.6017574E-006  0.8495116E+02  0.7818608E-02  0.1323042E+00
          2   -1    0    0  502    0  0.00000000000E+00  0.00000000000E+00  0.13189027372E+04  0.13189027372E+04  0.00000000000E+00 0. -1.
          1   -1    0    0  501    0 -0.00000000000E+00 -0.00000000000E+00 -0.95641846807E+03  0.95641846807E+03  0.00000000000E+00 0. -1.
         25    2    1    2    0    0  0.44992536976E+02 -0.13964505544E+03  0.28947308235E+03  0.34777189926E+03  0.12500223444E+03 0.  0.
          2    1    1    2  501    0 -0.54194992107E+02  0.58100033462E+02 -0.92387802516E+03  0.92728815178E+03  0.00000000000E+00 0. -1.
          1    1    1    2  502    0  0.92024551307E+01  0.81545021974E+02  0.99688921198E+03  0.10002611543E+04  0.00000000000E+00 0. -1.
         22    1    3    3    0    0 -0.37385097187E+02 -0.21654780948E+02  0.35730142123E+02  0.56064410152E+02  0.00000000000E+00 0. -1.
         22    1    3    3    0    0  0.82377634163E+02 -0.11799027449E+03  0.25374294023E+03  0.29170748911E+03  0.00000000000E+00 0. -1.
</event>
<event>
 7    1  0.6017574E-006  0.5131554E+02  0.7818608E-02  0.1522768E+00
          2   -1    0    0  502    0  0.00000000000E+00  0.00000000000E+00  0.19585666664E+04  0.19585666664E+04  0.00000000000E+00 0. -1.
          1   -1    0    0  501    0 -0.00000000000E+00 -0.00000000000E+00 -0.44118883986E+02  0.44118883986E+02  0.00000000000E+00 0. -1.
         25    2    1    2    0    0  0.58994011358E+02  0.50378974136E+02  0.73015116108E+03  0.74482486256E+03  0.12500009381E+03 0.  0.
          2    1    1    2  501    0 -0.19608835115E+02 -0.20365201827E+02 -0.30769900139E+02  0.41785579027E+02  0.00000000000E+00 0. -1.
          1    1    1    2  502    0 -0.39385176243E+02 -0.30013772309E+02  0.12150665214E+04  0.12160751088E+04  0.00000000000E+00 0. -1.
         22    1    3    3    0    0 -0.21774134360E+02 -0.27384421979E+02  0.17772771502E+03  0.18113851103E+03  0.00000000000E+00 0. -1.
         22    1    3    3    0    0  0.80768145718E+02  0.77763396116E+02  0.55242344606E+03  0.56368635153E+03  0.00000000000E+00 0. -1.
</event>
<event>
 7    1  0.6017574E-006  0.4987051E+02  0.7818608E-02  0.1455032E+00
          2   -1    0    0  502    0  0.00000000000E+00  0.00000000000E+00  0.32040721667E+03  0.32040721667E+03  0.00000000000E+00 0. -1.
          1   -1    0    0  501    0 -0.00000000000E+00 -0.00000000000E+00 -0.26910856602E+03  0.26910856602E+03  0.00000000000E+00 0. -1.
         25    2    1    2    0    0  0.36336769718E+02 -0.31339655232E+02 -0.76150238032E+02  0.15403466613E+03  0.12500113916E+03 0.  0.
          2    1    1    2  501    0  0.12078581798E+02  0.45086566910E+02 -0.14814761445E+03  0.15532677271E+03  0.00000000000E+00 0. -1.
          1    1    1    2  502    0 -0.48415351516E+02 -0.13746911678E+02  0.27559650313E+03  0.28015434385E+03  0.00000000000E+00 0. -1.
         22    1    3    3    0    0  0.46095158824E+02 -0.75613007892E+02 -0.50868596829E+02  0.10212592606E+03  0.00000000000E+00 0. -1.
         22    1    3    3    0    0 -0.97583891059E+01  0.44273352660E+02 -0.25281641203E+02  0.51908740070E+02  0.00000000000E+00 0. -1.
</event>
<event>
 7    1  0.6017574E-006  0.1295722E+03  0.7818608E-02  0.1269199E+00
          2   -1    0    0  502    0  0.00000000000E+00  0.00000000000E+00  0.68314970838E+03  0.68314970838E+03  0.00000000000E+00 0. -1.
          1   -1    0    0  501    0 -0.00000000000E+00 -0.00000000000E+00 -0.79963899973E+03  0.79963899973E+03  0.00000000000E+00 0. -1.
         25    2    1    2    0    0  0.12383268869E+03 -0.20512303235E+02 -0.30560196949E+02  0.17976675098E+03  0.12500747877E+03 0.  0.
          2    1    1    2  501    0 -0.87999539587E+02  0.98525134286E+02 -0.68510616964E+03  0.69772600979E+03  0.00000000000E+00 0. -1.
          1    1    1    2  502    0 -0.35833149098E+02 -0.78012831051E+02  0.59917707523E+03  0.60529594734E+03  0.00000000000E+00 0. -1.
         22    1    3    3    0    0  0.28451547643E+02  0.16331256690E+02 -0.64224448649E+02  0.72117822434E+02  0.00000000000E+00 0.  1.
         22    1    3    3    0    0  0.95381141043E+02 -0.36843559925E+02  0.33664251700E+02  0.10764892855E+03  0.00000000000E+00 0.  1.
</event>
<event>
 7    1  0.6017574E-006  0.8280981E+02  0.7818608E-02  0.1488726E+00
          2   -1    0    0  502    0  0.00000000000E+00  0.00000000000E+00  0.57203074592E+02  0.57203074592E+02  0.00000000000E+00 0. -1.
          1   -1    0    0  501    0 -0.00000000000E+00 -0.00000000000E+00 -0.23377423811E+04  0.23377423811E+04  0.00000000000E+00 0. -1.
         25    2    1    2    0    0 -0.22112070724E+02 -0.57580041284E+02 -0.50549081676E+02  0.14827709781E+03  0.12500593286E+03 0.  0.
          2    1    1    2  501    0  0.24068583076E+02  0.79589043479E+02 -0.22214092025E+04  0.22229648125E+04  0.00000000000E+00 0. -1.
          1    1    1    2  502    0 -0.19565123523E+01 -0.22009002194E+02 -0.85810222475E+01  0.23703545325E+02  0.00000000000E+00 0. -1.
         22    1    3    3    0    0 -0.21056945757E+02  0.37755941847E+02 -0.23338542466E+02  0.49128338806E+02  0.00000000000E+00 0. -1.
         22    1    3    3    0    0 -0.10551249665E+01 -0.95335983131E+02 -0.27210539209E+02  0.99148759005E+02  0.00000000000E+00 0. -1.
</event>
<event>
 7    1  0.6017574E-006  0.1153181E+03  0.7818608E-02  0.1408013E+00
          2   -1    0    0  502    0  0.00000000000E+00  0.00000000000E+00  0.28628793644E+03  0.28628793644E+03  0.00000000000E+00 0. -1.
          1   -1    0    0  501    0 -0.00000000000E+00 -0.00000000000E+00 -0.35690758379E+03  0.35690758379E+03  0.00000000000E+00 0. -1.
         25    2    1    2    0    0 -0.78823610543E+02 -0.77407716804E+02  0.74534274874E+02  0.18272460002E+03  0.12501121998E+03 0.  0.
          2    1    1    2  501    0 -0.23043784573E+02  0.17291666147E+02 -0.27978267215E+03  0.28126208661E+03  0.00000000000E+00 0. -1.
          1    1    1    2  502    0  0.10186739512E+03  0.60116050657E+02  0.13462874993E+03  0.17920883360E+03  0.00000000000E+00 0. -1.
         22    1    3    3    0    0 -0.21431468459E+02 -0.85072562558E+02 -0.76925558307E+00  0.87733918724E+02  0.00000000000E+00 0. -1.
         22    1    3    3    0    0 -0.57392142084E+02  0.76648457541E+01  0.75303530457E+02  0.94990681294E+02  0.00000000000E+00 0. -1.
</event>
<event>
 7    1  0.6017574E-006  0.5241125E+02  0.7818608E-02  0.1487312E+00
          2   -1    0    0  502    0  0.00000000000E+00  0.00000000000E+00  0.24286302721E+04  0.24286302721E+04  0.00000000000E+00 0. -1.
          1   -1    0    0  501    0 -0.00000000000E+00 -0.00000000000E+00 -0.13858621100E+04  0.13858621100E+04  0.00000000000E+00 0. -1.
         25    2    1    2    0    0  0.60553960062E+02  0.52064536663E+02  0.37716525564E+03  0.40528430679E+03  0.12499696481E+03 0.  0.
          2    1    1    2  501    0 -0.48896155417E+02 -0.18789669786E+02 -0.13711499029E+04  0.13721501164E+04  0.00000000000E+00 0. -1.
          1    1    1    2  502    0 -0.11657804644E+02 -0.33274866877E+02  0.20367528094E+04  0.20370579588E+04  0.00000000000E+00 0. -1.
         22    1    3    3    0    0  0.88641305183E+02  0.66544059650E+02  0.23752974173E+03  0.26211785720E+03  0.00000000000E+00 0.  1.
         22    1    3    3    0    0 -0.28087345121E+02 -0.14479522987E+02  0.13963551392E+03  0.14316644959E+03  0.00000000000E+00 0.  1.
</event>
<event>
 7    1  0.6017574E-006  0.9114395E+02  0.7818608E-02  0.1350852E+00
          2   -1    0    0  502    0  0.00000000000E+00  0.00000000000E+00  0.82475720623E+03  0.82475720623E+03  0.00000000000E+00 0. -1.
          1   -1    0    0  501    0 -0.00000000000E+00 -0.00000000000E+00 -0.10422477655E+04  0.10422477655E+04  0.00000000000E+00 0. -1.
         25    2    1    2    0    0 -0.14863569276E+01  0.14543877495E+03 -0.21172072652E+03  0.28566158544E+03  0.12498891486E+03 0.  0.
          2    1    1    2  501    0 -0.35775872216E+01 -0.87526412251E+02 -0.79006006665E+03  0.79490161712E+03  0.00000000000E+00 0. -1.
          1    1    1    2  502    0  0.50639441492E+01 -0.57912362696E+02  0.78429023392E+03  0.78644176917E+03  0.00000000000E+00 0. -1.
         22    1    3    3    0    0 -0.23628135069E+02  0.16130956109E+03 -0.16764107259E+03  0.23384309373E+03  0.00000000000E+00 0.  1.
         22    1    3    3    0    0  0.22141778141E+02 -0.15870786141E+02 -0.44079653929E+02  0.51818491704E+02  0.00000000000E+00 0.  1.
</event>
<event>
 7    1  0.6017574E-006  0.1623207E+03  0.7818608E-02  0.1331748E+00
          2   -1    0    0  502    0  0.00000000000E+00  0.00000000000E+00  0.36969973759E+03  0.36969973759E+03  0.00000000000E+00 0. -1.
          1   -1    0    0  501    0 -0.00000000000E+00 -0.00000000000E+00 -0.27550258597E+04  0.27550258597E+04  0.00000000000E+00 0. -1.
         25    2    1    2    0    0  0.11650832672E+02 -0.17475087459E+03 -0.32148323644E+03  0.38685303938E+03  0.12502076906E+03 0.  0.
          2    1    1    2  501    0  0.33318966920E+02  0.19298418408E+02 -0.23812668475E+04  0.23815781283E+04  0.00000000000E+00 0. -1.
          1    1    1    2  502    0 -0.44969799591E+02  0.15545245618E+03  0.31742396181E+03  0.35629442957E+03  0.00000000000E+00 0. -1.
         22    1    3    3    0    0  0.51999055815E+02 -0.13333406566E+03 -0.15669559138E+03  0.21221541704E+03  0.00000000000E+00 0. -1.
         22    1    3    3    0    0 -0.40348223143E+02 -0.41416808928E+02 -0.16478764507E+03  0.17463762235E+03  0.00000000000E+00 0. -1.
</event>
<event>
 7    1  0.6017574E-006  0.1705401E+03  0.7818608E-02  0.1308715E+00
          2   -1    0    0  502    0  0.00000000000E+00  0.00000000000E+00  0.86321705398E+03  0.86321705398E+03  0.00000000000E+00 0. -1.
          1   -1    0    0  501    0 -0.00000000000E+00 -0.00000000000E+00 -0.19768476701E+03  0.19768476701E+03  0.00000000000E+00 0. -1.
         25    2    1    2    0    0 -0.43769547466E+02 -0.15314651795E+03  0.65689285077E+02  0.21286215134E+03  0.12500233619E+03 0.  0.
          2    1    1    2  501    0  0.56900806278E+01  0.17716080424E+03 -0.59643886991E+02  0.18701796928E+03  0.00000000000E+00 0. -1.
          1    1    1    2  502    0  0.38079466838E+02 -0.24014286286E+02  0.65948688888E+03  0.66102170036E+03  0.00000000000E+00 0. -1.
         22    1    3    3    0    0 -0.82384629564E+02 -0.11470181446E+03  0.21799746360E+02  0.14289493473E+03  0.00000000000E+00 0. -1.
         22    1    3    3    0    0  0.38615082099E+02 -0.38444703490E+02  0.43889538717E+02  0.69967216614E+02  0.00000000000E+00 0. -1.
</event>
<event>
 7    1  0.6017574E-006  0.6737748E+02  0.7818608E-02  0.1418650E+00
          2   -1    0    0  502    0  0.00000000000E+00  0.00000000000E+00  0.15009311675E+04  0.15009311675E+04  0.00000000000E+00 0. -1.
          1   -1    0    0  501    0 -0.00000000000E+00 -0.00000000000E+00 -0.62458722372E+02  0.62458722372E+02  0.00000000000E+00 0. -1.
         25    2    1    2    0    0 -0.58021491511E+02  0.51747807970E+02  0.76188935464E+03  0.77597997673E+03  0.12500082591E+03 0.  0.
          2    1    1    2  501    0  0.14858246132E+02 -0.65822130345E+02 -0.33874198375E+02  0.75503520692E+02  0.00000000000E+00 0. -1.
          1    1    1    2  502    0  0.43163245379E+02  0.14074322375E+02  0.71045728887E+03  0.71190639245E+03  0.00000000000E+00 0. -1.
         22    1    3    3    0    0 -0.44820742081E+02  0.55872524428E+02  0.17723309876E+03  0.19116016636E+03  0.00000000000E+00 0. -1.
         22    1    3    3    0    0 -0.13200749430E+02 -0.41247164582E+01  0.58465625588E+03  0.58481981038E+03  0.00000000000E+00 0. -1.
</event>
<event>
 7    1  0.6017574E-006  0.7123613E+02  0.7818608E-02  0.1436316E+00
          2   -1    0    0  502    0  0.00000000000E+00  0.00000000000E+00  0.64643351364E+03  0.64643351364E+03  0.00000000000E+00 0. -1.
          1   -1    0    0  501    0 -0.00000000000E+00 -0.00000000000E+00 -0.18092187385E+03  0.18092187385E+03  0.00000000000E+00 0. -1.
         25    2    1    2    0    0 -0.73270789260E+02  0.64751191014E+02  0.50241472782E+03  0.52688257341E+03  0.12499344839E+03 0.  0.
          2    1    1    2  501    0  0.35903387778E+02 -0.61154737052E+02 -0.15827086697E+03  0.17343189571E+03  0.00000000000E+00 0. -1.
          1    1    1    2  502    0  0.37367401483E+02 -0.35964539625E+01  0.12136777895E+03  0.12704091837E+03  0.00000000000E+00 0. -1.
         22    1    3    3    0    0  0.29447454242E+02  0.35929027100E+02  0.22313604404E+03  0.22792047231E+03  0.00000000000E+00 0.  1.
         22    1    3    3    0    0 -0.10271824350E+03  0.28822163915E+02  0.27927868378E+03  0.29896210110E+03  0.00000000000E+00 0.  1.
</event>
<event>
 7    1  0.6017574E-006  0.9161393E+02  0.7818608E-02  0.1442746E+00
          2   -1    0    0  502    0  0.00000000000E+00  0.00000000000E+00  0.84104927605E+03  0.84104927605E+03  0.00000000000E+00 0. -1.
          1   -1    0    0  501    0 -0.00000000000E+00 -0.00000000000E+00 -0.23676241699E+03  0.23676241699E+03  0.00000000000E+00 0. -1.
         25    2    1    2    0    0 -0.51611373066E+02  0.45227862025E+02  0.47084056841E+03  0.49195760031E+03  0.12498858474E+03 0.  0.
          2    1    1    2  501    0  0.56669003381E+02 -0.72584041591E+02 -0.21625667131E+03  0.23504630804E+03  0.00000000000E+00 0. -1.
          1    1    1    2  502    0 -0.50576303151E+01  0.27356179566E+02  0.34970296197E+03  0.35080778468E+03  0.00000000000E+00 0. -1.
         22    1    3    3    0    0 -0.60314250012E+02  0.68299458633E+02  0.19748845447E+03  0.21749555042E+03  0.00000000000E+00 0.  1.
         22    1    3    3    0    0  0.87028769465E+01 -0.23071596608E+02  0.27335211394E+03  0.27446204989E+03  0.00000000000E+00 0.  1.
</event>
<event>
 7    1  0.6017574E-006  0.9207929E+02  0.7818608E-02  0.1440804E+00
          2   -1    0    0  502    0  0.00000000000E+00  0.00000000000E+00  0.31784936887E+03  0.31784936887E+03  0.00000000000E+00 0. -1.
          1   -1    0    0  501    0 -0.00000000000E+00 -0.00000000000E+00 -0.17044026078E+04  0.17044026078E+04  0.00000000000E+00 0. -1.
         25    2    1    2    0    0 -0.22524447071E+02  0.62496459031E+02  0.19635047789E+03  0.24205695414E+03  0.12499960309E+03 0.  0.
          2    1    1    2  501    0  0.18694464213E+02 -0.90316809767E+02 -0.16782584877E+04  0.16807909331E+04  0.00000000000E+00 0. -1.
          1    1    1    2  502    0  0.38299828578E+01  0.27820350736E+02  0.95354770858E+02  0.99404089499E+02  0.00000000000E+00 0. -1.
         22    1    3    3    0    0  0.51043952645E+02  0.14439635145E+02  0.63029032687E+02  0.82381109037E+02  0.00000000000E+00 0. -1.
         22    1    3    3    0    0 -0.73568399716E+02  0.48056823886E+02  0.13332144520E+03  0.15967584510E+03  0.00000000000E+00 0. -1.
</event>
<event>
 7    1  0.6017574E-006  0.6009713E+02  0.7818608E-02  0.1546318E+00
          2   -1    0    0  502    0  0.00000000000E+00  0.00000000000E+00  0.12196269119E+04  0.12196269119E+04  0.00000000000E+00 0. -1.
          1   -1    0    0  501    0 -0.00000000000E+00 -0.00000000000E+00 -0.10869743776E+03  0.10869743776E+03  0.00000000000E+00 0. -1.
         25    2    1    2    0    0 -0.64570238266E+02 -0.32319309022E+02  0.24683711195E+03  0.28594130754E+03  0.12498007086E+03 0.  0.
          2    1    1    2  501    0  0.62992492668E+01  0.19703288889E+02 -0.86999184274E+02  0.89424595043E+02  0.00000000000E+00 0. -1.
          1    1    1    2  502    0  0.58270989000E+02  0.12616020133E+02  0.95109154647E+03  0.95295844709E+03  0.00000000000E+00 0. -1.
         22    1    3    3    0    0 -0.18811328462E+02 -0.65140362384E+02  0.20462052444E+03  0.21556134141E+03  0.00000000000E+00 0. -1.
         22    1    3    3    0    0 -0.45758909804E+02  0.32821053362E+02  0.42216587514E+02  0.70379966124E+02  0.00000000000E+00 0. -1.
</event>
<event>
 7    1  0.6017574E-006  0.1151850E+03  0.7818608E-02  0.1320384E+00
          2   -1    0    0  502    0  0.00000000000E+00  0.00000000000E+00  0.28309322182E+04  0.28309322182E+04  0.00000000000E+00 0. -1.
          1   -1    0    0  501    0 -0.00000000000E+00 -0.00000000000E+00 -0.17831651991E+03  0.17831651991E+03  0.00000000000E+00 0. -1.
         25    2    1    2    0    0  0.10982843104E+03 -0.12359733505E+03  0.19329083685E+03  0.28341730588E+03  0.12500174464E+03 0.  0.
          2    1    1    2  501    0 -0.87160891645E+02  0.68041519640E+02 -0.10990377368E+03  0.15590224148E+03  0.00000000000E+00 0. -1.
          1    1    1    2  502    0 -0.22667539393E+02  0.55555815412E+02  0.25692286351E+04  0.25699291907E+04  0.00000000000E+00 0. -1.
         22    1    3    3    0    0  0.35255664514E+02 -0.12537700673E+03  0.10138407684E+03  0.16504874048E+03  0.00000000000E+00 0.  1.
         22    1    3    3    0    0  0.74572766524E+02  0.17796716819E+01  0.91906760007E+02  0.11836856539E+03  0.00000000000E+00 0.  1.
</event>
<event>
 7    1  0.6017574E-006  0.5917517E+02  0.7818608E-02  0.1448380E+00
          2   -1    0    0  502    0  0.00000000000E+00  0.00000000000E+00  0.14960781362E+04  0.14960781362E+04  0.00000000000E+00 0. -1.
          1   -1    0    0  501    0 -0.00000000000E+00 -0.00000000000E+00 -0.45520387905E+03  0.45520387905E+03  0.00000000000E+00 0. -1.
         25    2    1    2    0    0 -0.49235279585E+02 -0.47385277485E+02  0.12942550210E+02  0.14304636768E+03  0.12500110569E+03 0.  0.
          2    1    1    2  501    0  0.58854564174E+02  0.72127863322E+01 -0.38759603477E+03  0.39210530496E+03  0.00000000000E+00 0. -1.
          1    1    1    2  502    0 -0.96192845890E+01  0.40172491153E+02  0.14155277417E+04  0.14161303426E+04  0.00000000000E+00 0. -1.
         22    1    3    3    0    0 -0.63737377294E+02  0.10608395322E+02 -0.28176535400E+02  0.70490484909E+02  0.00000000000E+00 0. -1.
         22    1    3    3    0    0  0.14502097708E+02 -0.57993672807E+02  0.41119085610E+02  0.72555882773E+02  0.00000000000E+00 0. -1.
</event>
<event>
 7    1  0.6017574E-006  0.5205137E+02  0.7818608E-02  0.1493717E+00
          2   -1    0    0  502    0  0.00000000000E+00  0.00000000000E+00  0.49294667345E+02  0.49294667345E+02  0.00000000000E+00 0. -1.
          1   -1    0    0  501    0 -0.00000000000E+00 -0.00000000000E+00 -0.49039265986E+03  0.49039265986E+03  0.00000000000E+00 0. -1.
         25    2    1    2    0    0  0.20630378214E+02  0.63380750171E+02 -0.23533449530E+03  0.27468158692E+03  0.12499967006E+03 0.  0.
          2    1    1    2  501    0 -0.37897006234E+02 -0.34145471139E+02 -0.22170389154E+03  0.22749661933E+03  0.00000000000E+00 0. -1.
          1    1    1    2  502    0  0.17266628021E+02 -0.29235279032E+02  0.15940394334E+02  0.37509120955E+02  0.00000000000E+00 0. -1.
         22    1    3    3    0    0 -0.93837326217E+01 -0.36016678082E+02 -0.51329560285E+02  0.63403306672E+02  0.00000000000E+00 0.  1.
         22    1    3    3    0    0  0.30014110835E+02  0.99397428253E+02 -0.18400493502E+03  0.21127828025E+03  0.00000000000E+00 0.  1.
</event>
<event>
 7    1  0.6017574E-006  0.4385086E+02  0.7818608E-02  0.1520643E+00
          2   -1    0    0  502    0  0.00000000000E+00  0.00000000000E+00  0.34037874052E+04  0.34037874052E+04  0.00000000000E+00 0. -1.
          1   -1    0    0  501    0 -0.00000000000E+00 -0.00000000000E+00 -0.17263672736E+03  0.17263672736E+03  0.00000000000E+00 0. -1.
         25    2    1    2    0    0 -0.72312075543E+02 -0.17952365493E+02  0.15184073064E+04  0.15253647981E+04  0.12500278111E+03 0.  0.
          2    1    1    2  501    0  0.30704093565E+02  0.13536714465E+02 -0.16725880750E+03  0.17059159618E+03  0.00000000000E+00 0. -1.
          1    1    1    2  502    0  0.41607981979E+02  0.44156510285E+01  0.18800021789E+04  0.18804677383E+04  0.00000000000E+00 0. -1.
         22    1    3    3    0    0  0.10572700027E+02  0.18749286481E+02  0.53673100368E+02  0.57828361835E+02  0.00000000000E+00 0.  1.
         22    1    3    3    0    0 -0.82884775570E+02 -0.36701651974E+02  0.14647342060E+04  0.14675364362E+04  0.00000000000E+00 0.  1.
</event>
<event>
 7    1  0.6017574E-006  0.6033215E+02  0.7818608E-02  0.1421943E+00
          2   -1    0    0  502    0  0.00000000000E+00  0.00000000000E+00  0.92081266274E+03  0.92081266274E+03  0.00000000000E+00 0. -1.
          1   -1    0    0  501    0 -0.00000000000E+00 -0.00000000000E+00 -0.23933272911E+03  0.23933272911E+03  0.00000000000E+00 0. -1.
         25    2    1    2    0    0  0.22463514823E+02  0.16908288908E+02  0.20732698197E+03  0.24372368153E+03  0.12500502292E+03 0.  0.
          2    1    1    2  501    0  0.40018121983E+02 -0.29022093965E+02 -0.21689093216E+03  0.22245316019E+03  0.00000000000E+00 0. -1.
          1    1    1    2  502    0 -0.62481636806E+02  0.12113805057E+02  0.69104388382E+03  0.69396855013E+03  0.00000000000E+00 0. -1.
         22    1    3    3    0    0 -0.18812677988E+02 -0.13347235459E+02  0.18738320690E+03  0.18879759473E+03  0.00000000000E+00 0. -1.
         22    1    3    3    0    0  0.41276192811E+02  0.30255524367E+02  0.19943775072E+02  0.54926086806E+02  0.00000000000E+00 0. -1.
</event>
<event>
 7    1  0.6017574E-006  0.1079637E+03  0.7818608E-02  0.1315917E+00
          2   -1    0    0  502    0  0.00000000000E+00  0.00000000000E+00  0.24694348644E+03  0.24694348644E+03  0.00000000000E+00 0. -1.
          1   -1    0    0  501    0 -0.00000000000E+00 -0.00000000000E+00 -0.93912233715E+03  0.93912233715E+03  0.00000000000E+00 0. -1.
         25    2    1    2    0    0  0.88780463951E+02  0.14604284898E+03 -0.16090334842E+02  0.21235154353E+03  0.12499517849E+03 0.  0.
          2    1    1    2  501    0 -0.45161084480E+02 -0.95675529859E+02 -0.81384352066E+03  0.82069154174E+03  0.00000000000E+00 0. -1.
          1    1    1    2  502    0 -0.43619379471E+02 -0.50367319121E+02  0.13775500479E+03  0.15302273833E+03  0.00000000000E+00 0. -1.
         22    1    3    3    0    0  0.74970532412E+02  0.16857517971E+03 -0.78198805366E+01  0.18466001862E+03  0.00000000000E+00 0.  1.
         22    1    3    3    0    0  0.13809931539E+02 -0.22532330732E+02 -0.82704543058E+01  0.27691524909E+02  0.00000000000E+00 0.  1.
</event>
<event>
 7    1  0.6017574E-006  0.7661606E+02  0.7818608E-02  0.1428915E+00
          2   -1    0    0  502    0  0.00000000000E+00  0.00000000000E+00  0.43255371018E+03  0.43255371018E+03  0.00000000000E+00 0. -1.
          1   -1    0    0  501    0 -0.00000000000E+00 -0.00000000000E+00 -0.61273961304E+03  0.61273961304E+03  0.00000000000E+00 0. -1.
         25    2    1    2    0    0 -0.10963151891E+03  0.28476174267E+02  0.33459880410E+03  0.37471874300E+03  0.12501125633E+03 0.  0.
          2    1    1    2  501    0  0.73852501559E+02 -0.19407350534E+02 -0.58568504452E+03  0.59064186155E+03  0.00000000000E+00 0. -1.
          1    1    1    2  502    0  0.35779017354E+02 -0.90688237331E+01  0.70900337561E+02  0.79932718664E+02  0.00000000000E+00 0. -1.
         22    1    3    3    0    0 -0.49527116364E+02  0.44887871894E+01  0.20112732690E+02  0.53643326538E+02  0.00000000000E+00 0.  1.
         22    1    3    3    0    0 -0.60104402549E+02  0.23987387078E+02  0.31448607141E+03  0.32107541646E+03  0.00000000000E+00 0.  1.
</event>
<event>
 7    1  0.6017574E-006  0.7601486E+02  0.7818608E-02  0.1361560E+00
          2   -1    0    0  502    0  0.00000000000E+00  0.00000000000E+00  0.12102747474E+04  0.12102747474E+04  0.00000000000E+00 0. -1.
          1   -1    0    0  501    0 -0.00000000000E+00 -0.00000000000E+00 -0.99781596087E+02  0.99781596087E+02  0.00000000000E+00 0. -1.
         25    2    1    2    0    0  0.18880319639E+02  0.36412164232E+02  0.21909544425E+02  0.13336781721E+03  0.12499853741E+03 0.  0.
          2    1    1    2  501    0 -0.45729230857E+02 -0.94147043567E+02  0.20432143639E+02  0.10664099053E+03  0.00000000000E+00 0. -1.
          1    1    1    2  502    0  0.26848911218E+02  0.57734879335E+02  0.10681514633E+04  0.10700475358E+04  0.00000000000E+00 0. -1.
         22    1    3    3    0    0  0.66516796246E+02  0.82314865879E+01 -0.12522316790E+02  0.68183942186E+02  0.00000000000E+00 0. -1.
         22    1    3    3    0    0 -0.47636476607E+02  0.28180677644E+02  0.34431861215E+02  0.65183875021E+02  0.00000000000E+00 0. -1.
</event>
<event>
 7    1  0.6017574E-006  0.6846811E+02  0.7818608E-02  0.1384624E+00
          2   -1    0    0  502    0  0.00000000000E+00  0.00000000000E+00  0.40592246519E+04  0.40592246519E+04  0.00000000000E+00 0. -1.
          1   -1    0    0  501    0 -0.00000000000E+00 -0.00000000000E+00 -0.63396133192E+03  0.63396133192E+03  0.00000000000E+00 0. -1.
         25    2    1    2    0    0  0.86677246850E+00 -0.88957510303E+02  0.61918287423E+03  0.63790814241E+03  0.12500070591E+03 0.  0.
          2    1    1    2  501    0  0.44473714645E+02  0.52062555501E+02 -0.62247223638E+03  0.62622688064E+03  0.00000000000E+00 0. -1.
          1    1    1    2  502    0 -0.45340487114E+02  0.36894954802E+02  0.34285526821E+04  0.34290509607E+04  0.00000000000E+00 0. -1.
         22    1    3    3    0    0 -0.89799814108E+01  0.12341473501E+02  0.61028549843E+01  0.16437666296E+02  0.00000000000E+00 0.  1.
         22    1    3    3    0    0  0.98467538793E+01 -0.10129898380E+03  0.61308001924E+03  0.62147047611E+03  0.00000000000E+00 0.  1.
</event>
<event>
 7    1  0.6017574E-006  0.6912693E+02  0.7818608E-02  0.1441507E+00
          2   -1    0    0  502    0  0.00000000000E+00  0.00000000000E+00  0.96272666542E+03  0.96272666542E+03  0.00000000000E+00 0. -1.
          1   -1    0    0  501    0 -0.00000000000E+00 -0.00000000000E+00 -0.70674589367E+03  0.70674589367E+03  0.00000000000E+00 0. -1.
         25    2    1    2    0    0  0.79257486438E+01  0.31294017323E+02  0.33874239259E+03  0.36250836807E+03  0.12499510139E+03 0.  0.
          2    1    1    2  501    0 -0.22214626948E+02 -0.65652665842E+02 -0.69256603125E+03  0.69602548073E+03  0.00000000000E+00 0. -1.
          1    1    1    2  502    0  0.14288878305E+02  0.34358648518E+02  0.60980441041E+03  0.61093871028E+03  0.00000000000E+00 0. -1.
         22    1    3    3    0    0  0.26595739035E+02  0.58589179719E+02  0.84931866768E+02  0.10655255655E+03  0.00000000000E+00 0.  1.
         22    1    3    3    0    0 -0.18669990391E+02 -0.27295162396E+02  0.25381052583E+03  0.25595581152E+03  0.00000000000E+00 0.  1.
</event>
<event>
 7    1  0.6017574E-006  0.1670092E+03  0.7818608E-02  0.1261710E+00
          2   -1    0    0  502    0  0.00000000000E+00  0.00000000000E+00  0.78384145026E+03  0.78384145026E+03  0.00000000000E+00 0. -1.
          1   -1    0    0  501    0 -0.00000000000E+00 -0.00000000000E+00 -0.12498144683E+03  0.12498144683E+03  0.00000000000E+00 0. -1.
         25    2    1    2    0    0 -0.33016485460E+02  0.11665776396E+03  0.66081284631E+02  0.18625547527E+03  0.12500097473E+03 0.  0.
          2    1    1    2  501    0 -0.64171493861E+02  0.31860951530E+02 -0.27992746043E+02  0.76920053873E+02  0.00000000000E+00 0. -1.
          1    1    1    2  502    0  0.97187979320E+02 -0.14851871549E+03  0.62077146484E+03  0.64564736795E+03  0.00000000000E+00 0. -1.
         22    1    3    3    0    0  0.36814228092E+02  0.46249179120E+01 -0.30631705851E+01  0.37229830375E+02  0.00000000000E+00 0.  1.
         22    1    3    3    0    0 -0.69830713551E+02  0.11203284605E+03  0.69144455216E+02  0.14902564490E+03  0.00000000000E+00 0.  1.
</event>
<event>
 7    1  0.6017574E-006  0.1103211E+03  0.7818608E-02  0.1313369E+00
          2   -1    0    0  502    0  0.00000000000E+00  0.00000000000E+00  0.31212562100E+04  0.31212562100E+04  0.00000000000E+00 0. -1.
          1   -1    0    0  501    0 -0.00000000000E+00 -0.00000000000E+00 -0.16640303651E+04  0.16640303651E+04  0.00000000000E+00 0. -1.
         25    2    1    2    0    0 -0.10190832742E+03 -0.11515741162E+03  0.13533761315E+03  0.23997401336E+03  0.12499888361E+03 0.  0.
          2    1    1    2  501    0  0.65700394565E+02  0.11618260578E+02 -0.16099956799E+04  0.16113775520E+04  0.00000000000E+00 0. -1.
          1    1    1    2  502    0  0.36207932859E+02  0.10353915105E+03  0.29318839116E+04  0.29339350097E+04  0.00000000000E+00 0. -1.
         22    1    3    3    0    0 -0.12371359872E+03 -0.88763798150E+02  0.73009515134E+02  0.16886223873E+03  0.00000000000E+00 0.  1.
         22    1    3    3    0    0  0.21805271293E+02 -0.26393613474E+02  0.62328098017E+02  0.71111774629E+02  0.00000000000E+00 0.  1.
</event>
<event>
 7    1  0.6017574E-006  0.6680727E+02  0.7818608E-02  0.1465458E+00
          2   -1    0    0  502    0  0.00000000000E+00  0.00000000000E+00  0.95574201049E+03  0.95574201049E+03  0.00000000000E+00 0. -1.
          1   -1    0    0  501    0 -0.00000000000E+00 -0.00000000000E+00 -0.19975075954E+04  0.19975075954E+04  0.00000000000E+00 0. -1.
         25    2    1    2    0    0 -0.13884797283E+02  0.87595574925E+02 -0.12885015359E+03  0.20023230036E+03  0.12499935874E+03 0.  0.
          2    1    1    2  501    0 -0.16066274557E+02 -0.28024060123E+02 -0.18316157276E+04  0.18319005559E+04  0.00000000000E+00 0. -1.
          1    1    1    2  502    0  0.29951071840E+02 -0.59571514802E+02  0.91870029627E+03  0.92111674963E+03  0.00000000000E+00 0. -1.
         22    1    3    3    0    0  0.19800433162E+02 -0.26298769627E+02 -0.16846152744E+02  0.36979390200E+02  0.00000000000E+00 0.  1.
         22    1    3    3    0    0 -0.33685230446E+02  0.11389434455E+03 -0.11200400084E+03  0.16325291016E+03  0.00000000000E+00 0.  1.
</event>
<event>
 7    1  0.6017574E-006  0.7909941E+02  0.7818608E-02  0.1349905E+00
          2   -1    0    0  502    0  0.00000000000E+00  0.00000000000E+00  0.59298104369E+03  0.59298104369E+03  0.00000000000E+00 0. -1.
          1   -1    0    0  501    0 -0.00000000000E+00 -0.00000000000E+00 -0.22506902867E+03  0.22506902867E+03  0.00000000000E+00 0. -1.
         25    2    1    2    0    0 -0.20628042396E+02 -0.10286622934E+03 -0.26866919907E+02  0.16539051263E+03  0.12500085205E+03 0.  0.
          2    1    1    2  501    0 -0.41134411780E+02  0.53553880096E+02 -0.11685167057E+03  0.13496062693E+03  0.00000000000E+00 0. -1.
          1    1    1    2  502    0  0.61762454176E+02  0.49312349240E+02  0.51163060550E+03  0.51769893279E+03  0.00000000000E+00 0. -1.
         22    1    3    3    0    0  0.38719392280E+01 -0.12742002650E+03 -0.13397995400E+02  0.12818097108E+03  0.00000000000E+00 0. -1.
         22    1    3    3    0    0 -0.24499981624E+02  0.24553797166E+02 -0.13468924507E+02  0.37209541548E+02  0.00000000000E+00 0. -1.
</event>
<event>
 7    1  0.6017574E-006  0.1425234E+03  0.7818608E-02  0.1229102E+00
          2   -1    0    0  502    0  0.00000000000E+00  0.00000000000E+00  0.87163159203E+02  0.87163159203E+02  0.00000000000E+00 0. -1.
          1   -1    0    0  501    0 -0.00000000000E+00 -0.00000000000E+00 -0.13558313905E+04  0.13558313905E+04  0.00000000000E+00 0. -1.
         25    2    1    2    0    0 -0.10784524135E+03 -0.12697676197E+03 -0.32437267570E+03  0.38548185721E+03  0.12499974133E+03 0.  0.
          2    1    1    2  501    0 -0.36847622257E+02  0.11059573465E+03 -0.89680111055E+03  0.90434583853E+03  0.00000000000E+00 0. -1.
          1    1    1    2  502    0  0.14469286361E+03  0.16381027318E+02 -0.47494445011E+02  0.15316685393E+03  0.00000000000E+00 0. -1.
         22    1    3    3    0    0 -0.10684298920E+03 -0.73060327127E+02 -0.29914610203E+03  0.32594727503E+03  0.00000000000E+00 0. -1.
         22    1    3    3    0    0 -0.10022521491E+01 -0.53916434844E+02 -0.25226573670E+02  0.59534582175E+02  0.00000000000E+00 0. -1.
</event>
<event>
 7    1  0.6017574E-006  0.5576754E+02  0.7818608E-02  0.1530970E+00
          2   -1    0    0  502    0  0.00000000000E+00  0.00000000000E+00  0.93575325737E+03  0.93575325737E+03  0.00000000000E+00 0. -1.
          1   -1    0    0  501    0 -0.00000000000E+00 -0.00000000000E+00 -0.14305350185E+04  0.14305350185E+04  0.00000000000E+00 0. -1.
         25    2    1    2    0    0  0.23073223529E+02 -0.29384376215E+02  0.41537914888E+02  0.13692114794E+03  0.12500474859E+03 0.  0.
          2    1    1    2  501    0 -0.16980470351E+02  0.53257447745E+02 -0.13820990296E+04  0.13832289831E+04  0.00000000000E+00 0. -1.
          1    1    1    2  502    0 -0.60927531785E+01 -0.23873071530E+02  0.84577935358E+03  0.84613814482E+03  0.00000000000E+00 0. -1.
         22    1    3    3    0    0  0.22756485306E+01 -0.51457017733E+01  0.83777443383E+02  0.83966164868E+02  0.00000000000E+00 0. -1.
         22    1    3    3    0    0  0.20797574999E+02 -0.24238674442E+02 -0.42239528495E+02  0.52954983071E+02  0.00000000000E+00 0. -1.
</event>
<event>
 7    1  0.6017574E-006  0.5873461E+02  0.7818608E-02  0.1413437E+00
          2   -1    0    0  502    0  0.00000000000E+00  0.00000000000E+00  0.23806526204E+03  0.23806526204E+03  0.00000000000E+00 0. -1.
          1   -1    0    0  501    0 -0.00000000000E+00 -0.00000000000E+00 -0.80050454579E+03  0.80050454579E+03  0.00000000000E+00 0. -1.
         25    2    1    2    0    0  0.53150005379E+02 -0.42674421536E+02 -0.14732587491E+03  0.20487715659E+03  0.12499482609E+03 0.  0.
          2    1    1    2  501    0 -0.58320715199E+02 -0.11301946345E+02 -0.61944590769E+03  0.62228793365E+03  0.00000000000E+00 0. -1.
          1    1    1    2  502    0  0.51707098194E+01  0.53976367881E+02  0.20433249886E+03  0.21140471759E+03  0.00000000000E+00 0. -1.
         22    1    3    3    0    0 -0.42208164668E+01 -0.75925907762E+02 -0.80334724131E+02  0.11061747901E+03  0.00000000000E+00 0. -1.
         22    1    3    3    0    0  0.57370821846E+02  0.33251486226E+02 -0.66991150780E+02  0.94259677585E+02  0.00000000000E+00 0. -1.
</event>
<event>
 7    1  0.6017574E-006  0.6682934E+02  0.7818608E-02  0.1373440E+00
          2   -1    0    0  502    0  0.00000000000E+00  0.00000000000E+00  0.16952399707E+04  0.16952399707E+04  0.00000000000E+00 0. -1.
          1   -1    0    0  501    0 -0.00000000000E+00 -0.00000000000E+00 -0.15765827169E+02  0.15765827169E+02  0.00000000000E+00 0. -1.
         25    2    1    2    0    0 -0.59712158439E+02  0.97469235691E+01  0.10951767997E+04  0.11039466472E+04  0.12500173146E+03 0.  0.
          2    1    1    2  501    0  0.86826618832E+01  0.66262905133E+02  0.33213828293E+03  0.33879492352E+03  0.00000000000E+00 0. -1.
          1    1    1    2  502    0  0.51029496556E+02 -0.76009828702E+02  0.25215906095E+03  0.26826422720E+03  0.00000000000E+00 0. -1.
         22    1    3    3    0    0 -0.86419905725E+02 -0.29573622855E+02  0.71865815970E+03  0.72443947282E+03  0.00000000000E+00 0. -1.
         22    1    3    3    0    0  0.26707747286E+02  0.39320546424E+02  0.37651863999E+03  0.37950717437E+03  0.00000000000E+00 0. -1.
</event>
<event>
 7    1  0.6017574E-006  0.1288996E+03  0.7818608E-02  0.1265761E+00
          2   -1    0    0  502    0  0.00000000000E+00  0.00000000000E+00  0.83479315705E+03  0.83479315705E+03  0.00000000000E+00 0. -1.
          1   -1    0    0  501    0 -0.00000000000E+00 -0.00000000000E+00 -0.15327447530E+04  0.15327447530E+04  0.00000000000E+00 0. -1.
         25    2    1    2    0    0  0.26746807955E+02 -0.18163304564E+03 -0.95258930790E+02  0.24167183003E+03  0.12500021812E+03 0.  0.
          2    1    1    2  501    0 -0.65976279539E+02  0.60070245080E+02 -0.13574483303E+04  0.13603776216E+04  0.00000000000E+00 0. -1.
          1    1    1    2  502    0  0.39229471584E+02  0.12156280056E+03  0.75475566515E+03  0.76548845844E+03  0.00000000000E+00 0. -1.
         22    1    3    3    0    0  0.53734034301E+02 -0.16254004503E+03 -0.37698100208E+02  0.17529335253E+03  0.00000000000E+00 0.  1.
         22    1    3    3    0    0 -0.26987226346E+02 -0.19093000612E+02 -0.57560830582E+02  0.66378477502E+02  0.00000000000E+00 0.  1.
</event>
<event>
 7    1  0.6017574E-006  0.4468584E+02  0.7818608E-02  0.1487842E+00
          2   -1    0    0  502    0  0.00000000000E+00  0.00000000000E+00  0.14288510039E+02  0.14288510039E+02  0.00000000000E+00 0. -1.
          1   -1    0    0  501    0 -0.00000000000E+00 -0.00000000000E+00 -0.10754878827E+04  0.10754878827E+04  0.00000000000E+00 0. -1.
         25    2    1    2    0    0  0.62827579363E+00 -0.74241872966E+01 -0.49701389447E+03  0.51254598494E+03  0.12500024839E+03 0.  0.
          2    1    1    2  501    0  0.39191261301E+02 -0.21467866830E+02 -0.45830618402E+03  0.46047951375E+03  0.00000000000E+00 0. -1.
          1    1    1    2  502    0 -0.39819537094E+02  0.28892054127E+02 -0.10587929412E+03  0.11675089400E+03  0.00000000000E+00 0. -1.
         22    1    3    3    0    0 -0.15284949802E+02 -0.26429413353E+02 -0.48321058420E+03  0.48417415489E+03  0.00000000000E+00 0. -1.
         22    1    3    3    0    0  0.15913225596E+02  0.19005226057E+02 -0.13803310274E+02  0.28371830058E+02  0.00000000000E+00 0. -1.
</event>
<event>
 7    1  0.6017574E-006  0.1467983E+03  0.7818608E-02  0.1280471E+00
          2   -1    0    0  502    0  0.00000000000E+00  0.00000000000E+00  0.40651811379E+04  0.40651811379E+04  0.00000000000E+00 0. -1.
          1   -1    0    0  501    0 -0.00000000000E+00 -0.00000000000E+00 -0.67194044521E+03  0.67194044521E+03  0.00000000000E+00 0. -1.
         25    2    1    2    0    0 -0.18177268006E+03  0.56544553789E+01 -0.19261419528E+03  0.29291696266E+03  0.12500735462E+03 0.  0.
          2    1    1    2  501    0  0.46080522596E+02  0.50015684843E+02 -0.42513197272E+03  0.43053708031E+03  0.00000000000E+00 0. -1.
          1    1    1    2  502    0  0.13569215747E+03 -0.55670140222E+02  0.40109868607E+04  0.40136675401E+04  0.00000000000E+00 0. -1.
         22    1    3    3    0    0 -0.59209934138E+02  0.36218872326E+02 -0.89149877889E+01  0.69979282795E+02  0.00000000000E+00 0. -1.
         22    1    3    3    0    0 -0.12256274592E+03 -0.30564416947E+02 -0.18369920749E+03  0.22293767987E+03  0.00000000000E+00 0. -1.
</event>
<event>
 7    1  0.6017574E-006  0.5293268E+02  0.7818608E-02  0.1509172E+00
          2   -1    0    0  502    0  0.00000000000E+00  0.00000000000E+00  0.87021027546E+03  0.87021027546E+03  0.00000000000E+00 0. -1.
          1   -1    0    0  501    0 -0.00000000000E+00 -0.00000000000E+00 -0.10413622496E+03  0.10413622496E+03  0.00000000000E+00 0. -1.
         25    2    1    2    0    0 -0.35065539230E+02  0.42793098204E+02  0.59238085530E+02  0.14897723252E+03  0.12499689491E+03 0.  0.
          2    1    1    2  501    0  0.28373677590E+02  0.98371250536E+01 -0.54479141500E+02  0.62207808737E+02  0.00000000000E+00 0. -1.
          1    1    1    2  502    0  0.66918616396E+01 -0.52630223258E+02  0.76131510647E+03  0.76316145916E+03  0.00000000000E+00 0. -1.
         22    1    3    3    0    0 -0.62985804078E+02  0.27922397137E+02 -0.13002897380E+02  0.70113815454E+02  0.00000000000E+00 0. -1.
         22    1    3    3    0    0  0.27920264848E+02  0.14870701067E+02  0.72240982910E+02  0.78863417065E+02  0.00000000000E+00 0. -1.
</event>
<event>
 7    1  0.6017574E-006  0.5891377E+02  0.7818608E-02  0.1448834E+00
          2   -1    0    0  502    0  0.00000000000E+00  0.00000000000E+00  0.26520584720E+03  0.26520584720E+03  0.00000000000E+00 0. -1.
          1   -1    0    0  501    0 -0.00000000000E+00 -0.00000000000E+00 -0.27963400072E+03  0.27963400072E+03  0.00000000000E+00 0. -1.
         25    2    1    2    0    0  0.16012144857E+02  0.20484504034E+02 -0.10446282232E+03  0.16496607462E+03  0.12500128336E+03 0.  0.
          2    1    1    2  501    0 -0.12532588792E+02  0.39407767651E+02 -0.13800870107E+03  0.14407095302E+03  0.00000000000E+00 0. -1.
          1    1    1    2  502    0 -0.34795560647E+01 -0.59892271685E+02  0.22804336986E+03  0.23580282029E+03  0.00000000000E+00 0. -1.
         22    1    3    3    0    0 -0.86287995526E+01  0.96684126596E+01 -0.12833838718E+03  0.12899099197E+03  0.00000000000E+00 0.  1.
         22    1    3    3    0    0  0.24640944409E+02  0.10816091374E+02  0.23875564865E+02  0.35975082650E+02  0.00000000000E+00 0.  1.
</event>
<event>
 7    1  0.6017574E-006  0.1042950E+03  0.7818608E-02  0.1355196E+00
          2   -1    0    0  502    0  0.00000000000E+00  0.00000000000E+00  0.11535102932E+04  0.11535102932E+04  0.00000000000E+00 0. -1.
          1   -1    0    0  501    0 -0.00000000000E+00 -0.00000000000E+00 -0.77906105064E+02  0.77906105064E+02  0.00000000000E+00 0. -1.
         25    2    1    2    0    0 -0.59177369055E+02  0.70392693745E+02  0.63822403116E+03  0.65681966475E+03  0.12500026287E+03 0.  0.
          2    1    1    2  501    0  0.97760667261E+02 -0.40247669788E+02 -0.25809577655E+02  0.10882627112E+03  0.00000000000E+00 0. -1.
          1    1    1    2  502    0 -0.38583298206E+02 -0.30145023957E+02  0.46318973467E+03  0.46577046243E+03  0.00000000000E+00 0. -1.
         22    1    3    3    0    0 -0.68042227014E+02  0.45180762845E+02  0.17826997974E+03  0.19608985610E+03  0.00000000000E+00 0. -1.
         22    1    3    3    0    0  0.88648579590E+01  0.25211930900E+02  0.45995405142E+03  0.46072980865E+03  0.00000000000E+00 0. -1.
</event>
<event>
 7    1  0.6017574E-006  0.5737448E+02  0.7818608E-02  0.1433606E+00
          2   -1    0    0  502    0  0.00000000000E+00  0.00000000000E+00  0.10638649358E+03  0.10638649358E+03  0.00000000000E+00 0. -1.
          1   -1    0    0  501    0 -0.00000000000E+00 -0.00000000000E+00 -0.11070043132E+04  0.11070043132E+04  0.00000000000E+00 0. -1.
         25    2    1    2    0    0  0.61391990243E+02 -0.49108494934E+02 -0.41238112753E+03  0.43802241515E+03  0.12499928436E+03 0.  0.
          2    1    1    2  501    0 -0.14176509021E+02  0.54908434850E+02 -0.67448839121E+03  0.67686815518E+03  0.00000000000E+00 0. -1.
          1    1    1    2  502    0 -0.47215481222E+02 -0.57999399164E+01  0.86251699144E+02  0.98500236423E+02  0.00000000000E+00 0. -1.
         22    1    3    3    0    0 -0.52459444899E+01 -0.75057918693E+02 -0.18704967503E+03  0.20161545581E+03  0.00000000000E+00 0. -1.
         22    1    3    3    0    0  0.66637934733E+02  0.25949423759E+02 -0.22533145250E+03  0.23640695934E+03  0.00000000000E+00 0. -1.
</event>
<event>
 7    1  0.6017574E-006  0.5639081E+02  0.7818608E-02  0.1464271E+00
          2   -1    0    0  502    0  0.00000000000E+00  0.00000000000E+00  0.13858894304E+04  0.13858894304E+04  0.00000000000E+00 0. -1.
          1   -1    0    0  501    0 -0.00000000000E+00 -0.00000000000E+00 -0.54521943097E+03  0.54521943097E+03  0.00000000000E+00 0. -1.
         25    2    1    2    0    0  0.11977392077E+02  0.78603063303E+02  0.64214705324E+03  0.65901406771E+03  0.12499921588E+03 0.  0.
          2    1    1    2  501    0 -0.27992924822E+02 -0.26575749675E+02 -0.53508226266E+03  0.53647264807E+03  0.00000000000E+00 0. -1.
          1    1    1    2  502    0  0.16015532745E+02 -0.52027313628E+02  0.73360520889E+03  0.73562214565E+03  0.00000000000E+00 0. -1.
         22    1    3    3    0    0 -0.34866469645E+01 -0.15018880761E+02  0.37844358212E+03  0.37875753238E+03  0.00000000000E+00 0.  1.
         22    1    3    3    0    0  0.15464039042E+02  0.93621944064E+02  0.26370347112E+03  0.28025653533E+03  0.00000000000E+00 0.  1.
</event>
<event>
 7    1  0.6017574E-006  0.4950440E+02  0.7818608E-02  0.1514972E+00
          2   -1    0    0  502    0  0.00000000000E+00  0.00000000000E+00  0.73639578936E+03  0.73639578936E+03  0.00000000000E+00 0. -1.
          1   -1    0    0  501    0 -0.00000000000E+00 -0.00000000000E+00 -0.53121490706E+03  0.53121490706E+03  0.00000000000E+00 0. -1.
         25    2    1    2    0    0 -0.71509575704E+02 -0.33428385293E+02  0.17392578641E+03  0.22825991337E+03  0.12498532919E+03 0.  0.
          2    1    1    2  501    0  0.47176997052E+02  0.14422121457E+02 -0.50239348461E+03  0.50480974635E+03  0.00000000000E+00 0. -1.
          1    1    1    2  502    0  0.24332578652E+02  0.19006263836E+02  0.53364858049E+03  0.53454103669E+03  0.00000000000E+00 0. -1.
         22    1    3    3    0    0  0.21975825171E+02 -0.75187430282E+01  0.10919291291E+03  0.11163583931E+03  0.00000000000E+00 0. -1.
         22    1    3    3    0    0 -0.93485400875E+02 -0.25909642265E+02  0.64732873503E+02  0.11662407406E+03  0.00000000000E+00 0. -1.
</event>
<event>
 7    1  0.6017574E-006  0.1733184E+03  0.7818608E-02  0.1228794E+00
          2   -1    0    0  502    0  0.00000000000E+00  0.00000000000E+00  0.13515838830E+03  0.13515838830E+03  0.00000000000E+00 0. -1.
          1   -1    0    0  501    0 -0.00000000000E+00 -0.00000000000E+00 -0.21424673074E+04  0.21424673074E+04  0.00000000000E+00 0. -1.
         25    2    1    2    0    0  0.47431752688E+02  0.80548903229E+02 -0.26373312634E+02  0.15828841168E+03  0.12498709005E+03 0.  0.
          2    1    1    2  501    0 -0.32202337097E+02 -0.17550154569E+03 -0.20107531367E+04  0.20186544924E+04  0.00000000000E+00 0. -1.
          1    1    1    2  502    0 -0.15229415591E+02  0.94952642462E+02  0.29817530247E+02  0.10068279158E+03  0.00000000000E+00 0. -1.
         22    1    3    3    0    0 -0.23472103950E+02  0.17394614430E+01 -0.44877310681E+02  0.50674830082E+02  0.00000000000E+00 0.  1.
         22    1    3    3    0    0  0.70903856637E+02  0.78809441786E+02  0.18503998047E+02  0.10761358160E+03  0.00000000000E+00 0.  1.
</event>
<event>
 7    1  0.6017574E-006  0.4847623E+02  0.7818608E-02  0.1509935E+00
          2   -1    0    0  502    0  0.00000000000E+00  0.00000000000E+00  0.20519622324E+03  0.20519622324E+03  0.00000000000E+00 0. -1.
          1   -1    0    0  501    0 -0.00000000000E+00 -0.00000000000E+00 -0.88821411466E+03  0.88821411466E+03  0.00000000000E+00 0. -1.
         25    2    1    2    0    0  0.57300251073E+02  0.74981516825E+01 -0.41265901353E+03  0.43503053197E+03  0.12499824497E+03 0.  0.
          2    1    1    2  501    0 -0.14065515452E+02 -0.29434026502E+02 -0.46075487677E+03  0.46190827781E+03  0.00000000000E+00 0. -1.
          1    1    1    2  502    0 -0.43234735620E+02  0.21935874820E+02  0.19039599889E+03  0.19647152812E+03  0.00000000000E+00 0. -1.
         22    1    3    3    0    0 -0.11807826009E+02 -0.36055502610E+02 -0.25155647171E+03  0.25440141997E+03  0.00000000000E+00 0.  1.
         22    1    3    3    0    0  0.69108077082E+02  0.43553654293E+02 -0.16110254182E+03  0.18062911200E+03  0.00000000000E+00 0.  1.
</event>
<event>
 7    1  0.6017574E-006  0.3870824E+02  0.7818608E-02  0.1524694E+00
          2   -1    0    0  502    0  0.00000000000E+00  0.00000000000E+00  0.80819990740E+03  0.80819990740E+03  0.00000000000E+00 0. -1.
          1   -1    0    0  501    0 -0.00000000000E+00 -0.00000000000E+00 -0.55475330972E+02  0.55475330972E+02  0.00000000000E+00 0. -1.
         25    2    1    2    0    0  0.16958378362E+02 -0.12925619310E+02  0.13461302075E+03  0.18493189604E+03  0.12499793033E+03 0.  0.
          2    1    1    2  501    0 -0.32367006450E+02 -0.22583562277E+02 -0.16626455816E+02  0.42826153512E+02  0.00000000000E+00 0. -1.
          1    1    1    2  502    0  0.15408628088E+02  0.35509181587E+02  0.63473801149E+03  0.63591718881E+03  0.00000000000E+00 0. -1.
         22    1    3    3    0    0 -0.12403916109E+02 -0.65070391321E+02  0.60869073585E+02  0.89961419957E+02  0.00000000000E+00 0. -1.
         22    1    3    3    0    0  0.29362294471E+02  0.52144772011E+02  0.73743947164E+02  0.94970476086E+02  0.00000000000E+00 0. -1.
</event>
<event>
 7    1  0.6017574E-006  0.1466962E+03  0.7818608E-02  0.1333234E+00
          2   -1    0    0  502    0  0.00000000000E+00  0.00000000000E+00  0.10998626792E+04  0.10998626792E+04  0.00000000000E+00 0. -1.
          1   -1    0    0  501    0 -0.00000000000E+00 -0.00000000000E+00 -0.29076441670E+04  0.29076441670E+04  0.00000000000E+00 0. -1.
         25    2    1    2    0    0 -0.13030837463E+03  0.81301145209E+02 -0.20708768291E+03  0.28653182425E+03  0.12500011673E+03 0.  0.
          2    1    1    2  501    0 -0.10629425547E+02 -0.40688693352E+02 -0.26555940250E+04  0.26559269907E+04  0.00000000000E+00 0. -1.
          1    1    1    2  502    0  0.14093780017E+03 -0.40612451857E+02  0.10549002200E+04  0.10650480313E+04  0.00000000000E+00 0. -1.
         22    1    3    3    0    0 -0.15091530365E+03  0.70159051821E+02 -0.20341081672E+03  0.26281872420E+03  0.00000000000E+00 0. -1.
         22    1    3    3    0    0  0.20606929026E+02  0.11142093388E+02 -0.36768661893E+01  0.23713100049E+02  0.00000000000E+00 0. -1.
</event>
<event>
 7    1  0.6017574E-006  0.9087039E+02  0.7818608E-02  0.1359200E+00
          2   -1    0    0  502    0  0.00000000000E+00  0.00000000000E+00  0.13117926458E+04  0.13117926458E+04  0.00000000000E+00 0. -1.
          1   -1    0    0  501    0 -0.00000000000E+00 -0.00000000000E+00 -0.12000493235E+03  0.12000493235E+03  0.00000000000E+00 0. -1.
         25    2    1    2    0    0 -0.84027322721E+02 -0.77117621635E+02  0.30701734476E+03  0.35055981332E+03  0.12499925682E+03 0.  0.
          2    1    1    2  501    0  0.87226899772E+02  0.22882683602E+02 -0.76607970638E+02  0.11832552733E+03  0.00000000000E+00 0. -1.
          1    1    1    2  502    0 -0.31995770509E+01  0.54234938033E+02  0.96137833936E+03  0.96291223753E+03  0.00000000000E+00 0. -1.
         22    1    3    3    0    0  0.11421008008E+02  0.20641453565E+02  0.98366675459E+02  0.10115587907E+03  0.00000000000E+00 0. -1.
         22    1    3    3    0    0 -0.95448330729E+02 -0.97759075200E+02  0.20865066930E+03  0.24940393425E+03  0.00000000000E+00 0. -1.
</event>
<event>
 7    1  0.7209637E-006  0.1541959E+03  0.7818608E-02  0.1283649E+00
          2   -1    0    0  502    0  0.00000000000E+00  0.00000000000E+00  0.28584443559E+04  0.28584443559E+04  0.00000000000E+00 0. -1.
          1   -1    0    0  501    0 -0.00000000000E+00 -0.00000000000E+00 -0.80257581496E+03  0.80257581496E+03  0.00000000000E+00 0. -1.
         25    2    1    2    0    0  0.12533825833E+03  0.11869002981E+03 -0.19675988373E+03  0.29006521190E+03  0.12500549239E+03 0.  0.
          2    1    1    2  501    0 -0.65371814243E+02 -0.13741576604E+03 -0.54845132207E+03  0.56917081753E+03  0.00000000000E+00 0. -1.
          1    1    1    2  502    0 -0.59966444090E+02  0.18725736230E+02  0.28010797467E+04  0.28017841414E+04  0.00000000000E+00 0. -1.
         22    1    3    3    0    0  0.16669492869E+02  0.60877019723E+02 -0.14189701819E+03  0.15530179424E+03  0.00000000000E+00 0. -1.
         22    1    3    3    0    0  0.10866876546E+03  0.57813010083E+02 -0.54862865540E+02  0.13476341765E+03  0.00000000000E+00 0. -1.
</event>
<event>
 7    1  0.6017574E-006  0.1413029E+03  0.7818608E-02  0.1410253E+00
          2   -1    0    0  502    0  0.00000000000E+00  0.00000000000E+00  0.13239383117E+04  0.13239383117E+04  0.00000000000E+00 0. -1.
          1   -1    0    0  501    0 -0.00000000000E+00 -0.00000000000E+00 -0.21454651443E+03  0.21454651443E+03  0.00000000000E+00 0. -1.
         25    2    1    2    0    0 -0.56588533556E+02 -0.14776300271E+03  0.95532248134E+02  0.22313031565E+03  0.12499824089E+03 0.  0.
          2    1    1    2  501    0  0.58976471631E+02  0.12478263266E+03 -0.11901420003E+03  0.18224519041E+03  0.00000000000E+00 0. -1.
          1    1    1    2  502    0 -0.23879380749E+01  0.22980370057E+02  0.11328737492E+04  0.11331093201E+04  0.00000000000E+00 0. -1.
         22    1    3    3    0    0 -0.26895402383E+02 -0.13145464559E+03  0.14080623446E+02  0.13491460438E+03  0.00000000000E+00 0.  1.
         22    1    3    3    0    0 -0.29693131173E+02 -0.16308357121E+02  0.81451624687E+02  0.88215711271E+02  0.00000000000E+00 0.  1.
</event>
<event>
 7    1  0.6017574E-006  0.8578474E+02  0.7818608E-02  0.1338011E+00
          2   -1    0    0  502    0  0.00000000000E+00  0.00000000000E+00  0.26530775001E+04  0.26530775001E+04  0.00000000000E+00 0. -1.
          1   -1    0    0  501    0 -0.00000000000E+00 -0.00000000000E+00 -0.10870130718E+03  0.10870130718E+03  0.00000000000E+00 0. -1.
         25    2    1    2    0    0 -0.11008903276E+03  0.96846823963E+02  0.35873271402E+03  0.40720186714E+03  0.12500119216E+03 0.  0.
          2    1    1    2  501    0  0.34866710986E+02 -0.59519762427E+02 -0.69470416377E+02  0.97900094003E+02  0.00000000000E+00 0. -1.
          1    1    1    2  502    0  0.75222321774E+02 -0.37327061536E+02  0.22551138952E+04  0.22566768461E+04  0.00000000000E+00 0. -1.
         22    1    3    3    0    0 -0.22470053254E+02  0.94471265397E+02  0.13010789079E+03  0.16235081314E+03  0.00000000000E+00 0. -1.
         22    1    3    3    0    0 -0.87618979507E+02  0.23755585660E+01  0.22862482323E+03  0.24485105400E+03  0.00000000000E+00 0. -1.
</event>
<event>
 7    1  0.6017574E-006  0.2739619E+02  0.7818608E-02  0.1642369E+00
          2   -1    0    0  502    0  0.00000000000E+00  0.00000000000E+00  0.21751502693E+04  0.21751502693E+04  0.00000000000E+00 0. -1.
          1   -1    0    0  501    0 -0.00000000000E+00 -0.00000000000E+00 -0.19780297868E+03  0.19780297868E+03  0.00000000000E+00 0. -1.
         25    2    1    2    0    0 -0.11553785291E+02 -0.17652152314E+02  0.15624657323E+03  0.20120257042E+03  0.12499757703E+03 0.  0.
          2    1    1    2  501    0 -0.15831967497E+02  0.19784083731E+02 -0.17431442832E+03  0.17614647622E+03  0.00000000000E+00 0. -1.
          1    1    1    2  502    0  0.27385752788E+02 -0.21319314167E+01  0.19954151457E+04  0.19956042014E+04  0.00000000000E+00 0. -1.
         22    1    3    3    0    0 -0.34361801986E+02 -0.16591543599E+01 -0.74111159028E+01  0.35191062329E+02  0.00000000000E+00 0.  1.
         22    1    3    3    0    0  0.22808016695E+02 -0.15992997954E+02  0.16365768913E+03  0.16601150809E+03  0.00000000000E+00 0.  1.
</event>
<event>
 7    1  0.6017574E-006  0.7954750E+02  0.7818608E-02  0.1335912E+00
          2   -1    0    0  502    0  0.00000000000E+00  0.00000000000E+00  0.83925068222E+03  0.83925068222E+03  0.00000000000E+00 0. -1.
          1   -1    0    0  501    0 -0.00000000000E+00 -0.00000000000E+00 -0.43998637207E+03  0.43998637207E+03  0.00000000000E+00 0. -1.
         25    2    1    2    0    0 -0.19334522964E+02 -0.48618762320E+02  0.15720971459E+03  0.20754988260E+03  0.12499780629E+03 0.  0.
          2    1    1    2  501    0  0.80685188153E+02  0.41690967323E+01 -0.40866366702E+03  0.41657349135E+03  0.00000000000E+00 0. -1.
          1    1    1    2  502    0 -0.61350665189E+02  0.44449665587E+02  0.65071826259E+03  0.65511368033E+03  0.00000000000E+00 0. -1.
         22    1    3    3    0    0  0.22876025752E+02 -0.53094543576E+02  0.15837938326E+02  0.59943168102E+02  0.00000000000E+00 0.  1.
         22    1    3    3    0    0 -0.42210548717E+02  0.44757812563E+01  0.14137177626E+03  0.14760671449E+03  0.00000000000E+00 0.  1.
</event>
<event>
 7    1  0.6017574E-006  0.1890289E+03  0.7818608E-02  0.1183056E+00
          2   -1    0    0  502    0  0.00000000000E+00  0.00000000000E+00  0.12486126497E+04  0.12486126497E+04  0.00000000000E+00 0. -1.
          1   -1    0    0  501    0 -0.00000000000E+00 -0.00000000000E+00 -0.11444327109E+04  0.11444327109E+04  0.00000000000E+00 0. -1.
         25    2    1    2    0    0 -0.61311216701E+02  0.11160649089E+03 -0.32708391915E+03  0.37259042984E+03  0.12499865655E+03 0.  0.
          2    1    1    2  501    0  0.17391673571E+02 -0.24895540493E+03 -0.77058350308E+03  0.80998777718E+03  0.00000000000E+00 0. -1.
          1    1    1    2  502    0  0.43919543131E+02  0.13734891404E+03  0.12018473611E+04  0.12104671536E+04  0.00000000000E+00 0. -1.
         22    1    3    3    0    0 -0.89211039322E+02  0.75947312583E+02 -0.15294855207E+03  0.19266515878E+03  0.00000000000E+00 0.  1.
         22    1    3    3    0    0  0.27899822620E+02  0.35659178304E+02 -0.17413536708E+03  0.17992527107E+03  0.00000000000E+00 0.  1.
</event>
<event>
 7    1  0.6017574E-006  0.5388856E+02  0.7818608E-02  0.1438685E+00
          2   -1    0    0  502    0  0.00000000000E+00  0.00000000000E+00  0.34735542391E+04  0.34735542391E+04  0.00000000000E+00 0. -1.
          1   -1    0    0  501    0 -0.00000000000E+00 -0.00000000000E+00 -0.10820955044E+02  0.10820955044E+02  0.00000000000E+00 0. -1.
         25    2    1    2    0    0  0.60025758434E+02 -0.22100266413E+02  0.26624376035E+04  0.26661384855E+04  0.12501567018E+03 0.  0.
          2    1    1    2  501    0 -0.48049633896E+02 -0.25156939195E+02  0.82155656326E+02  0.98443845789E+02  0.00000000000E+00 0. -1.
          1    1    1    2  502    0 -0.11976124538E+02  0.47257205608E+02  0.71814002427E+03  0.71979286292E+03  0.00000000000E+00 0. -1.
         22    1    3    3    0    0  0.29576805763E+02 -0.33865153355E+02  0.25024915367E+04  0.25028954287E+04  0.00000000000E+00 0.  1.
         22    1    3    3    0    0  0.30448952671E+02  0.11764886942E+02  0.15994606679E+03  0.16324305672E+03  0.00000000000E+00 0.  1.
</event>
<event>
 7    1  0.6017574E-006  0.6040460E+02  0.7818608E-02  0.1402364E+00
          2   -1    0    0  502    0  0.00000000000E+00  0.00000000000E+00  0.18542545925E+03  0.18542545925E+03  0.00000000000E+00 0. -1.
          1   -1    0    0  501    0 -0.00000000000E+00 -0.00000000000E+00 -0.11592986310E+03  0.11592986310E+03  0.00000000000E+00 0. -1.
         25    2    1    2    0    0  0.19581461296E+02 -0.36163521815E+02  0.38008541263E+02  0.13696853813E+03  0.12499798915E+03 0.  0.
          2    1    1    2  501    0 -0.68839027803E+02  0.65039820960E+01 -0.34156960140E+02  0.77122055587E+02  0.00000000000E+00 0. -1.
          1    1    1    2  502    0  0.49257566507E+02  0.29659539719E+02  0.65644015028E+02  0.87264728634E+02  0.00000000000E+00 0. -1.
         22    1    3    3    0    0 -0.40680415152E+02  0.22090116387E+01 -0.19584373173E+02  0.45203136860E+02  0.00000000000E+00 0.  1.
         22    1    3    3    0    0  0.60261876448E+02 -0.38372533454E+02  0.57592914436E+02  0.91765401268E+02  0.00000000000E+00 0.  1.
</event>
<event>
 7    1  0.6017574E-006  0.1300204E+03  0.7818608E-02  0.1383538E+00
          2   -1    0    0  502    0  0.00000000000E+00  0.00000000000E+00  0.28418087120E+04  0.28418087120E+04  0.00000000000E+00 0. -1.
          1   -1    0    0  501    0 -0.00000000000E+00 -0.00000000000E+00 -0.15579284015E+03  0.15579284015E+03  0.00000000000E+00 0. -1.
         25    2    1    2    0    0  0.73307696677E+02 -0.95790936777E+02  0.31667074644E+03  0.36118698726E+03  0.12500302458E+03 0.  0.
          2    1    1    2  501    0 -0.19927009140E+02 -0.23817896800E+02 -0.12999089425E+03  0.13364883273E+03  0.00000000000E+00 0. -1.
          1    1    1    2  502    0 -0.53380687538E+02  0.11960883358E+03  0.24993360197E+04  0.25027657322E+04  0.00000000000E+00 0. -1.
         22    1    3    3    0    0  0.99252846604E+02 -0.80833757552E+02  0.17756421710E+03  0.21889329618E+03  0.00000000000E+00 0. -1.
         22    1    3    3    0    0 -0.25945149927E+02 -0.14957179225E+02  0.13910652934E+03  0.14229369107E+03  0.00000000000E+00 0. -1.
</event>
<event>
 7    1  0.6017574E-006  0.6695530E+02  0.7818608E-02  0.1401190E+00
          2   -1    0    0  502    0  0.00000000000E+00  0.00000000000E+00  0.17365126444E+04  0.17365126444E+04  0.00000000000E+00 0. -1.
          1   -1    0    0  501    0 -0.00000000000E+00 -0.00000000000E+00 -0.13722336818E+03  0.13722336818E+03  0.00000000000E+00 0. -1.
         25    2    1    2    0    0 -0.32517993496E+02 -0.43284415940E+02  0.19325155940E+03  0.23643607273E+03  0.12499956285E+03 0.  0.
          2    1    1    2  501    0  0.46919629571E+02 -0.23230111887E+02 -0.10890139623E+03  0.12083295841E+03  0.00000000000E+00 0. -1.
          1    1    1    2  502    0 -0.14401636075E+02  0.66514527827E+02  0.15149391131E+04  0.15164669815E+04  0.00000000000E+00 0. -1.
         22    1    3    3    0    0 -0.66084690480E+02 -0.19295692996E+02  0.44275224177E+02  0.81852339978E+02  0.00000000000E+00 0. -1.
         22    1    3    3    0    0  0.33566696984E+02 -0.23988722945E+02  0.14897633522E+03  0.15458373275E+03  0.00000000000E+00 0. -1.
</event>
<event>
 7    1  0.6017574E-006  0.1552558E+03  0.7818608E-02  0.1295519E+00
          2   -1    0    0  502    0  0.00000000000E+00  0.00000000000E+00  0.55973562951E+03  0.55973562951E+03  0.00000000000E+00 0. -1.
          1   -1    0    0  501    0 -0.00000000000E+00 -0.00000000000E+00 -0.17518418580E+04  0.17518418580E+04  0.00000000000E+00 0. -1.
         25    2    1    2    0    0  0.14339651885E+03  0.13159917540E+03  0.75491781696E+02  0.24332044104E+03  0.12499969335E+03 0.  0.
          2    1    1    2  501    0 -0.16335021813E+02 -0.53381619548E+02 -0.16535374303E+04  0.16544795144E+04  0.00000000000E+00 0. -1.
          1    1    1    2  502    0 -0.12706149704E+03 -0.78217555855E+02  0.38593942009E+03  0.41377753208E+03  0.00000000000E+00 0. -1.
         22    1    3    3    0    0  0.21983889539E+02 -0.24889305886E+02  0.92524707158E+01  0.34472846722E+02  0.00000000000E+00 0. -1.
         22    1    3    3    0    0  0.12141262931E+03  0.15648848129E+03  0.66239310980E+02  0.20884759432E+03  0.00000000000E+00 0. -1.
</event>
<event>
 7    1  0.6017574E-006  0.6429474E+02  0.7818608E-02  0.1403771E+00
          2   -1    0    0  502    0  0.00000000000E+00  0.00000000000E+00  0.43778217621E+03  0.43778217621E+03  0.00000000000E+00 0. -1.
          1   -1    0    0  501    0 -0.00000000000E+00 -0.00000000000E+00 -0.31169864286E+03  0.31169864286E+03  0.00000000000E+00 0. -1.
         25    2    1    2    0    0  0.87216390310E+02 -0.47960803640E+02  0.23724839366E+03  0.28601357076E+03  0.12494008539E+03 0.  0.
          2    1    1    2  501    0 -0.53422738335E+02 -0.13285321811E-02 -0.27983249589E+03  0.28488631896E+03  0.00000000000E+00 0. -1.
          1    1    1    2  502    0 -0.33793651975E+02  0.47962132173E+02  0.16866763558E+03  0.17858092935E+03  0.00000000000E+00 0. -1.
         22    1    3    3    0    0  0.94109587289E+02 -0.25340934111E+02  0.77485545009E+02  0.12451018853E+03  0.00000000000E+00 0.  1.
         22    1    3    3    0    0 -0.68931969784E+01 -0.22619869530E+02  0.15976284865E+03  0.16150338223E+03  0.00000000000E+00 0.  1.
</event>
<event>
 7    1  0.6017574E-006  0.8618317E+02  0.7818608E-02  0.1417394E+00
          2   -1    0    0  502    0  0.00000000000E+00  0.00000000000E+00  0.13807071385E+04  0.13807071385E+04  0.00000000000E+00 0. -1.
          1   -1    0    0  501    0 -0.00000000000E+00 -0.00000000000E+00 -0.21796129182E+03  0.21796129182E+03  0.00000000000E+00 0. -1.
         25    2    1    2    0    0 -0.10822209368E+03  0.21938567877E+02  0.13445788600E+02  0.16732862750E+03  0.12499903211E+03 0.  0.
          2    1    1    2  501    0  0.75171907298E+02 -0.35798783764E+02 -0.12845698095E+03  0.15308025516E+03  0.00000000000E+00 0. -1.
          1    1    1    2  502    0  0.33050186385E+02  0.13860215887E+02  0.12777570390E+04  0.12782595476E+04  0.00000000000E+00 0. -1.
         22    1    3    3    0    0 -0.41553349855E+02 -0.48321555233E+02  0.27586058463E+02  0.69445260499E+02  0.00000000000E+00 0.  1.
         22    1    3    3    0    0 -0.66668743828E+02  0.70260123110E+02 -0.14140269863E+02  0.97883366998E+02  0.00000000000E+00 0.  1.
</event>
<event>
 7    1  0.6017574E-006  0.6977384E+02  0.7818608E-02  0.1518734E+00
          2   -1    0    0  502    0  0.00000000000E+00  0.00000000000E+00  0.28147574233E+02  0.28147574233E+02  0.00000000000E+00 0. -1.
          1   -1    0    0  501    0 -0.00000000000E+00 -0.00000000000E+00 -0.12618332731E+04  0.12618332731E+04  0.00000000000E+00 0. -1.
         25    2    1    2    0    0 -0.78539346314E+02 -0.21840684070E+02 -0.39078275030E+03  0.41830844459E+03  0.12500140993E+03 0.  0.
          2    1    1    2  501    0  0.10877029310E+02  0.18383069173E+02 -0.77654337153E+03  0.77683708387E+03  0.00000000000E+00 0. -1.
          1    1    1    2  502    0  0.67662317004E+02  0.34576148976E+01 -0.66359577060E+02  0.94835318899E+02  0.00000000000E+00 0. -1.
         22    1    3    3    0    0  0.25152318278E+02 -0.31758843278E+02 -0.68206258574E+02  0.79330681011E+02  0.00000000000E+00 0.  1.
         22    1    3    3    0    0 -0.10369166459E+03  0.99181592074E+01 -0.32257649173E+03  0.33897776358E+03  0.00000000000E+00 0.  1.
</event>
<event>
 7    1  0.6017574E-006  0.8036786E+02  0.7818608E-02  0.1464781E+00
          2   -1    0    0  502    0  0.00000000000E+00  0.00000000000E+00  0.75608516820E+03  0.75608516820E+03  0.00000000000E+00 0. -1.
          1   -1    0    0  501    0 -0.00000000000E+00 -0.00000000000E+00 -0.26482972994E+04  0.26482972994E+04  0.00000000000E+00 0. -1.
         25    2    1    2    0    0  0.19660679529E+02  0.81167445843E+02 -0.59585937457E+02  0.16170360798E+03  0.12499150494E+03 0.  0.
          2    1    1    2  501    0 -0.43122260262E+02 -0.67838049025E+02 -0.25367574743E+04  0.25380307354E+04  0.00000000000E+00 0. -1.
          1    1    1    2  502    0  0.23461580732E+02 -0.13329396818E+02  0.70413128062E+03  0.70464812420E+03  0.00000000000E+00 0. -1.
         22    1    3    3    0    0  0.24741267630E+02 -0.23995617917E+02 -0.43017966887E+02  0.55122277513E+02  0.00000000000E+00 0.  1.
         22    1    3    3    0    0 -0.50805881006E+01  0.10516306376E+03 -0.16567970570E+02  0.10658133046E+03  0.00000000000E+00 0.  1.
</event>
<event>
 7    1  0.6017574E-006  0.1193546E+03  0.7818608E-02  0.1284583E+00
          2   -1    0    0  502    0  0.00000000000E+00  0.00000000000E+00  0.17805199485E+04  0.17805199485E+04  0.00000000000E+00 0. -1.
          1   -1    0    0  501    0 -0.00000000000E+00 -0.00000000000E+00 -0.27736811683E+04  0.27736811683E+04  0.00000000000E+00 0. -1.
         25    2    1    2    0    0 -0.99383755006E+02 -0.13231160435E+03 -0.97201854755E+03  0.99389588411E+03  0.12500192106E+03 0.  0.
          2    1    1    2  501    0  0.10146282994E+03  0.51890635855E+02 -0.17879946254E+04  0.17916227629E+04  0.00000000000E+00 0. -1.
          1    1    1    2  502    0 -0.20790749355E+01  0.80420968499E+02  0.17668519531E+04  0.17686824698E+04  0.00000000000E+00 0. -1.
         22    1    3    3    0    0 -0.42810330066E+02 -0.50293174188E+02 -0.12817844812E+03  0.14419376648E+03  0.00000000000E+00 0. -1.
         22    1    3    3    0    0 -0.56573424940E+02 -0.82018430166E+02 -0.84384009943E+03  0.84970211763E+03  0.00000000000E+00 0. -1.
</event>
<event>
 7    1  0.6017574E-006  0.9030986E+02  0.7818608E-02  0.1376691E+00
          2   -1    0    0  502    0  0.00000000000E+00  0.00000000000E+00  0.22135601373E+03  0.22135601373E+03  0.00000000000E+00 0. -1.
          1   -1    0    0  501    0 -0.00000000000E+00 -0.00000000000E+00 -0.12561574826E+04  0.12561574826E+04  0.00000000000E+00 0. -1.
         25    2    1    2    0    0 -0.41307967050E+00 -0.12572953254E+03  0.43622104302E+02  0.18258104332E+03  0.12499945363E+03 0.  0.
          2    1    1    2  501    0 -0.25469388898E+02  0.86167575540E+02 -0.11797252612E+04  0.11831421017E+04  0.00000000000E+00 0. -1.
          1    1    1    2  502    0  0.25882468569E+02  0.39561957004E+02  0.10130168810E+03  0.11179035126E+03  0.00000000000E+00 0. -1.
         22    1    3    3    0    0  0.92927814358E+01 -0.71385161510E+02  0.86604495058E+02  0.11261676445E+03  0.00000000000E+00 0.  1.
         22    1    3    3    0    0 -0.97058611063E+01 -0.54344371034E+02 -0.42982390757E+02  0.69964278872E+02  0.00000000000E+00 0.  1.
</event>
<event>
 7    1  0.6017574E-006  0.2134400E+03  0.7818608E-02  0.1171041E+00
          2   -1    0    0  502    0  0.00000000000E+00  0.00000000000E+00  0.13403074722E+04  0.13403074722E+04  0.00000000000E+00 0. -1.
          1   -1    0    0  501    0 -0.00000000000E+00 -0.00000000000E+00 -0.31138550203E+03  0.31138550203E+03  0.00000000000E+00 0. -1.
         25    2    1    2    0    0  0.81886028769E+02 -0.55452545986E+02 -0.91700607179E+02  0.18388747642E+03  0.12500118425E+03 0.  0.
          2    1    1    2  501    0  0.13412069564E+02 -0.14565907222E+03 -0.13111563208E+03  0.19643766926E+03  0.00000000000E+00 0. -1.
          1    1    1    2  502    0 -0.95298098333E+02  0.20111161821E+03  0.12517382094E+04  0.12713678285E+04  0.00000000000E+00 0. -1.
         22    1    3    3    0    0 -0.30551722678E+02 -0.22525809752E+02 -0.53260094423E+01  0.38329965303E+02  0.00000000000E+00 0.  1.
         22    1    3    3    0    0  0.11243775145E+03 -0.32926736234E+02 -0.86374597737E+02  0.14555751112E+03  0.00000000000E+00 0.  1.
</event>
<event>
 7    1  0.6017574E-006  0.1189005E+03  0.7818608E-02  0.1389693E+00
          2   -1    0    0  502    0  0.00000000000E+00  0.00000000000E+00  0.12240245872E+04  0.12240245872E+04  0.00000000000E+00 0. -1.
          1   -1    0    0  501    0 -0.00000000000E+00 -0.00000000000E+00 -0.75365218652E+03  0.75365218652E+03  0.00000000000E+00 0. -1.
         25    2    1    2    0    0 -0.92422445293E+02 -0.11157280698E+03  0.28491561434E+03  0.34320857214E+03  0.12499926816E+03 0.  0.
          2    1    1    2  501    0  0.28585705649E+02  0.15063736326E+02 -0.72046365411E+03  0.72118786430E+03  0.00000000000E+00 0. -1.
          1    1    1    2  502    0  0.63836739644E+02  0.96509070656E+02  0.90592044048E+03  0.91328033731E+03  0.00000000000E+00 0. -1.
         22    1    3    3    0    0 -0.11495940719E+03 -0.75691625675E+02  0.15871207193E+03  0.21008191087E+03  0.00000000000E+00 0. -1.
         22    1    3    3    0    0  0.22536961892E+02 -0.35881181306E+02  0.12620354242E+03  0.13312666127E+03  0.00000000000E+00 0. -1.
</event>
<event>
 7    1  0.6017574E-006  0.1422835E+03  0.7818608E-02  0.1313860E+00
          2   -1    0    0  502    0  0.00000000000E+00  0.00000000000E+00  0.11569468974E+04  0.11569468974E+04  0.00000000000E+00 0. -1.
          1   -1    0    0  501    0 -0.00000000000E+00 -0.00000000000E+00 -0.13154109122E+04  0.13154109122E+04  0.00000000000E+00 0. -1.
         25    2    1    2    0    0  0.42008448877E+02  0.17134260684E+03 -0.17066356057E+03  0.27545256517E+03  0.12500026423E+03 0.  0.
          2    1    1    2  501    0 -0.42110179811E+02 -0.29653400539E+02 -0.10871968346E+04  0.10884160733E+04  0.00000000000E+00 0. -1.
          1    1    1    2  502    0  0.10173093405E+00 -0.14168920630E+03  0.10993963804E+04  0.11084891712E+04  0.00000000000E+00 0. -1.
         22    1    3    3    0    0  0.59740273109E+02  0.12905126152E+03 -0.57577226577E+02  0.15342185422E+03  0.00000000000E+00 0.  1.
         22    1    3    3    0    0 -0.17731824232E+02  0.42291345318E+02 -0.11308633399E+03  0.12203071095E+03  0.00000000000E+00 0.  1.
</event>
<event>
 7    1  0.6017574E-006  0.5364434E+02  0.7818608E-02  0.1484532E+00
          2   -1    0    0  502    0  0.00000000000E+00  0.00000000000E+00  0.10115071876E+04  0.10115071876E+04  0.00000000000E+00 0. -1.
          1   -1    0    0  501    0 -0.00000000000E+00 -0.00000000000E+00 -0.57486168079E+02  0.57486168079E+02  0.00000000000E+00 0. -1.
         25    2    1    2    0    0 -0.32120907881E+02 -0.53382314017E+02  0.11817034524E+03  0.18295085210E+03  0.12500143847E+03 0.  0.
          2    1    1    2  501    0  0.35124335073E+02 -0.22648166646E+00 -0.11524959492E+02  0.36967484355E+02  0.00000000000E+00 0. -1.
          1    1    1    2  502    0 -0.30034271924E+01  0.53608795684E+02  0.84737563377E+03  0.84907501922E+03  0.00000000000E+00 0. -1.
         22    1    3    3    0    0 -0.31788946419E+01 -0.71151266410E+02  0.12955808623E+02  0.72391028864E+02  0.00000000000E+00 0. -1.
         22    1    3    3    0    0 -0.28942013239E+02  0.17768952392E+02  0.10521453662E+03  0.11055982324E+03  0.00000000000E+00 0. -1.
</event>
<event>
 7    1  0.6017574E-006  0.1202485E+03  0.7818608E-02  0.1299189E+00
          2   -1    0    0  502    0  0.00000000000E+00  0.00000000000E+00  0.78280980041E+03  0.78280980041E+03  0.00000000000E+00 0. -1.
          1   -1    0    0  501    0 -0.00000000000E+00 -0.00000000000E+00 -0.39763578486E+03  0.39763578486E+03  0.00000000000E+00 0. -1.
         25    2    1    2    0    0  0.10370941105E+03 -0.10870299567E+02  0.45665220435E+02  0.16906824590E+03  0.12499981624E+03 0.  0.
          2    1    1    2  501    0 -0.97936811288E+01 -0.68977886208E+02 -0.32660502951E+03  0.33395315582E+03  0.00000000000E+00 0. -1.
          1    1    1    2  502    0 -0.93915729923E+02  0.79848185776E+02  0.66611382463E+03  0.67742418355E+03  0.00000000000E+00 0. -1.
         22    1    3    3    0    0 -0.24514732075E+02 -0.77480638960E+01  0.30534187947E+02  0.39916678424E+02  0.00000000000E+00 0.  1.
         22    1    3    3    0    0  0.12822414313E+03 -0.31222356712E+01  0.15131032488E+02  0.12915156747E+03  0.00000000000E+00 0.  1.
</event>
<event>
 7    1  0.6017574E-006  0.1251666E+03  0.7818608E-02  0.1335729E+00
          2   -1    0    0  502    0  0.00000000000E+00  0.00000000000E+00  0.29046128072E+03  0.29046128072E+03  0.00000000000E+00 0. -1.
          1   -1    0    0  501    0 -0.00000000000E+00 -0.00000000000E+00 -0.13305971855E+04  0.13305971855E+04  0.00000000000E+00 0. -1.
         25    2    1    2    0    0  0.67621740934E+02 -0.15225128429E+03  0.12624184038E+03  0.24354724377E+03  0.12500041708E+03 0.  0.
          2    1    1    2  501    0 -0.68422539153E+02  0.10403270832E+03 -0.12632113863E+04  0.12693334687E+04  0.00000000000E+00 0. -1.
          1    1    1    2  502    0  0.80079821976E+00  0.48218575968E+02  0.96833641156E+02  0.10817775375E+03  0.00000000000E+00 0. -1.
         22    1    3    3    0    0  0.13648366465E+02 -0.13562804160E+03  0.12807627656E+03  0.18704217758E+03  0.00000000000E+00 0.  1.
         22    1    3    3    0    0  0.53973374469E+02 -0.16623242684E+02 -0.18344361763E+01  0.56505066189E+02  0.00000000000E+00 0.  1.
</event>
<event>
 7    1  0.6017574E-006  0.9614235E+02  0.7818608E-02  0.1392285E+00
          2   -1    0    0  502    0  0.00000000000E+00  0.00000000000E+00  0.27925397149E+03  0.27925397149E+03  0.00000000000E+00 0. -1.
          1   -1    0    0  501    0 -0.00000000000E+00 -0.00000000000E+00 -0.38788100727E+03  0.38788100727E+03  0.00000000000E+00 0. -1.
         25    2    1    2    0    0 -0.82445168199E+02  0.82511404193E+02  0.17255166614E+03  0.24291134128E+03  0.12500601847E+03 0.  0.
          2    1    1    2  501    0  0.13476407365E+02 -0.36744740893E+02 -0.32718995092E+03  0.32952246285E+03  0.00000000000E+00 0. -1.
          1    1    1    2  502    0  0.68968760834E+02 -0.45766663299E+02  0.46011249008E+02  0.94701174628E+02  0.00000000000E+00 0. -1.
         22    1    3    3    0    0 -0.90914024660E+02  0.49257813833E+02  0.48516745484E+02  0.11421719089E+03  0.00000000000E+00 0. -1.
         22    1    3    3    0    0  0.84688564611E+01  0.33253590360E+02  0.12403492066E+03  0.12869415039E+03  0.00000000000E+00 0. -1.
</event>
<event>
 7    1  0.6017574E-006  0.8914777E+02  0.7818608E-02  0.1338035E+00
          2   -1    0    0  502    0  0.00000000000E+00  0.00000000000E+00  0.30913409573E+03  0.30913409573E+03  0.00000000000E+00 0. -1.
          1   -1    0    0  501    0 -0.00000000000E+00 -0.00000000000E+00 -0.97474041163E+03  0.97474041163E+03  0.00000000000E+00 0. -1.
         25    2    1    2    0    0  0.14704835955E+03  0.12819768637E+02 -0.66597111844E+02  0.20456776795E+03  0.12500091944E+03 0.  0.
          2    1    1    2  501    0 -0.61806551321E+02 -0.24170197117E+02 -0.83009261208E+03  0.83274125204E+03  0.00000000000E+00 0. -1.
          1    1    1    2  502    0 -0.85241808233E+02  0.11350428479E+02  0.23108340803E+03  0.24656548737E+03  0.00000000000E+00 0. -1.
         22    1    3    3    0    0  0.80111655541E+01 -0.41427343804E+02 -0.27228892530E+02  0.50217687886E+02  0.00000000000E+00 0.  1.
         22    1    3    3    0    0  0.13903719400E+03  0.54247112441E+02 -0.39368219314E+02  0.15435008006E+03  0.00000000000E+00 0.  1.
</event>
<event>
 7    1  0.6017574E-006  0.7083706E+02  0.7818608E-02  0.1443513E+00
          2   -1    0    0  502    0  0.00000000000E+00  0.00000000000E+00  0.18772297240E+04  0.18772297240E+04  0.00000000000E+00 0. -1.
          1   -1    0    0  501    0 -0.00000000000E+00 -0.00000000000E+00 -0.25509833111E+03  0.25509833111E+03  0.00000000000E+00 0. -1.
         25    2    1    2    0    0  0.39869156521E+02  0.37091251424E+02  0.11662041057E+03  0.17942963466E+03  0.12501745102E+03 0.  0.
          2    1    1    2  501    0 -0.22214585975E+02 -0.68206369081E+02 -0.21775257579E+03  0.22926356203E+03  0.00000000000E+00 0. -1.
          1    1    1    2  502    0 -0.17654570547E+02  0.31115117657E+02  0.17232635581E+04  0.17236348584E+04  0.00000000000E+00 0. -1.
         22    1    3    3    0    0 -0.21282694905E+02 -0.26843602173E+02  0.15659149322E+01  0.34292625586E+02  0.00000000000E+00 0. -1.
         22    1    3    3    0    0  0.61151851426E+02  0.63934853597E+02  0.11505449563E+03  0.14513700907E+03  0.00000000000E+00 0. -1.
</event>
<event>
 7    1  0.6017574E-006  0.7649940E+02  0.7818608E-02  0.1371001E+00
          2   -1    0    0  502    0  0.00000000000E+00  0.00000000000E+00  0.12636031426E+04  0.12636031426E+04  0.00000000000E+00 0. -1.
          1   -1    0    0  501    0 -0.00000000000E+00 -0.00000000000E+00 -0.44175847626E+03  0.44175847626E+03  0.00000000000E+00 0. -1.
         25    2    1    2    0    0  0.80101270438E+02  0.66011431102E+01 -0.25382381763E+03  0.29412171949E+03  0.12498506657E+03 0.  0.
          2    1    1    2  501    0 -0.29244027397E+02  0.50650861828E+02 -0.16146871370E+03  0.17173487836E+03  0.00000000000E+00 0. -1.
          1    1    1    2  502    0 -0.50857243041E+02 -0.57252004938E+02  0.12371371977E+04  0.12395050210E+04  0.00000000000E+00 0. -1.
         22    1    3    3    0    0  0.82682863410E+02 -0.14641029807E+02 -0.70749911466E+02  0.10980148281E+03  0.00000000000E+00 0.  1.
         22    1    3    3    0    0 -0.25815929718E+01  0.21242172917E+02 -0.18307390616E+03  0.18432023668E+03  0.00000000000E+00 0.  1.
</event>
<event>
 7    1  0.6017574E-006  0.2194267E+03  0.7818608E-02  0.1234360E+00
          2   -1    0    0  502    0  0.00000000000E+00  0.00000000000E+00  0.13579256888E+04  0.13579256888E+04  0.00000000000E+00 0. -1.
          1   -1    0    0  501    0 -0.00000000000E+00 -0.00000000000E+00 -0.11695662891E+04  0.11695662891E+04  0.00000000000E+00 0. -1.
         25    2    1    2    0    0  0.70875068939E+02  0.19568160722E+03 -0.16525826034E+03  0.29368318501E+03  0.12499981497E+03 0.  0.
          2    1    1    2  501    0  0.67512804129E+02 -0.24226086266E+02 -0.92932198612E+03  0.93208595948E+03  0.00000000000E+00 0. -1.
          1    1    1    2  502    0 -0.13838787307E+03 -0.17145552096E+03  0.12829396462E+04  0.13017228333E+04  0.00000000000E+00 0. -1.
         22    1    3    3    0    0  0.93522736220E+02  0.18689702867E+03 -0.11664549091E+03  0.23933903164E+03  0.00000000000E+00 0. -1.
         22    1    3    3    0    0 -0.22647667281E+02  0.87845785543E+01 -0.48612769433E+02  0.54344153371E+02  0.00000000000E+00 0. -1.
</event>
<event>
 7    1  0.6017574E-006  0.1574331E+03  0.7818608E-02  0.1272187E+00
          2   -1    0    0  502    0  0.00000000000E+00  0.00000000000E+00  0.11797255365E+04  0.11797255365E+04  0.00000000000E+00 0. -1.
          1   -1    0    0  501    0 -0.00000000000E+00 -0.00000000000E+00 -0.30046942182E+03  0.30046942182E+03  0.00000000000E+00 0. -1.
         25    2    1    2    0    0 -0.41753827172E+02  0.10900542581E+03  0.58846141653E+02  0.18086952774E+03  0.12500141094E+03 0.  0.
          2    1    1    2  501    0 -0.67781402566E+02  0.10861174920E+02 -0.22815720797E+03  0.23826035172E+03  0.00000000000E+00 0. -1.
          1    1    1    2  502    0  0.10953522974E+03 -0.11986660073E+03  0.10485671810E+04  0.10610650789E+04  0.00000000000E+00 0. -1.
         22    1    3    3    0    0  0.25429608997E+01  0.53029278269E+01 -0.34180921048E+02  0.34683181189E+02  0.00000000000E+00 0.  1.
         22    1    3    3    0    0 -0.44296788072E+02  0.10370249799E+03  0.93027062701E+02  0.14618634655E+03  0.00000000000E+00 0.  1.
</event>
<event>
 7    1  0.6017574E-006  0.6959974E+02  0.7818608E-02  0.1414714E+00
          2   -1    0    0  502    0  0.00000000000E+00  0.00000000000E+00  0.13852353812E+03  0.13852353812E+03  0.00000000000E+00 0. -1.
          1   -1    0    0  501    0 -0.00000000000E+00 -0.00000000000E+00 -0.14876732984E+03  0.14876732984E+03  0.00000000000E+00 0. -1.
         25    2    1    2    0    0 -0.16739494883E+01 -0.44621862461E+02  0.74672590751E+01  0.13294612241E+03  0.12499999516E+03 0.  0.
          2    1    1    2  501    0 -0.36254186203E+02  0.69405864077E+02 -0.54979894515E+02  0.95678256602E+02  0.00000000000E+00 0. -1.
          1    1    1    2  502    0  0.37928135692E+02 -0.24784001615E+02  0.37268843721E+02  0.58666488947E+02  0.00000000000E+00 0. -1.
         22    1    3    3    0    0  0.44621260860E+02 -0.66072253933E+02 -0.66522947385E+01  0.80005329108E+02  0.00000000000E+00 0. -1.
         22    1    3    3    0    0 -0.46295210348E+02  0.21450391472E+02  0.14119553814E+02  0.52940793301E+02  0.00000000000E+00 0. -1.
</event>
<event>
 7    1  0.6017574E-006  0.6957868E+02  0.7818608E-02  0.1426819E+00
          2   -1    0    0  502    0  0.00000000000E+00  0.00000000000E+00  0.41262939450E+03  0.41262939450E+03  0.00000000000E+00 0. -1.
          1   -1    0    0  501    0 -0.00000000000E+00 -0.00000000000E+00 -0.25030208653E+03  0.25030208653E+03  0.00000000000E+00 0. -1.
         25    2    1    2    0    0  0.24852644453E+02  0.97917497870E+02  0.23280563266E+03  0.28289259289E+03  0.12499706473E+03 0.  0.
          2    1    1    2  501    0  0.45090181197E+01 -0.68877751079E+02 -0.21704968244E+03  0.22776092836E+03  0.00000000000E+00 0. -1.
          1    1    1    2  502    0 -0.29361662573E+02 -0.29039746792E+02  0.14657135775E+03  0.15227795978E+03  0.00000000000E+00 0. -1.
         22    1    3    3    0    0  0.47368619108E+02  0.99274529997E+02  0.10152491596E+03  0.14968809887E+03  0.00000000000E+00 0. -1.
         22    1    3    3    0    0 -0.22515974656E+02 -0.13570321267E+01  0.13128071670E+03  0.13320449402E+03  0.00000000000E+00 0. -1.
</event>
<event>
 7    1  0.6017574E-006  0.5354095E+02  0.7818608E-02  0.1494089E+00
          2   -1    0    0  502    0  0.00000000000E+00  0.00000000000E+00  0.11882073740E+04  0.11882073740E+04  0.00000000000E+00 0. -1.
          1   -1    0    0  501    0 -0.00000000000E+00 -0.00000000000E+00 -0.45671950601E+02  0.45671950601E+02  0.00000000000E+00 0. -1.
         25    2    1    2    0    0 -0.22117885775E+02  0.64316171448E+02  0.42148495028E+03  0.44485801002E+03  0.12499325978E+03 0.  0.
          2    1    1    2  501    0  0.39088699228E+02 -0.36103251668E+02 -0.12559615746E+02  0.54672800697E+02  0.00000000000E+00 0. -1.
          1    1    1    2  502    0 -0.16970813453E+02 -0.28212919780E+02  0.73361008889E+03  0.73434851391E+03  0.00000000000E+00 0. -1.
         22    1    3    3    0    0 -0.42071689156E+02  0.89356285004E+02  0.22417856926E+03  0.24497061785E+03  0.00000000000E+00 0. -1.
         22    1    3    3    0    0  0.19953803382E+02 -0.25040113555E+02  0.19730638102E+03  0.19988739217E+03  0.00000000000E+00 0. -1.
</event>
<event>
 7    1  0.6017574E-006  0.1193683E+03  0.7818608E-02  0.1334750E+00
          2   -1    0    0  502    0  0.00000000000E+00  0.00000000000E+00  0.94736782419E+02  0.94736782419E+02  0.00000000000E+00 0. -1.
          1   -1    0    0  501    0 -0.00000000000E+00 -0.00000000000E+00 -0.26350509228E+04  0.26350509228E+04  0.00000000000E+00 0. -1.
         25    2    1    2    0    0  0.52450508709E+02  0.14806281399E+03 -0.21548742313E+03  0.29449300241E+03  0.12497058131E+03 0.  0.
          2    1    1    2  501    0 -0.11578431007E+02 -0.11755629914E+03 -0.23664915058E+04  0.23694378217E+04  0.00000000000E+00 0. -1.
          1    1    1    2  502    0 -0.40872077702E+02 -0.30506514848E+02  0.41664788595E+02  0.65856881132E+02  0.00000000000E+00 0. -1.
         22    1    3    3    0    0  0.87429093958E+02  0.11478765848E+03 -0.12069704063E+03  0.18811652938E+03  0.00000000000E+00 0.  1.
         22    1    3    3    0    0 -0.34978585249E+02  0.33275155513E+02 -0.94790382500E+02  0.10637647303E+03  0.00000000000E+00 0.  1.
</event>
<event>
 7    1  0.6017574E-006  0.9164425E+02  0.7818608E-02  0.1331102E+00
          2   -1    0    0  502    0  0.00000000000E+00  0.00000000000E+00  0.17370103497E+04  0.17370103497E+04  0.00000000000E+00 0. -1.
          1   -1    0    0  501    0 -0.00000000000E+00 -0.00000000000E+00 -0.91836812578E+02  0.91836812578E+02  0.00000000000E+00 0. -1.
         25    2    1    2    0    0 -0.93457224534E+02  0.76080031710E+02  0.32204708439E+03  0.36586869062E+03  0.12499260047E+03 0.  0.
          2    1    1    2  501    0  0.27740431177E+01 -0.68530826606E+02 -0.51233203678E+02  0.85609641219E+02  0.00000000000E+00 0. -1.
          1    1    1    2  502    0  0.90683181416E+02 -0.75492051034E+01  0.13743596565E+04  0.13773688305E+04  0.00000000000E+00 0. -1.
         22    1    3    3    0    0 -0.94880760451E+02  0.95581933144E+01  0.25112255690E+03  0.26861916601E+03  0.00000000000E+00 0. -1.
         22    1    3    3    0    0  0.14235359171E+01  0.66521838395E+02  0.70924527490E+02  0.97249524614E+02  0.00000000000E+00 0. -1.
</event>
<event>
 7    1  0.6017574E-006  0.5159115E+02  0.7818608E-02  0.1496013E+00
          2   -1    0    0  502    0  0.00000000000E+00  0.00000000000E+00  0.18264409212E+04  0.18264409212E+04  0.00000000000E+00 0. -1.
          1   -1    0    0  501    0 -0.00000000000E+00 -0.00000000000E+00 -0.72636591913E+01  0.72636591913E+01  0.00000000000E+00 0. -1.
         25    2    1    2    0    0  0.27045280867E+02 -0.14435048571E+02  0.91733948170E+03  0.92632385793E+03  0.12499738891E+03 0.  0.
          2    1    1    2  501    0  0.30643500724E+02  0.14063460409E+02  0.17245579418E+03  0.17572081835E+03  0.00000000000E+00 0. -1.
          1    1    1    2  502    0 -0.57688781591E+02  0.37158816268E+00  0.72938198611E+03  0.73165990410E+03  0.00000000000E+00 0. -1.
         22    1    3    3    0    0 -0.16237757938E+02  0.47419012408E+02  0.46925089643E+03  0.47192015355E+03  0.00000000000E+00 0. -1.
         22    1    3    3    0    0  0.43283038805E+02 -0.61854060980E+02  0.44808858527E+03  0.45440370438E+03  0.00000000000E+00 0. -1.
</event>
<event>
 7    1  0.6017574E-006  0.1432066E+03  0.7818608E-02  0.1345286E+00
          2   -1    0    0  502    0  0.00000000000E+00  0.00000000000E+00  0.18252989717E+04  0.18252989717E+04  0.00000000000E+00 0. -1.
          1   -1    0    0  501    0 -0.00000000000E+00 -0.00000000000E+00 -0.13806381357E+03  0.13806381357E+03  0.00000000000E+00 0. -1.
         25    2    1    2    0    0  0.10707896524E+03 -0.32582994913E+02  0.19850451510E+03  0.25991373520E+03  0.12499420336E+03 0.  0.
          2    1    1    2  501    0 -0.14544178520E+03  0.38414805817E+02 -0.54300674188E+02  0.15992990154E+03  0.00000000000E+00 0. -1.
          1    1    1    2  502    0  0.38362819961E+02 -0.58318109043E+01  0.15430313172E+04  0.15435191485E+04  0.00000000000E+00 0. -1.
         22    1    3    3    0    0  0.71906218843E+02 -0.55263276957E+02  0.45839030631E+02  0.10161570163E+03  0.00000000000E+00 0.  1.
         22    1    3    3    0    0  0.35172746399E+02  0.22680282044E+02  0.15266548447E+03  0.15829803357E+03  0.00000000000E+00 0.  1.
</event>
<event>
 7    1  0.6017574E-006  0.1084703E+03  0.7818608E-02  0.1402654E+00
          2   -1    0    0  502    0  0.00000000000E+00  0.00000000000E+00  0.16129353165E+03  0.16129353165E+03  0.00000000000E+00 0. -1.
          1   -1    0    0  501    0 -0.00000000000E+00 -0.00000000000E+00 -0.35615468519E+03  0.35615468519E+03  0.00000000000E+00 0. -1.
         25    2    1    2    0    0 -0.49718332874E+02  0.10029545378E+03 -0.16051768465E+03  0.23221088590E+03  0.12499951109E+03 0.  0.
          2    1    1    2  501    0  0.18414651386E+02 -0.10666848414E+03 -0.13879194733E+03  0.17601269709E+03  0.00000000000E+00 0. -1.
          1    1    1    2  502    0  0.31303681488E+02  0.63730303530E+01  0.10444847844E+03  0.10922463385E+03  0.00000000000E+00 0. -1.
         22    1    3    3    0    0 -0.62838030745E+02  0.86339871957E+02 -0.17714808499E+03  0.20684447204E+03  0.00000000000E+00 0.  1.
         22    1    3    3    0    0  0.13119697871E+02  0.13955581826E+02  0.16630400345E+02  0.25366413857E+02  0.00000000000E+00 0.  1.
</event>
<event>
 7    1  0.6017574E-006  0.8358724E+02  0.7818608E-02  0.1405791E+00
          2   -1    0    0  502    0  0.00000000000E+00  0.00000000000E+00  0.18783684002E+03  0.18783684002E+03  0.00000000000E+00 0. -1.
          1   -1    0    0  501    0 -0.00000000000E+00 -0.00000000000E+00 -0.42616560181E+04  0.42616560181E+04  0.00000000000E+00 0. -1.
         25    2    1    2    0    0 -0.85220854266E+02 -0.80407613956E+02 -0.24898282599E+03  0.30223226515E+03  0.12499566422E+03 0.  0.
          2    1    1    2  501    0  0.71469985112E+02  0.42371758555E+02 -0.39830716529E+04  0.39839381417E+04  0.00000000000E+00 0. -1.
          1    1    1    2  502    0  0.13750869154E+02  0.38035855401E+02  0.15823530077E+03  0.16332245133E+03  0.00000000000E+00 0. -1.
         22    1    3    3    0    0  0.32993758068E+02 -0.15678173297E+02 -0.54928387874E+02  0.65966059332E+02  0.00000000000E+00 0. -1.
         22    1    3    3    0    0 -0.11821461233E+03 -0.64729440659E+02 -0.19405443812E+03  0.23626620581E+03  0.00000000000E+00 0. -1.
</event>
<event>
 7    1  0.6017574E-006  0.1044009E+03  0.7818608E-02  0.1450178E+00
          2   -1    0    0  502    0  0.00000000000E+00  0.00000000000E+00  0.65667885457E+03  0.65667885457E+03  0.00000000000E+00 0. -1.
          1   -1    0    0  501    0 -0.00000000000E+00 -0.00000000000E+00 -0.61214628789E+03  0.61214628789E+03  0.00000000000E+00 0. -1.
         25    2    1    2    0    0 -0.65877677303E+02  0.59592573682E+02 -0.24002600905E+03  0.28483248986E+03  0.12500367618E+03 0.  0.
          2    1    1    2  501    0  0.16261586877E+01  0.23048100484E+02 -0.34500899661E+03  0.34578182004E+03  0.00000000000E+00 0. -1.
          1    1    1    2  502    0  0.64251518615E+02 -0.82640674166E+02  0.62956757233E+03  0.63821083256E+03  0.00000000000E+00 0. -1.
         22    1    3    3    0    0 -0.65188401328E+02 -0.20594116111E+02 -0.14629199813E+03  0.16147753405E+03  0.00000000000E+00 0.  1.
         22    1    3    3    0    0 -0.68927597478E+00  0.80186689793E+02 -0.93734010920E+02  0.12335495582E+03  0.00000000000E+00 0.  1.
</event>
<event>
 7    1  0.6017574E-006  0.1366311E+03  0.7818608E-02  0.1236704E+00
          2   -1    0    0  502    0  0.00000000000E+00  0.00000000000E+00  0.15839347432E+04  0.15839347432E+04  0.00000000000E+00 0. -1.
          1   -1    0    0  501    0 -0.00000000000E+00 -0.00000000000E+00 -0.10925664881E+03  0.10925664881E+03  0.00000000000E+00 0. -1.
         25    2    1    2    0    0  0.17108237704E+02 -0.20313780898E+03  0.57730520269E+03  0.62487317157E+03  0.12501008865E+03 0.  0.
          2    1    1    2  501    0  0.58093126410E+02  0.11951465791E+03 -0.28277476046E+02  0.13586088636E+03  0.00000000000E+00 0. -1.
          1    1    1    2  502    0 -0.75201364114E+02  0.83623151062E+02  0.92565036772E+03  0.93245733405E+03  0.00000000000E+00 0. -1.
         22    1    3    3    0    0 -0.37549877784E+02 -0.31585829403E+02  0.62305874194E+02  0.79307502165E+02  0.00000000000E+00 0. -1.
         22    1    3    3    0    0  0.54658115488E+02 -0.17155197957E+03  0.51499932849E+03  0.54556566940E+03  0.00000000000E+00 0. -1.
</event>
<event>
 7    1  0.6017574E-006  0.9294261E+02  0.7818608E-02  0.1332909E+00
          2   -1    0    0  502    0  0.00000000000E+00  0.00000000000E+00  0.10404976506E+04  0.10404976506E+04  0.00000000000E+00 0. -1.
          1   -1    0    0  501    0 -0.00000000000E+00 -0.00000000000E+00 -0.58558942218E+03  0.58558942218E+03  0.00000000000E+00 0. -1.
         25    2    1    2    0    0 -0.33461558837E+02 -0.88300424333E+02  0.26984219716E+03  0.31201669666E+03  0.12499186682E+03 0.  0.
          2    1    1    2  501    0 -0.50833490732E+02  0.42976503586E+02 -0.55946598086E+03  0.56341211150E+03  0.00000000000E+00 0. -1.
          1    1    1    2  502    0  0.84295049569E+02  0.45323920746E+02  0.74453201210E+03  0.75065826461E+03  0.00000000000E+00 0. -1.
         22    1    3    3    0    0 -0.17879221381E+02 -0.10952403861E+03  0.13562233522E+03  0.17523869265E+03  0.00000000000E+00 0.  1.
         22    1    3    3    0    0 -0.15582337456E+02  0.21223614275E+02  0.13421986193E+03  0.13677800401E+03  0.00000000000E+00 0.  1.
</event>
<event>
 7    1  0.6017574E-006  0.1375464E+03  0.7818608E-02  0.1264393E+00
          2   -1    0    0  502    0  0.00000000000E+00  0.00000000000E+00  0.15251347965E+03  0.15251347965E+03  0.00000000000E+00 0. -1.
          1   -1    0    0  501    0 -0.00000000000E+00 -0.00000000000E+00 -0.17733515683E+04  0.17733515683E+04  0.00000000000E+00 0. -1.
         25    2    1    2    0    0 -0.64763829146E+02 -0.56836500309E+02 -0.25058574392E+03  0.29299153189E+03  0.12500432540E+03 0.  0.
          2    1    1    2  501    0  0.48736062950E+02  0.14004631992E+03 -0.14838001971E+04  0.14911912018E+04  0.00000000000E+00 0. -1.
          1    1    1    2  502    0  0.16027766197E+02 -0.83209819615E+02  0.11354785240E+03  0.14168231419E+03  0.00000000000E+00 0. -1.
         22    1    3    3    0    0 -0.22770351554E+02 -0.35117707170E+02 -0.41469100400E+01  0.42058758061E+02  0.00000000000E+00 0. -1.
         22    1    3    3    0    0 -0.41993477593E+02 -0.21718793139E+02 -0.24643883388E+03  0.25093277383E+03  0.00000000000E+00 0. -1.
</event>
<event>
 7    1  0.6017574E-006  0.9591698E+02  0.7818608E-02  0.1363568E+00
          2   -1    0    0  502    0  0.00000000000E+00  0.00000000000E+00  0.12661874087E+03  0.12661874087E+03  0.00000000000E+00 0. -1.
          1   -1    0    0  501    0 -0.00000000000E+00 -0.00000000000E+00 -0.59882451137E+03  0.59882451137E+03  0.00000000000E+00 0. -1.
         25    2    1    2    0    0  0.75587478726E+02  0.38950016536E+02 -0.12069117111E+03  0.19345027269E+03  0.12500431389E+03 0.  0.
          2    1    1    2  501    0 -0.99072728466E+02  0.47596348013E+01 -0.42881536967E+03  0.44013711604E+03  0.00000000000E+00 0. -1.
          1    1    1    2  502    0  0.23485249741E+02 -0.43709651337E+02  0.77300770285E+02  0.91855863515E+02  0.00000000000E+00 0. -1.
         22    1    3    3    0    0 -0.24640160365E+02  0.41844495832E+02 -0.56005607468E+02  0.74126428500E+02  0.00000000000E+00 0. -1.
         22    1    3    3    0    0  0.10022763909E+03 -0.28944792956E+01 -0.64685563641E+02  0.11932384419E+03  0.00000000000E+00 0. -1.
</event>
<event>
 7    1  0.6017574E-006  0.5292192E+02  0.7818608E-02  0.1438173E+00
          2   -1    0    0  502    0  0.00000000000E+00  0.00000000000E+00  0.16487644306E+04  0.16487644306E+04  0.00000000000E+00 0. -1.
          1   -1    0    0  501    0 -0.00000000000E+00 -0.00000000000E+00 -0.24660627136E+03  0.24660627136E+03  0.00000000000E+00 0. -1.
         25    2    1    2    0    0  0.41236727433E+02 -0.46130536336E+02  0.35732850340E+03  0.38357612041E+03  0.12497394423E+03 0.  0.
          2    1    1    2  501    0 -0.49378139090E+02 -0.67110848599E+01 -0.23025694385E+03  0.23558756221E+03  0.00000000000E+00 0. -1.
          1    1    1    2  502    0  0.81414116570E+01  0.52841621196E+02  0.12750865996E+04  0.12762070193E+04  0.00000000000E+00 0. -1.
         22    1    3    3    0    0  0.75637408535E+02 -0.96156822614E+00  0.26119667777E+03  0.27192948840E+03  0.00000000000E+00 0.  1.
         22    1    3    3    0    0 -0.34400681102E+02 -0.45168968110E+02  0.96131825630E+02  0.11164663201E+03  0.00000000000E+00 0.  1.
</event>
<event>
 7    1  0.6017574E-006  0.6993305E+02  0.7818608E-02  0.1371254E+00
          2   -1    0    0  502    0  0.00000000000E+00  0.00000000000E+00  0.49118668546E+03  0.49118668546E+03  0.00000000000E+00 0. -1.
          1   -1    0    0  501    0 -0.00000000000E+00 -0.00000000000E+00 -0.10372726453E+03  0.10372726453E+03  0.00000000000E+00 0. -1.
         25    2    1    2    0    0 -0.41750868441E+02 -0.64212075503E+02  0.32804946219E+02  0.15023239267E+03  0.12500912629E+03 0.  0.
          2    1    1    2  501    0 -0.21642212225E+02  0.71794920754E+02 -0.89465487607E+01  0.75517790823E+02  0.00000000000E+00 0. -1.
          1    1    1    2  502    0  0.63393080666E+02 -0.75828452511E+01  0.36360102347E+03  0.36916376649E+03  0.00000000000E+00 0. -1.
         22    1    3    3    0    0 -0.39382422135E+02  0.23900505528E+02 -0.16863936713E+02  0.49057126895E+02  0.00000000000E+00 0.  1.
         22    1    3    3    0    0 -0.23684463058E+01 -0.88112581031E+02  0.49668882932E+02  0.10117526578E+03  0.00000000000E+00 0.  1.
</event>
<event>
 7    1  0.6017574E-006  0.7467264E+02  0.7818608E-02  0.1395376E+00
          2   -1    0    0  502    0  0.00000000000E+00  0.00000000000E+00  0.15890980599E+03  0.15890980599E+03  0.00000000000E+00 0. -1.
          1   -1    0    0  501    0 -0.00000000000E+00 -0.00000000000E+00 -0.26174082235E+04  0.26174082235E+04  0.00000000000E+00 0. -1.
         25    2    1    2    0    0  0.60114471073E+02  0.31834959266E+02 -0.20602137764E+03  0.25038667615E+03  0.12498586034E+03 0.  0.
          2    1    1    2  501    0 -0.31119397285E+02  0.38058547890E+02 -0.23784612795E+04  0.23789692995E+04  0.00000000000E+00 0. -1.
          1    1    1    2  502    0 -0.28995073788E+02 -0.69893507156E+02  0.12598423960E+03  0.14696205385E+03  0.00000000000E+00 0. -1.
         22    1    3    3    0    0 -0.41739309760E+01  0.55331298503E+02 -0.33581983287E+02  0.64859262217E+02  0.00000000000E+00 0.  1.
         22    1    3    3    0    0  0.64288402049E+02 -0.23496339237E+02 -0.17243939435E+03  0.18552741393E+03  0.00000000000E+00 0.  1.
</event>
<event>
 7    1  0.6017574E-006  0.3103227E+02  0.7818608E-02  0.1648102E+00
          2   -1    0    0  502    0  0.00000000000E+00  0.00000000000E+00  0.55765286070E+03  0.55765286070E+03  0.00000000000E+00 0. -1.
          1   -1    0    0  501    0 -0.00000000000E+00 -0.00000000000E+00 -0.93817522458E+03  0.93817522458E+03  0.00000000000E+00 0. -1.
         25    2    1    2    0    0  0.20659015815E+02  0.12357788648E+02 -0.38194383685E+03  0.40259847412E+03  0.12499970793E+03 0.  0.
          2    1    1    2  501    0 -0.12583711555E+02  0.17621335798E+02 -0.54524870099E+03  0.54567848336E+03  0.00000000000E+00 0. -1.
          1    1    1    2  502    0 -0.80753042598E+01 -0.29979124446E+02  0.54667017396E+03  0.54755112779E+03  0.00000000000E+00 0. -1.
         22    1    3    3    0    0 -0.33049647014E+02 -0.30248665313E+02 -0.24921495075E+03  0.25321009577E+03  0.00000000000E+00 0.  1.
         22    1    3    3    0    0  0.53708662829E+02  0.42606453961E+02 -0.13272888609E+03  0.14938837835E+03  0.00000000000E+00 0.  1.
</event>
<event>
 7    1  0.6017574E-006  0.6218209E+02  0.7818608E-02  0.1478438E+00
          2   -1    0    0  502    0  0.00000000000E+00  0.00000000000E+00  0.62557438631E+03  0.62557438631E+03  0.00000000000E+00 0. -1.
          1   -1    0    0  501    0 -0.00000000000E+00 -0.00000000000E+00 -0.24550076802E+03  0.24550076802E+03  0.00000000000E+00 0. -1.
         25    2    1    2    0    0 -0.16528896957E+02  0.66317749432E+02  0.12591295805E+03  0.19013490773E+03  0.12500384718E+03 0.  0.
          2    1    1    2  501    0 -0.14562390112E+02 -0.60492830230E+02 -0.20830235452E+03  0.21739668032E+03  0.00000000000E+00 0. -1.
          1    1    1    2  502    0  0.31091287070E+02 -0.58249192015E+01  0.46246301476E+03  0.46354356628E+03  0.00000000000E+00 0. -1.
         22    1    3    3    0    0  0.12699055177E+02  0.98117588005E+02  0.93579012953E+02  0.13618134506E+03  0.00000000000E+00 0. -1.
         22    1    3    3    0    0 -0.29227952134E+02 -0.31799838573E+02  0.32333945094E+02  0.53953562668E+02  0.00000000000E+00 0. -1.
</event>
<event>
 7    1  0.6017574E-006  0.4020045E+02  0.7818608E-02  0.1511283E+00
          2   -1    0    0  502    0  0.00000000000E+00  0.00000000000E+00  0.22436849049E+04  0.22436849049E+04  0.00000000000E+00 0. -1.
          1   -1    0    0  501    0 -0.00000000000E+00 -0.00000000000E+00 -0.42779144517E+03  0.42779144517E+03  0.00000000000E+00 0. -1.
         25    2    1    2    0    0  0.10403691849E+02  0.25332482439E+02 -0.20384344630E+03  0.24068054681E+03  0.12500001417E+03 0.  0.
          2    1    1    2  501    0  0.29820379568E+02 -0.25104000624E+02 -0.20349764697E+03  0.20719738948E+03  0.00000000000E+00 0. -1.
          1    1    1    2  502    0 -0.40224071417E+02 -0.22848181439E+00  0.22232345530E+04  0.22235984138E+04  0.00000000000E+00 0. -1.
         22    1    3    3    0    0  0.43764735384E+02  0.15082803251E+02 -0.15031482485E+02  0.48670201179E+02  0.00000000000E+00 0. -1.
         22    1    3    3    0    0 -0.33361043536E+02  0.10249679187E+02 -0.18881196381E+03  0.19201034563E+03  0.00000000000E+00 0. -1.
</event>
<event>
 7    1  0.6017574E-006  0.1471872E+03  0.7818608E-02  0.1317207E+00
          2   -1    0    0  502    0  0.00000000000E+00  0.00000000000E+00  0.22388179388E+03  0.22388179388E+03  0.00000000000E+00 0. -1.
          1   -1    0    0  501    0 -0.00000000000E+00 -0.00000000000E+00 -0.10326457626E+04  0.10326457626E+04  0.00000000000E+00 0. -1.
         25    2    1    2    0    0 -0.10523650276E+03 -0.59003334224E+02 -0.87473896720E+02  0.19450733293E+03  0.12500121997E+03 0.  0.
          2    1    1    2  501    0 -0.64947330049E+01 -0.47872345270E+02 -0.85575203942E+03  0.85711463409E+03  0.00000000000E+00 0. -1.
          1    1    1    2  502    0  0.11173123576E+03  0.10687567949E+03  0.13446196742E+03  0.20490558946E+03  0.00000000000E+00 0. -1.
         22    1    3    3    0    0 -0.11823432477E+03 -0.77776276867E+02 -0.95016800470E+02  0.17046025099E+03  0.00000000000E+00 0.  1.
         22    1    3    3    0    0  0.12997822013E+02  0.18772942643E+02  0.75429037505E+01  0.24047081934E+02  0.00000000000E+00 0.  1.
</event>
<event>
 7    1  0.6017574E-006  0.2197371E+03  0.7818608E-02  0.1306580E+00
          2   -1    0    0  502    0  0.00000000000E+00  0.00000000000E+00  0.13317275917E+03  0.13317275917E+03  0.00000000000E+00 0. -1.
          1   -1    0    0  501    0 -0.00000000000E+00 -0.00000000000E+00 -0.26083652744E+04  0.26083652744E+04  0.00000000000E+00 0. -1.
         25    2    1    2    0    0 -0.18292331553E+03  0.69304931486E+02 -0.36320393153E+03  0.43105265880E+03  0.12500074355E+03 0.  0.
          2    1    1    2  501    0 -0.23750557053E+02  0.26554017647E+02 -0.20801430001E+04  0.20804480541E+04  0.00000000000E+00 0. -1.
          1    1    1    2  502    0  0.20667387259E+03 -0.95858949133E+02 -0.31845583642E+02  0.23003732075E+03  0.00000000000E+00 0. -1.
         22    1    3    3    0    0 -0.10522671050E+03  0.19790449423E+02 -0.30206318506E+03  0.32047853323E+03  0.00000000000E+00 0.  1.
         22    1    3    3    0    0 -0.77696605035E+02  0.49514482063E+02 -0.61140746466E+02  0.11057412557E+03  0.00000000000E+00 0.  1.
</event>
<event>
 7    1  0.6017574E-006  0.6722932E+02  0.7818608E-02  0.1420522E+00
          2   -1    0    0  502    0  0.00000000000E+00  0.00000000000E+00  0.16625587409E+04  0.16625587409E+04  0.00000000000E+00 0. -1.
          1   -1    0    0  501    0 -0.00000000000E+00 -0.00000000000E+00 -0.21793525433E+04  0.21793525433E+04  0.00000000000E+00 0. -1.
         25    2    1    2    0    0 -0.79172965375E+02  0.27880670133E+02 -0.76210178980E+02  0.16875762099E+03  0.12500181219E+03 0.  0.
          2    1    1    2  501    0  0.13626724890E+02 -0.42728954107E+02 -0.20559253385E+04  0.20564144642E+04  0.00000000000E+00 0. -1.
          1    1    1    2  502    0  0.65546240485E+02  0.14848283974E+02  0.16153417151E+04  0.16167391990E+04  0.00000000000E+00 0. -1.
         22    1    3    3    0    0 -0.69728889369E+02  0.58213359425E+02 -0.95331885299E+02  0.13167794646E+03  0.00000000000E+00 0. -1.
         22    1    3    3    0    0 -0.94440760062E+01 -0.30332689292E+02  0.19121706318E+02  0.37079674538E+02  0.00000000000E+00 0. -1.
</event>
<event>
 7    1  0.6017574E-006  0.1106903E+03  0.7818608E-02  0.1338182E+00
          2   -1    0    0  502    0  0.00000000000E+00  0.00000000000E+00  0.40147994047E+03  0.40147994047E+03  0.00000000000E+00 0. -1.
          1   -1    0    0  501    0 -0.00000000000E+00 -0.00000000000E+00 -0.72901136343E+03  0.72901136343E+03  0.00000000000E+00 0. -1.
         25    2    1    2    0    0  0.36810975002E+02 -0.55413022814E+02 -0.74503900735E+02  0.16000452116E+03  0.12499985836E+03 0.  0.
          2    1    1    2  501    0 -0.16301192905E+01 -0.53355453809E+02 -0.60143759934E+03  0.60380182811E+03  0.00000000000E+00 0. -1.
          1    1    1    2  502    0 -0.35180855711E+02  0.10876847662E+03  0.34841007711E+03  0.36668495462E+03  0.00000000000E+00 0. -1.
         22    1    3    3    0    0 -0.23410930124E+01 -0.86364167715E+02 -0.67434720801E+02  0.10959786381E+03  0.00000000000E+00 0.  1.
         22    1    3    3    0    0  0.39152068014E+02  0.30951144902E+02 -0.70691799340E+01  0.50406657352E+02  0.00000000000E+00 0.  1.
</event>
<event>
 7    1  0.6017574E-006  0.4769881E+02  0.7818608E-02  0.1513435E+00
          2   -1    0    0  502    0  0.00000000000E+00  0.00000000000E+00  0.32072327869E+03  0.32072327869E+03  0.00000000000E+00 0. -1.
          1   -1    0    0  501    0 -0.00000000000E+00 -0.00000000000E+00 -0.23543625009E+03  0.23543625009E+03  0.00000000000E+00 0. -1.
         25    2    1    2    0    0 -0.12481239095E+02 -0.11620669873E+02  0.14313976813E+03  0.19079918423E+03  0.12499805673E+03 0.  0.
          2    1    1    2  501    0  0.23705157171E+02  0.41991273096E+02 -0.20710087680E+03  0.21264048219E+03  0.00000000000E+00 0. -1.
          1    1    1    2  502    0 -0.11223918076E+02 -0.30370603223E+02  0.14924813728E+03  0.15271986235E+03  0.00000000000E+00 0. -1.
         22    1    3    3    0    0 -0.11313199427E+02 -0.61701239379E+02  0.35511181099E+02  0.72083808205E+02  0.00000000000E+00 0.  1.
         22    1    3    3    0    0 -0.11680396683E+01  0.50080569506E+02  0.10762858703E+03  0.11871537603E+03  0.00000000000E+00 0.  1.
</event>
<event>
 7    1  0.6017574E-006  0.4741006E+02  0.7818608E-02  0.1535833E+00
          2   -1    0    0  502    0  0.00000000000E+00  0.00000000000E+00  0.33375884182E+03  0.33375884182E+03  0.00000000000E+00 0. -1.
          1   -1    0    0  501    0 -0.00000000000E+00 -0.00000000000E+00 -0.68703003553E+03  0.68703003553E+03  0.00000000000E+00 0. -1.
         25    2    1    2    0    0  0.36360354058E+02 -0.26013666708E+02  0.16546628339E+02  0.13378301770E+03  0.12500127484E+03 0.  0.
          2    1    1    2  501    0 -0.15600117456E+02  0.44907198470E+02 -0.62674721841E+03  0.62854760832E+03  0.00000000000E+00 0. -1.
          1    1    1    2  502    0 -0.20760236603E+02 -0.18893531761E+02  0.25692939636E+03  0.25845825133E+03  0.00000000000E+00 0. -1.
         22    1    3    3    0    0 -0.16226939930E+02 -0.16798789646E+02 -0.45975329692E+02  0.51567856785E+02  0.00000000000E+00 0.  1.
         22    1    3    3    0    0  0.52587293989E+02 -0.92148770620E+01  0.62521958031E+02  0.82215160915E+02  0.00000000000E+00 0.  1.
</event>
<event>
 7    1  0.7650428E-006  0.5246322E+02  0.7818608E-02  0.1505628E+00
          2   -1    0    0  502    0  0.00000000000E+00  0.00000000000E+00  0.25596429380E+04  0.25596429380E+04  0.00000000000E+00 0. -1.
          1   -1    0    0  501    0 -0.00000000000E+00 -0.00000000000E+00 -0.91715353078E+03  0.91715353078E+03  0.00000000000E+00 0. -1.
         25    2    1    2    0    0 -0.57293251979E+02  0.12022969923E+01 -0.15820167469E+02  0.13841776759E+03  0.12500095378E+03 0.  0.
          2    1    1    2  501    0  0.12436432600E+02 -0.28438047717E+02 -0.83947215231E+03  0.84004576180E+03  0.00000000000E+00 0. -1.
          1    1    1    2  502    0  0.44856819379E+02  0.27235750725E+02  0.24977817270E+04  0.24983329394E+04  0.00000000000E+00 0. -1.
         22    1    3    3    0    0 -0.74025476910E+02  0.26046675568E+02  0.29716881563E+02  0.83912416183E+02  0.00000000000E+00 0.  1.
         22    1    3    3    0    0  0.16732224931E+02 -0.24844378576E+02 -0.45537049031E+02  0.54505351411E+02  0.00000000000E+00 0.  1.
</event>
<event>
 7    1  0.6017574E-006  0.1419732E+03  0.7818608E-02  0.1253712E+00
          2   -1    0    0  502    0  0.00000000000E+00  0.00000000000E+00  0.62991507448E+03  0.62991507448E+03  0.00000000000E+00 0. -1.
          1   -1    0    0  501    0 -0.00000000000E+00 -0.00000000000E+00 -0.51059588430E+03  0.51059588430E+03  0.00000000000E+00 0. -1.
         25    2    1    2    0    0 -0.98904032803E+02  0.52206462639E+02  0.25398209854E+03  0.30436792936E+03  0.12500163038E+03 0.  0.
          2    1    1    2  501    0 -0.23618422114E+01  0.91166894096E+02 -0.45866774017E+03  0.46764631587E+03  0.00000000000E+00 0. -1.
          1    1    1    2  502    0  0.10126587501E+03 -0.14337335673E+03  0.32400483181E+03  0.36849671355E+03  0.00000000000E+00 0. -1.
         22    1    3    3    0    0 -0.56618267932E+02 -0.56561444097E+01  0.21064635401E+02  0.60674039735E+02  0.00000000000E+00 0. -1.
         22    1    3    3    0    0 -0.42285764871E+02  0.57862607049E+02  0.23291746314E+03  0.24369388962E+03  0.00000000000E+00 0. -1.
</event>
<event>
 7    1  0.6595503E-006  0.1260956E+03  0.7818608E-02  0.1329465E+00
          2   -1    0    0  502    0  0.00000000000E+00  0.00000000000E+00  0.21698686821E+04  0.21698686821E+04  0.00000000000E+00 0. -1.
          1   -1    0    0  501    0 -0.00000000000E+00 -0.00000000000E+00 -0.72635794643E+03  0.72635794643E+03  0.00000000000E+00 0. -1.
         25    2    1    2    0    0 -0.11063695472E+03 -0.13430860886E+03  0.24412466395E+02  0.21563928077E+03  0.12499997092E+03 0.  0.
          2    1    1    2  501    0  0.22843534828E+02  0.45117146274E+02 -0.62781662937E+03  0.62985006477E+03  0.00000000000E+00 0. -1.
          1    1    1    2  502    0  0.87793419896E+02  0.89191462588E+02  0.20469148986E+04  0.20507372830E+04  0.00000000000E+00 0. -1.
         22    1    3    3    0    0 -0.12648635151E+03 -0.64401436590E+02  0.24025886013E+02  0.14395688713E+03  0.00000000000E+00 0. -1.
         22    1    3    3    0    0  0.15849396784E+02 -0.69907172272E+02  0.38658038253E+00  0.71682393640E+02  0.00000000000E+00 0. -1.
</event>
<event>
 7    1  0.6017574E-006  0.1999467E+03  0.7818608E-02  0.1217666E+00
          2   -1    0    0  502    0  0.00000000000E+00  0.00000000000E+00  0.23398213276E+03  0.23398213276E+03  0.00000000000E+00 0. -1.
          1   -1    0    0  501    0 -0.00000000000E+00 -0.00000000000E+00 -0.11653693158E+04  0.11653693158E+04  0.00000000000E+00 0. -1.
         25    2    1    2    0    0  0.89008179639E+02  0.17444912165E+03 -0.30857886599E+02  0.23437498259E+03  0.12499788482E+03 0.  0.
          2    1    1    2  501    0  0.80099188789E+02 -0.48484256260E+02 -0.94487104854E+03  0.94949876331E+03  0.00000000000E+00 0. -1.
          1    1    1    2  502    0 -0.16910736843E+03 -0.12596486539E+03  0.44341752091E+02  0.21547770267E+03  0.00000000000E+00 0. -1.
         22    1    3    3    0    0  0.10323040199E+02  0.60923223872E+02 -0.67456666535E+02  0.91480086499E+02  0.00000000000E+00 0.  1.
         22    1    3    3    0    0  0.78685139440E+02  0.11352589778E+03  0.36598779936E+02  0.14289489609E+03  0.00000000000E+00 0.  1.
</event>
<event>
 7    1  0.6017574E-006  0.7171847E+02  0.7818608E-02  0.1375827E+00
          2   -1    0    0  502    0  0.00000000000E+00  0.00000000000E+00  0.31110329997E+04  0.31110329997E+04  0.00000000000E+00 0. -1.
          1   -1    0    0  501    0 -0.00000000000E+00 -0.00000000000E+00 -0.58345311286E+02  0.58345311286E+02  0.00000000000E+00 0. -1.
         25    2    1    2    0    0 -0.74965512013E+02 -0.11040109510E+02  0.15768248616E+03  0.21501178854E+03  0.12499836304E+03 0.  0.
          2    1    1    2  501    0  0.43422755666E+02  0.62027110008E+02  0.19433770933E+02  0.78170132009E+02  0.00000000000E+00 0. -1.
          1    1    1    2  502    0  0.31542756347E+02 -0.50987000498E+02  0.28755714313E+04  0.28761963904E+04  0.00000000000E+00 0. -1.
         22    1    3    3    0    0  0.31120209798E+02 -0.36132554026E+01  0.71732979470E+02  0.78276071798E+02  0.00000000000E+00 0. -1.
         22    1    3    3    0    0 -0.10608572181E+03 -0.74268541071E+01  0.85949506686E+02  0.13673571675E+03  0.00000000000E+00 0. -1.
</event>
<event>
 7    1  0.6017574E-006  0.5005022E+02  0.7818608E-02  0.1487029E+00
          2   -1    0    0  502    0  0.00000000000E+00  0.00000000000E+00  0.60999123097E+03  0.60999123097E+03  0.00000000000E+00 0. -1.
          1   -1    0    0  501    0 -0.00000000000E+00 -0.00000000000E+00 -0.61234941265E+03  0.61234941265E+03  0.00000000000E+00 0. -1.
         25    2    1    2    0    0  0.23418702281E+02 -0.89012848900E+01 -0.47785709265E+02  0.13614667722E+03  0.12499910087E+03 0.  0.
          2    1    1    2  501    0  0.22784334279E+02  0.29145527075E+02 -0.51859869931E+03  0.51991653038E+03  0.00000000000E+00 0. -1.
          1    1    1    2  502    0 -0.46203036561E+02 -0.20244242185E+02  0.56402622689E+03  0.56627743603E+03  0.00000000000E+00 0. -1.
         22    1    3    3    0    0  0.74801588164E+02 -0.12129702031E+02 -0.32381818310E+02  0.82407459737E+02  0.00000000000E+00 0. -1.
         22    1    3    3    0    0 -0.51382885882E+02  0.32284171415E+01 -0.15403890954E+02  0.53739217480E+02  0.00000000000E+00 0. -1.
</event>
<event>
 7    1  0.6017574E-006  0.6208191E+02  0.7818608E-02  0.1433825E+00
          2   -1    0    0  502    0  0.00000000000E+00  0.00000000000E+00  0.44850899715E+04  0.44850899715E+04  0.00000000000E+00 0. -1.
          1   -1    0    0  501    0 -0.00000000000E+00 -0.00000000000E+00 -0.23703884920E+02  0.23703884920E+02  0.00000000000E+00 0. -1.
         25    2    1    2    0    0 -0.11035893856E+02 -0.66375867646E+02  0.16445743690E+04  0.16506900818E+04  0.12500137788E+03 0.  0.
          2    1    1    2  501    0 -0.31090420404E+02  0.54056504356E+02  0.27011591905E+02  0.67958413764E+02  0.00000000000E+00 0. -1.
          1    1    1    2  502    0  0.42126314260E+02  0.12319363290E+02  0.27898001257E+04  0.27901453608E+04  0.00000000000E+00 0. -1.
         22    1    3    3    0    0 -0.63761731149E+02 -0.32799862440E+02  0.60425631824E+03  0.60849575797E+03  0.00000000000E+00 0.  1.
         22    1    3    3    0    0  0.52725837293E+02 -0.33576005207E+02  0.10403180507E+04  0.10421943239E+04  0.00000000000E+00 0.  1.
</event>
<event>
 7    1  0.6017574E-006  0.1175714E+03  0.7818608E-02  0.1337853E+00
          2   -1    0    0  502    0  0.00000000000E+00  0.00000000000E+00  0.62101819004E+03  0.62101819004E+03  0.00000000000E+00 0. -1.
          1   -1    0    0  501    0 -0.00000000000E+00 -0.00000000000E+00 -0.15616248739E+03  0.15616248739E+03  0.00000000000E+00 0. -1.
         25    2    1    2    0    0 -0.28729481180E+02 -0.96534621088E+02  0.12612984173E+03  0.20415150636E+03  0.12499913767E+03 0.  0.
          2    1    1    2  501    0  0.79028786078E+02  0.93347595745E+02 -0.83315434065E+02  0.14798913546E+03  0.00000000000E+00 0. -1.
          1    1    1    2  502    0 -0.50299304897E+02  0.31870253421E+01  0.42204129499E+03  0.42504003562E+03  0.00000000000E+00 0. -1.
         22    1    3    3    0    0  0.79216999858E+01  0.28776074500E+02  0.26605955547E+02  0.39983654971E+02  0.00000000000E+00 0.  1.
         22    1    3    3    0    0 -0.36651181166E+02 -0.12531069559E+03  0.99523886182E+02  0.16416785139E+03  0.00000000000E+00 0.  1.
</event>
<event>
 7    1  0.6017574E-006  0.9176944E+02  0.7818608E-02  0.1468217E+00
          2   -1    0    0  502    0  0.00000000000E+00  0.00000000000E+00  0.10566814072E+03  0.10566814072E+03  0.00000000000E+00 0. -1.
          1   -1    0    0  501    0 -0.00000000000E+00 -0.00000000000E+00 -0.34197701940E+03  0.34197701940E+03  0.00000000000E+00 0. -1.
         25    2    1    2    0    0  0.44916193193E+02  0.97996950476E+02 -0.61139770487E+02  0.17602480764E+03  0.12500317858E+03 0.  0.
          2    1    1    2  501    0 -0.48314699607E+02 -0.75194820197E+02 -0.21092272255E+03  0.22907851507E+03  0.00000000000E+00 0. -1.
          1    1    1    2  502    0  0.33985064135E+01 -0.22802130279E+02  0.35753614355E+02  0.42541837414E+02  0.00000000000E+00 0. -1.
         22    1    3    3    0    0  0.10042848707E+02  0.17966104465E+02 -0.83424908145E+02  0.85926451217E+02  0.00000000000E+00 0. -1.
         22    1    3    3    0    0  0.34873344486E+02  0.80030846011E+02  0.22285137658E+02  0.90098356419E+02  0.00000000000E+00 0. -1.
</event>
<event>
 7    1  0.6017574E-006  0.4643026E+02  0.7818608E-02  0.1530095E+00
          2   -1    0    0  502    0  0.00000000000E+00  0.00000000000E+00  0.69361787544E+03  0.69361787544E+03  0.00000000000E+00 0. -1.
          1   -1    0    0  501    0 -0.00000000000E+00 -0.00000000000E+00 -0.73266302838E+03  0.73266302838E+03  0.00000000000E+00 0. -1.
         25    2    1    2    0    0  0.34416165835E+02  0.67110677262E+02 -0.12082515880E+03  0.18950858663E+03  0.12500587961E+03 0.  0.
          2    1    1    2  501    0 -0.21398846769E+02 -0.40344023891E+02 -0.57625638833E+03  0.57806312458E+03  0.00000000000E+00 0. -1.
          1    1    1    2  502    0 -0.13017319066E+02 -0.26766653371E+02  0.65803639419E+03  0.65870919260E+03  0.00000000000E+00 0. -1.
         22    1    3    3    0    0  0.68874389204E+02  0.12943264613E+02 -0.99813625845E+02  0.12195888443E+03  0.00000000000E+00 0.  1.
         22    1    3    3    0    0 -0.34458223369E+02  0.54167412648E+02 -0.21011532954E+02  0.67549702204E+02  0.00000000000E+00 0.  1.
</event>
<event>
 7    1  0.6017574E-006  0.8258111E+02  0.7818608E-02  0.1444891E+00
          2   -1    0    0  502    0  0.00000000000E+00  0.00000000000E+00  0.14439227816E+04  0.14439227816E+04  0.00000000000E+00 0. -1.
          1   -1    0    0  501    0 -0.00000000000E+00 -0.00000000000E+00 -0.35224574881E+02  0.35224574881E+02  0.00000000000E+00 0. -1.
         25    2    1    2    0    0  0.77082418472E+02 -0.41925829393E+02  0.66423737301E+03  0.68156851326E+03  0.12499950464E+03 0.  0.
          2    1    1    2  501    0 -0.81695983913E+02  0.11903565100E+02  0.38725014265E+02  0.91189667066E+02  0.00000000000E+00 0. -1.
          1    1    1    2  502    0  0.46135654414E+01  0.30022264293E+02  0.70573581944E+03  0.70638917615E+03  0.00000000000E+00 0. -1.
         22    1    3    3    0    0  0.27270612634E+02  0.38790591129E+02  0.11823208671E+03  0.12738611620E+03  0.00000000000E+00 0. -1.
         22    1    3    3    0    0  0.49811805838E+02 -0.80716420522E+02  0.54600528630E+03  0.55418239706E+03  0.00000000000E+00 0. -1.
</event>
<event>
 7    1  0.6017574E-006  0.6376744E+02  0.7818608E-02  0.1397696E+00
          2   -1    0    0  502    0  0.00000000000E+00  0.00000000000E+00  0.14208053568E+03  0.14208053568E+03  0.00000000000E+00 0. -1.
          1   -1    0    0  501    0 -0.00000000000E+00 -0.00000000000E+00 -0.45501270293E+03  0.45501270293E+03  0.00000000000E+00 0. -1.
         25    2    1    2    0    0 -0.86052093334E+02 -0.51816395326E+02 -0.83175354697E+02  0.18064423764E+03  0.12499719745E+03 0.  0.
          2    1    1    2  501    0  0.62249186233E+02  0.55727441363E+00 -0.31117345484E+03  0.31733923605E+03  0.00000000000E+00 0. -1.
          1    1    1    2  502    0  0.23802907101E+02  0.51259120912E+02  0.81416642280E+02  0.99109764924E+02  0.00000000000E+00 0. -1.
         22    1    3    3    0    0 -0.10984692650E+03 -0.19883991473E+02 -0.32644436394E+02  0.11630726377E+03  0.00000000000E+00 0.  1.
         22    1    3    3    0    0  0.23794833168E+02 -0.31932403853E+02 -0.50530918303E+02  0.64336973863E+02  0.00000000000E+00 0.  1.
</event>
<event>
 7    1  0.6017574E-006  0.6598486E+02  0.7818608E-02  0.1415706E+00
          2   -1    0    0  502    0  0.00000000000E+00  0.00000000000E+00  0.10865316823E+04  0.10865316823E+04  0.00000000000E+00 0. -1.
          1   -1    0    0  501    0 -0.00000000000E+00 -0.00000000000E+00 -0.15583314332E+03  0.15583314332E+03  0.00000000000E+00 0. -1.
         25    2    1    2    0    0  0.96039804209E+02 -0.59535352398E+02  0.85744600382E+03  0.87384551293E+03  0.12499691526E+03 0.  0.
          2    1    1    2  501    0 -0.56131867869E+02  0.33915161750E+02 -0.13758390330E+03  0.15241507548E+03  0.00000000000E+00 0. -1.
          1    1    1    2  502    0 -0.39907936340E+02  0.25620190648E+02  0.21083643852E+03  0.21610423725E+03  0.00000000000E+00 0. -1.
         22    1    3    3    0    0 -0.16271511961E+02 -0.53613385685E+02  0.28204389536E+03  0.28755506627E+03  0.00000000000E+00 0. -1.
         22    1    3    3    0    0  0.11231131617E+03 -0.59219667134E+01  0.57540210846E+03  0.58629044666E+03  0.00000000000E+00 0. -1.
</event>
<event>
 7    1  0.6017574E-006  0.1461492E+03  0.7818608E-02  0.1409472E+00
          2   -1    0    0  502    0  0.00000000000E+00  0.00000000000E+00  0.81892788528E+03  0.81892788528E+03  0.00000000000E+00 0. -1.
          1   -1    0    0  501    0 -0.00000000000E+00 -0.00000000000E+00 -0.70072773446E+03  0.70072773446E+03  0.00000000000E+00 0. -1.
         25    2    1    2    0    0 -0.10584025602E+03 -0.97152724300E+02 -0.90268150349E+02  0.21074665014E+03  0.12499999977E+03 0.  0.
          2    1    1    2  501    0  0.14492315443E+02 -0.17177861008E+02 -0.54292879671E+03  0.54339376552E+03  0.00000000000E+00 0. -1.
          1    1    1    2  502    0  0.91347940582E+02  0.11433058531E+03  0.75139709787E+03  0.76551520408E+03  0.00000000000E+00 0. -1.
         22    1    3    3    0    0 -0.86784297938E+02 -0.90932427615E+02 -0.78697846829E+01  0.12594504465E+03  0.00000000000E+00 0.  1.
         22    1    3    3    0    0 -0.19055958086E+02 -0.62202966845E+01 -0.82398365666E+02  0.84801605491E+02  0.00000000000E+00 0.  1.
</event>
<event>
 7    1  0.6017574E-006  0.5153758E+02  0.7818608E-02  0.1461046E+00
          2   -1    0    0  502    0  0.00000000000E+00  0.00000000000E+00  0.28858545166E+04  0.28858545166E+04  0.00000000000E+00 0. -1.
          1   -1    0    0  501    0 -0.00000000000E+00 -0.00000000000E+00 -0.73695263521E+02  0.73695263521E+02  0.00000000000E+00 0. -1.
         25    2    1    2    0    0  0.80964692335E+01 -0.16793071035E+02  0.15835944142E+04  0.15886294255E+04  0.12499849144E+03 0.  0.
          2    1    1    2  501    0  0.46098353575E+01 -0.42984550640E+02 -0.63824147176E+02  0.77087248871E+02  0.00000000000E+00 0. -1.
          1    1    1    2  502    0 -0.12706304591E+02  0.59777621676E+02  0.12923889861E+04  0.12938331058E+04  0.00000000000E+00 0. -1.
         22    1    3    3    0    0 -0.61221865793E+01 -0.63896178118E+02  0.12243267562E+04  0.12260082417E+04  0.00000000000E+00 0.  1.
         22    1    3    3    0    0  0.14218655813E+02  0.47103107083E+02  0.35926765802E+03  0.36262118384E+03  0.00000000000E+00 0.  1.
</event>
<event>
 7    1  0.6017574E-006  0.4910010E+02  0.7818608E-02  0.1494635E+00
          2   -1    0    0  502    0  0.00000000000E+00  0.00000000000E+00  0.20062165533E+04  0.20062165533E+04  0.00000000000E+00 0. -1.
          1   -1    0    0  501    0 -0.00000000000E+00 -0.00000000000E+00 -0.14049246480E+03  0.14049246480E+03  0.00000000000E+00 0. -1.
         25    2    1    2    0    0 -0.22837268857E+02 -0.42365979528E+02  0.47310423841E+03  0.49169999376E+03  0.12499938557E+03 0.  0.
          2    1    1    2  501    0 -0.24191484654E+02  0.26343847305E+02 -0.12834375307E+03  0.13323417420E+03  0.00000000000E+00 0. -1.
          1    1    1    2  502    0  0.47028753511E+02  0.16022132223E+02  0.15209636032E+04  0.15217748502E+04  0.00000000000E+00 0. -1.
         22    1    3    3    0    0  0.13862318621E+02 -0.35476977440E+02  0.34138609681E+02  0.51149041797E+02  0.00000000000E+00 0.  1.
         22    1    3    3    0    0 -0.36699587478E+02 -0.68890020878E+01  0.43896562873E+03  0.44055095196E+03  0.00000000000E+00 0.  1.
</event>
<event>
 7    1  0.6017574E-006  0.1229450E+03  0.7818608E-02  0.1444179E+00
          2   -1    0    0  502    0  0.00000000000E+00  0.00000000000E+00  0.54782923372E+03  0.54782923372E+03  0.00000000000E+00 0. -1.
          1   -1    0    0  501    0 -0.00000000000E+00 -0.00000000000E+00 -0.89296962800E+03  0.89296962800E+03  0.00000000000E+00 0. -1.
         25    2    1    2    0    0  0.97845067629E+02 -0.80354151604E+02 -0.63107482908E+02  0.18878037547E+03  0.12500011530E+03 0.  0.
          2    1    1    2  501    0 -0.81092180458E+02  0.92187228952E+02 -0.76189195303E+03  0.77172130656E+03  0.00000000000E+00 0. -1.
          1    1    1    2  502    0 -0.16752887171E+02 -0.11833077347E+02  0.47985904166E+03  0.48029717968E+03  0.00000000000E+00 0. -1.
         22    1    3    3    0    0  0.69828760522E+02  0.34293410753E+01 -0.71547813781E+02  0.10003452321E+03  0.00000000000E+00 0. -1.
         22    1    3    3    0    0  0.28016307107E+02 -0.83783492679E+02  0.84403308735E+01  0.88745852268E+02  0.00000000000E+00 0. -1.
</event>
<event>
 7    1  0.6017574E-006  0.9287347E+02  0.7818608E-02  0.1411786E+00
          2   -1    0    0  502    0  0.00000000000E+00  0.00000000000E+00  0.68945257225E+03  0.68945257225E+03  0.00000000000E+00 0. -1.
          1   -1    0    0  501    0 -0.00000000000E+00 -0.00000000000E+00 -0.26146645702E+04  0.26146645702E+04  0.00000000000E+00 0. -1.
         25    2    1    2    0    0  0.43478203739E+02 -0.93443546979E+02 -0.59430577779E+02  0.17256490362E+03  0.12499840685E+03 0.  0.
          2    1    1    2  501    0 -0.87595268748E+01  0.92392845389E+02 -0.24973276554E+04  0.24990515372E+04  0.00000000000E+00 0. -1.
          1    1    1    2  502    0 -0.34718676864E+02  0.10507015893E+01  0.63154623516E+03  0.63250070169E+03  0.00000000000E+00 0. -1.
         22    1    3    3    0    0  0.16884117024E+02  0.21945670333E+02  0.16179899883E+02  0.32069845872E+02  0.00000000000E+00 0.  1.
         22    1    3    3    0    0  0.26594086714E+02 -0.11538921731E+03 -0.75610477662E+02  0.14049505775E+03  0.00000000000E+00 0.  1.
</event>
<event>
 7    1  0.6017574E-006  0.7046795E+02  0.7818608E-02  0.1521555E+00
          2   -1    0    0  502    0  0.00000000000E+00  0.00000000000E+00  0.36023824380E+04  0.36023824380E+04  0.00000000000E+00 0. -1.
          1   -1    0    0  501    0 -0.00000000000E+00 -0.00000000000E+00 -0.34593946692E+02  0.34593946692E+02  0.00000000000E+00 0. -1.
         25    2    1    2    0    0 -0.85396277925E+02 -0.65577755030E+01  0.14939056609E+03  0.21278600064E+03  0.12499924851E+03 0.  0.
          2    1    1    2  501    0  0.15465827496E+02  0.13840149293E+02  0.40025123170E+02  0.45086051473E+02  0.00000000000E+00 0. -1.
          1    1    1    2  502    0  0.69930450429E+02 -0.72823737903E+01  0.33783728020E+04  0.33791043326E+04  0.00000000000E+00 0. -1.
         22    1    3    3    0    0  0.45931239726E+01 -0.42859014482E+02  0.12293423151E+02  0.44823210092E+02  0.00000000000E+00 0. -1.
         22    1    3    3    0    0 -0.89989401898E+02  0.36301238979E+02  0.13709714294E+03  0.16796279055E+03  0.00000000000E+00 0. -1.
</event>
<event>
 7    1  0.6017574E-006  0.4703563E+02  0.7818608E-02  0.1511703E+00
          2   -1    0    0  502    0  0.00000000000E+00  0.00000000000E+00  0.72763247037E+03  0.72763247037E+03  0.00000000000E+00 0. -1.
          1   -1    0    0  501    0 -0.00000000000E+00 -0.00000000000E+00 -0.18329014231E+04  0.18329014231E+04  0.00000000000E+00 0. -1.
         25    2    1    2    0    0  0.40755172295E+02  0.54584351602E+02 -0.25693817161E+02  0.14465721838E+03  0.12500041232E+03 0.  0.
          2    1    1    2  501    0 -0.86191930175E+01 -0.46162795650E+02 -0.17469972366E+04  0.17476282897E+04  0.00000000000E+00 0. -1.
          1    1    1    2  502    0 -0.32135979277E+02 -0.84215559516E+01  0.66742210099E+03  0.66824838545E+03  0.00000000000E+00 0. -1.
         22    1    3    3    0    0  0.74779257945E+02 -0.19865626975E+00 -0.28701099865E+02  0.80098252269E+02  0.00000000000E+00 0.  1.
         22    1    3    3    0    0 -0.34024085651E+02  0.54783007871E+02  0.30072827031E+01  0.64558966109E+02  0.00000000000E+00 0.  1.
</event>
<event>
 7    1  0.6017574E-006  0.6605588E+02  0.7818608E-02  0.1445037E+00
          2   -1    0    0  502    0  0.00000000000E+00  0.00000000000E+00  0.64452668674E+02  0.64452668674E+02  0.00000000000E+00 0. -1.
          1   -1    0    0  501    0 -0.00000000000E+00 -0.00000000000E+00 -0.29763580405E+03  0.29763580405E+03  0.00000000000E+00 0. -1.
         25    2    1    2    0    0 -0.77851523517E+02  0.18742638786E+02 -0.87366810261E+02  0.17224799000E+03  0.12499705717E+03 0.  0.
          2    1    1    2  501    0  0.48693982883E+02 -0.43006001935E+02 -0.13590484724E+03  0.15063448368E+03  0.00000000000E+00 0. -1.
          1    1    1    2  502    0  0.29157540634E+02  0.24263363149E+02 -0.99114778758E+01  0.39205999041E+02  0.00000000000E+00 0. -1.
         22    1    3    3    0    0 -0.51868223778E+02 -0.37800971700E+02 -0.89322096627E+02  0.10998937697E+03  0.00000000000E+00 0. -1.
         22    1    3    3    0    0 -0.25983299738E+02  0.56543610486E+02  0.19552863666E+01  0.62258613034E+02  0.00000000000E+00 0. -1.
</event>
<event>
 7    1  0.6017574E-006  0.6075046E+02  0.7818608E-02  0.1493773E+00
          2   -1    0    0  502    0  0.00000000000E+00  0.00000000000E+00  0.75853947941E+03  0.75853947941E+03  0.00000000000E+00 0. -1.
          1   -1    0    0  501    0 -0.00000000000E+00 -0.00000000000E+00 -0.44618778094E+03  0.44618778094E+03  0.00000000000E+00 0. -1.
         25    2    1    2    0    0  0.37413982707E+02 -0.46478081521E+02  0.41006446527E+03  0.43282537906E+03  0.12499969967E+03 0.  0.
          2    1    1    2  501    0 -0.25088641572E+02 -0.14704488074E+02 -0.43142481924E+03  0.43240378880E+03  0.00000000000E+00 0. -1.
          1    1    1    2  502    0 -0.12325341136E+02  0.61182569595E+02  0.33371205245E+03  0.33949809249E+03  0.00000000000E+00 0. -1.
         22    1    3    3    0    0  0.61812634582E+02 -0.14715954861E+02  0.37261243001E+03  0.37799124873E+03  0.00000000000E+00 0.  1.
         22    1    3    3    0    0 -0.24398651875E+02 -0.31762126660E+02  0.37452035256E+02  0.54834130321E+02  0.00000000000E+00 0.  1.
</event>
<event>
 7    1  0.6017574E-006  0.7420157E+02  0.7818608E-02  0.1509713E+00
          2   -1    0    0  502    0  0.00000000000E+00  0.00000000000E+00  0.12020503560E+04  0.12020503560E+04  0.00000000000E+00 0. -1.
          1   -1    0    0  501    0 -0.00000000000E+00 -0.00000000000E+00 -0.41045819957E+03  0.41045819957E+03  0.00000000000E+00 0. -1.
         25    2    1    2    0    0 -0.39234545712E+02  0.62292683081E+02 -0.55529172519E+02  0.15533448729E+03  0.12500234397E+03 0.  0.
          2    1    1    2  501    0  0.19254542450E+02  0.92108932339E+01 -0.30345509884E+03  0.30420482405E+03  0.00000000000E+00 0. -1.
          1    1    1    2  502    0  0.19980003261E+02 -0.71503576315E+02  0.11505764278E+04  0.11529692443E+04  0.00000000000E+00 0. -1.
         22    1    3    3    0    0 -0.52195373206E+02  0.67299399623E+02 -0.86499151233E+02  0.12139056528E+03  0.00000000000E+00 0.  1.
         22    1    3    3    0    0  0.12960827495E+02 -0.50067165420E+01  0.30969978715E+02  0.33943922011E+02  0.00000000000E+00 0.  1.
</event>
<event>
 7    1  0.6017574E-006  0.2746362E+03  0.7818608E-02  0.1336120E+00
          2   -1    0    0  502    0  0.00000000000E+00  0.00000000000E+00  0.75332588752E+02  0.75332588752E+02  0.00000000000E+00 0. -1.
          1   -1    0    0  501    0 -0.00000000000E+00 -0.00000000000E+00 -0.16023548651E+04  0.16023548651E+04  0.00000000000E+00 0. -1.
         25    2    1    2    0    0 -0.11701257258E+03 -0.23461924037E+03 -0.75538849735E+03  0.80930513958E+03  0.12499958768E+03 0.  0.
          2    1    1    2  501    0 -0.18388486561E+02 -0.11901657214E+02 -0.40839633303E+03  0.40898331349E+03  0.00000000000E+00 0. -1.
          1    1    1    2  502    0  0.13540105915E+03  0.24652089758E+03 -0.36323744593E+03  0.45939900075E+03  0.00000000000E+00 0. -1.
         22    1    3    3    0    0  0.27001327007E+02 -0.42121464410E+02 -0.12720159127E+03  0.13668772529E+03  0.00000000000E+00 0. -1.
         22    1    3    3    0    0 -0.14401389959E+03 -0.19249777596E+03 -0.62818690609E+03  0.67261741429E+03  0.00000000000E+00 0. -1.
</event>
<event>
 7    1  0.6017574E-006  0.6604919E+02  0.7818608E-02  0.1393467E+00
          2   -1    0    0  502    0  0.00000000000E+00  0.00000000000E+00  0.10901331953E+04  0.10901331953E+04  0.00000000000E+00 0. -1.
          1   -1    0    0  501    0 -0.00000000000E+00 -0.00000000000E+00 -0.95986942696E+02  0.95986942696E+02  0.00000000000E+00 0. -1.
         25    2    1    2    0    0  0.10869216472E+03 -0.94639889361E+01  0.29017908338E+03  0.33426138135E+03  0.12499286728E+03 0.  0.
          2    1    1    2  501    0 -0.48021519707E+02  0.29643519939E+02 -0.61648227914E+02  0.83578158836E+02  0.00000000000E+00 0. -1.
          1    1    1    2  502    0 -0.60670645017E+02 -0.20179531003E+02  0.76561539718E+03  0.76828059785E+03  0.00000000000E+00 0. -1.
         22    1    3    3    0    0  0.11669160993E+03  0.28725568039E+02  0.17212561099E+03  0.20992693025E+03  0.00000000000E+00 0. -1.
         22    1    3    3    0    0 -0.79994452076E+01 -0.38189556975E+02  0.11805347239E+03  0.12433445110E+03  0.00000000000E+00 0. -1.
</event>
<event>
 7    1  0.6017574E-006  0.1236048E+03  0.7818608E-02  0.1335511E+00
          2   -1    0    0  502    0  0.00000000000E+00  0.00000000000E+00  0.29937623370E+04  0.29937623370E+04  0.00000000000E+00 0. -1.
          1   -1    0    0  501    0 -0.00000000000E+00 -0.00000000000E+00 -0.73523769591E+02  0.73523769591E+02  0.00000000000E+00 0. -1.
         25    2    1    2    0    0 -0.11683609530E+03 -0.84653266480E+02  0.49887339467E+03  0.53415086406E+03  0.12500253187E+03 0.  0.
          2    1    1    2  501    0  0.11644943404E+03  0.35727357250E+02  0.11031895909E+02  0.12230542699E+03  0.00000000000E+00 0. -1.
          1    1    1    2  502    0  0.38666126001E+00  0.48925909230E+02  0.24103332768E+04  0.24108298155E+04  0.00000000000E+00 0. -1.
         22    1    3    3    0    0  0.20889730882E+02 -0.41290662106E+02  0.13273317973E+03  0.14056812098E+03  0.00000000000E+00 0. -1.
         22    1    3    3    0    0 -0.13772582618E+03 -0.43362604374E+02  0.36614021494E+03  0.39358274308E+03  0.00000000000E+00 0. -1.
</event>
<event>
 7    1  0.6017574E-006  0.6964061E+02  0.7818608E-02  0.1412158E+00
          2   -1    0    0  502    0  0.00000000000E+00  0.00000000000E+00  0.10885348645E+04  0.10885348645E+04  0.00000000000E+00 0. -1.
          1   -1    0    0  501    0 -0.00000000000E+00 -0.00000000000E+00 -0.52081119784E+03  0.52081119784E+03  0.00000000000E+00 0. -1.
         25    2    1    2    0    0  0.30497209561E+02  0.59836050826E+01  0.83636343188E+02  0.15357640209E+03  0.12499916022E+03 0.  0.
          2    1    1    2  501    0  0.24685770821E+02  0.39038435942E+02 -0.48343158735E+03  0.48563307796E+03  0.00000000000E+00 0. -1.
          1    1    1    2  502    0 -0.55182980382E+02 -0.45022041025E+02  0.96751891086E+03  0.97013658233E+03  0.00000000000E+00 0. -1.
         22    1    3    3    0    0 -0.43159142736E+02 -0.17616727110E+02  0.11959161562E+02  0.48125691902E+02  0.00000000000E+00 0.  1.
         22    1    3    3    0    0  0.73656352297E+02  0.23600332193E+02  0.71677181625E+02  0.10545071019E+03  0.00000000000E+00 0.  1.
</event>
<event>
 7    1  0.6017574E-006  0.5063250E+02  0.7818608E-02  0.1504983E+00
          2   -1    0    0  502    0  0.00000000000E+00  0.00000000000E+00  0.24560697774E+04  0.24560697774E+04  0.00000000000E+00 0. -1.
          1   -1    0    0  501    0 -0.00000000000E+00 -0.00000000000E+00 -0.23720883914E+03  0.23720883914E+03  0.00000000000E+00 0. -1.
         25    2    1    2    0    0  0.70475417114E+01  0.36151935876E+02  0.23924530220E+03  0.27244329038E+03  0.12502160429E+03 0.  0.
          2    1    1    2  501    0 -0.39144582842E+02 -0.32512158792E+02 -0.21755524636E+03  0.22342699938E+03  0.00000000000E+00 0. -1.
          1    1    1    2  502    0  0.32097041130E+02 -0.36397770836E+01  0.21971708825E+04  0.21974083268E+04  0.00000000000E+00 0. -1.
         22    1    3    3    0    0  0.49657950198E+02 -0.20722015472E+02  0.65773155207E+02  0.84978949682E+02  0.00000000000E+00 0. -1.
         22    1    3    3    0    0 -0.42610408486E+02  0.56873951348E+02  0.17347214699E+03  0.18746434070E+03  0.00000000000E+00 0. -1.
</event>
<event>
 7    1  0.6467173E-006  0.7706477E+02  0.7818608E-02  0.1409561E+00
          2   -1    0    0  502    0  0.00000000000E+00  0.00000000000E+00  0.16386905038E+04  0.16386905038E+04  0.00000000000E+00 0. -1.
          1   -1    0    0  501    0 -0.00000000000E+00 -0.00000000000E+00 -0.16528555083E+04  0.16528555083E+04  0.00000000000E+00 0. -1.
         25    2    1    2    0    0 -0.10554526766E+03  0.41529339177E+02 -0.78079003608E+02  0.18597181544E+03  0.12499878317E+03 0.  0.
          2    1    1    2  501    0  0.42523770676E+02  0.24151826058E+01 -0.15196003350E+04  0.15201971195E+04  0.00000000000E+00 0. -1.
          1    1    1    2  502    0  0.63021496987E+02 -0.43944521783E+02  0.15835143341E+04  0.15853770771E+04  0.00000000000E+00 0. -1.
         22    1    3    3    0    0 -0.11906755119E+03  0.55603496224E+02 -0.93347844924E+02  0.16119134806E+03  0.00000000000E+00 0.  1.
         22    1    3    3    0    0  0.13522283522E+02 -0.14074157047E+02  0.15268841316E+02  0.24780467376E+02  0.00000000000E+00 0.  1.
</event>
<event>
 7    1  0.6017574E-006  0.1410024E+03  0.7818608E-02  0.1260216E+00
          2   -1    0    0  502    0  0.00000000000E+00  0.00000000000E+00  0.10369812254E+03  0.10369812254E+03  0.00000000000E+00 0. -1.
          1   -1    0    0  501    0 -0.00000000000E+00 -0.00000000000E+00 -0.14900105347E+04  0.14900105347E+04  0.00000000000E+00 0. -1.
         25    2    1    2    0    0 -0.58166509043E+02  0.12499765588E+03 -0.80338593557E+03  0.82465888647E+03  0.12500224323E+03 0.  0.
          2    1    1    2  501    0 -0.23113440233E+02 -0.15344147353E+03 -0.64467423299E+03  0.66308625653E+03  0.00000000000E+00 0. -1.
          1    1    1    2  502    0  0.81279949276E+02  0.28443817656E+02  0.61747756432E+02  0.10596351420E+03  0.00000000000E+00 0. -1.
         22    1    3    3    0    0 -0.77471430218E+02  0.14101753324E+03 -0.68464234720E+03  0.70329432726E+03  0.00000000000E+00 0. -1.
         22    1    3    3    0    0  0.19304921175E+02 -0.16019877364E+02 -0.11874358838E+03  0.12136455921E+03  0.00000000000E+00 0. -1.
</event>
<event>
 7    1  0.6017574E-006  0.7745084E+02  0.7818608E-02  0.1356218E+00
          2   -1    0    0  502    0  0.00000000000E+00  0.00000000000E+00  0.12947646586E+04  0.12947646586E+04  0.00000000000E+00 0. -1.
          1   -1    0    0  501    0 -0.00000000000E+00 -0.00000000000E+00 -0.79360429945E+02  0.79360429945E+02  0.00000000000E+00 0. -1.
         25    2    1    2    0    0  0.28737698503E+02  0.20587278321E+02  0.98296527048E+02  0.16289419793E+03  0.12499048422E+03 0.  0.
          2    1    1    2  501    0 -0.62647276704E+02  0.49045859345E+02 -0.11130681970E+02  0.80337224737E+02  0.00000000000E+00 0. -1.
          1    1    1    2  502    0  0.33909578201E+02 -0.69633137666E+02  0.11282383836E+04  0.11308936659E+04  0.00000000000E+00 0. -1.
         22    1    3    3    0    0  0.35278474667E+02  0.47171889678E+02 -0.19896482875E+01  0.58938244383E+02  0.00000000000E+00 0. -1.
         22    1    3    3    0    0 -0.65407761643E+01 -0.26584611356E+02  0.10028617534E+03  0.10395595354E+03  0.00000000000E+00 0. -1.
</event>
<event>
 7    1  0.6017574E-006  0.6469709E+02  0.7818608E-02  0.1415311E+00
          2   -1    0    0  502    0  0.00000000000E+00  0.00000000000E+00  0.60391329085E+03  0.60391329085E+03  0.00000000000E+00 0. -1.
          1   -1    0    0  501    0 -0.00000000000E+00 -0.00000000000E+00 -0.98262385867E+03  0.98262385867E+03  0.00000000000E+00 0. -1.
         25    2    1    2    0    0  0.13497431480E+02  0.21396780689E+02  0.66840961424E+02  0.14398766544E+03  0.12499892318E+03 0.  0.
          2    1    1    2  501    0  0.48217247397E+02  0.53772964601E+01 -0.94115323492E+03  0.94240290209E+03  0.00000000000E+00 0. -1.
          1    1    1    2  502    0 -0.61714678877E+02 -0.26774077149E+02  0.49560170568E+03  0.50014658199E+03  0.00000000000E+00 0. -1.
         22    1    3    3    0    0  0.17961787638E+02 -0.10168074036E+01  0.10116449043E+03  0.10275170965E+03  0.00000000000E+00 0. -1.
         22    1    3    3    0    0 -0.44643561587E+01  0.22413588092E+02 -0.34323529003E+02  0.41235955794E+02  0.00000000000E+00 0. -1.
</event>
<event>
 7    1  0.6017574E-006  0.1019311E+03  0.7818608E-02  0.1430952E+00
          2   -1    0    0  502    0  0.00000000000E+00  0.00000000000E+00  0.53860838618E+02  0.53860838618E+02  0.00000000000E+00 0. -1.
          1   -1    0    0  501    0 -0.00000000000E+00 -0.00000000000E+00 -0.92563072392E+03  0.92563072392E+03  0.00000000000E+00 0. -1.
         25    2    1    2    0    0 -0.10983330620E+03 -0.29775268997E+02 -0.23537626219E+03  0.28978994674E+03  0.12500522643E+03 0.  0.
          2    1    1    2  501    0  0.11539658330E+02  0.24761547184E+02 -0.57073668015E+03  0.57139010843E+03  0.00000000000E+00 0. -1.
          1    1    1    2  502    0  0.98293647869E+02  0.50137218127E+01 -0.65656942959E+02  0.11831150737E+03  0.00000000000E+00 0. -1.
         22    1    3    3    0    0  0.82131600663E+01  0.30317652620E+02 -0.78004565928E+02  0.84091190765E+02  0.00000000000E+00 0.  1.
         22    1    3    3    0    0 -0.11804646626E+03 -0.60092921616E+02 -0.15737169626E+03  0.20569875597E+03  0.00000000000E+00 0.  1.
</event>
<event>
 7    1  0.6017574E-006  0.9717756E+02  0.7818608E-02  0.1342676E+00
          2   -1    0    0  502    0  0.00000000000E+00  0.00000000000E+00  0.33188505493E+04  0.33188505493E+04  0.00000000000E+00 0. -1.
          1   -1    0    0  501    0 -0.00000000000E+00 -0.00000000000E+00 -0.23002594217E+02  0.23002594217E+02  0.00000000000E+00 0. -1.
         25    2    1    2    0    0  0.84680572146E+02 -0.31942356230E+02  0.99802186974E+03  0.10098824846E+04  0.12499546686E+03 0.  0.
          2    1    1    2  501    0 -0.97185062164E+02 -0.25188082826E+02  0.13441874731E+03  0.16777298785E+03  0.00000000000E+00 0. -1.
          1    1    1    2  502    0  0.12504490018E+02  0.57130439056E+02  0.21634073380E+04  0.21641976711E+04  0.00000000000E+00 0. -1.
         22    1    3    3    0    0 -0.22917295796E+01  0.24863016658E+02  0.47148657547E+02  0.53351827806E+02  0.00000000000E+00 0.  1.
         22    1    3    3    0    0  0.86972301725E+02 -0.56805372888E+02  0.95087321219E+03  0.95653065676E+03  0.00000000000E+00 0.  1.
</event>
<event>
 7    1  0.6017574E-006  0.8354529E+02  0.7818608E-02  0.1391082E+00
          2   -1    0    0  502    0  0.00000000000E+00  0.00000000000E+00  0.23498327496E+03  0.23498327496E+03  0.00000000000E+00 0. -1.
          1   -1    0    0  501    0 -0.00000000000E+00 -0.00000000000E+00 -0.54093489273E+03  0.54093489273E+03  0.00000000000E+00 0. -1.
         25    2    1    2    0    0  0.48193937605E+02  0.18437432766E+02 -0.73587879709E+02  0.15395600487E+03  0.12499872338E+03 0.  0.
          2    1    1    2  501    0 -0.87491690236E+02  0.44478100272E+01 -0.41992547047E+03  0.42896617538E+03  0.00000000000E+00 0. -1.
          1    1    1    2  502    0  0.39297752631E+02 -0.22885242793E+02  0.18756173241E+03  0.19299598743E+03  0.00000000000E+00 0. -1.
         22    1    3    3    0    0  0.89375957009E+02  0.11048664077E+02 -0.33716918935E+02  0.96161142316E+02  0.00000000000E+00 0.  1.
         22    1    3    3    0    0 -0.41182019404E+02  0.73887686885E+01 -0.39870960774E+02  0.57794862556E+02  0.00000000000E+00 0.  1.
</event>
<event>
 7    1  0.6017574E-006  0.9152510E+02  0.7818608E-02  0.1334734E+00
          2   -1    0    0  502    0  0.00000000000E+00  0.00000000000E+00  0.57887794288E+03  0.57887794288E+03  0.00000000000E+00 0. -1.
          1   -1    0    0  501    0 -0.00000000000E+00 -0.00000000000E+00 -0.15298166211E+04  0.15298166211E+04  0.00000000000E+00 0. -1.
         25    2    1    2    0    0 -0.14641397310E+02 -0.54950799210E+02 -0.35927645427E+03  0.38462787310E+03  0.12500027731E+03 0.  0.
          2    1    1    2  501    0 -0.41772975073E+02  0.90209088958E+02 -0.11537654905E+04  0.11580403569E+04  0.00000000000E+00 0. -1.
          1    1    1    2  502    0  0.56414372383E+02 -0.35258289748E+02  0.56210326658E+03  0.56602633394E+03  0.00000000000E+00 0. -1.
         22    1    3    3    0    0  0.51486203056E+02 -0.38010421489E+02 -0.22600274812E+03  0.23488904488E+03  0.00000000000E+00 0. -1.
         22    1    3    3    0    0 -0.66127600366E+02 -0.16940377721E+02 -0.13327370615E+03  0.14973882822E+03  0.00000000000E+00 0. -1.
</event>
<event>
 7    1  0.6017574E-006  0.8679742E+02  0.7818608E-02  0.1334884E+00
          2   -1    0    0  502    0  0.00000000000E+00  0.00000000000E+00  0.39725240617E+03  0.39725240617E+03  0.00000000000E+00 0. -1.
          1   -1    0    0  501    0 -0.00000000000E+00 -0.00000000000E+00 -0.37348808265E+03  0.37348808265E+03  0.00000000000E+00 0. -1.
         25    2    1    2    0    0  0.13174630346E+03 -0.21564207471E+02 -0.88094004436E+02  0.20296993532E+03  0.12495654247E+03 0.  0.
          2    1    1    2  501    0 -0.66809714034E+02  0.47858672586E+02 -0.21673430054E+03  0.23179246636E+03  0.00000000000E+00 0. -1.
          1    1    1    2  502    0 -0.64936589428E+02 -0.26294465115E+02  0.32859262850E+03  0.33597808715E+03  0.00000000000E+00 0. -1.
         22    1    3    3    0    0  0.81782686946E+02  0.61359958083E+01 -0.11384211553E+03  0.14030711171E+03  0.00000000000E+00 0. -1.
         22    1    3    3    0    0  0.49963616516E+02 -0.27700203279E+02  0.25748111094E+02  0.62662823604E+02  0.00000000000E+00 0. -1.
</event>
<event>
 7    1  0.6017574E-006  0.6916318E+02  0.7818608E-02  0.1498118E+00
          2   -1    0    0  502    0  0.00000000000E+00  0.00000000000E+00  0.48942165477E+03  0.48942165477E+03  0.00000000000E+00 0. -1.
          1   -1    0    0  501    0 -0.00000000000E+00 -0.00000000000E+00 -0.39870389639E+03  0.39870389639E+03  0.00000000000E+00 0. -1.
         25    2    1    2    0    0  0.71662721156E+02 -0.37459448794E+02 -0.56142883067E+02  0.15910681699E+03  0.12499679991E+03 0.  0.
          2    1    1    2  501    0 -0.22345288551E+02 -0.10729255938E+02 -0.28782900194E+03  0.28889438072E+03  0.00000000000E+00 0. -1.
          1    1    1    2  502    0 -0.49317432605E+02  0.48188704732E+02  0.43468964339E+03  0.44012435344E+03  0.00000000000E+00 0. -1.
         22    1    3    3    0    0  0.10435072183E+03 -0.29731651817E+02 -0.21044290242E+02  0.11052559169E+03  0.00000000000E+00 0.  1.
         22    1    3    3    0    0 -0.32688000673E+02 -0.77277969767E+01 -0.35098592825E+02  0.48581225308E+02  0.00000000000E+00 0.  1.
</event>
<event>
 7    1  0.6017574E-006  0.8014440E+02  0.7818608E-02  0.1467400E+00
          2   -1    0    0  502    0  0.00000000000E+00  0.00000000000E+00  0.14049542925E+03  0.14049542925E+03  0.00000000000E+00 0. -1.
          1   -1    0    0  501    0 -0.00000000000E+00 -0.00000000000E+00 -0.61428576176E+03  0.61428576176E+03  0.00000000000E+00 0. -1.
         25    2    1    2    0    0  0.32586479321E+02 -0.86153837360E+02 -0.16483161038E+03  0.22644834586E+03  0.12500012495E+03 0.  0.
          2    1    1    2  501    0 -0.70917489012E+01  0.78731299906E+02 -0.41323542544E+03  0.42072844843E+03  0.00000000000E+00 0. -1.
          1    1    1    2  502    0 -0.25494730420E+02  0.74225374544E+01  0.10427670331E+03  0.10760439672E+03  0.00000000000E+00 0. -1.
         22    1    3    3    0    0  0.74379889081E+02 -0.82937155679E+02 -0.10283623626E+03  0.15161210763E+03  0.00000000000E+00 0. -1.
         22    1    3    3    0    0 -0.41793409760E+02 -0.32166816812E+01 -0.61995374115E+02  0.74836238228E+02  0.00000000000E+00 0. -1.
</event>
<event>
 7    1  0.6017574E-006  0.6716832E+02  0.7818608E-02  0.1477739E+00
          2   -1    0    0  502    0  0.00000000000E+00  0.00000000000E+00  0.60859156776E+02  0.60859156776E+02  0.00000000000E+00 0. -1.
          1   -1    0    0  501    0 -0.00000000000E+00 -0.00000000000E+00 -0.40087802259E+03  0.40087802259E+03  0.00000000000E+00 0. -1.
         25    2    1    2    0    0 -0.57470922466E+02 -0.14205497082E+01 -0.28436512903E+03  0.31590082045E+03  0.12499950745E+03 0.  0.
          2    1    1    2  501    0 -0.38575235605E+01 -0.29175398661E+02 -0.69892921641E+02  0.75836039391E+02  0.00000000000E+00 0. -1.
          1    1    1    2  502    0  0.61328446026E+02  0.30595948369E+02  0.14239184853E+02  0.70000319527E+02  0.00000000000E+00 0. -1.
         22    1    3    3    0    0 -0.23388074903E+02 -0.33458347290E+02 -0.25994972241E+03  0.26313555676E+03  0.00000000000E+00 0. -1.
         22    1    3    3    0    0 -0.34082847563E+02  0.32037797582E+02 -0.24415406619E+02  0.52765263690E+02  0.00000000000E+00 0. -1.
</event>
<event>
 7    1  0.6017574E-006  0.6574586E+02  0.7818608E-02  0.1418864E+00
          2   -1    0    0  502    0  0.00000000000E+00  0.00000000000E+00  0.13093292717E+04  0.13093292717E+04  0.00000000000E+00 0. -1.
          1   -1    0    0  501    0 -0.00000000000E+00 -0.00000000000E+00 -0.13291260326E+03  0.13291260326E+03  0.00000000000E+00 0. -1.
         25    2    1    2    0    0  0.37549949090E+02  0.21288190575E+02  0.23572956804E+03  0.27028915358E+03  0.12499844623E+03 0.  0.
          2    1    1    2  501    0  0.28569487496E+02 -0.36624986052E+02 -0.10982820378E+03  0.11924696879E+03  0.00000000000E+00 0. -1.
          1    1    1    2  502    0 -0.66119436586E+02  0.15336795476E+02  0.10505153042E+04  0.10527057526E+04  0.00000000000E+00 0. -1.
         22    1    3    3    0    0  0.74132794255E+02  0.44008357193E+02  0.12855439662E+03  0.15478578609E+03  0.00000000000E+00 0. -1.
         22    1    3    3    0    0 -0.36582845165E+02 -0.22720166617E+02  0.10717517142E+03  0.11550336748E+03  0.00000000000E+00 0. -1.
</event>
<event>
 7    1  0.6017574E-006  0.8998769E+02  0.7818608E-02  0.1372420E+00
          2   -1    0    0  502    0  0.00000000000E+00  0.00000000000E+00  0.67958137180E+03  0.67958137180E+03  0.00000000000E+00 0. -1.
          1   -1    0    0  501    0 -0.00000000000E+00 -0.00000000000E+00 -0.62167520590E+03  0.62167520590E+03  0.00000000000E+00 0. -1.
         25    2    1    2    0    0  0.46699735748E+02 -0.10556503994E+03 -0.27353103418E+03  0.32213472054E+03  0.12500683400E+03 0.  0.
          2    1    1    2  501    0 -0.62151203761E+02  0.58916147687E+02 -0.31723505269E+03  0.32859087517E+03  0.00000000000E+00 0. -1.
          1    1    1    2  502    0  0.15451468013E+02  0.46648892248E+02  0.64867225277E+03  0.65053098199E+03  0.00000000000E+00 0. -1.
         22    1    3    3    0    0  0.79573637753E+02 -0.75651282580E+02 -0.12159282991E+03  0.16382886396E+03  0.00000000000E+00 0. -1.
         22    1    3    3    0    0 -0.32873902005E+02 -0.29913757355E+02 -0.15193820427E+03  0.15830585658E+03  0.00000000000E+00 0. -1.
</event>
<event>
 7    1  0.6017574E-006  0.3531511E+02  0.7818608E-02  0.1616466E+00
          2   -1    0    0  502    0  0.00000000000E+00  0.00000000000E+00  0.16311354985E+03  0.16311354985E+03  0.00000000000E+00 0. -1.
          1   -1    0    0  501    0 -0.00000000000E+00 -0.00000000000E+00 -0.36323216744E+03  0.36323216744E+03  0.00000000000E+00 0. -1.
         25    2    1    2    0    0  0.20449923357E+02 -0.22328105029E+01 -0.19939157194E+02  0.12823973636E+03  0.12499870073E+03 0.  0.
          2    1    1    2  501    0  0.63045239605E+01 -0.21953327514E+02 -0.28568996626E+03  0.28660155693E+03  0.00000000000E+00 0. -1.
          1    1    1    2  502    0 -0.26754447318E+02  0.24186138017E+02  0.10551050587E+03  0.11150442400E+03  0.00000000000E+00 0. -1.
         22    1    3    3    0    0 -0.23372327993E+02 -0.47353460947E+02 -0.35266006837E+02  0.63500450532E+02  0.00000000000E+00 0.  1.
         22    1    3    3    0    0  0.43822251350E+02  0.45120650445E+02  0.15326849644E+02  0.64739285831E+02  0.00000000000E+00 0.  1.
</event>
<event>
 7    1  0.6017574E-006  0.7287216E+02  0.7818608E-02  0.1505237E+00
          2   -1    0    0  502    0  0.00000000000E+00  0.00000000000E+00  0.13879949386E+03  0.13879949386E+03  0.00000000000E+00 0. -1.
          1   -1    0    0  501    0 -0.00000000000E+00 -0.00000000000E+00 -0.30564370279E+03  0.30564370279E+03  0.00000000000E+00 0. -1.
         25    2    1    2    0    0 -0.39387231824E+02 -0.39125281432E+02 -0.11100788942E+03  0.17615188762E+03  0.12499837727E+03 0.  0.
          2    1    1    2  501    0  0.56065021484E+02  0.54087132849E+02 -0.15133008238E+03  0.17020428434E+03  0.00000000000E+00 0. -1.
          1    1    1    2  502    0 -0.16677789661E+02 -0.14961851417E+02  0.95493762868E+02  0.98087024689E+02  0.00000000000E+00 0. -1.
         22    1    3    3    0    0  0.25394693172E+02 -0.62712161068E+02 -0.50574092761E+02  0.84471559981E+02  0.00000000000E+00 0.  1.
         22    1    3    3    0    0 -0.64781924996E+02  0.23586879636E+02 -0.60433796658E+02  0.91680327637E+02  0.00000000000E+00 0.  1.
</event>
<event>
 7    1  0.6017574E-006  0.1262483E+03  0.7818608E-02  0.1359984E+00
          2   -1    0    0  502    0  0.00000000000E+00  0.00000000000E+00  0.69071783398E+03  0.69071783398E+03  0.00000000000E+00 0. -1.
          1   -1    0    0  501    0 -0.00000000000E+00 -0.00000000000E+00 -0.40199044039E+03  0.40199044039E+03  0.00000000000E+00 0. -1.
         25    2    1    2    0    0 -0.63381912833E+02 -0.80748553924E+02  0.21714399663E+03  0.27076593933E+03  0.12500033118E+03 0.  0.
          2    1    1    2  501    0 -0.37491960139E+02 -0.10174871870E+02 -0.36380124472E+03  0.36586954061E+03  0.00000000000E+00 0. -1.
          1    1    1    2  502    0  0.10087387297E+03  0.90923425794E+02  0.43538464168E+03  0.45607279443E+03  0.00000000000E+00 0. -1.
         22    1    3    3    0    0 -0.17851788064E+02 -0.17111640168E+02  0.18422288465E+03  0.18587513495E+03  0.00000000000E+00 0.  1.
         22    1    3    3    0    0 -0.45530124770E+02 -0.63636913756E+02  0.32921111979E+02  0.84890804377E+02  0.00000000000E+00 0.  1.
</event>
<event>
 7    1  0.6017574E-006  0.9771401E+02  0.7818608E-02  0.1289046E+00
          2   -1    0    0  502    0  0.00000000000E+00  0.00000000000E+00  0.89214662342E+03  0.89214662342E+03  0.00000000000E+00 0. -1.
          1   -1    0    0  501    0 -0.00000000000E+00 -0.00000000000E+00 -0.14553109686E+04  0.14553109686E+04  0.00000000000E+00 0. -1.
         25    2    1    2    0    0 -0.12328947979E+02  0.28557417501E+02  0.14946626776E+03  0.19731116994E+03  0.12499601407E+03 0.  0.
          2    1    1    2  501    0 -0.74963084899E+02 -0.64023383744E+02 -0.14265922575E+04  0.14299943801E+04  0.00000000000E+00 0. -1.
          1    1    1    2  502    0  0.87292032879E+02  0.35465966243E+02  0.71396164455E+03  0.72015204204E+03  0.00000000000E+00 0. -1.
         22    1    3    3    0    0 -0.28953494675E+02  0.47892555847E+02  0.11660623196E+02  0.57166177874E+02  0.00000000000E+00 0.  1.
         22    1    3    3    0    0  0.16624546695E+02 -0.19335138345E+02  0.13780564457E+03  0.14014499207E+03  0.00000000000E+00 0.  1.
</event>
<event>
 7    1  0.6017574E-006  0.1977233E+03  0.7818608E-02  0.1270470E+00
          2   -1    0    0  502    0  0.00000000000E+00  0.00000000000E+00  0.11190466362E+04  0.11190466362E+04  0.00000000000E+00 0. -1.
          1   -1    0    0  501    0 -0.00000000000E+00 -0.00000000000E+00 -0.68745173384E+03  0.68745173384E+03  0.00000000000E+00 0. -1.
         25    2    1    2    0    0  0.13194779716E+03  0.13169941942E+03 -0.38894870686E+03  0.44906678696E+03  0.12499969731E+03 0.  0.
          2    1    1    2  501    0 -0.36489651418E+02  0.41912311806E+02 -0.25643173355E+03  0.26238401345E+03  0.00000000000E+00 0. -1.
          1    1    1    2  502    0 -0.95458145741E+02 -0.17361173122E+03  0.10769753427E+04  0.10950475696E+04  0.00000000000E+00 0. -1.
         22    1    3    3    0    0  0.41126903071E+02 -0.15810815659E+02 -0.13216334251E+03  0.13931458341E+03  0.00000000000E+00 0. -1.
         22    1    3    3    0    0  0.90820894087E+02  0.14751023508E+03 -0.25678536435E+03  0.30975220355E+03  0.00000000000E+00 0. -1.
</event>
<event>
 7    1  0.6017574E-006  0.1551293E+03  0.7818608E-02  0.1222175E+00
          2   -1    0    0  502    0  0.00000000000E+00  0.00000000000E+00  0.10690305356E+04  0.10690305356E+04  0.00000000000E+00 0. -1.
          1   -1    0    0  501    0 -0.00000000000E+00 -0.00000000000E+00 -0.57476086489E+03  0.57476086489E+03  0.00000000000E+00 0. -1.
         25    2    1    2    0    0 -0.15305071937E+03 -0.21974682142E+03  0.49268660484E+03  0.57452373868E+03  0.12499698994E+03 0.  0.
          2    1    1    2  501    0  0.84304223173E+02  0.12743258378E+03 -0.51646200855E+03  0.53859007764E+03  0.00000000000E+00 0. -1.
          1    1    1    2  502    0  0.68746496201E+02  0.92314237641E+02  0.51804507441E+03  0.53067758416E+03  0.00000000000E+00 0. -1.
         22    1    3    3    0    0 -0.10826068532E+03 -0.89863926787E+02  0.34616030956E+03  0.37366142595E+03  0.00000000000E+00 0.  1.
         22    1    3    3    0    0 -0.44790034053E+02 -0.12988289464E+03  0.14652629527E+03  0.20086231273E+03  0.00000000000E+00 0.  1.
</event>
<event>
 7    1  0.6017574E-006  0.7677282E+02  0.7818608E-02  0.1365396E+00
          2   -1    0    0  502    0  0.00000000000E+00  0.00000000000E+00  0.66713185152E+03  0.66713185152E+03  0.00000000000E+00 0. -1.
          1   -1    0    0  501    0 -0.00000000000E+00 -0.00000000000E+00 -0.32020823567E+03  0.32020823567E+03  0.00000000000E+00 0. -1.
         25    2    1    2    0    0 -0.91800926446E+02 -0.71871942200E+02 -0.73474279021E+01  0.17108961520E+03  0.12499874223E+03 0.  0.
          2    1    1    2  501    0  0.73442351245E+02  0.13643477960E+02 -0.22329920798E+03  0.23546222570E+03  0.00000000000E+00 0. -1.
          1    1    1    2  502    0  0.18358575201E+02  0.58228464240E+02  0.57757025173E+03  0.58078824628E+03  0.00000000000E+00 0. -1.
         22    1    3    3    0    0 -0.69101082168E+02 -0.10425790249E+03 -0.25373183261E+02  0.12762628341E+03  0.00000000000E+00 0.  1.
         22    1    3    3    0    0 -0.22699844278E+02  0.32385960286E+02  0.18025755359E+02  0.43463331789E+02  0.00000000000E+00 0.  1.
</event>
<event>
 7    1  0.6017574E-006  0.1129963E+03  0.7818608E-02  0.1277929E+00
          2   -1    0    0  502    0  0.00000000000E+00  0.00000000000E+00  0.24240463944E+04  0.24240463944E+04  0.00000000000E+00 0. -1.
          1   -1    0    0  501    0 -0.00000000000E+00 -0.00000000000E+00 -0.29593148731E+03  0.29593148731E+03  0.00000000000E+00 0. -1.
         25    2    1    2    0    0  0.36893994195E+02  0.21159627269E+02  0.14370714227E+03  0.19515439480E+03  0.12499839374E+03 0.  0.
          2    1    1    2  501    0  0.78840846092E+00  0.90514076071E+02 -0.26103808012E+03  0.27628662441E+03  0.00000000000E+00 0. -1.
          1    1    1    2  502    0 -0.37682402656E+02 -0.11167370334E+03  0.22454458449E+04  0.22485368625E+04  0.00000000000E+00 0. -1.
         22    1    3    3    0    0  0.73318050742E+02  0.20986526389E+02  0.41872576298E+02  0.87001629297E+02  0.00000000000E+00 0. -1.
         22    1    3    3    0    0 -0.36424056547E+02  0.17310088047E+00  0.10183456598E+03  0.10815276551E+03  0.00000000000E+00 0. -1.
</event>
<event>
 7    1  0.6017574E-006  0.7854326E+02  0.7818608E-02  0.1388123E+00
          2   -1    0    0  502    0  0.00000000000E+00  0.00000000000E+00  0.94228450953E+03  0.94228450953E+03  0.00000000000E+00 0. -1.
          1   -1    0    0  501    0 -0.00000000000E+00 -0.00000000000E+00 -0.10895999182E+04  0.10895999182E+04  0.00000000000E+00 0. -1.
         25    2    1    2    0    0 -0.39415117865E+02  0.59620341562E+01 -0.19703826253E+02  0.13267567665E+03  0.12500198814E+03 0.  0.
          2    1    1    2  501    0  0.62189168497E+02 -0.49952940978E+02 -0.10111456581E+04  0.10142871048E+04  0.00000000000E+00 0. -1.
          1    1    1    2  502    0 -0.22774050632E+02  0.43990906822E+02  0.88353407568E+03  0.88492164633E+03  0.00000000000E+00 0. -1.
         22    1    3    3    0    0 -0.36584300766E+02 -0.36788637528E+02 -0.56132916320E+02  0.76437681861E+02  0.00000000000E+00 0.  1.
         22    1    3    3    0    0 -0.28308170983E+01  0.42750671684E+02  0.36429090067E+02  0.56237994790E+02  0.00000000000E+00 0.  1.
</event>
<event>
 7    1  0.6017574E-006  0.1596446E+03  0.7818608E-02  0.1217614E+00
          2   -1    0    0  502    0  0.00000000000E+00  0.00000000000E+00  0.31166285588E+03  0.31166285588E+03  0.00000000000E+00 0. -1.
          1   -1    0    0  501    0 -0.00000000000E+00 -0.00000000000E+00 -0.12666692571E+04  0.12666692571E+04  0.00000000000E+00 0. -1.
         25    2    1    2    0    0 -0.48527923400E+02 -0.74848176828E+01  0.83481967215E+02  0.15813181580E+03  0.12500180188E+03 0.  0.
          2    1    1    2  501    0  0.16451003533E+03 -0.10261838985E+02 -0.12051554211E+04  0.12163751256E+04  0.00000000000E+00 0. -1.
          1    1    1    2  502    0 -0.11598211193E+03  0.17746656668E+02  0.16666705271E+03  0.20382517158E+03  0.00000000000E+00 0. -1.
         22    1    3    3    0    0 -0.26706242223E+00  0.46626759929E+02  0.70420903128E+02  0.84458449318E+02  0.00000000000E+00 0.  1.
         22    1    3    3    0    0 -0.48260860978E+02 -0.54111577612E+02  0.13061064087E+02  0.73673366484E+02  0.00000000000E+00 0.  1.
</event>
<event>
 7    1  0.6017574E-006  0.5269965E+02  0.7818608E-02  0.1526928E+00
          2   -1    0    0  502    0  0.00000000000E+00  0.00000000000E+00  0.35879207526E+03  0.35879207526E+03  0.00000000000E+00 0. -1.
          1   -1    0    0  501    0 -0.00000000000E+00 -0.00000000000E+00 -0.28281795963E+03  0.28281795963E+03  0.00000000000E+00 0. -1.
         25    2    1    2    0    0  0.51373322748E+02 -0.57934717762E+02  0.28824980797E+02  0.14983807485E+03  0.12499967738E+03 0.  0.
          2    1    1    2  501    0 -0.39040354414E+02  0.34165735326E+02 -0.21860270079E+03  0.22467440338E+03  0.00000000000E+00 0. -1.
          1    1    1    2  502    0 -0.12332968334E+02  0.23768982436E+02  0.26575183562E+03  0.26709755665E+03  0.00000000000E+00 0. -1.
         22    1    3    3    0    0  0.20012263098E+02 -0.23215981173E+02  0.76882885390E+02  0.82767448445E+02  0.00000000000E+00 0.  1.
         22    1    3    3    0    0  0.31361059650E+02 -0.34718736589E+02 -0.48057904593E+02  0.67070626407E+02  0.00000000000E+00 0.  1.
</event>
<event>
 7    1  0.6017574E-006  0.6125709E+02  0.7818608E-02  0.1547636E+00
          2   -1    0    0  502    0  0.00000000000E+00  0.00000000000E+00  0.29291801560E+04  0.29291801560E+04  0.00000000000E+00 0. -1.
          1   -1    0    0  501    0 -0.00000000000E+00 -0.00000000000E+00 -0.21767850190E+02  0.21767850190E+02  0.00000000000E+00 0. -1.
         25    2    1    2    0    0  0.51186491592E+02 -0.32471371303E+02  0.10662353989E+04  0.10752472554E+04  0.12499714958E+03 0.  0.
          2    1    1    2  501    0 -0.12636377497E+02 -0.15659748571E+02 -0.10704869281E+02  0.22792542374E+02  0.00000000000E+00 0. -1.
          1    1    1    2  502    0 -0.38550114095E+02  0.48131119875E+02  0.18518817761E+04  0.18529082084E+04  0.00000000000E+00 0. -1.
         22    1    3    3    0    0  0.75505840388E+02 -0.59839473933E+02  0.61178611824E+03  0.61932555981E+03  0.00000000000E+00 0. -1.
         22    1    3    3    0    0 -0.24319348796E+02  0.27368102630E+02  0.45444928071E+03  0.45592169559E+03  0.00000000000E+00 0. -1.
</event>
<event>
 7    1  0.6017574E-006  0.4024147E+02  0.7818608E-02  0.1509201E+00
          2   -1    0    0  502    0  0.00000000000E+00  0.00000000000E+00  0.22495879628E+02  0.22495879628E+02  0.00000000000E+00 0. -1.
          1   -1    0    0  501    0 -0.00000000000E+00 -0.00000000000E+00 -0.84230471493E+03  0.84230471493E+03  0.00000000000E+00 0. -1.
         25    2    1    2    0    0 -0.78469244193E+01  0.18785791146E+02 -0.43905196322E+03  0.45695437094E+03  0.12500476210E+03 0.  0.
          2    1    1    2  501    0  0.44677853817E+02 -0.45297034162E+01 -0.36082338958E+03  0.36360713318E+03  0.00000000000E+00 0. -1.
          1    1    1    2  502    0 -0.36830929397E+02 -0.14256087729E+02 -0.19933482513E+02  0.44239090437E+02  0.00000000000E+00 0. -1.
         22    1    3    3    0    0 -0.23925142733E+00 -0.22721170900E+01 -0.43399420513E+03  0.43400021872E+03  0.00000000000E+00 0. -1.
         22    1    3    3    0    0 -0.76076729920E+01  0.21057908236E+02 -0.50577580832E+01  0.22954152227E+02  0.00000000000E+00 0. -1.
</event>
<event>
 7    1  0.6017574E-006  0.1120127E+03  0.7818608E-02  0.1378216E+00
          2   -1    0    0  502    0  0.00000000000E+00  0.00000000000E+00  0.23123390609E+04  0.23123390609E+04  0.00000000000E+00 0. -1.
          1   -1    0    0  501    0 -0.00000000000E+00 -0.00000000000E+00 -0.23055484119E+03  0.23055484119E+03  0.00000000000E+00 0. -1.
         25    2    1    2    0    0  0.91863584058E+02 -0.28233559363E+02  0.67748775242E+03  0.69558349703E+03  0.12494276578E+03 0.  0.
          2    1    1    2  501    0 -0.91135781264E+02  0.65870221884E+02 -0.20700183294E+03  0.23557244235E+03  0.00000000000E+00 0. -1.
          1    1    1    2  502    0 -0.72780279426E+00 -0.37636662522E+02  0.16112983002E+04  0.16117379627E+04  0.00000000000E+00 0. -1.
         22    1    3    3    0    0  0.33040606825E+02 -0.29204296839E+01  0.56631755449E+03  0.56728809536E+03  0.00000000000E+00 0.  1.
         22    1    3    3    0    0  0.58822977233E+02 -0.25313129679E+02  0.11117019792E+03  0.12829540167E+03  0.00000000000E+00 0.  1.
</event>
<event>
 7    1  0.6017574E-006  0.9950957E+02  0.7818608E-02  0.1384606E+00
          2   -1    0    0  502    0  0.00000000000E+00  0.00000000000E+00  0.23282666741E+04  0.23282666741E+04  0.00000000000E+00 0. -1.
          1   -1    0    0  501    0 -0.00000000000E+00 -0.00000000000E+00 -0.24461594930E+02  0.24461594930E+02  0.00000000000E+00 0. -1.
         25    2    1    2    0    0  0.37534778999E+02  0.94391687738E+02  0.79402194189E+03  0.81019410964E+03  0.12500000297E+03 0.  0.
          2    1    1    2  501    0 -0.70574710559E+02 -0.71446072776E+02  0.14071830844E+03  0.17287849322E+03  0.00000000000E+00 0. -1.
          1    1    1    2  502    0  0.33039931560E+02 -0.22945614961E+02  0.13690648288E+04  0.13696556661E+04  0.00000000000E+00 0. -1.
         22    1    3    3    0    0  0.19796456985E+02  0.39276842394E+02  0.62728605954E+02  0.76612323177E+02  0.00000000000E+00 0.  1.
         22    1    3    3    0    0  0.17738322014E+02  0.55114845344E+02  0.73129333594E+03  0.73358178647E+03  0.00000000000E+00 0.  1.
</event>
<event>
 7    1  0.6017574E-006  0.2088988E+03  0.7818608E-02  0.1277404E+00
          2   -1    0    0  502    0  0.00000000000E+00  0.00000000000E+00  0.76094594444E+03  0.76094594444E+03  0.00000000000E+00 0. -1.
          1   -1    0    0  501    0 -0.00000000000E+00 -0.00000000000E+00 -0.13206130382E+04  0.13206130382E+04  0.00000000000E+00 0. -1.
         25    2    1    2    0    0  0.16065414753E+03 -0.10387420470E+03  0.10704958298E+03  0.25235749569E+03  0.12500034758E+03 0.  0.
          2    1    1    2  501    0  0.40261807093E+02  0.28292155339E+02 -0.12276297843E+04  0.12286156219E+04  0.00000000000E+00 0. -1.
          1    1    1    2  502    0 -0.20091595462E+03  0.75582049356E+02  0.56091310757E+03  0.60058586501E+03  0.00000000000E+00 0. -1.
         22    1    3    3    0    0  0.89879171317E+01 -0.19547441145E+02 -0.25957775352E+02  0.33714851489E+02  0.00000000000E+00 0. -1.
         22    1    3    3    0    0  0.15166623039E+03 -0.84326763550E+02  0.13300735833E+03  0.21864264420E+03  0.00000000000E+00 0. -1.
</event>
<event>
 7    1  0.6017574E-006  0.2762973E+03  0.7818608E-02  0.1217407E+00
          2   -1    0    0  502    0  0.00000000000E+00  0.00000000000E+00  0.62442237791E+03  0.62442237791E+03  0.00000000000E+00 0. -1.
          1   -1    0    0  501    0 -0.00000000000E+00 -0.00000000000E+00 -0.12579125066E+04  0.12579125066E+04  0.00000000000E+00 0. -1.
         25    2    1    2    0    0  0.29411717155E+03 -0.15603896064E+03 -0.65522826379E+03  0.74552024768E+03  0.12499317657E+03 0.  0.
          2    1    1    2  501    0 -0.39602451250E+02  0.55207081024E+02 -0.52287303100E+03  0.52726879529E+03  0.00000000000E+00 0. -1.
          1    1    1    2  502    0 -0.25451472031E+03  0.10083187962E+03  0.54461116605E+03  0.60954584158E+03  0.00000000000E+00 0. -1.
         22    1    3    3    0    0  0.53378010285E+02 -0.88152245278E+02 -0.15326332062E+03  0.18468804990E+03  0.00000000000E+00 0.  1.
         22    1    3    3    0    0  0.24073916127E+03 -0.67886715366E+02 -0.50196494317E+03  0.56083219777E+03  0.00000000000E+00 0.  1.
</event>
<event>
 7    1  0.6017574E-006  0.1241399E+03  0.7818608E-02  0.1429756E+00
          2   -1    0    0  502    0  0.00000000000E+00  0.00000000000E+00  0.14740982318E+03  0.14740982318E+03  0.00000000000E+00 0. -1.
          1   -1    0    0  501    0 -0.00000000000E+00 -0.00000000000E+00 -0.80675954313E+03  0.80675954313E+03  0.00000000000E+00 0. -1.
         25    2    1    2    0    0  0.24251546146E+02  0.13030248989E+03 -0.21333516697E+03  0.28054533619E+03  0.12500766308E+03 0.  0.
          2    1    1    2  501    0 -0.21484250868E+02 -0.71264650536E+01 -0.52615793699E+03  0.52664459952E+03  0.00000000000E+00 0. -1.
          1    1    1    2  502    0 -0.27672952777E+01 -0.12317602484E+03  0.80143384012E+02  0.14697943060E+03  0.00000000000E+00 0. -1.
         22    1    3    3    0    0  0.53522847489E+02  0.53461687680E+01 -0.66414563779E+02  0.85464442933E+02  0.00000000000E+00 0. -1.
         22    1    3    3    0    0 -0.29271301344E+02  0.12495632113E+03 -0.14692060319E+03  0.19508089326E+03  0.00000000000E+00 0. -1.
</event>
<event>
 7    1  0.6017574E-006  0.5378518E+02  0.7818608E-02  0.1457563E+00
          2   -1    0    0  502    0  0.00000000000E+00  0.00000000000E+00  0.89953794993E+03  0.89953794993E+03  0.00000000000E+00 0. -1.
          1   -1    0    0  501    0 -0.00000000000E+00 -0.00000000000E+00 -0.90368321714E+03  0.90368321714E+03  0.00000000000E+00 0. -1.
         25    2    1    2    0    0  0.42355085785E+02 -0.75621826855E+02  0.34858906149E+03  0.38033166685E+03  0.12500091611E+03 0.  0.
          2    1    1    2  501    0 -0.61598616577E+01  0.53372368487E+02 -0.88615363038E+03  0.88778083458E+03  0.00000000000E+00 0. -1.
          1    1    1    2  502    0 -0.36195224127E+02  0.22249458368E+02  0.53341930167E+03  0.53510866564E+03  0.00000000000E+00 0. -1.
         22    1    3    3    0    0  0.61540504863E+02 -0.25887606164E+02  0.70174932513E+02  0.96860327508E+02  0.00000000000E+00 0. -1.
         22    1    3    3    0    0 -0.19185419078E+02 -0.49734220691E+02  0.27841412898E+03  0.28347133934E+03  0.00000000000E+00 0. -1.
</event>
<event>
 7    1  0.6017574E-006  0.4924104E+03  0.7818608E-02  0.1160028E+00
          2   -1    0    0  502    0  0.00000000000E+00  0.00000000000E+00  0.12313112785E+04  0.12313112785E+04  0.00000000000E+00 0. -1.
          1   -1    0    0  501    0 -0.00000000000E+00 -0.00000000000E+00 -0.97070068842E+03  0.97070068842E+03  0.00000000000E+00 0. -1.
         25    2    1    2    0    0 -0.25736293505E+03 -0.41958159456E+03 -0.32462895985E+03  0.60273808094E+03  0.12499935126E+03 0.  0.
          2    1    1    2  501    0  0.19474772264E+03  0.45509769035E+03 -0.38453976943E+03  0.62682646523E+03  0.00000000000E+00 0. -1.
          1    1    1    2  502    0  0.62615212412E+02 -0.35516095791E+02  0.96977931939E+03  0.97244742079E+03  0.00000000000E+00 0. -1.
         22    1    3    3    0    0 -0.46773739415E+02 -0.16499078517E+03 -0.68416529775E+02  0.18463630043E+03  0.00000000000E+00 0. -1.
         22    1    3    3    0    0 -0.21058919564E+03 -0.25459080939E+03 -0.25621243007E+03  0.41810178052E+03  0.00000000000E+00 0. -1.
</event>
<event>
 7    1  0.6017574E-006  0.9163631E+02  0.7818608E-02  0.1384959E+00
          2   -1    0    0  502    0  0.00000000000E+00  0.00000000000E+00  0.17333214419E+04  0.17333214419E+04  0.00000000000E+00 0. -1.
          1   -1    0    0  501    0 -0.00000000000E+00 -0.00000000000E+00 -0.32106300000E+03  0.32106300000E+03  0.00000000000E+00 0. -1.
         25    2    1    2    0    0 -0.50406432049E+02  0.73999470897E+02 -0.41539637325E+02  0.15927055630E+03  0.12499935420E+03 0.  0.
          2    1    1    2  501    0  0.11113094959E+02 -0.92796098478E+02 -0.21046404577E+03  0.23028185195E+03  0.00000000000E+00 0. -1.
          1    1    1    2  502    0  0.39293337090E+02  0.18796627581E+02  0.16642621250E+04  0.16648320336E+04  0.00000000000E+00 0. -1.
         22    1    3    3    0    0  0.10465991566E+02 -0.22926923964E+01 -0.59133693949E+02  0.60096482243E+02  0.00000000000E+00 0.  1.
         22    1    3    3    0    0 -0.60872423616E+02  0.76292163294E+02  0.17594056624E+02  0.99174074059E+02  0.00000000000E+00 0.  1.
</event>
<event>
 7    1  0.6017574E-006  0.3509570E+02  0.7818608E-02  0.1553617E+00
          2   -1    0    0  502    0  0.00000000000E+00  0.00000000000E+00  0.14031492861E+04  0.14031492861E+04  0.00000000000E+00 0. -1.
          1   -1    0    0  501    0 -0.00000000000E+00 -0.00000000000E+00 -0.83861091980E+03  0.83861091980E+03  0.00000000000E+00 0. -1.
         25    2    1    2    0    0  0.25771237360E+01  0.53605912900E+01 -0.36700099736E+03  0.38775685815E+03  0.12502108410E+03 0.  0.
          2    1    1    2  501    0  0.32186660908E+02 -0.10316316792E+02 -0.46039104520E+03  0.46163007055E+03  0.00000000000E+00 0. -1.
          1    1    1    2  502    0 -0.34763784644E+02  0.49557255024E+01  0.13919304089E+04  0.13923732772E+04  0.00000000000E+00 0. -1.
         22    1    3    3    0    0  0.45489115731E+02 -0.27289838812E+02 -0.81740443860E+02  0.97444831135E+02  0.00000000000E+00 0.  1.
         22    1    3    3    0    0 -0.42911991995E+02  0.32650430102E+02 -0.28526055350E+03  0.29031202701E+03  0.00000000000E+00 0.  1.
</event>
<event>
 7    1  0.6017574E-006  0.1094750E+03  0.7818608E-02  0.1283716E+00
          2   -1    0    0  502    0  0.00000000000E+00  0.00000000000E+00  0.57069045360E+03  0.57069045360E+03  0.00000000000E+00 0. -1.
          1   -1    0    0  501    0 -0.00000000000E+00 -0.00000000000E+00 -0.10248616579E+04  0.10248616579E+04  0.00000000000E+00 0. -1.
         25    2    1    2    0    0  0.84366114469E+02  0.33407767085E+02  0.25970943872E+03  0.30217099473E+03  0.12499838929E+03 0.  0.
          2    1    1    2  501    0 -0.95715746985E+02  0.54290381491E+02 -0.99377549659E+03  0.99984933233E+03  0.00000000000E+00 0. -1.
          1    1    1    2  502    0  0.11349632516E+02 -0.87698148576E+02  0.27989485356E+03  0.29353178443E+03  0.00000000000E+00 0. -1.
         22    1    3    3    0    0  0.40879317668E+01  0.10531038712E+02 -0.12853546879E+02  0.17112207043E+02  0.00000000000E+00 0. -1.
         22    1    3    3    0    0  0.80278182702E+02  0.22876728373E+02  0.27256298560E+03  0.28505878769E+03  0.00000000000E+00 0. -1.
</event>
<event>
 7    1  0.6017574E-006  0.2004273E+03  0.7818608E-02  0.1177864E+00
          2   -1    0    0  502    0  0.00000000000E+00  0.00000000000E+00  0.13796319725E+04  0.13796319725E+04  0.00000000000E+00 0. -1.
          1   -1    0    0  501    0 -0.00000000000E+00 -0.00000000000E+00 -0.39354409951E+03  0.39354409951E+03  0.00000000000E+00 0. -1.
         25    2    1    2    0    0 -0.73684034262E+02  0.92863170981E+02 -0.84014568107E+02  0.19166863682E+03  0.12500205301E+03 0.  0.
          2    1    1    2  501    0  0.88614339034E+02  0.11371638420E+03 -0.22648801195E+03  0.26847855906E+03  0.00000000000E+00 0. -1.
          1    1    1    2  502    0 -0.14930304772E+02 -0.20657955518E+03  0.12965904531E+04  0.13130288761E+04  0.00000000000E+00 0. -1.
         22    1    3    3    0    0 -0.99997212279E+01  0.50438836227E+02  0.26030202174E+02  0.57633688497E+02  0.00000000000E+00 0.  1.
         22    1    3    3    0    0 -0.63684313034E+02  0.42424334754E+02 -0.11004477028E+03  0.13403494832E+03  0.00000000000E+00 0.  1.
</event>
<event>
 7    1  0.6017574E-006  0.6391499E+02  0.7818608E-02  0.1470363E+00
          2   -1    0    0  502    0  0.00000000000E+00  0.00000000000E+00  0.76996900709E+03  0.76996900709E+03  0.00000000000E+00 0. -1.
          1   -1    0    0  501    0 -0.00000000000E+00 -0.00000000000E+00 -0.93199145918E+02  0.93199145918E+02  0.00000000000E+00 0. -1.
         25    2    1    2    0    0 -0.30824391419E+02  0.16337166233E+02  0.18779916907E+03  0.22827661073E+03  0.12499854798E+03 0.  0.
          2    1    1    2  501    0  0.51127369087E+02 -0.41837392747E+02 -0.57419906025E+02  0.87529543067E+02  0.00000000000E+00 0. -1.
          1    1    1    2  502    0 -0.20302977668E+02  0.25500226514E+02  0.54639059813E+03  0.54736199921E+03  0.00000000000E+00 0. -1.
         22    1    3    3    0    0  0.12228046564E+01  0.68403337955E+02  0.10582982185E+03  0.12601770942E+03  0.00000000000E+00 0. -1.
         22    1    3    3    0    0 -0.32047196076E+02 -0.52066171722E+02  0.81969347215E+02  0.10225890131E+03  0.00000000000E+00 0. -1.
</event>
<event>
 7    1  0.6017574E-006  0.7774155E+02  0.7818608E-02  0.1407697E+00
          2   -1    0    0  502    0  0.00000000000E+00  0.00000000000E+00  0.15520491638E+03  0.15520491638E+03  0.00000000000E+00 0. -1.
          1   -1    0    0  501    0 -0.00000000000E+00 -0.00000000000E+00 -0.21791275730E+04  0.21791275730E+04  0.00000000000E+00 0. -1.
         25    2    1    2    0    0  0.41725121879E+01  0.11052026357E+03 -0.45688173528E+02  0.17304544608E+03  0.12500071476E+03 0.  0.
          2    1    1    2  501    0  0.16065129299E+02 -0.39714990154E+02 -0.20546887013E+04  0.20551352822E+04  0.00000000000E+00 0. -1.
          1    1    1    2  502    0 -0.20237641487E+02 -0.70805273414E+02  0.76454218294E+02  0.10615176104E+03  0.00000000000E+00 0. -1.
         22    1    3    3    0    0 -0.50755051940E+02  0.97798044682E+01 -0.82012492006E+01  0.52335268809E+02  0.00000000000E+00 0.  1.
         22    1    3    3    0    0  0.54927564128E+02  0.10074045910E+03 -0.37486924327E+02  0.12071017727E+03  0.00000000000E+00 0.  1.
</event>
<event>
 7    1  0.6017574E-006  0.1356943E+03  0.7818608E-02  0.1297319E+00
          2   -1    0    0  502    0  0.00000000000E+00  0.00000000000E+00  0.10660491903E+03  0.10660491903E+03  0.00000000000E+00 0. -1.
          1   -1    0    0  501    0 -0.00000000000E+00 -0.00000000000E+00 -0.36208547164E+03  0.36208547164E+03  0.00000000000E+00 0. -1.
         25    2    1    2    0    0 -0.10413644392E+03  0.15696873845E+02 -0.11355222345E+03  0.19902123222E+03  0.12499821048E+03 0.  0.
          2    1    1    2  501    0 -0.56048496283E+02  0.28361260624E+02 -0.32394587965E+02  0.70676759753E+02  0.00000000000E+00 0. -1.
          1    1    1    2  502    0  0.16018494020E+03 -0.44058134469E+02 -0.10953374119E+03  0.19899239870E+03  0.00000000000E+00 0. -1.
         22    1    3    3    0    0 -0.88160963774E+02  0.64832573053E+02 -0.92274227314E+02  0.14314381261E+03  0.00000000000E+00 0.  1.
         22    1    3    3    0    0 -0.15975480144E+02 -0.49135699208E+02 -0.21277996136E+02  0.55877419608E+02  0.00000000000E+00 0.  1.
</event>
<event>
 7    1  0.6017574E-006  0.2548587E+02  0.7818608E-02  0.1656562E+00
          2   -1    0    0  502    0  0.00000000000E+00  0.00000000000E+00  0.20859542962E+03  0.20859542962E+03  0.00000000000E+00 0. -1.
          1   -1    0    0  501    0 -0.00000000000E+00 -0.00000000000E+00 -0.11344293658E+03  0.11344293658E+03  0.00000000000E+00 0. -1.
         25    2    1    2    0    0  0.69259131677E+01  0.11024377054E+01 -0.31663325975E+02  0.12913649265E+03  0.12499793550E+03 0.  0.
          2    1    1    2  501    0 -0.18875873335E+02  0.21014820803E+02 -0.25783694351E+02  0.38245524992E+02  0.00000000000E+00 0. -1.
          1    1    1    2  502    0  0.11949960167E+02 -0.22117258508E+02  0.15259951337E+03  0.15465634857E+03  0.00000000000E+00 0. -1.
         22    1    3    3    0    0  0.46312582030E+02 -0.44400440729E+02 -0.88020638070E+01  0.64759020364E+02  0.00000000000E+00 0. -1.
         22    1    3    3    0    0 -0.39386668862E+02  0.45502878434E+02 -0.22861262168E+02  0.64377472285E+02  0.00000000000E+00 0. -1.
</event>
<event>
 7    1  0.6017574E-006  0.1938482E+03  0.7818608E-02  0.1198527E+00
          2   -1    0    0  502    0  0.00000000000E+00  0.00000000000E+00  0.21785371636E+04  0.21785371636E+04  0.00000000000E+00 0. -1.
          1   -1    0    0  501    0 -0.00000000000E+00 -0.00000000000E+00 -0.49354738557E+03  0.49354738557E+03  0.00000000000E+00 0. -1.
         25    2    1    2    0    0  0.10455156025E+03  0.27619223665E+02 -0.59159161200E-01  0.16528667419E+03  0.12500332355E+03 0.  0.
          2    1    1    2  501    0 -0.21543008892E+03 -0.69574302051E+02 -0.37785904236E+03  0.44048627970E+03  0.00000000000E+00 0. -1.
          1    1    1    2  502    0  0.11087852867E+03  0.41955078386E+02  0.20629079795E+04  0.20663115952E+04  0.00000000000E+00 0. -1.
         22    1    3    3    0    0  0.12475941158E+03  0.34898410031E+02  0.25360569302E+02  0.13200745538E+03  0.00000000000E+00 0. -1.
         22    1    3    3    0    0 -0.20207851329E+02 -0.72791863662E+01 -0.25419728463E+02  0.33279218811E+02  0.00000000000E+00 0. -1.
</event>
<event>
 7    1  0.6017574E-006  0.2222495E+03  0.7818608E-02  0.1321735E+00
          2   -1    0    0  502    0  0.00000000000E+00  0.00000000000E+00  0.98038101698E+02  0.98038101698E+02  0.00000000000E+00 0. -1.
          1   -1    0    0  501    0 -0.00000000000E+00 -0.00000000000E+00 -0.29776995025E+04  0.29776995025E+04  0.00000000000E+00 0. -1.
         25    2    1    2    0    0 -0.16131607743E+03 -0.18516730196E+03 -0.64943263460E+03  0.70547703424E+03  0.12500116957E+03 0.  0.
          2    1    1    2  501    0  0.13333374105E+03  0.17247873155E+03 -0.22914314338E+04  0.23017786199E+04  0.00000000000E+00 0. -1.
          1    1    1    2  502    0  0.27982336379E+02  0.12688570409E+02  0.61202667567E+02  0.68481950072E+02  0.00000000000E+00 0. -1.
         22    1    3    3    0    0 -0.39185878219E+02 -0.11302262810E+03 -0.41086584483E+03  0.42792568275E+03  0.00000000000E+00 0.  1.
         22    1    3    3    0    0 -0.12213019921E+03 -0.72144673857E+02 -0.23856678978E+03  0.27755135148E+03  0.00000000000E+00 0.  1.
</event>
<event>
 7    1  0.6017574E-006  0.2076293E+03  0.7818608E-02  0.1148388E+00
          2   -1    0    0  502    0  0.00000000000E+00  0.00000000000E+00  0.40118976116E+03  0.40118976116E+03  0.00000000000E+00 0. -1.
          1   -1    0    0  501    0 -0.00000000000E+00 -0.00000000000E+00 -0.58495337944E+03  0.58495337944E+03  0.00000000000E+00 0. -1.
         25    2    1    2    0    0 -0.74320450220E+02  0.99515048388E+02  0.14650991570E+02  0.17681973989E+03  0.12499517864E+03 0.  0.
          2    1    1    2  501    0  0.24837731128E+02  0.19418282130E+03 -0.40297087053E+03  0.44800603062E+03  0.00000000000E+00 0. -1.
          1    1    1    2  502    0  0.49482719092E+02 -0.29369786969E+03  0.20455626068E+03  0.36131737009E+03  0.00000000000E+00 0. -1.
         22    1    3    3    0    0 -0.67379150751E+02  0.29452213635E+02 -0.43557879308E+02  0.85467372100E+02  0.00000000000E+00 0. -1.
         22    1    3    3    0    0 -0.69412994693E+01  0.70062834753E+02  0.58208870877E+02  0.91352367790E+02  0.00000000000E+00 0. -1.
</event>
<event>
 7    1  0.6017574E-006  0.6645811E+02  0.7818608E-02  0.1391624E+00
          2   -1    0    0  502    0  0.00000000000E+00  0.00000000000E+00  0.38757636970E+04  0.38757636970E+04  0.00000000000E+00 0. -1.
          1   -1    0    0  501    0 -0.00000000000E+00 -0.00000000000E+00 -0.10711115737E+04  0.10711115737E+04  0.00000000000E+00 0. -1.
         25    2    1    2    0    0 -0.14107014769E+02 -0.15450831828E+02  0.11722071081E+03  0.17263150998E+03  0.12499282829E+03 0.  0.
          2    1    1    2  501    0  0.26316757861E+02 -0.50471225468E+02 -0.10423284115E+04  0.10438814271E+04  0.00000000000E+00 0. -1.
          1    1    1    2  502    0 -0.12209743091E+02  0.65922057296E+02  0.37297598240E+04  0.37303623337E+04  0.00000000000E+00 0. -1.
         22    1    3    3    0    0  0.32003537728E+02 -0.44910448411E+02  0.10180774189E+03  0.11578424380E+03  0.00000000000E+00 0.  1.
         22    1    3    3    0    0 -0.46110552497E+02  0.29459616583E+02  0.15412968922E+02  0.56847266177E+02  0.00000000000E+00 0.  1.
</event>
<event>
 7    1  0.6017574E-006  0.3130521E+03  0.7818608E-02  0.1154071E+00
          2   -1    0    0  502    0  0.00000000000E+00  0.00000000000E+00  0.16730687402E+04  0.16730687402E+04  0.00000000000E+00 0. -1.
          1   -1    0    0  501    0 -0.00000000000E+00 -0.00000000000E+00 -0.47534125990E+03  0.47534125990E+03  0.00000000000E+00 0. -1.
         25    2    1    2    0    0  0.13361986461E+03 -0.30091184710E+03  0.49509628426E+03  0.60757515377E+03  0.12500011541E+03 0.  0.
          2    1    1    2  501    0 -0.12848639417E+02  0.31328691858E+03 -0.35649938350E+03  0.47476898733E+03  0.00000000000E+00 0. -1.
          1    1    1    2  502    0 -0.12077122519E+03 -0.12375071485E+02  0.10591305795E+04  0.10660658590E+04  0.00000000000E+00 0. -1.
         22    1    3    3    0    0  0.15965272109E+02 -0.96484529275E+02  0.24501263998E+03  0.26380930243E+03  0.00000000000E+00 0.  1.
         22    1    3    3    0    0  0.11765459250E+03 -0.20442731782E+03  0.25008364429E+03  0.34376585134E+03  0.00000000000E+00 0.  1.
</event>
<event>
 7    1  0.6017574E-006  0.6791236E+02  0.7818608E-02  0.1407210E+00
          2   -1    0    0  502    0  0.00000000000E+00  0.00000000000E+00  0.30585792259E+04  0.30585792259E+04  0.00000000000E+00 0. -1.
          1   -1    0    0  501    0 -0.00000000000E+00 -0.00000000000E+00 -0.71043222931E+02  0.71043222931E+02  0.00000000000E+00 0. -1.
         25    2    1    2    0    0 -0.15534755638E+02 -0.41587179717E+02  0.48139154046E+03  0.49933325861E+03  0.12500026309E+03 0.  0.
          2    1    1    2  501    0 -0.28738379822E+02  0.63113861881E+02 -0.42390641471E+02  0.81278659688E+02  0.00000000000E+00 0. -1.
          1    1    1    2  502    0  0.44273135460E+02 -0.21526682164E+02  0.25485351040E+04  0.25490105305E+04  0.00000000000E+00 0. -1.
         22    1    3    3    0    0 -0.69292491429E+01  0.38656214820E+02  0.27387122845E+03  0.27667267160E+03  0.00000000000E+00 0.  1.
         22    1    3    3    0    0 -0.86055064948E+01 -0.80243394537E+02  0.20752031202E+03  0.22266058701E+03  0.00000000000E+00 0.  1.
</event>
<event>
 7    1  0.6017574E-006  0.6509139E+02  0.7818608E-02  0.1501491E+00
          2   -1    0    0  502    0  0.00000000000E+00  0.00000000000E+00  0.80147099814E+03  0.80147099814E+03  0.00000000000E+00 0. -1.
          1   -1    0    0  501    0 -0.00000000000E+00 -0.00000000000E+00 -0.86988593950E+03  0.86988593950E+03  0.00000000000E+00 0. -1.
         25    2    1    2    0    0 -0.68004364131E+01  0.54047909707E+02 -0.46347148169E+03  0.48311084222E+03  0.12499139591E+03 0.  0.
          2    1    1    2  501    0  0.24214225441E+02  0.87144541773E+01 -0.39483546269E+03  0.39567324022E+03  0.00000000000E+00 0. -1.
          1    1    1    2  502    0 -0.17413789028E+02 -0.62762363884E+02  0.78989200303E+03  0.79257285521E+03  0.00000000000E+00 0. -1.
         22    1    3    3    0    0 -0.53889643900E+02  0.66291932195E+02 -0.25104560805E+03  0.26518410834E+03  0.00000000000E+00 0.  1.
         22    1    3    3    0    0  0.47089207487E+02 -0.12244022488E+02 -0.21242587364E+03  0.21792673388E+03  0.00000000000E+00 0.  1.
</event>
<event>
 7    1  0.6017574E-006  0.5317219E+02  0.7818608E-02  0.1482192E+00
          2   -1    0    0  502    0  0.00000000000E+00  0.00000000000E+00  0.11758394853E+04  0.11758394853E+04  0.00000000000E+00 0. -1.
          1   -1    0    0  501    0 -0.00000000000E+00 -0.00000000000E+00 -0.95114352061E+02  0.95114352061E+02  0.00000000000E+00 0. -1.
         25    2    1    2    0    0 -0.37140850326E+02 -0.25808994541E+02  0.12756110287E+03  0.18423249397E+03  0.12499691960E+03 0.  0.
          2    1    1    2  501    0  0.54174558661E+02 -0.59342709424E+01 -0.55284028801E+02  0.77630034253E+02  0.00000000000E+00 0. -1.
          1    1    1    2  502    0 -0.17033708335E+02  0.31743265483E+02  0.10084480591E+04  0.10090913091E+04  0.00000000000E+00 0. -1.
         22    1    3    3    0    0  0.23934490377E+02  0.32292645498E+02  0.13500202150E+02  0.42402007511E+02  0.00000000000E+00 0. -1.
         22    1    3    3    0    0 -0.61075340703E+02 -0.58101640039E+02  0.11406090072E+03  0.14183048646E+03  0.00000000000E+00 0. -1.
</event>
<event>
 7    1  0.6017574E-006  0.7137330E+02  0.7818608E-02  0.1383213E+00
          2   -1    0    0  502    0  0.00000000000E+00  0.00000000000E+00  0.20483228733E+04  0.20483228733E+04  0.00000000000E+00 0. -1.
          1   -1    0    0  501    0 -0.00000000000E+00 -0.00000000000E+00 -0.64878521550E+03  0.64878521550E+03  0.00000000000E+00 0. -1.
         25    2    1    2    0    0 -0.56012329266E+02 -0.41319157515E+02  0.43931355801E+03  0.46202646761E+03  0.12500960249E+03 0.  0.
          2    1    1    2  501    0 -0.15820364907E+02  0.54470166383E+02 -0.63533013681E+03  0.63785708878E+03  0.00000000000E+00 0. -1.
          1    1    1    2  502    0  0.71832694173E+02 -0.13151008868E+02  0.15955542366E+04  0.15972245324E+04  0.00000000000E+00 0. -1.
         22    1    3    3    0    0 -0.60021099744E+02 -0.42326513905E+02  0.10753567655E+03  0.13022283949E+03  0.00000000000E+00 0.  1.
         22    1    3    3    0    0  0.40087704783E+01  0.10073563904E+01  0.33177788147E+03  0.33180362813E+03  0.00000000000E+00 0.  1.
</event>
<event>
 7    1  0.6017574E-006  0.6251946E+02  0.7818608E-02  0.1433081E+00
          2   -1    0    0  502    0  0.00000000000E+00  0.00000000000E+00  0.14019467477E+04  0.14019467477E+04  0.00000000000E+00 0. -1.
          1   -1    0    0  501    0 -0.00000000000E+00 -0.00000000000E+00 -0.80340907494E+02  0.80340907494E+02  0.00000000000E+00 0. -1.
         25    2    1    2    0    0 -0.89766434225E+02 -0.19267615238E+02  0.35934685875E+03  0.39138593573E+03  0.12499412821E+03 0.  0.
          2    1    1    2  501    0  0.49554238472E+02  0.36701958101E+02 -0.48956876385E+02  0.78736472008E+02  0.00000000000E+00 0. -1.
          1    1    1    2  502    0  0.40212195753E+02 -0.17434342863E+02  0.10112158578E+04  0.10121652474E+04  0.00000000000E+00 0. -1.
         22    1    3    3    0    0 -0.26808484865E+02  0.88611371137E+01  0.29604248757E+01  0.28389764479E+02  0.00000000000E+00 0.  1.
         22    1    3    3    0    0 -0.62957949360E+02 -0.28128752351E+02  0.35638643387E+03  0.36299617126E+03  0.00000000000E+00 0.  1.
</event>
<event>
 7    1  0.6017574E-006  0.3709497E+02  0.7818608E-02  0.1555117E+00
          2   -1    0    0  502    0  0.00000000000E+00  0.00000000000E+00  0.11635662219E+04  0.11635662219E+04  0.00000000000E+00 0. -1.
          1   -1    0    0  501    0 -0.00000000000E+00 -0.00000000000E+00 -0.12419324631E+03  0.12419324631E+03  0.00000000000E+00 0. -1.
         25    2    1    2    0    0 -0.18538531042E+02 -0.60407573099E+01  0.18595239729E+03  0.22490754157E+03  0.12499976127E+03 0.  0.
          2    1    1    2  501    0  0.90712971203E+01 -0.30346121075E+02 -0.10194241105E+03  0.10674938251E+03  0.00000000000E+00 0. -1.
          1    1    1    2  502    0  0.94672339216E+01  0.36386878385E+02  0.95536298939E+03  0.95610254415E+03  0.00000000000E+00 0. -1.
         22    1    3    3    0    0  0.24003846135E+01  0.57801239354E+02  0.10325280893E+03  0.11835492246E+03  0.00000000000E+00 0. -1.
         22    1    3    3    0    0 -0.20938915655E+02 -0.63841996664E+02  0.82699588352E+02  0.10655261912E+03  0.00000000000E+00 0. -1.
</event>
<event>
 7    1  0.6017574E-006  0.1116142E+03  0.7818608E-02  0.1353081E+00
          2   -1    0    0  502    0  0.00000000000E+00  0.00000000000E+00  0.28254552400E+04  0.28254552400E+04  0.00000000000E+00 0. -1.
          1   -1    0    0  501    0 -0.00000000000E+00 -0.00000000000E+00 -0.44398648363E+03  0.44398648363E+03  0.00000000000E+00 0. -1.
         25    2    1    2    0    0 -0.29022441948E+02  0.80887407784E+02  0.70279391612E+01  0.15185388586E+03  0.12500054339E+03 0.  0.
          2    1    1    2  501    0  0.34683133994E+02  0.31093280103E+02 -0.36896403112E+03  0.37189268359E+03  0.00000000000E+00 0. -1.
          1    1    1    2  502    0 -0.56606920466E+01 -0.11198068789E+03  0.27434048483E+04  0.27456951542E+04  0.00000000000E+00 0. -1.
         22    1    3    3    0    0 -0.25211405853E+02  0.92727213517E+02 -0.39349125061E+02  0.10383787727E+03  0.00000000000E+00 0.  1.
         22    1    3    3    0    0 -0.38110360943E+01 -0.11839805733E+02  0.46377064223E+02  0.48016008599E+02  0.00000000000E+00 0.  1.
</event>
<event>
 7    1  0.6017574E-006  0.4441186E+02  0.7818608E-02  0.1509881E+00
          2   -1    0    0  502    0  0.00000000000E+00  0.00000000000E+00  0.69239187433E+03  0.69239187433E+03  0.00000000000E+00 0. -1.
          1   -1    0    0  501    0 -0.00000000000E+00 -0.00000000000E+00 -0.20033332677E+03  0.20033332677E+03  0.00000000000E+00 0. -1.
         25    2    1    2    0    0 -0.93372286423E+01 -0.42038655441E+02  0.34838864351E+03  0.37263035963E+03  0.12499722238E+03 0.  0.
          2    1    1    2  501    0 -0.25814482276E+02  0.36278639663E+02 -0.18460209608E+03  0.18989592167E+03  0.00000000000E+00 0. -1.
          1    1    1    2  502    0  0.35151710919E+02  0.57600157774E+01  0.32827200014E+03  0.33019891980E+03  0.00000000000E+00 0. -1.
         22    1    3    3    0    0 -0.45820018070E+02  0.27637001821E+02  0.14603234887E+03  0.15552724791E+03  0.00000000000E+00 0.  1.
         22    1    3    3    0    0  0.36482789427E+02 -0.69675657262E+02  0.20235629464E+03  0.21710311172E+03  0.00000000000E+00 0.  1.
</event>
<event>
 7    1  0.6017574E-006  0.1112887E+03  0.7818608E-02  0.1326141E+00
          2   -1    0    0  502    0  0.00000000000E+00  0.00000000000E+00  0.29198783495E+03  0.29198783495E+03  0.00000000000E+00 0. -1.
          1   -1    0    0  501    0 -0.00000000000E+00 -0.00000000000E+00 -0.39788070053E+03  0.39788070053E+03  0.00000000000E+00 0. -1.
         25    2    1    2    0    0 -0.42228538985E+02  0.12091250202E+03 -0.14239306170E+03  0.22869913867E+03  0.12499771741E+03 0.  0.
          2    1    1    2  501    0  0.57974996102E+02 -0.10977518362E+02 -0.19536424608E+03  0.20408036341E+03  0.00000000000E+00 0. -1.
          1    1    1    2  502    0 -0.15746457117E+02 -0.10993498366E+03  0.23186444220E+03  0.25708903341E+03  0.00000000000E+00 0. -1.
         22    1    3    3    0    0 -0.83937792534E+02  0.66269794037E+02 -0.64842183926E+02  0.12506697179E+03  0.00000000000E+00 0.  1.
         22    1    3    3    0    0  0.41709253549E+02  0.54642707987E+02 -0.77550877775E+02  0.10363216688E+03  0.00000000000E+00 0.  1.
</event>
<event>
 7    1  0.6017574E-006  0.9986468E+02  0.7818608E-02  0.1415201E+00
          2   -1    0    0  502    0  0.00000000000E+00  0.00000000000E+00  0.44804767907E+03  0.44804767907E+03  0.00000000000E+00 0. -1.
          1   -1    0    0  501    0 -0.00000000000E+00 -0.00000000000E+00 -0.11494830448E+03  0.11494830448E+03  0.00000000000E+00 0. -1.
         25    2    1    2    0    0  0.14686230851E+02  0.74506612990E+02  0.25056316958E+03  0.29012671688E+03  0.12499875657E+03 0.  0.
          2    1    1    2  501    0 -0.38611108423E+02 -0.94932065513E+02 -0.65434315235E+02  0.12159179399E+03  0.00000000000E+00 0. -1.
          1    1    1    2  502    0  0.23924877572E+02  0.20425452523E+02  0.14797052025E+03  0.15127747268E+03  0.00000000000E+00 0. -1.
         22    1    3    3    0    0  0.15088202048E+02  0.33518615880E+02  0.53608650214E+00  0.36761921064E+02  0.00000000000E+00 0. -1.
         22    1    3    3    0    0 -0.40197119707E+00  0.40987997110E+02  0.25002708308E+03  0.25336479582E+03  0.00000000000E+00 0. -1.
</event>
<event>
 7    1  0.6017574E-006  0.6641376E+02  0.7818608E-02  0.1424937E+00
          2   -1    0    0  502    0  0.00000000000E+00  0.00000000000E+00  0.24397384961E+04  0.24397384961E+04  0.00000000000E+00 0. -1.
          1   -1    0    0  501    0 -0.00000000000E+00 -0.00000000000E+00 -0.38103311328E+02  0.38103311328E+02  0.00000000000E+00 0. -1.
         25    2    1    2    0    0  0.47141466330E+02 -0.46711336115E+02  0.88210122655E+03  0.89338207966E+03  0.12499879844E+03 0.  0.
          2    1    1    2  501    0 -0.66557047650E+02  0.73492494430E+01  0.27261369235E+01  0.67017041727E+02  0.00000000000E+00 0. -1.
          1    1    1    2  502    0  0.19415581320E+02  0.39362086672E+02  0.15168078213E+04  0.15174426861E+04  0.00000000000E+00 0. -1.
         22    1    3    3    0    0  0.90355169899E+02 -0.32361716445E+02  0.59233829638E+03  0.60006332564E+03  0.00000000000E+00 0. -1.
         22    1    3    3    0    0 -0.43213703569E+02 -0.14349619669E+02  0.28976293017E+03  0.29331875402E+03  0.00000000000E+00 0. -1.
</event>
<event>
 7    1  0.6017574E-006  0.6193534E+02  0.7818608E-02  0.1439034E+00
          2   -1    0    0  502    0  0.00000000000E+00  0.00000000000E+00  0.31749607746E+04  0.31749607746E+04  0.00000000000E+00 0. -1.
          1   -1    0    0  501    0 -0.00000000000E+00 -0.00000000000E+00 -0.32334935325E+02  0.32334935325E+02  0.00000000000E+00 0. -1.
         25    2    1    2    0    0 -0.33012826777E+02  0.22710089086E+02  0.28517564887E+03  0.31393828483E+03  0.12500600424E+03 0.  0.
          2    1    1    2  501    0  0.23523054525E+02 -0.63938699717E+02  0.47415654696E+02  0.83004431965E+02  0.00000000000E+00 0. -1.
          1    1    1    2  502    0  0.94897722523E+01  0.41228610631E+02  0.28100345357E+04  0.28103529931E+04  0.00000000000E+00 0. -1.
         22    1    3    3    0    0 -0.79381558873E+02  0.28888815142E+02  0.18106122872E+03  0.19979780798E+03  0.00000000000E+00 0. -1.
         22    1    3    3    0    0  0.46368732096E+02 -0.61787260564E+01  0.10411442015E+03  0.11414047685E+03  0.00000000000E+00 0. -1.
</event>
<event>
 7    1  0.6017574E-006  0.8508517E+02  0.7818608E-02  0.1469225E+00
          2   -1    0    0  502    0  0.00000000000E+00  0.00000000000E+00  0.14975555761E+03  0.14975555761E+03  0.00000000000E+00 0. -1.
          1   -1    0    0  501    0 -0.00000000000E+00 -0.00000000000E+00 -0.10147713332E+04  0.10147713332E+04  0.00000000000E+00 0. -1.
         25    2    1    2    0    0  0.70421252259E+02  0.82616180355E+02 -0.24846501230E+03  0.29857154568E+03  0.12500207808E+03 0.  0.
          2    1    1    2  501    0 -0.15803052719E+02 -0.18964618042E+02 -0.72691687113E+03  0.72733591328E+03  0.00000000000E+00 0. -1.
          1    1    1    2  502    0 -0.54618199540E+02 -0.63651562313E+02  0.11036610788E+03  0.13861943181E+03  0.00000000000E+00 0. -1.
         22    1    3    3    0    0 -0.11650912494E+02  0.66624772247E+02 -0.52851215435E+02  0.85836210377E+02  0.00000000000E+00 0.  1.
         22    1    3    3    0    0  0.82072164753E+02  0.15991408108E+02 -0.19561379687E+03  0.21273533530E+03  0.00000000000E+00 0.  1.
</event>
<event>
 7    1  0.6017574E-006  0.6432064E+02  0.7818608E-02  0.1449341E+00
          2   -1    0    0  502    0  0.00000000000E+00  0.00000000000E+00  0.88740747985E+02  0.88740747985E+02  0.00000000000E+00 0. -1.
          1   -1    0    0  501    0 -0.00000000000E+00 -0.00000000000E+00 -0.18538625800E+04  0.18538625800E+04  0.00000000000E+00 0. -1.
         25    2    1    2    0    0 -0.33704805036E+02  0.72832032655E+02 -0.92201360974E+03  0.93390266297E+03  0.12499827399E+03 0.  0.
          2    1    1    2  501    0  0.36723903178E+02 -0.86766461614E+01 -0.91300043437E+03  0.91377990917E+03  0.00000000000E+00 0. -1.
          1    1    1    2  502    0 -0.30190981415E+01 -0.64155386493E+02  0.69892212117E+02  0.94920755814E+02  0.00000000000E+00 0. -1.
         22    1    3    3    0    0 -0.33745756183E+02 -0.27212584264E+02 -0.40379197047E+03  0.40611236896E+03  0.00000000000E+00 0.  1.
         22    1    3    3    0    0  0.40951147453E-01  0.10004461692E+03 -0.51822163926E+03  0.52779029401E+03  0.00000000000E+00 0.  1.
</event>
<event>
 7    1  0.6017574E-006  0.7741191E+02  0.7818608E-02  0.1482139E+00
          2   -1    0    0  502    0  0.00000000000E+00  0.00000000000E+00  0.61167125911E+02  0.61167125911E+02  0.00000000000E+00 0. -1.
          1   -1    0    0  501    0 -0.00000000000E+00 -0.00000000000E+00 -0.12774493628E+04  0.12774493628E+04  0.00000000000E+00 0. -1.
         25    2    1    2    0    0  0.33589828156E+02  0.41887486000E+02 -0.65558773246E+03  0.66955445625E+03  0.12500022758E+03 0.  0.
          2    1    1    2  501    0  0.16217532929E+02  0.18701150924E+02 -0.58609574106E+03  0.58661823966E+03  0.00000000000E+00 0. -1.
          1    1    1    2  502    0 -0.49807361085E+02 -0.60588636924E+02  0.25401236656E+02  0.82443792770E+02  0.00000000000E+00 0. -1.
         22    1    3    3    0    0 -0.16526697316E+01  0.80109019350E+02 -0.47176982746E+03  0.47852581581E+03  0.00000000000E+00 0. -1.
         22    1    3    3    0    0  0.35242497888E+02 -0.38221533350E+02 -0.18381790500E+03  0.19102864044E+03  0.00000000000E+00 0. -1.
</event>
<event>
 7    1  0.6017574E-006  0.4283486E+02  0.7818608E-02  0.1490543E+00
          2   -1    0    0  502    0  0.00000000000E+00  0.00000000000E+00  0.14628697382E+03  0.14628697382E+03  0.00000000000E+00 0. -1.
          1   -1    0    0  501    0 -0.00000000000E+00 -0.00000000000E+00 -0.24916504365E+03  0.24916504365E+03  0.00000000000E+00 0. -1.
         25    2    1    2    0    0 -0.71074088698E+01  0.18408628372E+01 -0.17653253793E+03  0.21643177548E+03  0.12500028982E+03 0.  0.
          2    1    1    2  501    0  0.55628613774E+01  0.41810419675E+02 -0.39463799133E+02  0.57761994963E+02  0.00000000000E+00 0. -1.
          1    1    1    2  502    0  0.15445474924E+01 -0.43651282513E+02  0.11311826723E+03  0.12125824703E+03  0.00000000000E+00 0. -1.
         22    1    3    3    0    0 -0.61743554137E+01 -0.27396970626E+02  0.83108362994E+01  0.29287995225E+02  0.00000000000E+00 0.  1.
         22    1    3    3    0    0 -0.93305345611E+00  0.29237833464E+02 -0.18484337423E+03  0.18714378026E+03  0.00000000000E+00 0.  1.
</event>
<event>
 7    1  0.6017574E-006  0.4468113E+03  0.7818608E-02  0.1151086E+00
          2   -1    0    0  502    0  0.00000000000E+00  0.00000000000E+00  0.25397920529E+04  0.25397920529E+04  0.00000000000E+00 0. -1.
          1   -1    0    0  501    0 -0.00000000000E+00 -0.00000000000E+00 -0.19631011467E+04  0.19631011467E+04  0.00000000000E+00 0. -1.
         25    2    1    2    0    0 -0.49022212874E+03 -0.18900748675E+03 -0.51844378739E+03  0.74863272969E+03  0.12500175089E+03 0.  0.
          2    1    1    2  501    0  0.88107221213E+02 -0.14820500453E-01 -0.13077123413E+04  0.13106770961E+04  0.00000000000E+00 0. -1.
          1    1    1    2  502    0  0.40211490753E+03  0.18902230725E+03  0.24028470349E+04  0.24435833738E+04  0.00000000000E+00 0. -1.
         22    1    3    3    0    0 -0.41034079547E+02 -0.57826188731E+02 -0.52132631337E+02  0.88008380496E+02  0.00000000000E+00 0. -1.
         22    1    3    3    0    0 -0.44918804919E+03 -0.13118129802E+03 -0.46631115605E+03  0.66062434919E+03  0.00000000000E+00 0. -1.
</event>
<event>
 7    1  0.6017574E-006  0.1880202E+03  0.7818608E-02  0.1229819E+00
          2   -1    0    0  502    0  0.00000000000E+00  0.00000000000E+00  0.95785752558E+03  0.95785752558E+03  0.00000000000E+00 0. -1.
          1   -1    0    0  501    0 -0.00000000000E+00 -0.00000000000E+00 -0.23155480793E+04  0.23155480793E+04  0.00000000000E+00 0. -1.
         25    2    1    2    0    0  0.25133511202E+03 -0.61622150914E+02  0.32331797035E+03  0.43258125123E+03  0.12500160380E+03 0.  0.
          2    1    1    2  501    0 -0.86719238864E+02  0.13161563845E+02 -0.22473475642E+04  0.22490585869E+04  0.00000000000E+00 0. -1.
          1    1    1    2  502    0 -0.16461587315E+03  0.48460587070E+02  0.56633904017E+03  0.59176576668E+03  0.00000000000E+00 0. -1.
         22    1    3    3    0    0  0.15296072393E+03  0.20009593634E+02  0.21739163755E+03  0.26656423424E+03  0.00000000000E+00 0.  1.
         22    1    3    3    0    0  0.98374388092E+02 -0.81631744548E+02  0.10592633281E+03  0.16601701700E+03  0.00000000000E+00 0.  1.
</event>
<event>
 7    1  0.6017574E-006  0.1041034E+03  0.7818608E-02  0.1383763E+00
          2   -1    0    0  502    0  0.00000000000E+00  0.00000000000E+00  0.23575783435E+04  0.23575783435E+04  0.00000000000E+00 0. -1.
          1   -1    0    0  501    0 -0.00000000000E+00 -0.00000000000E+00 -0.18193455839E+04  0.18193455839E+04  0.00000000000E+00 0. -1.
         25    2    1    2    0    0 -0.11815786300E+03 -0.27493097440E+02  0.37271734142E+03  0.41141064386E+03  0.12499340101E+03 0.  0.
          2    1    1    2  501    0  0.15211493472E+02  0.35601102403E+02 -0.17984341121E+04  0.17988507674E+04  0.00000000000E+00 0. -1.
          1    1    1    2  502    0  0.10294636953E+03 -0.81080049625E+01  0.19639495302E+04  0.19666625160E+04  0.00000000000E+00 0. -1.
         22    1    3    3    0    0 -0.30384679162E+02  0.14218759699E+02  0.26181054295E+03  0.26395106034E+03  0.00000000000E+00 0.  1.
         22    1    3    3    0    0 -0.87773183836E+02 -0.41711857139E+02  0.11090679847E+03  0.14745958353E+03  0.00000000000E+00 0.  1.
</event>
<event>
 7    1  0.6017574E-006  0.1245510E+03  0.7818608E-02  0.1410428E+00
          2   -1    0    0  502    0  0.00000000000E+00  0.00000000000E+00  0.21852533237E+04  0.21852533237E+04  0.00000000000E+00 0. -1.
          1   -1    0    0  501    0 -0.00000000000E+00 -0.00000000000E+00 -0.13214961171E+03  0.13214961171E+03  0.00000000000E+00 0. -1.
         25    2    1    2    0    0 -0.14834017789E+03 -0.51590860505E+01  0.10928236853E+04  0.11099193197E+04  0.12500345786E+03 0.  0.
          2    1    1    2  501    0  0.12324390124E+03  0.12598919396E+02 -0.92355356508E+02  0.15452282627E+03  0.00000000000E+00 0. -1.
          1    1    1    2  502    0  0.25096276648E+02 -0.74398333453E+01  0.10526353832E+04  0.10529607894E+04  0.00000000000E+00 0. -1.
         22    1    3    3    0    0  0.19951835862E+02 -0.14430220944E+02  0.10750528579E+03  0.11028913592E+03  0.00000000000E+00 0. -1.
         22    1    3    3    0    0 -0.16829201375E+03  0.92711348931E+01  0.98531839953E+03  0.99963018376E+03  0.00000000000E+00 0. -1.
</event>
<event>
 7    1  0.1601036E-005  0.6510574E+02  0.7818608E-02  0.1403573E+00
          2   -1    0    0  502    0  0.00000000000E+00  0.00000000000E+00  0.12770909525E+04  0.12770909525E+04  0.00000000000E+00 0. -1.
          1   -1    0    0  501    0 -0.00000000000E+00 -0.00000000000E+00 -0.22814958506E+04  0.22814958506E+04  0.00000000000E+00 0. -1.
         25    2    1    2    0    0  0.16477850230E+02 -0.42672515153E+02 -0.72931072204E+03  0.74135948056E+03  0.12500914780E+03 0.  0.
          2    1    1    2  501    0  0.46337857711E+02  0.25393947114E+02 -0.15448739566E+04  0.15457773421E+04  0.00000000000E+00 0. -1.
          1    1    1    2  502    0 -0.62815707941E+02  0.17278568039E+02  0.12697797804E+04  0.12714499805E+04  0.00000000000E+00 0. -1.
         22    1    3    3    0    0  0.51292939485E+02 -0.14129528539E+02 -0.13148700589E+03  0.14184301864E+03  0.00000000000E+00 0.  1.
         22    1    3    3    0    0 -0.34815089255E+02 -0.28542986614E+02 -0.59782371615E+03  0.59951646192E+03  0.00000000000E+00 0.  1.
</event>
<event>
 7    1  0.6017574E-006  0.1017221E+03  0.7818608E-02  0.1369479E+00
          2   -1    0    0  502    0  0.00000000000E+00  0.00000000000E+00  0.75917385003E+03  0.75917385003E+03  0.00000000000E+00 0. -1.
          1   -1    0    0  501    0 -0.00000000000E+00 -0.00000000000E+00 -0.12400557651E+04  0.12400557651E+04  0.00000000000E+00 0. -1.
         25    2    1    2    0    0  0.54413573670E+02  0.11962219462E+03 -0.17279360732E+02  0.18217789076E+03  0.12497960285E+03 0.  0.
          2    1    1    2  501    0  0.11198012916E+02 -0.43111905436E+02 -0.11361354158E+04  0.11370082299E+04  0.00000000000E+00 0. -1.
          1    1    1    2  502    0 -0.65611586587E+02 -0.76510289182E+02  0.67253286144E+03  0.68004349447E+03  0.00000000000E+00 0. -1.
         22    1    3    3    0    0  0.65049724396E+01  0.10528922506E+03 -0.55535993049E+02  0.11921569572E+03  0.00000000000E+00 0.  1.
         22    1    3    3    0    0  0.47908601231E+02  0.14332969555E+02  0.38256632317E+02  0.62962195041E+02  0.00000000000E+00 0.  1.
</event>
<event>
 7    1  0.6017574E-006  0.4637233E+02  0.7818608E-02  0.1499135E+00
          2   -1    0    0  502    0  0.00000000000E+00  0.00000000000E+00  0.33851490231E+02  0.33851490231E+02  0.00000000000E+00 0. -1.
          1   -1    0    0  501    0 -0.00000000000E+00 -0.00000000000E+00 -0.63161543951E+03  0.63161543951E+03  0.00000000000E+00 0. -1.
         25    2    1    2    0    0  0.32345154487E+02  0.39627254446E+01 -0.18457465128E+03  0.22528565669E+03  0.12499565194E+03 0.  0.
          2    1    1    2  501    0 -0.26486558123E+02 -0.40204402911E+02 -0.39725235173E+03  0.40015917174E+03  0.00000000000E+00 0. -1.
          1    1    1    2  502    0 -0.58585963645E+01  0.36241677467E+02 -0.15936946272E+02  0.40022101312E+02  0.00000000000E+00 0. -1.
         22    1    3    3    0    0 -0.12477084099E+02  0.17939104745E+02 -0.17625391980E+03  0.17760330332E+03  0.00000000000E+00 0. -1.
         22    1    3    3    0    0  0.44822238586E+02 -0.13976379300E+02 -0.83207314809E+01  0.47682353367E+02  0.00000000000E+00 0. -1.
</event>
<event>
 7    1  0.6017574E-006  0.8882475E+02  0.7818608E-02  0.1309609E+00
          2   -1    0    0  502    0  0.00000000000E+00  0.00000000000E+00  0.59194305332E+02  0.59194305332E+02  0.00000000000E+00 0. -1.
          1   -1    0    0  501    0 -0.00000000000E+00 -0.00000000000E+00 -0.95872599123E+03  0.95872599123E+03  0.00000000000E+00 0. -1.
         25    2    1    2    0    0  0.15292846593E+02  0.98193333285E+02 -0.22291296646E+03  0.27421246514E+03  0.12500593411E+03 0.  0.
          2    1    1    2  501    0  0.67739828460E+02 -0.52555195624E+02 -0.63407682277E+03  0.63984697399E+03  0.00000000000E+00 0. -1.
          1    1    1    2  502    0 -0.83032675053E+02 -0.45638137662E+02 -0.42541896672E+02  0.10386085744E+03  0.00000000000E+00 0. -1.
         22    1    3    3    0    0  0.18298560005E+02 -0.20979129086E+02 -0.88799027527E+01  0.29220092888E+02  0.00000000000E+00 0. -1.
         22    1    3    3    0    0 -0.30057134117E+01  0.11917246237E+03 -0.21403306370E+03  0.24499237225E+03  0.00000000000E+00 0. -1.
</event>
<event>
 7    1  0.6017574E-006  0.1522777E+03  0.7818608E-02  0.1320269E+00
          2   -1    0    0  502    0  0.00000000000E+00  0.00000000000E+00  0.70817165010E+03  0.70817165010E+03  0.00000000000E+00 0. -1.
          1   -1    0    0  501    0 -0.00000000000E+00 -0.00000000000E+00 -0.15732151353E+04  0.15732151353E+04  0.00000000000E+00 0. -1.
         25    2    1    2    0    0  0.48829122180E+01  0.11788298086E+03 -0.31929343162E+03  0.36261885132E+03  0.12499558331E+03 0.  0.
          2    1    1    2  501    0 -0.24528180935E+02 -0.15884912260E+03 -0.12262569714E+04  0.12367460674E+04  0.00000000000E+00 0. -1.
          1    1    1    2  502    0  0.19645268717E+02  0.40966141740E+02  0.68050691783E+03  0.68202186663E+03  0.00000000000E+00 0. -1.
         22    1    3    3    0    0 -0.58946408993E+02  0.54684709019E+02 -0.12592150879E+03  0.14940322256E+03  0.00000000000E+00 0.  1.
         22    1    3    3    0    0  0.63829321211E+02  0.63198271842E+02 -0.19337192283E+03  0.21321562876E+03  0.00000000000E+00 0.  1.
</event>
<event>
 7    1  0.6017574E-006  0.2175968E+03  0.7818608E-02  0.1316367E+00
          2   -1    0    0  502    0  0.00000000000E+00  0.00000000000E+00  0.21561278077E+03  0.21561278077E+03  0.00000000000E+00 0. -1.
          1   -1    0    0  501    0 -0.00000000000E+00 -0.00000000000E+00 -0.33625909152E+04  0.33625909152E+04  0.00000000000E+00 0. -1.
         25    2    1    2    0    0 -0.50580052269E+02  0.22016488184E+03 -0.60483470068E+03  0.65763310601E+03  0.12500148037E+03 0.  0.
          2    1    1    2  501    0  0.17941980126E+02 -0.21582167229E+03 -0.27255962301E+04  0.27341864820E+04  0.00000000000E+00 0. -1.
          1    1    1    2  502    0  0.32638072143E+02 -0.43432095536E+01  0.18345279633E+03  0.18638410797E+03  0.00000000000E+00 0. -1.
         22    1    3    3    0    0 -0.80645346540E+02  0.19646922801E+03 -0.44222143479E+03  0.49057479232E+03  0.00000000000E+00 0. -1.
         22    1    3    3    0    0  0.30065294271E+02  0.23695653827E+02 -0.16261326589E+03  0.16705831369E+03  0.00000000000E+00 0. -1.
</event>
<event>
 7    1  0.6017574E-006  0.9702968E+02  0.7818608E-02  0.1376400E+00
          2   -1    0    0  502    0  0.00000000000E+00  0.00000000000E+00  0.17052506151E+04  0.17052506151E+04  0.00000000000E+00 0. -1.
          1   -1    0    0  501    0 -0.00000000000E+00 -0.00000000000E+00 -0.17685401653E+03  0.17685401653E+03  0.00000000000E+00 0. -1.
         25    2    1    2    0    0  0.12473051178E+02  0.11525117326E+03  0.10058950536E+03  0.19794366234E+03  0.12500013971E+03 0.  0.
          2    1    1    2  501    0  0.25155869211E+02 -0.92239860136E+02 -0.10998774836E+03  0.14573371038E+03  0.00000000000E+00 0. -1.
          1    1    1    2  502    0 -0.37628920388E+02 -0.23011313127E+02  0.15377948416E+04  0.15384272589E+04  0.00000000000E+00 0. -1.
         22    1    3    3    0    0  0.66968763132E+02  0.42632956373E+02  0.52796639162E+02  0.95340806119E+02  0.00000000000E+00 0.  1.
         22    1    3    3    0    0 -0.54495711955E+02  0.72618216890E+02  0.47792866196E+02  0.10260285622E+03  0.00000000000E+00 0.  1.
</event>
<event>
 7    1  0.6017574E-006  0.7666609E+02  0.7818608E-02  0.1378989E+00
          2   -1    0    0  502    0  0.00000000000E+00  0.00000000000E+00  0.76212015432E+03  0.76212015432E+03  0.00000000000E+00 0. -1.
          1   -1    0    0  501    0 -0.00000000000E+00 -0.00000000000E+00 -0.69757629769E+03  0.69757629769E+03  0.00000000000E+00 0. -1.
         25    2    1    2    0    0 -0.81489282382E+02  0.43580765480E+02  0.22488280890E+03  0.27338104370E+03  0.12500052420E+03 0.  0.
          2    1    1    2  501    0  0.48315855165E+02  0.25543985407E+02 -0.66934225045E+03  0.67156977693E+03  0.00000000000E+00 0. -1.
          1    1    1    2  502    0  0.33173427216E+02 -0.69124750887E+02  0.50900329818E+03  0.51474563137E+03  0.00000000000E+00 0. -1.
         22    1    3    3    0    0 -0.43649697679E+02 -0.20502911277E+02  0.18027668147E+03  0.18661550675E+03  0.00000000000E+00 0.  1.
         22    1    3    3    0    0 -0.37839584703E+02  0.64083676757E+02  0.44606127430E+02  0.86765536946E+02  0.00000000000E+00 0.  1.
</event>
<event>
 7    1  0.6017574E-006  0.2094493E+03  0.7818608E-02  0.1316311E+00
          2   -1    0    0  502    0  0.00000000000E+00  0.00000000000E+00  0.13582092732E+04  0.13582092732E+04  0.00000000000E+00 0. -1.
          1   -1    0    0  501    0 -0.00000000000E+00 -0.00000000000E+00 -0.31102499861E+03  0.31102499861E+03  0.00000000000E+00 0. -1.
         25    2    1    2    0    0 -0.11848505399E+03 -0.14166056770E+03  0.50243042714E+03  0.54969800470E+03  0.12500055119E+03 0.  0.
          2    1    1    2  501    0  0.15236812748E+03  0.14647763105E+03 -0.24811239153E+03  0.32593174362E+03  0.00000000000E+00 0. -1.
          1    1    1    2  502    0 -0.33883073489E+02 -0.48170633515E+01  0.79286623901E+03  0.79360452351E+03  0.00000000000E+00 0. -1.
         22    1    3    3    0    0 -0.79746479480E+02 -0.13689823573E+02  0.26652699531E+03  0.27853824062E+03  0.00000000000E+00 0.  1.
         22    1    3    3    0    0 -0.38738574515E+02 -0.12797074413E+03  0.23590343183E+03  0.27115976408E+03  0.00000000000E+00 0.  1.
</event>
<event>
 7    1  0.6017574E-006  0.5854287E+02  0.7818608E-02  0.1438606E+00
          2   -1    0    0  502    0  0.00000000000E+00  0.00000000000E+00  0.30345269699E+04  0.30345269699E+04  0.00000000000E+00 0. -1.
          1   -1    0    0  501    0 -0.00000000000E+00 -0.00000000000E+00 -0.10195364089E+03  0.10195364089E+03  0.00000000000E+00 0. -1.
         25    2    1    2    0    0  0.35246442732E+02  0.12883565384E+02  0.11078293135E+04  0.11154900754E+04  0.12499609003E+03 0.  0.
          2    1    1    2  501    0 -0.88368478170E+01  0.44023585347E+02 -0.92446338542E+02  0.10277398239E+03  0.00000000000E+00 0. -1.
          1    1    1    2  502    0 -0.26409594915E+02 -0.56907150731E+02  0.19171903541E+04  0.19182165530E+04  0.00000000000E+00 0. -1.
         22    1    3    3    0    0 -0.32631454035E+02 -0.34115662861E+02  0.46172719189E+03  0.46413434475E+03  0.00000000000E+00 0.  1.
         22    1    3    3    0    0  0.67877896767E+02  0.46999228244E+02  0.64610212156E+03  0.65135573062E+03  0.00000000000E+00 0.  1.
</event>
<event>
 7    1  0.6017574E-006  0.8595510E+02  0.7818608E-02  0.1461404E+00
          2   -1    0    0  502    0  0.00000000000E+00  0.00000000000E+00  0.34392398425E+04  0.34392398425E+04  0.00000000000E+00 0. -1.
          1   -1    0    0  501    0 -0.00000000000E+00 -0.00000000000E+00 -0.27909017466E+02  0.27909017466E+02  0.00000000000E+00 0. -1.
         25    2    1    2    0    0 -0.48059918392E+02  0.84215135272E+02  0.15219185526E+04  0.15301188594E+04  0.12500279341E+03 0.  0.
          2    1    1    2  501    0  0.22256703496E+02 -0.82603195053E+02  0.53424965941E+02  0.10086067454E+03  0.00000000000E+00 0. -1.
          1    1    1    2  502    0  0.25803214896E+02 -0.16119402191E+01  0.18359873065E+04  0.18361693261E+04  0.00000000000E+00 0. -1.
         22    1    3    3    0    0 -0.63391765107E+01 -0.97808399807E+01  0.12094947653E+02  0.16796956518E+02  0.00000000000E+00 0.  1.
         22    1    3    3    0    0 -0.41720741881E+02  0.93995975252E+02  0.15098236049E+04  0.15133219029E+04  0.00000000000E+00 0.  1.
</event>
<event>
 7    1  0.6017574E-006  0.2744399E+03  0.7818608E-02  0.1218191E+00
          2   -1    0    0  502    0  0.00000000000E+00  0.00000000000E+00  0.67228128147E+03  0.67228128147E+03  0.00000000000E+00 0. -1.
          1   -1    0    0  501    0 -0.00000000000E+00 -0.00000000000E+00 -0.20677769490E+04  0.20677769490E+04  0.00000000000E+00 0. -1.
         25    2    1    2    0    0  0.12051326779E+03 -0.24730524292E+03  0.65827380909E+02  0.30925916912E+03  0.12499863487E+03 0.  0.
          2    1    1    2  501    0 -0.63793499579E+02 -0.23078389532E+02 -0.19060447870E+04  0.19072516752E+04  0.00000000000E+00 0. -1.
          1    1    1    2  502    0 -0.56719768213E+02  0.27038363245E+03  0.44472173853E+03  0.52354738613E+03  0.00000000000E+00 0. -1.
         22    1    3    3    0    0 -0.21677245393E+02 -0.29559624567E+02  0.28715066835E+02  0.46564250619E+02  0.00000000000E+00 0.  1.
         22    1    3    3    0    0  0.14219051318E+03 -0.21774561835E+03  0.37112314074E+02  0.26269491850E+03  0.00000000000E+00 0.  1.
</event>
<event>
 7    1  0.6017574E-006  0.8411104E+02  0.7818608E-02  0.1413797E+00
          2   -1    0    0  502    0  0.00000000000E+00  0.00000000000E+00  0.13285470669E+03  0.13285470669E+03  0.00000000000E+00 0. -1.
          1   -1    0    0  501    0 -0.00000000000E+00 -0.00000000000E+00 -0.93001411757E+03  0.93001411757E+03  0.00000000000E+00 0. -1.
         25    2    1    2    0    0 -0.45313633970E+02  0.28233152879E+02 -0.95655203506E+02  0.16620800150E+03  0.12499898184E+03 0.  0.
          2    1    1    2  501    0 -0.20510011839E+02  0.31702350244E+02 -0.77822484465E+03  0.77914030086E+03  0.00000000000E+00 0. -1.
          1    1    1    2  502    0  0.65823645809E+02 -0.59935503123E+02  0.76720637274E+02  0.11752052189E+03  0.00000000000E+00 0. -1.
         22    1    3    3    0    0 -0.43959601436E+02  0.62195622973E+02 -0.13567447797E+02  0.77361603623E+02  0.00000000000E+00 0.  1.
         22    1    3    3    0    0 -0.13540325343E+01 -0.33962470093E+02 -0.82087755709E+02  0.88846397880E+02  0.00000000000E+00 0.  1.
</event>
<event>
 7    1  0.1339742E-005  0.1052557E+03  0.7818608E-02  0.1394041E+00
          2   -1    0    0  502    0  0.00000000000E+00  0.00000000000E+00  0.29296160081E+04  0.29296160081E+04  0.00000000000E+00 0. -1.
          1   -1    0    0  501    0 -0.00000000000E+00 -0.00000000000E+00 -0.11305781794E+04  0.11305781794E+04  0.00000000000E+00 0. -1.
         25    2    1    2    0    0  0.34420127787E+02 -0.11215764740E+03 -0.23446519714E+03  0.29045284733E+03  0.12499937914E+03 0.  0.
          2    1    1    2  501    0 -0.34563642654E+02  0.69270621723E+01 -0.86680671638E+03  0.86752320611E+03  0.00000000000E+00 0. -1.
          1    1    1    2  502    0  0.14351486616E+00  0.10523058523E+03  0.29003097422E+04  0.29022181341E+04  0.00000000000E+00 0. -1.
         22    1    3    3    0    0  0.63311073747E+02 -0.43984017057E+02 -0.18760788232E+03  0.20282900020E+03  0.00000000000E+00 0. -1.
         22    1    3    3    0    0 -0.28890945960E+02 -0.68173630348E+02 -0.46857314819E+02  0.87623847127E+02  0.00000000000E+00 0. -1.
</event>
<event>
 7    1  0.6017574E-006  0.1925214E+03  0.7818608E-02  0.1273069E+00
          2   -1    0    0  502    0  0.00000000000E+00  0.00000000000E+00  0.74526655281E+03  0.74526655281E+03  0.00000000000E+00 0. -1.
          1   -1    0    0  501    0 -0.00000000000E+00 -0.00000000000E+00 -0.11953199400E+04  0.11953199400E+04  0.00000000000E+00 0. -1.
         25    2    1    2    0    0  0.10973980365E+03  0.14630466142E+03 -0.23310183189E+03  0.32157269836E+03  0.12499863137E+03 0.  0.
          2    1    1    2  501    0 -0.43119425621E+02  0.35196058411E+02 -0.90377957136E+03  0.90549188898E+03  0.00000000000E+00 0. -1.
          1    1    1    2  502    0 -0.66620378028E+02 -0.18150071983E+03  0.68682801601E+03  0.71352190551E+03  0.00000000000E+00 0. -1.
         22    1    3    3    0    0  0.54868840261E+02 -0.10005642721E+02 -0.62693867039E+02  0.83911998440E+02  0.00000000000E+00 0.  1.
         22    1    3    3    0    0  0.54870963388E+02  0.15631030414E+03 -0.17040796485E+03  0.23766069992E+03  0.00000000000E+00 0.  1.
</event>
<event>
 7    1  0.6017574E-006  0.1128223E+03  0.7818608E-02  0.1356805E+00
          2   -1    0    0  502    0  0.00000000000E+00  0.00000000000E+00  0.39656768129E+04  0.39656768129E+04  0.00000000000E+00 0. -1.
          1   -1    0    0  501    0 -0.00000000000E+00 -0.00000000000E+00 -0.11257209242E+04  0.11257209242E+04  0.00000000000E+00 0. -1.
         25    2    1    2    0    0 -0.11645265224E+03  0.10136447975E+03  0.64150699624E+03  0.67155882366E+03  0.12499619775E+03 0.  0.
          2    1    1    2  501    0  0.29492203811E+02 -0.33524466243E+02 -0.11093267700E+04  0.11102250054E+04  0.00000000000E+00 0. -1.
          1    1    1    2  502    0  0.86960448428E+02 -0.67840013504E+02  0.33077756625E+04  0.33096139080E+04  0.00000000000E+00 0. -1.
         22    1    3    3    0    0 -0.97834137031E+02  0.99388809694E+02  0.31471955423E+03  0.34423545964E+03  0.00000000000E+00 0. -1.
         22    1    3    3    0    0 -0.18618515208E+02  0.19756700531E+01  0.32678744201E+03  0.32732336402E+03  0.00000000000E+00 0. -1.
</event>
<event>
 7    1  0.6017574E-006  0.1220937E+03  0.7818608E-02  0.1324711E+00
          2   -1    0    0  502    0  0.00000000000E+00  0.00000000000E+00  0.17977956176E+04  0.17977956176E+04  0.00000000000E+00 0. -1.
          1   -1    0    0  501    0 -0.00000000000E+00 -0.00000000000E+00 -0.48563753789E+02  0.48563753789E+02  0.00000000000E+00 0. -1.
         25    2    1    2    0    0  0.26366895223E+02 -0.92982117996E+02  0.25680641022E+03  0.30152175432E+03  0.12499979427E+03 0.  0.
          2    1    1    2  501    0 -0.44225659112E+02 -0.31795761659E+02  0.79804594592E+01  0.55050586886E+02  0.00000000000E+00 0. -1.
          1    1    1    2  502    0  0.17858763888E+02  0.12477787965E+03  0.14844449941E+04  0.14897870302E+04  0.00000000000E+00 0. -1.
         22    1    3    3    0    0 -0.45639445767E+02 -0.67575090749E+02  0.13810731500E+03  0.16038385940E+03  0.00000000000E+00 0. -1.
         22    1    3    3    0    0  0.72006340991E+02 -0.25407027247E+02  0.11869909522E+03  0.14113789492E+03  0.00000000000E+00 0. -1.
</event>
<event>
 7    1  0.6017574E-006  0.1123791E+03  0.7818608E-02  0.1299481E+00
          2   -1    0    0  502    0  0.00000000000E+00  0.00000000000E+00  0.93193164291E+03  0.93193164291E+03  0.00000000000E+00 0. -1.
          1   -1    0    0  501    0 -0.00000000000E+00 -0.00000000000E+00 -0.96964089832E+03  0.96964089832E+03  0.00000000000E+00 0. -1.
         25    2    1    2    0    0  0.17167147756E+03 -0.20303288252E+02 -0.13591383208E+03  0.25294525334E+03  0.12500164686E+03 0.  0.
          2    1    1    2  501    0 -0.10745088996E+03 -0.17158147326E+02 -0.76979601512E+03  0.77744839100E+03  0.00000000000E+00 0. -1.
          1    1    1    2  502    0 -0.64220587596E+02  0.37461435578E+02  0.86800059179E+03  0.87117889688E+03  0.00000000000E+00 0. -1.
         22    1    3    3    0    0  0.15521942609E+03  0.62748796611E+00 -0.15563918587E+03  0.21981132854E+03  0.00000000000E+00 0. -1.
         22    1    3    3    0    0  0.16452051463E+02 -0.20930776219E+02  0.19725353790E+02  0.33133924799E+02  0.00000000000E+00 0. -1.
</event>
<event>
 7    1  0.6017574E-006  0.2144740E+03  0.7818608E-02  0.1197671E+00
          2   -1    0    0  502    0  0.00000000000E+00  0.00000000000E+00  0.13621679864E+04  0.13621679864E+04  0.00000000000E+00 0. -1.
          1   -1    0    0  501    0 -0.00000000000E+00 -0.00000000000E+00 -0.43667885370E+03  0.43667885370E+03  0.00000000000E+00 0. -1.
         25    2    1    2    0    0  0.18391214009E+03 -0.15163324871E+03  0.21443703574E+03  0.34412818139E+03  0.12499858215E+03 0.  0.
          2    1    1    2  501    0 -0.85544721986E+02  0.19659224366E+03 -0.33791469962E+03  0.40019089688E+03  0.00000000000E+00 0. -1.
          1    1    1    2  502    0 -0.98367418107E+02 -0.44958994956E+02  0.10489667965E+04  0.10545277618E+04  0.00000000000E+00 0. -1.
         22    1    3    3    0    0  0.18591123777E+03 -0.10064865021E+03  0.13883653065E+03  0.25292038542E+03  0.00000000000E+00 0.  1.
         22    1    3    3    0    0 -0.19990976749E+01 -0.50984598494E+02  0.75600505091E+02  0.91207795967E+02  0.00000000000E+00 0.  1.
</event>
<event>
 7    1  0.6017574E-006  0.5040294E+02  0.7818608E-02  0.1499571E+00
          2   -1    0    0  502    0  0.00000000000E+00  0.00000000000E+00  0.14645302382E+04  0.14645302382E+04  0.00000000000E+00 0. -1.
          1   -1    0    0  501    0 -0.00000000000E+00 -0.00000000000E+00 -0.16993881814E+04  0.16993881814E+04  0.00000000000E+00 0. -1.
         25    2    1    2    0    0  0.50894030372E+02 -0.37561167788E+02  0.13478434134E+02  0.14073828322E+03  0.12499821008E+03 0.  0.
          2    1    1    2  501    0 -0.50235794856E+02  0.38922241234E+01 -0.16351657964E+04  0.16359419202E+04  0.00000000000E+00 0. -1.
          1    1    1    2  502    0 -0.65823551602E+00  0.33668943665E+02  0.13868294190E+04  0.13872382162E+04  0.00000000000E+00 0. -1.
         22    1    3    3    0    0 -0.12780807898E+02  0.22954111817E+02 -0.32336988137E+02  0.41664386490E+02  0.00000000000E+00 0. -1.
         22    1    3    3    0    0  0.63674838271E+02 -0.60515279605E+02  0.45815422271E+02  0.99073896725E+02  0.00000000000E+00 0. -1.
</event>
<event>
 7    1  0.6017574E-006  0.1309697E+03  0.7818608E-02  0.1412337E+00
          2   -1    0    0  502    0  0.00000000000E+00  0.00000000000E+00  0.11819276499E+04  0.11819276499E+04  0.00000000000E+00 0. -1.
          1   -1    0    0  501    0 -0.00000000000E+00 -0.00000000000E+00 -0.12660982608E+04  0.12660982608E+04  0.00000000000E+00 0. -1.
         25    2    1    2    0    0 -0.48681868319E+01 -0.14796917302E+03 -0.22482422564E+03  0.29680414379E+03  0.12501276706E+03 0.  0.
          2    1    1    2  501    0  0.18724801222E+02  0.12773286465E+03 -0.10010071542E+04  0.10092975902E+04  0.00000000000E+00 0. -1.
          1    1    1    2  502    0 -0.13856614390E+02  0.20236308377E+02  0.11416607689E+04  0.11419241766E+04  0.00000000000E+00 0. -1.
         22    1    3    3    0    0  0.30702058998E+02 -0.15236773996E+03 -0.16220411079E+03  0.22465243859E+03  0.00000000000E+00 0.  1.
         22    1    3    3    0    0 -0.35570245830E+02  0.43985669392E+01 -0.62620114844E+02  0.72151705195E+02  0.00000000000E+00 0.  1.
</event>
<event>
 7    1  0.6017574E-006  0.7654467E+02  0.7818608E-02  0.1469815E+00
          2   -1    0    0  502    0  0.00000000000E+00  0.00000000000E+00  0.14493032833E+04  0.14493032833E+04  0.00000000000E+00 0. -1.
          1   -1    0    0  501    0 -0.00000000000E+00 -0.00000000000E+00 -0.15625033370E+04  0.15625033370E+04  0.00000000000E+00 0. -1.
         25    2    1    2    0    0 -0.13713591946E+02 -0.55973535639E+02  0.27181822216E+02  0.14030129403E+03  0.12499800939E+03 0.  0.
          2    1    1    2  501    0  0.39092374145E+02  0.66099735780E+02 -0.15048277075E+04  0.15067859231E+04  0.00000000000E+00 0. -1.
          1    1    1    2  502    0 -0.25378782199E+02 -0.10126200141E+02  0.13644458315E+04  0.13647194032E+04  0.00000000000E+00 0. -1.
         22    1    3    3    0    0 -0.59443343303E+01  0.17911260594E+02 -0.37381390049E+02  0.41875012701E+02  0.00000000000E+00 0. -1.
         22    1    3    3    0    0 -0.77692576156E+01 -0.73884796234E+02  0.64563212265E+02  0.98426281330E+02  0.00000000000E+00 0. -1.
</event>
<event>
 7    1  0.6017574E-006  0.1547634E+03  0.7818608E-02  0.1284821E+00
          2   -1    0    0  502    0  0.00000000000E+00  0.00000000000E+00  0.20468605904E+04  0.20468605904E+04  0.00000000000E+00 0. -1.
          1   -1    0    0  501    0 -0.00000000000E+00 -0.00000000000E+00 -0.62724874606E+03  0.62724874606E+03  0.00000000000E+00 0. -1.
         25    2    1    2    0    0 -0.16954070319E+03 -0.12135927062E+03  0.11184671170E+03  0.26759343817E+03  0.12499775451E+03 0.  0.
          2    1    1    2  501    0  0.60079932662E+02  0.14911022720E+02 -0.54448034100E+03  0.54798793659E+03  0.00000000000E+00 0. -1.
          1    1    1    2  502    0  0.10946077053E+03  0.10644824790E+03  0.18522454736E+04  0.18585279617E+04  0.00000000000E+00 0. -1.
         22    1    3    3    0    0 -0.75692483290E+02  0.26754684083E+00 -0.30516258336E+01  0.75754445600E+02  0.00000000000E+00 0. -1.
         22    1    3    3    0    0 -0.93848219901E+02 -0.12162681746E+03  0.11489833754E+03  0.19183899258E+03  0.00000000000E+00 0. -1.
</event>
<event>
 7    1  0.6017574E-006  0.1271694E+03  0.7818608E-02  0.1373742E+00
          2   -1    0    0  502    0  0.00000000000E+00  0.00000000000E+00  0.27331785833E+04  0.27331785833E+04  0.00000000000E+00 0. -1.
          1   -1    0    0  501    0 -0.00000000000E+00 -0.00000000000E+00 -0.16397289688E+03  0.16397289688E+03  0.00000000000E+00 0. -1.
         25    2    1    2    0    0  0.81986037686E+02 -0.50870001863E+02  0.81345826301E+03  0.82864341642E+03  0.12500439374E+03 0.  0.
          2    1    1    2  501    0 -0.10000857182E+03  0.80167186833E+02 -0.12993342456E+03  0.18251352580E+03  0.00000000000E+00 0. -1.
          1    1    1    2  502    0  0.18022534136E+02 -0.29297184969E+02  0.18856808480E+04  0.18859945380E+04  0.00000000000E+00 0. -1.
         22    1    3    3    0    0  0.86576312193E+02 -0.85563081158E+02  0.67088178893E+03  0.68183493121E+03  0.00000000000E+00 0. -1.
         22    1    3    3    0    0 -0.45902745067E+01  0.34693079295E+02  0.14257647408E+03  0.14680848521E+03  0.00000000000E+00 0. -1.
</event>
<event>
 7    1  0.6017574E-006  0.1077074E+03  0.7818608E-02  0.1273460E+00
          2   -1    0    0  502    0  0.00000000000E+00  0.00000000000E+00  0.98891415136E+03  0.98891415136E+03  0.00000000000E+00 0. -1.
          1   -1    0    0  501    0 -0.00000000000E+00 -0.00000000000E+00 -0.84196334524E+03  0.84196334524E+03  0.00000000000E+00 0. -1.
         25    2    1    2    0    0 -0.11466253327E+02 -0.17972288759E+03 -0.10614845586E+03  0.24356842901E+03  0.12500517445E+03 0.  0.
          2    1    1    2  501    0  0.55211804543E+02  0.82314568967E+02 -0.66029586778E+03  0.66769354095E+03  0.00000000000E+00 0. -1.
          1    1    1    2  502    0 -0.43745551216E+02  0.97408318624E+02  0.91339512975E+03  0.91961552665E+03  0.00000000000E+00 0. -1.
         22    1    3    3    0    0 -0.16742130907E+02 -0.57766281312E+02  0.24340869303E+02  0.64882356017E+02  0.00000000000E+00 0. -1.
         22    1    3    3    0    0  0.52758775796E+01 -0.12195660628E+03 -0.13048932516E+03  0.17868607299E+03  0.00000000000E+00 0. -1.
</event>
<event>
 7    1  0.6017574E-006  0.1025702E+03  0.7818608E-02  0.1323581E+00
          2   -1    0    0  502    0  0.00000000000E+00  0.00000000000E+00  0.10358494801E+04  0.10358494801E+04  0.00000000000E+00 0. -1.
          1   -1    0    0  501    0 -0.00000000000E+00 -0.00000000000E+00 -0.31122527524E+04  0.31122527524E+04  0.00000000000E+00 0. -1.
         25    2    1    2    0    0  0.42056359725E+02 -0.26072369717E+02  0.76293388375E+02  0.15457714942E+03  0.12499963263E+03 0.  0.
          2    1    1    2  501    0  0.64250787669E+02  0.12680251235E+02 -0.30696421109E+04  0.30703406393E+04  0.00000000000E+00 0. -1.
          1    1    1    2  502    0 -0.10630714739E+03  0.13392118482E+02  0.91694545026E+03  0.92318444374E+03  0.00000000000E+00 0. -1.
         22    1    3    3    0    0  0.21528212592E+02 -0.48019975833E+02  0.10216571378E+03  0.11492264828E+03  0.00000000000E+00 0.  1.
         22    1    3    3    0    0  0.20528147133E+02  0.21947606116E+02 -0.25872325403E+02  0.39654501140E+02  0.00000000000E+00 0.  1.
</event>
<event>
 7    1  0.6017574E-006  0.7205367E+02  0.7818608E-02  0.1452691E+00
          2   -1    0    0  502    0  0.00000000000E+00  0.00000000000E+00  0.68756771496E+03  0.68756771496E+03  0.00000000000E+00 0. -1.
          1   -1    0    0  501    0 -0.00000000000E+00 -0.00000000000E+00 -0.23738837838E+03  0.23738837838E+03  0.00000000000E+00 0. -1.
         25    2    1    2    0    0 -0.47156540160E+02 -0.26518265016E+02 -0.73366789528E+02  0.15470627950E+03  0.12499755779E+03 0.  0.
          2    1    1    2  501    0 -0.25112741310E+02  0.21200888790E+02 -0.11908962475E+03  0.12354135415E+03  0.00000000000E+00 0. -1.
          1    1    1    2  502    0  0.72269281470E+02  0.53173762256E+01  0.64263575087E+03  0.64670845968E+03  0.00000000000E+00 0. -1.
         22    1    3    3    0    0 -0.53950736373E+01 -0.68768232533E+02 -0.13348163007E+02  0.70259163680E+02  0.00000000000E+00 0. -1.
         22    1    3    3    0    0 -0.41761466522E+02  0.42249967517E+02 -0.60018626521E+02  0.84447115823E+02  0.00000000000E+00 0. -1.
</event>
<event>
 7    1  0.6017574E-006  0.5358784E+02  0.7818608E-02  0.1547348E+00
          2   -1    0    0  502    0  0.00000000000E+00  0.00000000000E+00  0.25556975514E+03  0.25556975514E+03  0.00000000000E+00 0. -1.
          1   -1    0    0  501    0 -0.00000000000E+00 -0.00000000000E+00 -0.87018742908E+03  0.87018742908E+03  0.00000000000E+00 0. -1.
         25    2    1    2    0    0  0.99197304925E+01  0.56024664205E+02 -0.40309363475E+03  0.42584840082E+03  0.12500087223E+03 0.  0.
          2    1    1    2  501    0 -0.29935596417E+02 -0.44604187494E+02 -0.45358422134E+03  0.45675411254E+03  0.00000000000E+00 0. -1.
          1    1    1    2  502    0  0.20015865925E+02 -0.11420476710E+02  0.24206018215E+03  0.24315467086E+03  0.00000000000E+00 0. -1.
         22    1    3    3    0    0 -0.44737861894E+02  0.36716556122E+02 -0.31580866179E+03  0.32106804987E+03  0.00000000000E+00 0. -1.
         22    1    3    3    0    0  0.54657592387E+02  0.19308108083E+02 -0.87284972950E+02  0.10478035095E+03  0.00000000000E+00 0. -1.
</event>
<event>
 7    1  0.6017574E-006  0.6166193E+02  0.7818608E-02  0.1394040E+00
          2   -1    0    0  502    0  0.00000000000E+00  0.00000000000E+00  0.59911166410E+03  0.59911166410E+03  0.00000000000E+00 0. -1.
          1   -1    0    0  501    0 -0.00000000000E+00 -0.00000000000E+00 -0.95891991863E+02  0.95891991863E+02  0.00000000000E+00 0. -1.
         25    2    1    2    0    0  0.15410618903E+02 -0.47927260835E+02 -0.30174597933E+02  0.13809389957E+03  0.12499963692E+03 0.  0.
          2    1    1    2  501    0  0.46490920004E+02  0.38201847688E+02  0.84912374626E+02  0.10407160119E+03  0.00000000000E+00 0. -1.
          1    1    1    2  502    0 -0.61901538907E+02  0.97254131468E+01  0.44848189554E+03  0.45283815520E+03  0.00000000000E+00 0. -1.
         22    1    3    3    0    0  0.38975585970E+02  0.29719185739E+01 -0.62231877605E+02  0.73489694461E+02  0.00000000000E+00 0. -1.
         22    1    3    3    0    0 -0.23564967068E+02 -0.50899179409E+02  0.32057279672E+02  0.64604205106E+02  0.00000000000E+00 0. -1.
</event>
<event>
 7    1  0.6017574E-006  0.9712452E+02  0.7818608E-02  0.1360490E+00
          2   -1    0    0  502    0  0.00000000000E+00  0.00000000000E+00  0.20472339033E+04  0.20472339033E+04  0.00000000000E+00 0. -1.
          1   -1    0    0  501    0 -0.00000000000E+00 -0.00000000000E+00 -0.13172684500E+03  0.13172684500E+03  0.00000000000E+00 0. -1.
         25    2    1    2    0    0 -0.13160311584E+03  0.36512007778E+02  0.25033543075E+03  0.31135920160E+03  0.12499687085E+03 0.  0.
          2    1    1    2  501    0  0.35989246325E+02 -0.35116194173E+02 -0.93589908953E+02  0.10624238327E+03  0.00000000000E+00 0. -1.
          1    1    1    2  502    0  0.95613869511E+02 -0.13958136056E+01  0.17587615365E+04  0.17613591634E+04  0.00000000000E+00 0. -1.
         22    1    3    3    0    0 -0.52680457435E+02  0.36848473074E+02  0.21586805474E+03  0.22523778018E+03  0.00000000000E+00 0.  1.
         22    1    3    3    0    0 -0.78922658401E+02 -0.33646529546E+00  0.34467376009E+02  0.86121421417E+02  0.00000000000E+00 0.  1.
</event>
<event>
 7    1  0.6017574E-006  0.1915358E+03  0.7818608E-02  0.1340443E+00
          2   -1    0    0  502    0  0.00000000000E+00  0.00000000000E+00  0.24479020945E+04  0.24479020945E+04  0.00000000000E+00 0. -1.
          1   -1    0    0  501    0 -0.00000000000E+00 -0.00000000000E+00 -0.22325115599E+04  0.22325115599E+04  0.00000000000E+00 0. -1.
         25    2    1    2    0    0  0.60239705581E+02 -0.15125600254E+03  0.52101150340E+03  0.55998568874E+03  0.12499513785E+03 0.  0.
          2    1    1    2  501    0 -0.79712761173E+02  0.17440489240E+03 -0.22087500910E+04  0.22170584465E+04  0.00000000000E+00 0. -1.
          1    1    1    2  502    0  0.19473055592E+02 -0.23148889856E+02  0.19031291222E+04  0.19033695192E+04  0.00000000000E+00 0. -1.
         22    1    3    3    0    0  0.71707867882E+02 -0.40774624822E+02  0.31854094260E+03  0.32904850776E+03  0.00000000000E+00 0. -1.
         22    1    3    3    0    0 -0.11468162301E+02 -0.11048137772E+03  0.20247056080E+03  0.23093718098E+03  0.00000000000E+00 0. -1.
</event>
<event>
 7    1  0.6017574E-006  0.3050735E+02  0.7818608E-02  0.1642928E+00
          2   -1    0    0  502    0  0.00000000000E+00  0.00000000000E+00  0.24887928349E+02  0.24887928349E+02  0.00000000000E+00 0. -1.
          1   -1    0    0  501    0 -0.00000000000E+00 -0.00000000000E+00 -0.59583315419E+03  0.59583315419E+03  0.00000000000E+00 0. -1.
         25    2    1    2    0    0 -0.10269254372E+02 -0.27138766619E+01 -0.38035031763E+03  0.40050524208E+03  0.12500104842E+03 0.  0.
          2    1    1    2  501    0  0.32034110463E+02  0.91004423430E+01 -0.19438663245E+03  0.19721857205E+03  0.00000000000E+00 0. -1.
          1    1    1    2  502    0 -0.21764856091E+02 -0.63865656811E+01  0.37917242330E+01  0.22997268414E+02  0.00000000000E+00 0. -1.
         22    1    3    3    0    0 -0.66565061317E+02 -0.16738676966E+01 -0.16532884585E+03  0.17823393755E+03  0.00000000000E+00 0. -1.
         22    1    3    3    0    0  0.56295806945E+02 -0.10400089654E+01 -0.21502147177E+03  0.22227130454E+03  0.00000000000E+00 0. -1.
</event>
<event>
 7    1  0.6017574E-006  0.7071870E+02  0.7818608E-02  0.1382655E+00
          2   -1    0    0  502    0  0.00000000000E+00  0.00000000000E+00  0.18378995388E+04  0.18378995388E+04  0.00000000000E+00 0. -1.
          1   -1    0    0  501    0 -0.00000000000E+00 -0.00000000000E+00 -0.21168884932E+03  0.21168884932E+03  0.00000000000E+00 0. -1.
         25    2    1    2    0    0  0.33389510138E+02  0.10631886319E+02  0.11010314363E+03  0.17022174034E+03  0.12499936902E+03 0.  0.
          2    1    1    2  501    0 -0.27624557288E+02 -0.67848229127E+02 -0.17373391047E+03  0.18854699682E+03  0.00000000000E+00 0. -1.
          1    1    1    2  502    0 -0.57649528502E+01  0.57216342808E+02  0.16898414564E+04  0.16908196510E+04  0.00000000000E+00 0. -1.
         22    1    3    3    0    0  0.30706814902E+02  0.59314267623E+02  0.10027774556E+03  0.12048533969E+03  0.00000000000E+00 0.  1.
         22    1    3    3    0    0  0.26826952365E+01 -0.48682381304E+02  0.98253980666E+01  0.49736400657E+02  0.00000000000E+00 0.  1.
</event>
<event>
 7    1  0.6017574E-006  0.1233037E+03  0.7818608E-02  0.1272585E+00
          2   -1    0    0  502    0  0.00000000000E+00  0.00000000000E+00  0.43671843159E+04  0.43671843159E+04  0.00000000000E+00 0. -1.
          1   -1    0    0  501    0 -0.00000000000E+00 -0.00000000000E+00 -0.25840260596E+03  0.25840260596E+03  0.00000000000E+00 0. -1.
         25    2    1    2    0    0 -0.19001653068E+03  0.56023001001E+02  0.41690622280E+03  0.47820616399E+03  0.12500191238E+03 0.  0.
          2    1    1    2  501    0  0.86962309222E+02  0.78016938779E+01 -0.21841080923E+03  0.23521605226E+03  0.00000000000E+00 0. -1.
          1    1    1    2  502    0  0.10305422146E+03 -0.63824694879E+02  0.39102862964E+04  0.39121647056E+04  0.00000000000E+00 0. -1.
         22    1    3    3    0    0 -0.55901891830E+02 -0.38846759809E+02  0.15119229704E+03  0.16581074435E+03  0.00000000000E+00 0.  1.
         22    1    3    3    0    0 -0.13411463885E+03  0.94869760810E+02  0.26571392575E+03  0.31239541964E+03  0.00000000000E+00 0.  1.
</event>
<event>
 7    1  0.6017574E-006  0.4554072E+02  0.7818608E-02  0.1584136E+00
          2   -1    0    0  502    0  0.00000000000E+00  0.00000000000E+00  0.38776283439E+03  0.38776283439E+03  0.00000000000E+00 0. -1.
          1   -1    0    0  501    0 -0.00000000000E+00 -0.00000000000E+00 -0.31403254395E+03  0.31403254395E+03  0.00000000000E+00 0. -1.
         25    2    1    2    0    0 -0.45417817812E+02 -0.28449281490E+02  0.16116464855E+02  0.13695515595E+03  0.12499933804E+03 0.  0.
          2    1    1    2  501    0  0.25842561560E+02  0.37374706312E+02 -0.25120065087E+03  0.25527724861E+03  0.00000000000E+00 0. -1.
          1    1    1    2  502    0  0.19575256253E+02 -0.89254248220E+01  0.30881447645E+03  0.30956297377E+03  0.00000000000E+00 0. -1.
         22    1    3    3    0    0 -0.64738340965E+02  0.14255229540E+02 -0.28580543751E+02  0.72188031150E+02  0.00000000000E+00 0.  1.
         22    1    3    3    0    0  0.19320523153E+02 -0.42704511030E+02  0.44697008606E+02  0.64767124805E+02  0.00000000000E+00 0.  1.
</event>
<event>
 7    1  0.6017574E-006  0.8625882E+02  0.7818608E-02  0.1339542E+00
          2   -1    0    0  502    0  0.00000000000E+00  0.00000000000E+00  0.23359445565E+04  0.23359445565E+04  0.00000000000E+00 0. -1.
          1   -1    0    0  501    0 -0.00000000000E+00 -0.00000000000E+00 -0.10547256890E+03  0.10547256890E+03  0.00000000000E+00 0. -1.
         25    2    1    2    0    0  0.85379000555E+02 -0.18554616299E+02  0.78357441764E+03  0.79827822868E+03  0.12500165946E+03 0.  0.
          2    1    1    2  501    0 -0.46049492492E+02  0.73653650124E+02 -0.77996609029E+02  0.11674282400E+03  0.00000000000E+00 0. -1.
          1    1    1    2  502    0 -0.39329508063E+02 -0.55099033825E+02  0.15248941789E+04  0.15263960727E+04  0.00000000000E+00 0. -1.
         22    1    3    3    0    0 -0.15250345918E+02 -0.42191011765E+02  0.33241217372E+03  0.33542586031E+03  0.00000000000E+00 0.  1.
         22    1    3    3    0    0  0.10062934647E+03  0.23636395466E+02  0.45116224392E+03  0.46285236837E+03  0.00000000000E+00 0.  1.
</event>
<event>
 7    1  0.6017574E-006  0.5566272E+02  0.7818608E-02  0.1480857E+00
          2   -1    0    0  502    0  0.00000000000E+00  0.00000000000E+00  0.72643858354E+03  0.72643858354E+03  0.00000000000E+00 0. -1.
          1   -1    0    0  501    0 -0.00000000000E+00 -0.00000000000E+00 -0.19275274901E+03  0.19275274901E+03  0.00000000000E+00 0. -1.
         25    2    1    2    0    0  0.91333114003E-01  0.22775055862E+02  0.40069863423E+03  0.42036017151E+03  0.12499826722E+03 0.  0.
          2    1    1    2  501    0 -0.15871598860E+02 -0.53722103208E+02 -0.17764229991E+03  0.18626529129E+03  0.00000000000E+00 0. -1.
          1    1    1    2  502    0  0.15780265746E+02  0.30947047346E+02  0.31062950021E+03  0.31256586975E+03  0.00000000000E+00 0. -1.
         22    1    3    3    0    0  0.43908238398E+02 -0.29256458286E+02  0.24221197677E+03  0.24789214477E+03  0.00000000000E+00 0.  1.
         22    1    3    3    0    0 -0.43816905284E+02  0.52031514148E+02  0.15848665746E+03  0.17246802674E+03  0.00000000000E+00 0.  1.
</event>
<event>
 7    1  0.6017574E-006  0.6432392E+02  0.7818608E-02  0.1442602E+00
          2   -1    0    0  502    0  0.00000000000E+00  0.00000000000E+00  0.70362179572E+03  0.70362179572E+03  0.00000000000E+00 0. -1.
          1   -1    0    0  501    0 -0.00000000000E+00 -0.00000000000E+00 -0.15424943237E+03  0.15424943237E+03  0.00000000000E+00 0. -1.
         25    2    1    2    0    0 -0.25527174214E+02  0.47797015538E+02  0.11937941405E+03  0.18114299095E+03  0.12500058942E+03 0.  0.
          2    1    1    2  501    0 -0.10352873944E+02 -0.64706834774E+02 -0.11389222342E+03  0.13139861118E+03  0.00000000000E+00 0. -1.
          1    1    1    2  502    0  0.35880048158E+02  0.16909819236E+02  0.54388517271E+03  0.54532962595E+03  0.00000000000E+00 0. -1.
         22    1    3    3    0    0 -0.31996839153E+02 -0.37852755476E+02  0.34525946021E+02  0.60404219733E+02  0.00000000000E+00 0. -1.
         22    1    3    3    0    0  0.64696649389E+01  0.85649771013E+02  0.84853468031E+02  0.12073877122E+03  0.00000000000E+00 0. -1.
</event>
<event>
 7    1  0.6017574E-006  0.1468602E+03  0.7818608E-02  0.1315290E+00
          2   -1    0    0  502    0  0.00000000000E+00  0.00000000000E+00  0.16479830188E+04  0.16479830188E+04  0.00000000000E+00 0. -1.
          1   -1    0    0  501    0 -0.00000000000E+00 -0.00000000000E+00 -0.41587758915E+02  0.41587758915E+02  0.00000000000E+00 0. -1.
         25    2    1    2    0    0 -0.15707045534E+03 -0.24560132798E+02  0.49310048590E+03  0.53295767482E+03  0.12498586279E+03 0.  0.
          2    1    1    2  501    0  0.27281992769E+02 -0.41014616279E+02  0.19155116325E+02  0.52852855736E+02  0.00000000000E+00 0. -1.
          1    1    1    2  502    0  0.12978846257E+03  0.65574749078E+02  0.10941396576E+04  0.11037602471E+04  0.00000000000E+00 0. -1.
         22    1    3    3    0    0 -0.98531803792E+02  0.47129227109E+02  0.28454636057E+03  0.30478896259E+03  0.00000000000E+00 0.  1.
         22    1    3    3    0    0 -0.58538651546E+02 -0.71689359907E+02  0.20855412533E+03  0.22816871223E+03  0.00000000000E+00 0.  1.
</event>
<event>
 7    1  0.6017574E-006  0.1124543E+03  0.7818608E-02  0.1306204E+00
          2   -1    0    0  502    0  0.00000000000E+00  0.00000000000E+00  0.11766634610E+04  0.11766634610E+04  0.00000000000E+00 0. -1.
          1   -1    0    0  501    0 -0.00000000000E+00 -0.00000000000E+00 -0.34220468585E+03  0.34220468585E+03  0.00000000000E+00 0. -1.
         25    2    1    2    0    0 -0.12703832824E+03  0.32788487641E+02  0.20450447137E+03  0.27324839666E+03  0.12501514188E+03 0.  0.
          2    1    1    2  501    0  0.77233169683E+02 -0.81766326785E+02 -0.29619939592E+03  0.31683556751E+03  0.00000000000E+00 0. -1.
          1    1    1    2  502    0  0.49805158555E+02  0.48977839144E+02  0.92615369965E+03  0.92878418264E+03  0.00000000000E+00 0. -1.
         22    1    3    3    0    0 -0.42169128795E+02 -0.29698885442E+02  0.14115375044E+03  0.15028187011E+03  0.00000000000E+00 0.  1.
         22    1    3    3    0    0 -0.84869199443E+02  0.62487373083E+02  0.63350720935E+02  0.12296652655E+03  0.00000000000E+00 0.  1.
</event>
<event>
 7    1  0.6017574E-006  0.5574758E+02  0.7818608E-02  0.1494047E+00
          2   -1    0    0  502    0  0.00000000000E+00  0.00000000000E+00  0.19299620552E+02  0.19299620552E+02  0.00000000000E+00 0. -1.
          1   -1    0    0  501    0 -0.00000000000E+00 -0.00000000000E+00 -0.67984484183E+03  0.67984484183E+03  0.00000000000E+00 0. -1.
         25    2    1    2    0    0  0.36455388581E+02  0.22198316061E+02 -0.44739372318E+03  0.46648489761E+03  0.12500102225E+03 0.  0.
          2    1    1    2  501    0  0.24393315991E+02 -0.20134823972E+02 -0.87333022516E+02  0.92884346491E+02  0.00000000000E+00 0. -1.
          1    1    1    2  502    0 -0.60848704572E+02 -0.20634920886E+01 -0.12581847558E+03  0.13977521828E+03  0.00000000000E+00 0. -1.
         22    1    3    3    0    0 -0.24682528034E+02  0.38647384165E+02 -0.69112427099E+02  0.82941998242E+02  0.00000000000E+00 0.  1.
         22    1    3    3    0    0  0.61137916615E+02 -0.16449068104E+02 -0.37828129608E+03  0.38354289937E+03  0.00000000000E+00 0.  1.
</event>
<event>
 7    1  0.6017574E-006  0.9113949E+02  0.7818608E-02  0.1323343E+00
          2   -1    0    0  502    0  0.00000000000E+00  0.00000000000E+00  0.13903297742E+04  0.13903297742E+04  0.00000000000E+00 0. -1.
          1   -1    0    0  501    0 -0.00000000000E+00 -0.00000000000E+00 -0.11059677600E+04  0.11059677600E+04  0.00000000000E+00 0. -1.
         25    2    1    2    0    0 -0.43865654411E+02  0.12988844744E+03  0.54612741248E+03  0.57678055508E+03  0.12500181457E+03 0.  0.
          2    1    1    2  501    0 -0.19551869607E+02 -0.71225373678E+02 -0.10871337214E+04  0.10896398752E+04  0.00000000000E+00 0. -1.
          1    1    1    2  502    0  0.63417524018E+02 -0.58663073763E+02  0.82536832321E+03  0.82987710388E+03  0.00000000000E+00 0. -1.
         22    1    3    3    0    0 -0.29751560130E+01  0.45107211390E+02  0.35304404648E+02  0.57357763731E+02  0.00000000000E+00 0. -1.
         22    1    3    3    0    0 -0.40890498398E+02  0.84781236051E+02  0.51082300783E+03  0.51942279135E+03  0.00000000000E+00 0. -1.
</event>
<event>
 7    1  0.1270145E-005  0.4992424E+02  0.7818608E-02  0.1452286E+00
          2   -1    0    0  502    0  0.00000000000E+00  0.00000000000E+00  0.13564742204E+04  0.13564742204E+04  0.00000000000E+00 0. -1.
          1   -1    0    0  501    0 -0.00000000000E+00 -0.00000000000E+00 -0.79159327785E+03  0.79159327785E+03  0.00000000000E+00 0. -1.
         25    2    1    2    0    0  0.26997293614E+02  0.89688511474E+02 -0.20102868137E+03  0.25457704510E+03  0.12499623275E+03 0.  0.
          2    1    1    2  501    0 -0.25975101671E+02 -0.39857472115E+02 -0.56231855342E+03  0.56432745770E+03  0.00000000000E+00 0. -1.
          1    1    1    2  502    0 -0.10221919431E+01 -0.49831039359E+02  0.13282281774E+04  0.13291629955E+04  0.00000000000E+00 0. -1.
         22    1    3    3    0    0 -0.12196361017E+02  0.95168116930E+02 -0.19101042435E+03  0.21375383953E+03  0.00000000000E+00 0.  1.
         22    1    3    3    0    0  0.39193654631E+02 -0.54796054558E+01 -0.10018257023E+02  0.40823205571E+02  0.00000000000E+00 0.  1.
</event>
<event>
 7    1  0.6017574E-006  0.1430696E+03  0.7818608E-02  0.1234040E+00
          2   -1    0    0  502    0  0.00000000000E+00  0.00000000000E+00  0.66181123687E+03  0.66181123687E+03  0.00000000000E+00 0. -1.
          1   -1    0    0  501    0 -0.00000000000E+00 -0.00000000000E+00 -0.26188309660E+03  0.26188309660E+03  0.00000000000E+00 0. -1.
         25    2    1    2    0    0  0.98875011552E+02  0.16960612910E+02  0.10735428211E+03  0.19290986178E+03  0.12500137033E+03 0.  0.
          2    1    1    2  501    0  0.32685570803E+01  0.11032251607E+03 -0.19089946707E+03  0.22050929129E+03  0.00000000000E+00 0. -1.
          1    1    1    2  502    0 -0.10214356863E+03 -0.12728312898E+03  0.48347332522E+03  0.51027518040E+03  0.00000000000E+00 0. -1.
         22    1    3    3    0    0  0.21937917305E+02  0.19652523096E+02 -0.25765561148E+02  0.39132569824E+02  0.00000000000E+00 0.  1.
         22    1    3    3    0    0  0.76937094247E+02 -0.26919101865E+01  0.13311984326E+03  0.15377729196E+03  0.00000000000E+00 0.  1.
</event>
<event>
 7    1  0.6017574E-006  0.8273797E+02  0.7818608E-02  0.1387012E+00
          2   -1    0    0  502    0  0.00000000000E+00  0.00000000000E+00  0.29288104551E+03  0.29288104551E+03  0.00000000000E+00 0. -1.
          1   -1    0    0  501    0 -0.00000000000E+00 -0.00000000000E+00 -0.15252644449E+03  0.15252644449E+03  0.00000000000E+00 0. -1.
         25    2    1    2    0    0  0.59222529506E+02 -0.28589682756E+02 -0.63084099777E+02  0.15468932136E+03  0.12499801813E+03 0.  0.
          2    1    1    2  501    0 -0.10611698078E+03  0.35817604111E+02  0.37470286765E+02  0.11810053668E+03  0.00000000000E+00 0. -1.
          1    1    1    2  502    0  0.46894451274E+02 -0.72279213548E+01  0.16596841403E+03  0.17261763196E+03  0.00000000000E+00 0. -1.
         22    1    3    3    0    0  0.33702905190E+02 -0.36484033305E+02  0.29879857698E+02  0.57963578224E+02  0.00000000000E+00 0.  1.
         22    1    3    3    0    0  0.25519624316E+02  0.78943505489E+01 -0.92963957475E+02  0.96725743136E+02  0.00000000000E+00 0.  1.
</event>
<event>
 7    1  0.8843768E-006  0.9692041E+02  0.7818608E-02  0.1439864E+00
          2   -1    0    0  502    0  0.00000000000E+00  0.00000000000E+00  0.22960494298E+04  0.22960494298E+04  0.00000000000E+00 0. -1.
          1   -1    0    0  501    0 -0.00000000000E+00 -0.00000000000E+00 -0.12349990396E+04  0.12349990396E+04  0.00000000000E+00 0. -1.
         25    2    1    2    0    0 -0.18196452146E+02 -0.12165023565E+03 -0.10499057498E+03  0.20439301600E+03  0.12499437368E+03 0.  0.
          2    1    1    2  501    0 -0.10887441451E+01  0.26845981653E+02 -0.10790982836E+04  0.10794327204E+04  0.00000000000E+00 0. -1.
          1    1    1    2  502    0  0.19285196291E+02  0.94804253996E+02  0.22451392488E+04  0.22472227331E+04  0.00000000000E+00 0. -1.
         22    1    3    3    0    0  0.17270690585E+02 -0.12201715040E+03 -0.11391482660E+03  0.16781850155E+03  0.00000000000E+00 0. -1.
         22    1    3    3    0    0 -0.35467142731E+02  0.36691474719E+00  0.89242516259E+01  0.36574514447E+02  0.00000000000E+00 0. -1.
</event>
<event>
 7    1  0.6017574E-006  0.9381851E+02  0.7818608E-02  0.1320990E+00
          2   -1    0    0  502    0  0.00000000000E+00  0.00000000000E+00  0.44558022978E+03  0.44558022978E+03  0.00000000000E+00 0. -1.
          1   -1    0    0  501    0 -0.00000000000E+00 -0.00000000000E+00 -0.48501307867E+03  0.48501307867E+03  0.00000000000E+00 0. -1.
         25    2    1    2    0    0  0.37169286194E+02  0.14969925933E+03  0.29457496034E+03  0.35523369319E+03  0.12500058176E+03 0.  0.
          2    1    1    2  501    0 -0.51079954880E+02 -0.77762032607E+02 -0.43820904234E+03  0.44797685241E+03  0.00000000000E+00 0. -1.
          1    1    1    2  502    0  0.13910668686E+02 -0.71937226718E+02  0.10420123311E+03  0.12738276285E+03  0.00000000000E+00 0. -1.
         22    1    3    3    0    0  0.62364053240E+02  0.60411890201E+02  0.67628284903E+02  0.11005660604E+03  0.00000000000E+00 0. -1.
         22    1    3    3    0    0 -0.25194767045E+02  0.89287369124E+02  0.22694667544E+03  0.24517708715E+03  0.00000000000E+00 0. -1.
</event>
<event>
 7    1  0.6017574E-006  0.3630139E+02  0.7818608E-02  0.1579922E+00
          2   -1    0    0  502    0  0.00000000000E+00  0.00000000000E+00  0.62931863204E+03  0.62931863204E+03  0.00000000000E+00 0. -1.
          1   -1    0    0  501    0 -0.00000000000E+00 -0.00000000000E+00 -0.10127119392E+03  0.10127119392E+03  0.00000000000E+00 0. -1.
         25    2    1    2    0    0 -0.12532184492E+02 -0.43126132931E+02  0.40440437645E+03  0.42565895552E+03  0.12500291090E+03 0.  0.
          2    1    1    2  501    0 -0.16885318601E+02  0.21957415996E+02 -0.86943086448E+02  0.91248793869E+02  0.00000000000E+00 0. -1.
          1    1    1    2  502    0  0.29417503093E+02  0.21168716935E+02  0.21058614812E+03  0.21368207656E+03  0.00000000000E+00 0. -1.
         22    1    3    3    0    0 -0.15984511288E+02 -0.77867363222E+02  0.36251671159E+03  0.37112962296E+03  0.00000000000E+00 0.  1.
         22    1    3    3    0    0  0.34523267966E+01  0.34741230291E+02  0.41887664867E+02  0.54529332569E+02  0.00000000000E+00 0.  1.
</event>
<event>
 7    1  0.6017574E-006  0.2207365E+03  0.7818608E-02  0.1154146E+00
          2   -1    0    0  502    0  0.00000000000E+00  0.00000000000E+00  0.25851289057E+04  0.25851289057E+04  0.00000000000E+00 0. -1.
          1   -1    0    0  501    0 -0.00000000000E+00 -0.00000000000E+00 -0.45424685800E+03  0.45424685800E+03  0.00000000000E+00 0. -1.
         25    2    1    2    0    0 -0.10802486354E+03 -0.12998230663E+03  0.61657806982E+03  0.65142815038E+03  0.12500139096E+03 0.  0.
          2    1    1    2  501    0 -0.36845321952E+02  0.22274586731E+03 -0.40353981760E+03  0.46240424256E+03  0.00000000000E+00 0. -1.
          1    1    1    2  502    0  0.14487018549E+03 -0.92763560675E+02  0.19178437955E+04  0.19255433708E+04  0.00000000000E+00 0. -1.
         22    1    3    3    0    0 -0.12702624517E+03 -0.13901331045E+03  0.57048520386E+03  0.60076096350E+03  0.00000000000E+00 0.  1.
         22    1    3    3    0    0  0.19001381628E+02  0.90310038152E+01  0.46092865962E+02  0.50667186879E+02  0.00000000000E+00 0.  1.
</event>
<event>
 7    1  0.6017574E-006  0.7225671E+02  0.7818608E-02  0.1418654E+00
          2   -1    0    0  502    0  0.00000000000E+00  0.00000000000E+00  0.15923969958E+04  0.15923969958E+04  0.00000000000E+00 0. -1.
          1   -1    0    0  501    0 -0.00000000000E+00 -0.00000000000E+00 -0.15885109865E+03  0.15885109865E+03  0.00000000000E+00 0. -1.
         25    2    1    2    0    0  0.80697885861E+02 -0.44562420241E+01  0.57930021239E+02  0.15972747179E+03  0.12499988404E+03 0.  0.
          2    1    1    2  501    0 -0.21201309903E+02 -0.36641328636E+02 -0.10288433338E+03  0.11125317326E+03  0.00000000000E+00 0. -1.
          1    1    1    2  502    0 -0.59496575958E+02  0.41097570660E+02  0.14785002093E+04  0.14802674494E+04  0.00000000000E+00 0. -1.
         22    1    3    3    0    0  0.68887026501E+02  0.37293712026E+02  0.79209387370E+02  0.11140184210E+03  0.00000000000E+00 0.  1.
         22    1    3    3    0    0  0.11810859360E+02 -0.41749954050E+02 -0.21279366131E+02  0.48325629690E+02  0.00000000000E+00 0.  1.
</event>
<event>
 7    1  0.6017574E-006  0.2446032E+03  0.7818608E-02  0.1205475E+00
          2   -1    0    0  502    0  0.00000000000E+00  0.00000000000E+00  0.18484498688E+04  0.18484498688E+04  0.00000000000E+00 0. -1.
          1   -1    0    0  501    0 -0.00000000000E+00 -0.00000000000E+00 -0.78267751681E+03  0.78267751681E+03  0.00000000000E+00 0. -1.
         25    2    1    2    0    0 -0.32086314042E+03 -0.15908863150E+02  0.46200900017E+02  0.34780075378E+03  0.12499837744E+03 0.  0.
          2    1    1    2  501    0  0.81122762799E+02  0.31836301885E+02 -0.62007533772E+03  0.62616920813E+03  0.00000000000E+00 0. -1.
          1    1    1    2  502    0  0.23974037762E+03 -0.15927438734E+02  0.16396467897E+04  0.16571574237E+04  0.00000000000E+00 0. -1.
         22    1    3    3    0    0 -0.22367018018E+03  0.33938736031E+02 -0.69248740797E+01  0.22633634526E+03  0.00000000000E+00 0.  1.
         22    1    3    3    0    0 -0.97192960236E+02 -0.49847599182E+02  0.53125774097E+02  0.12146440852E+03  0.00000000000E+00 0.  1.
</event>
<event>
 7    1  0.6017574E-006  0.7648264E+02  0.7818608E-02  0.1498569E+00
          2   -1    0    0  502    0  0.00000000000E+00  0.00000000000E+00  0.54849209034E+03  0.54849209034E+03  0.00000000000E+00 0. -1.
          1   -1    0    0  501    0 -0.00000000000E+00 -0.00000000000E+00 -0.37830627696E+03  0.37830627696E+03  0.00000000000E+00 0. -1.
         25    2    1    2    0    0 -0.65700757843E+02 -0.13900562848E+02  0.48272168008E+01  0.14198200396E+03  0.12500308875E+03 0.  0.
          2    1    1    2  501    0 -0.11126194923E+02  0.19379044677E+02 -0.30619731490E+03  0.30701162069E+03  0.00000000000E+00 0. -1.
          1    1    1    2  502    0  0.76826952766E+02 -0.54784818295E+01  0.47155591149E+03  0.47780474265E+03  0.00000000000E+00 0. -1.
         22    1    3    3    0    0  0.17094201991E+02 -0.38498054586E+01  0.45815243298E+02  0.49051699892E+02  0.00000000000E+00 0.  1.
         22    1    3    3    0    0 -0.82794959834E+02 -0.10050757389E+02 -0.40988026497E+02  0.92930304068E+02  0.00000000000E+00 0.  1.
</event>
<event>
 7    1  0.6017574E-006  0.5370329E+02  0.7818608E-02  0.1489665E+00
          2   -1    0    0  502    0  0.00000000000E+00  0.00000000000E+00  0.13425016416E+04  0.13425016416E+04  0.00000000000E+00 0. -1.
          1   -1    0    0  501    0 -0.00000000000E+00 -0.00000000000E+00 -0.42747760149E+03  0.42747760149E+03  0.00000000000E+00 0. -1.
         25    2    1    2    0    0  0.71437883606E+01  0.86388641719E+02 -0.33060307850E+02  0.15566733456E+03  0.12500121585E+03 0.  0.
          2    1    1    2  501    0  0.25086899159E+01 -0.33756057102E+02 -0.33169334179E+03  0.33341601327E+03  0.00000000000E+00 0. -1.
          1    1    1    2  502    0 -0.96524782765E+01 -0.52632584617E+02  0.12797776897E+04  0.12808958952E+04  0.00000000000E+00 0. -1.
         22    1    3    3    0    0 -0.38104046258E+02  0.97875236368E+02 -0.28077994912E+02  0.10871915210E+03  0.00000000000E+00 0.  1.
         22    1    3    3    0    0  0.45247834619E+02 -0.11486594649E+02 -0.49823129387E+01  0.46948182463E+02  0.00000000000E+00 0.  1.
</event>
<event>
 7    1  0.6017574E-006  0.9492524E+02  0.7818608E-02  0.1380747E+00
          2   -1    0    0  502    0  0.00000000000E+00  0.00000000000E+00  0.98415290887E+03  0.98415290887E+03  0.00000000000E+00 0. -1.
          1   -1    0    0  501    0 -0.00000000000E+00 -0.00000000000E+00 -0.41042257314E+03  0.41042257314E+03  0.00000000000E+00 0. -1.
         25    2    1    2    0    0  0.62740665716E+02  0.22310833583E+02 -0.16918342792E+03  0.22064000363E+03  0.12499925795E+03 0.  0.
          2    1    1    2  501    0  0.32356261285E+02 -0.29091743217E+02 -0.21091369612E+03  0.21535515870E+03  0.00000000000E+00 0. -1.
          1    1    1    2  502    0 -0.95096927001E+02  0.67809096347E+01  0.95382745977E+03  0.95858031968E+03  0.00000000000E+00 0. -1.
         22    1    3    3    0    0 -0.81347544287E+01  0.29930998261E+02  0.59255715113E+01  0.31577702327E+02  0.00000000000E+00 0. -1.
         22    1    3    3    0    0  0.70875420145E+02 -0.76201646787E+01 -0.17510899943E+03  0.18906230130E+03  0.00000000000E+00 0. -1.
</event>
<event>
 7    1  0.6017574E-006  0.8551553E+02  0.7818608E-02  0.1375800E+00
          2   -1    0    0  502    0  0.00000000000E+00  0.00000000000E+00  0.10330823133E+04  0.10330823133E+04  0.00000000000E+00 0. -1.
          1   -1    0    0  501    0 -0.00000000000E+00 -0.00000000000E+00 -0.12134004339E+04  0.12134004339E+04  0.00000000000E+00 0. -1.
         25    2    1    2    0    0 -0.52370053298E+02  0.56794081925E+02  0.17893197507E+03  0.23153682634E+03  0.12499784008E+03 0.  0.
          2    1    1    2  501    0  0.83862180311E+02 -0.17581324717E+02 -0.11847855333E+04  0.11878799301E+04  0.00000000000E+00 0. -1.
          1    1    1    2  502    0 -0.31492127013E+02 -0.39212757208E+02  0.82553543765E+03  0.82706599084E+03  0.00000000000E+00 0. -1.
         22    1    3    3    0    0 -0.25357067805E+02 -0.31508011599E+02  0.10729921629E+03  0.11466846776E+03  0.00000000000E+00 0. -1.
         22    1    3    3    0    0 -0.27012985493E+02  0.88302093524E+02  0.71632758783E+02  0.11686835858E+03  0.00000000000E+00 0. -1.
</event>
<event>
 7    1  0.6017574E-006  0.1658882E+03  0.7818608E-02  0.1273159E+00
          2   -1    0    0  502    0  0.00000000000E+00  0.00000000000E+00  0.58934345966E+03  0.58934345966E+03  0.00000000000E+00 0. -1.
          1   -1    0    0  501    0 -0.00000000000E+00 -0.00000000000E+00 -0.15572748013E+04  0.15572748013E+04  0.00000000000E+00 0. -1.
         25    2    1    2    0    0 -0.10877640201E+03  0.58505214063E+02 -0.43211909319E+03  0.46648213517E+03  0.12499402397E+03 0.  0.
          2    1    1    2  501    0  0.15134790089E+03 -0.10701445951E+03 -0.10983636516E+04  0.11138945160E+04  0.00000000000E+00 0. -1.
          1    1    1    2  502    0 -0.42571498882E+02  0.48509245442E+02  0.56255140317E+03  0.56624160976E+03  0.00000000000E+00 0. -1.
         22    1    3    3    0    0  0.18912055394E+02  0.42203068130E+02 -0.13411084950E+03  0.14186079357E+03  0.00000000000E+00 0. -1.
         22    1    3    3    0    0 -0.12768845740E+03  0.16302145934E+02 -0.29800824369E+03  0.32462134160E+03  0.00000000000E+00 0. -1.
</event>
<event>
 7    1  0.6017574E-006  0.7286665E+02  0.7818608E-02  0.1400889E+00
          2   -1    0    0  502    0  0.00000000000E+00  0.00000000000E+00  0.18079783629E+04  0.18079783629E+04  0.00000000000E+00 0. -1.
          1   -1    0    0  501    0 -0.00000000000E+00 -0.00000000000E+00 -0.13154893055E+03  0.13154893055E+03  0.00000000000E+00 0. -1.
         25    2    1    2    0    0 -0.10624605855E+03 -0.48096421786E+02  0.30677942860E+03  0.35118950406E+03  0.12497583447E+03 0.  0.
          2    1    1    2  501    0  0.69295665304E+02  0.17111366084E+02 -0.97257013919E+02  0.12063836386E+03  0.00000000000E+00 0. -1.
          1    1    1    2  502    0  0.36950393248E+02  0.30985055702E+02  0.14669070177E+04  0.14676994255E+04  0.00000000000E+00 0. -1.
         22    1    3    3    0    0 -0.78375211229E+02  0.30077003787E+02  0.11647002171E+03  0.14357076948E+03  0.00000000000E+00 0. -1.
         22    1    3    3    0    0 -0.27870847323E+02 -0.78173425573E+02  0.19030940689E+03  0.20761873457E+03  0.00000000000E+00 0. -1.
</event>
<event>
 7    1  0.1272441E-005  0.7726714E+02  0.7818608E-02  0.1358780E+00
          2   -1    0    0  502    0  0.00000000000E+00  0.00000000000E+00  0.24584329213E+04  0.24584329213E+04  0.00000000000E+00 0. -1.
          1   -1    0    0  501    0 -0.00000000000E+00 -0.00000000000E+00 -0.19326244547E+04  0.19326244547E+04  0.00000000000E+00 0. -1.
         25    2    1    2    0    0 -0.33705503615E+02  0.18183794987E+02 -0.42720211040E+03  0.44675923962E+03  0.12500185470E+03 0.  0.
          2    1    1    2  501    0 -0.34984450292E+02 -0.53735684663E+02 -0.14943453234E+04  0.14957203553E+04  0.00000000000E+00 0. -1.
          1    1    1    2  502    0  0.68689953907E+02  0.35551889676E+02  0.24473559004E+04  0.24485777811E+04  0.00000000000E+00 0. -1.
         22    1    3    3    0    0  0.93108496356E+01 -0.47607409873E+02 -0.21660299964E+03  0.22196850418E+03  0.00000000000E+00 0.  1.
         22    1    3    3    0    0 -0.43016353251E+02  0.65791204860E+02 -0.21059911076E+03  0.22479073543E+03  0.00000000000E+00 0.  1.
</event>
<event>
 7    1  0.6017574E-006  0.1011980E+03  0.7818608E-02  0.1295558E+00
          2   -1    0    0  502    0  0.00000000000E+00  0.00000000000E+00  0.56346648379E+03  0.56346648379E+03  0.00000000000E+00 0. -1.
          1   -1    0    0  501    0 -0.00000000000E+00 -0.00000000000E+00 -0.21105287671E+03  0.21105287671E+03  0.00000000000E+00 0. -1.
         25    2    1    2    0    0  0.38915071499E+02 -0.10114480802E+02  0.50943226389E+01  0.13140598627E+03  0.12499958237E+03 0.  0.
          2    1    1    2  501    0 -0.12002120255E+03  0.37530392235E+02 -0.11652140254E+03  0.17143761738E+03  0.00000000000E+00 0. -1.
          1    1    1    2  502    0  0.81106131050E+02 -0.27415911433E+02  0.46384068699E+03  0.47167575685E+03  0.00000000000E+00 0. -1.
         22    1    3    3    0    0  0.37302687987E+02  0.10598806647E+02  0.60708902517E+02  0.72037463019E+02  0.00000000000E+00 0.  1.
         22    1    3    3    0    0  0.16123835118E+01 -0.20713287449E+02 -0.55614579878E+02  0.59368523247E+02  0.00000000000E+00 0.  1.
</event>
<event>
 7    1  0.6017574E-006  0.1582153E+03  0.7818608E-02  0.1304144E+00
          2   -1    0    0  502    0  0.00000000000E+00  0.00000000000E+00  0.23368162767E+04  0.23368162767E+04  0.00000000000E+00 0. -1.
          1   -1    0    0  501    0 -0.00000000000E+00 -0.00000000000E+00 -0.25614311581E+03  0.25614311581E+03  0.00000000000E+00 0. -1.
         25    2    1    2    0    0  0.93293431524E+02  0.74747959304E+02 -0.66649460508E+01  0.17309009382E+03  0.12499934915E+03 0.  0.
          2    1    1    2  501    0  0.50315753857E+02 -0.52890848548E+01 -0.15952230318E+03  0.16735296447E+03  0.00000000000E+00 0. -1.
          1    1    1    2  502    0 -0.14360918538E+03 -0.69458874450E+02  0.22468604102E+04  0.22525163343E+04  0.00000000000E+00 0. -1.
         22    1    3    3    0    0  0.11550889009E+03  0.42848428141E+02 -0.31241591809E+02  0.12709967955E+03  0.00000000000E+00 0. -1.
         22    1    3    3    0    0 -0.22215458565E+02  0.31899531164E+02  0.24576645758E+02  0.45990414267E+02  0.00000000000E+00 0. -1.
</event>
<event>
 7    1  0.6017574E-006  0.6432197E+02  0.7818608E-02  0.1455615E+00
          2   -1    0    0  502    0  0.00000000000E+00  0.00000000000E+00  0.66958237061E+02  0.66958237061E+02  0.00000000000E+00 0. -1.
          1   -1    0    0  501    0 -0.00000000000E+00 -0.00000000000E+00 -0.50174211431E+03  0.50174211431E+03  0.00000000000E+00 0. -1.
         25    2    1    2    0    0 -0.91878709226E+02 -0.25770639630E+02 -0.20009131427E+03  0.25449305568E+03  0.12499743305E+03 0.  0.
          2    1    1    2  501    0  0.55959759223E+02  0.22871378334E+02 -0.26206946846E+03  0.26895167019E+03  0.00000000000E+00 0. -1.
          1    1    1    2  502    0  0.35918950003E+02  0.28992612964E+01  0.27376905482E+02  0.45255625497E+02  0.00000000000E+00 0. -1.
         22    1    3    3    0    0 -0.90533361077E+02  0.55645247150E+01 -0.55056979602E+02  0.10610619400E+03  0.00000000000E+00 0.  1.
         22    1    3    3    0    0 -0.13453481492E+01 -0.31335164345E+02 -0.14503433467E+03  0.14838686168E+03  0.00000000000E+00 0.  1.
</event>
<event>
 7    1  0.6017574E-006  0.8848892E+02  0.7818608E-02  0.1454016E+00
          2   -1    0    0  502    0  0.00000000000E+00  0.00000000000E+00  0.62124141877E+03  0.62124141877E+03  0.00000000000E+00 0. -1.
          1   -1    0    0  501    0 -0.00000000000E+00 -0.00000000000E+00 -0.37853373306E+03  0.37853373306E+03  0.00000000000E+00 0. -1.
         25    2    1    2    0    0  0.12174560199E+02 -0.65026236307E+02 -0.11805028018E+02  0.14192097886E+03  0.12500229690E+03 0.  0.
          2    1    1    2  501    0 -0.56547928216E+01  0.90714196586E+02 -0.29449774009E+03  0.30820441441E+03  0.00000000000E+00 0. -1.
          1    1    1    2  502    0 -0.65197673774E+01 -0.25687960280E+02  0.54901045382E+03  0.54964975855E+03  0.00000000000E+00 0. -1.
         22    1    3    3    0    0  0.49309203276E+02 -0.84615041165E+02 -0.17711907240E+02  0.99522933925E+02  0.00000000000E+00 0. -1.
         22    1    3    3    0    0 -0.37134643077E+02  0.19588804858E+02  0.59068792216E+01  0.42398044935E+02  0.00000000000E+00 0. -1.
</event>
<event>
 7    1  0.6017574E-006  0.9535708E+02  0.7818608E-02  0.1329202E+00
          2   -1    0    0  502    0  0.00000000000E+00  0.00000000000E+00  0.17219460535E+02  0.17219460535E+02  0.00000000000E+00 0. -1.
          1   -1    0    0  501    0 -0.00000000000E+00 -0.00000000000E+00 -0.23010501398E+04  0.23010501398E+04  0.00000000000E+00 0. -1.
         25    2    1    2    0    0  0.76034775911E+02  0.98587071540E+02 -0.14446276473E+04  0.14553608553E+04  0.12500192858E+03 0.  0.
          2    1    1    2  501    0  0.11491435591E+02 -0.66034641358E+02 -0.63308380154E+03  0.63662212240E+03  0.00000000000E+00 0. -1.
          1    1    1    2  502    0 -0.87526211502E+02 -0.32552430182E+02 -0.20611923050E+03  0.22628662265E+03  0.00000000000E+00 0. -1.
         22    1    3    3    0    0 -0.11781399234E+02  0.50775918412E+02 -0.90816838130E+03  0.90966301676E+03  0.00000000000E+00 0. -1.
         22    1    3    3    0    0  0.87816175145E+02  0.47811153128E+02 -0.53645926596E+03  0.54569783856E+03  0.00000000000E+00 0. -1.
</event>
<event>
 7    1  0.6017574E-006  0.1180790E+03  0.7818608E-02  0.1387565E+00
          2   -1    0    0  502    0  0.00000000000E+00  0.00000000000E+00  0.17049562847E+03  0.17049562847E+03  0.00000000000E+00 0. -1.
          1   -1    0    0  501    0 -0.00000000000E+00 -0.00000000000E+00 -0.14917939485E+04  0.14917939485E+04  0.00000000000E+00 0. -1.
         25    2    1    2    0    0  0.90572041929E+02  0.23295108306E+01 -0.75832777152E+03  0.77388300693E+03  0.12500071179E+03 0.  0.
          2    1    1    2  501    0  0.26150790918E+02  0.20289826887E+02 -0.70352908528E+03  0.70430725879E+03  0.00000000000E+00 0. -1.
          1    1    1    2  502    0 -0.11672283285E+03 -0.22619337718E+02  0.14055853677E+03  0.18409931126E+03  0.00000000000E+00 0. -1.
         22    1    3    3    0    0 -0.17321140045E+02  0.35920446251E+02 -0.24875038102E+03  0.25192668063E+03  0.00000000000E+00 0. -1.
         22    1    3    3    0    0  0.10789318197E+03 -0.33590935420E+02 -0.50957739050E+03  0.52195632630E+03  0.00000000000E+00 0. -1.
</event>
<event>
 7    1  0.6017574E-006  0.7124671E+02  0.7818608E-02  0.1409496E+00
          2   -1    0    0  502    0  0.00000000000E+00  0.00000000000E+00  0.57362807239E+02  0.57362807239E+02  0.00000000000E+00 0. -1.
          1   -1    0    0  501    0 -0.00000000000E+00 -0.00000000000E+00 -0.40015063133E+03  0.40015063133E+03  0.00000000000E+00 0. -1.
         25    2    1    2    0    0 -0.32602616168E+02  0.21329505516E+02 -0.10380570210E+03  0.16708934568E+03  0.12500138905E+03 0.  0.
          2    1    1    2  501    0  0.77676631560E+02 -0.11686679534E+02 -0.23055130791E+03  0.24356548020E+03  0.00000000000E+00 0. -1.
          1    1    1    2  502    0 -0.45074015392E+02 -0.96428259815E+01 -0.84308140788E+01  0.46858612682E+02  0.00000000000E+00 0. -1.
         22    1    3    3    0    0  0.21662644280E+02  0.60903667738E+00  0.20531731645E+02  0.29852857270E+02  0.00000000000E+00 0. -1.
         22    1    3    3    0    0 -0.54265260448E+02  0.20720468838E+02 -0.12433743374E+03  0.13723648841E+03  0.00000000000E+00 0. -1.
</event>
<event>
 7    1  0.6017574E-006  0.2445558E+03  0.7818608E-02  0.1227855E+00
          2   -1    0    0  502    0  0.00000000000E+00  0.00000000000E+00  0.69527685668E+03  0.69527685668E+03  0.00000000000E+00 0. -1.
          1   -1    0    0  501    0 -0.00000000000E+00 -0.00000000000E+00 -0.10285604941E+04  0.10285604941E+04  0.00000000000E+00 0. -1.
         25    2    1    2    0    0 -0.21444967604E+03 -0.24311790306E+02 -0.29932129800E+02  0.25119438311E+03  0.12499183577E+03 0.  0.
          2    1    1    2  501    0 -0.34281921528E+02  0.59673024642E+02 -0.85956855579E+03  0.86231909530E+03  0.00000000000E+00 0. -1.
          1    1    1    2  502    0  0.24873159757E+03 -0.35361234336E+02  0.55621704817E+03  0.61032387238E+03  0.00000000000E+00 0. -1.
         22    1    3    3    0    0 -0.12239180761E+02  0.36291358935E+02 -0.53374842890E+01  0.38669742921E+02  0.00000000000E+00 0. -1.
         22    1    3    3    0    0 -0.20221049528E+03 -0.60603149240E+02 -0.24594645511E+02  0.21252464019E+03  0.00000000000E+00 0. -1.
</event>
<event>
 7    1  0.6017574E-006  0.8144277E+02  0.7818608E-02  0.1330584E+00
          2   -1    0    0  502    0  0.00000000000E+00  0.00000000000E+00  0.28486877871E+03  0.28486877871E+03  0.00000000000E+00 0. -1.
          1   -1    0    0  501    0 -0.00000000000E+00 -0.00000000000E+00 -0.30361917161E+03  0.30361917161E+03  0.00000000000E+00 0. -1.
         25    2    1    2    0    0  0.38032746958E+02 -0.59208539448E+02 -0.15016452278E+03  0.20766544356E+03  0.12499364609E+03 0.  0.
          2    1    1    2  501    0  0.28677927565E+02  0.98712673813E+02 -0.95941766121E+02  0.14061094547E+03  0.00000000000E+00 0. -1.
          1    1    1    2  502    0 -0.66710674523E+02 -0.39504134364E+02  0.22735589600E+03  0.24021156128E+03  0.00000000000E+00 0. -1.
         22    1    3    3    0    0  0.65225196984E+02 -0.55011808869E+02 -0.40220546208E+02  0.94330895119E+02  0.00000000000E+00 0.  1.
         22    1    3    3    0    0 -0.27192450026E+02 -0.41967305787E+01 -0.10994397658E+03  0.11333454845E+03  0.00000000000E+00 0.  1.
</event>
<event>
 7    1  0.6017574E-006  0.5108143E+02  0.7818608E-02  0.1566520E+00
          2   -1    0    0  502    0  0.00000000000E+00  0.00000000000E+00  0.70115414571E+03  0.70115414571E+03  0.00000000000E+00 0. -1.
          1   -1    0    0  501    0 -0.00000000000E+00 -0.00000000000E+00 -0.20890314096E+03  0.20890314096E+03  0.00000000000E+00 0. -1.
         25    2    1    2    0    0 -0.63681496748E+02  0.29948694091E+02  0.10455149799E+03  0.17750576291E+03  0.12500009132E+03 0.  0.
          2    1    1    2  501    0  0.15537001532E+02 -0.14713846324E+02 -0.17061819590E+03  0.17195483262E+03  0.00000000000E+00 0. -1.
          1    1    1    2  502    0  0.48144495215E+02 -0.15234847767E+02  0.55831770266E+03  0.56059669113E+03  0.00000000000E+00 0. -1.
         22    1    3    3    0    0 -0.10160360580E+03  0.28349235558E+02  0.77686493836E+02  0.13100443959E+03  0.00000000000E+00 0.  1.
         22    1    3    3    0    0  0.37922109051E+02  0.15994585327E+01  0.26865004154E+02  0.46501323322E+02  0.00000000000E+00 0.  1.
</event>
<event>
 7    1  0.6017574E-006  0.4350506E+02  0.7818608E-02  0.1496289E+00
          2   -1    0    0  502    0  0.00000000000E+00  0.00000000000E+00  0.21134228219E+03  0.21134228219E+03  0.00000000000E+00 0. -1.
          1   -1    0    0  501    0 -0.00000000000E+00 -0.00000000000E+00 -0.62264191676E+03  0.62264191676E+03  0.00000000000E+00 0. -1.
         25    2    1    2    0    0  0.12681167959E+02 -0.64836470323E+01 -0.15942033486E+03  0.20308382553E+03  0.12500138929E+03 0.  0.
          2    1    1    2  501    0  0.22506954865E+02  0.32954655035E+02 -0.43791243007E+03  0.43972703887E+03  0.00000000000E+00 0. -1.
          1    1    1    2  502    0 -0.35188122824E+02 -0.26471008003E+02  0.18603313036E+03  0.19117333455E+03  0.00000000000E+00 0. -1.
         22    1    3    3    0    0  0.26857346229E+02 -0.62460264601E+02 -0.82665531918E+02  0.10703360158E+03  0.00000000000E+00 0.  1.
         22    1    3    3    0    0 -0.14176178270E+02  0.55976617569E+02 -0.76754802947E+02  0.96050223947E+02  0.00000000000E+00 0.  1.
</event>
<event>
 7    1  0.6017574E-006  0.6106798E+02  0.7818608E-02  0.1473614E+00
          2   -1    0    0  502    0  0.00000000000E+00  0.00000000000E+00  0.28987078016E+03  0.28987078016E+03  0.00000000000E+00 0. -1.
          1   -1    0    0  501    0 -0.00000000000E+00 -0.00000000000E+00 -0.16269383803E+04  0.16269383803E+04  0.00000000000E+00 0. -1.
         25    2    1    2    0    0 -0.74984368450E+02 -0.55576206862E+02 -0.18597388805E+03  0.24273982593E+03  0.12499986311E+03 0.  0.
          2    1    1    2  501    0  0.29366508155E+02  0.15768185082E+02 -0.14088771334E+04  0.14092713737E+04  0.00000000000E+00 0. -1.
          1    1    1    2  502    0  0.45617860296E+02  0.39808021780E+02  0.25778342133E+03  0.26479796089E+03  0.00000000000E+00 0. -1.
         22    1    3    3    0    0 -0.57531240916E+02  0.32254711151E+02 -0.88535914479E+02  0.11040298105E+03  0.00000000000E+00 0.  1.
         22    1    3    3    0    0 -0.17453127534E+02 -0.87830918013E+02 -0.97437973569E+02  0.13233684488E+03  0.00000000000E+00 0.  1.
</event>
<event>
 7    1  0.6017574E-006  0.6098675E+02  0.7818608E-02  0.1540819E+00
          2   -1    0    0  502    0  0.00000000000E+00  0.00000000000E+00  0.87561260255E+03  0.87561260255E+03  0.00000000000E+00 0. -1.
          1   -1    0    0  501    0 -0.00000000000E+00 -0.00000000000E+00 -0.70225679387E+03  0.70225679387E+03  0.00000000000E+00 0. -1.
         25    2    1    2    0    0  0.58836589980E+01  0.44454635786E+02  0.21141238880E+03  0.24966359733E+03  0.12500352637E+03 0.  0.
          2    1    1    2  501    0  0.77378314973E+01 -0.60599195862E+02 -0.68159173363E+03  0.68432406645E+03  0.00000000000E+00 0. -1.
          1    1    1    2  502    0 -0.13621490495E+02  0.16144560076E+02  0.64353515350E+03  0.64388173263E+03  0.00000000000E+00 0. -1.
         22    1    3    3    0    0 -0.28375493945E+02 -0.30767331363E+02  0.33937115561E+02  0.53884368312E+02  0.00000000000E+00 0.  1.
         22    1    3    3    0    0  0.34259152943E+02  0.75221967149E+02  0.17747527324E+03  0.19577922902E+03  0.00000000000E+00 0.  1.
</event>
<event>
 7    1  0.6017574E-006  0.5705026E+02  0.7818608E-02  0.1526461E+00
          2   -1    0    0  502    0  0.00000000000E+00  0.00000000000E+00  0.16741493934E+04  0.16741493934E+04  0.00000000000E+00 0. -1.
          1   -1    0    0  501    0 -0.00000000000E+00 -0.00000000000E+00 -0.86697204733E+01  0.86697204733E+01  0.00000000000E+00 0. -1.
         25    2    1    2    0    0  0.46409553839E+01 -0.72821555990E+02  0.79400259098E+03  0.80708774281E+03  0.12500397045E+03 0.  0.
          2    1    1    2  501    0 -0.11762134243E+02  0.49052645200E+02  0.34481847738E+03  0.34848858252E+03  0.00000000000E+00 0. -1.
          1    1    1    2  502    0  0.71211788590E+01  0.23768910789E+02  0.52665860461E+03  0.52724278859E+03  0.00000000000E+00 0. -1.
         22    1    3    3    0    0  0.44384095270E+02 -0.43095640240E+02  0.67926453241E+03  0.68207586609E+03  0.00000000000E+00 0. -1.
         22    1    3    3    0    0 -0.39743139886E+02 -0.29725915750E+02  0.11473805858E+03  0.12501187672E+03  0.00000000000E+00 0. -1.
</event>
<event>
 7    1  0.6017574E-006  0.6667259E+02  0.7818608E-02  0.1426194E+00
          2   -1    0    0  502    0  0.00000000000E+00  0.00000000000E+00  0.31573020565E+03  0.31573020565E+03  0.00000000000E+00 0. -1.
          1   -1    0    0  501    0 -0.00000000000E+00 -0.00000000000E+00 -0.19800506000E+04  0.19800506000E+04  0.00000000000E+00 0. -1.
         25    2    1    2    0    0 -0.23916234833E+02 -0.17454133743E+02 -0.11771256027E+03  0.17423859135E+03  0.12500482710E+03 0.  0.
          2    1    1    2  501    0 -0.73492684607E+01 -0.42674248925E+02 -0.18298209820E+04  0.18303332837E+04  0.00000000000E+00 0. -1.
          1    1    1    2  502    0  0.31265503293E+02  0.60128382667E+02  0.28321314793E+03  0.29120893059E+03  0.00000000000E+00 0. -1.
         22    1    3    3    0    0 -0.59764754641E+02  0.31295125683E+02 -0.69615956051E+02  0.96941178690E+02  0.00000000000E+00 0.  1.
         22    1    3    3    0    0  0.35848519809E+02 -0.48749259425E+02 -0.48096604216E+02  0.77297412661E+02  0.00000000000E+00 0.  1.
</event>
<event>
 7    1  0.6017574E-006  0.2987945E+03  0.7818608E-02  0.1199498E+00
          2   -1    0    0  502    0  0.00000000000E+00  0.00000000000E+00  0.13358278587E+04  0.13358278587E+04  0.00000000000E+00 0. -1.
          1   -1    0    0  501    0 -0.00000000000E+00 -0.00000000000E+00 -0.22717766095E+03  0.22717766095E+03  0.00000000000E+00 0. -1.
         25    2    1    2    0    0  0.23423249594E+03  0.98291297956E+02  0.33591378409E+03  0.43930530513E+03  0.12500015748E+03 0.  0.
          2    1    1    2  501    0 -0.30701536544E+03 -0.76055155331E+02 -0.29678133334E+02  0.31768476965E+03  0.00000000000E+00 0. -1.
          1    1    1    2  502    0  0.72782869504E+02 -0.22236142624E+02  0.80241454703E+03  0.80601544490E+03  0.00000000000E+00 0. -1.
         22    1    3    3    0    0  0.24647129302E+03  0.78761542437E+02  0.29543989117E+03  0.39272917914E+03  0.00000000000E+00 0. -1.
         22    1    3    3    0    0 -0.12238797085E+02  0.19529755519E+02  0.40473892918E+02  0.46576125995E+02  0.00000000000E+00 0. -1.
</event>
<event>
 7    1  0.6017574E-006  0.7547474E+02  0.7818608E-02  0.1360914E+00
          2   -1    0    0  502    0  0.00000000000E+00  0.00000000000E+00  0.75479743046E+02  0.75479743046E+02  0.00000000000E+00 0. -1.
          1   -1    0    0  501    0 -0.00000000000E+00 -0.00000000000E+00 -0.35264608331E+03  0.35264608331E+03  0.00000000000E+00 0. -1.
         25    2    1    2    0    0 -0.97322514836E+02 -0.33634277945E+02 -0.12969584882E+03  0.20748342359E+03  0.12500168527E+03 0.  0.
          2    1    1    2  501    0  0.39232991993E+02  0.61613331388E+02 -0.13709026367E+03  0.15533567092E+03  0.00000000000E+00 0. -1.
          1    1    1    2  502    0  0.58089522843E+02 -0.27979053442E+02 -0.10380227776E+02  0.65306731845E+02  0.00000000000E+00 0. -1.
         22    1    3    3    0    0  0.72407891745E+01  0.31671334222E+02 -0.63725980124E+01  0.33107588929E+02  0.00000000000E+00 0.  1.
         22    1    3    3    0    0 -0.10456330401E+03 -0.65305612168E+02 -0.12332325080E+03  0.17437583467E+03  0.00000000000E+00 0.  1.
</event>
<event>
 7    1  0.6017574E-006  0.9408337E+02  0.7818608E-02  0.1346707E+00
          2   -1    0    0  502    0  0.00000000000E+00  0.00000000000E+00  0.62728655490E+03  0.62728655490E+03  0.00000000000E+00 0. -1.
          1   -1    0    0  501    0 -0.00000000000E+00 -0.00000000000E+00 -0.29121936972E+03  0.29121936972E+03  0.00000000000E+00 0. -1.
         25    2    1    2    0    0  0.23299412432E+02  0.90291428079E+02 -0.38604425620E+02  0.16063923392E+03  0.12497702666E+03 0.  0.
          2    1    1    2  501    0  0.35047038179E+02 -0.90730096028E+02 -0.17761701492E+03  0.20250444242E+03  0.00000000000E+00 0. -1.
          1    1    1    2  502    0 -0.58346450612E+02  0.43866794921E+00  0.55228862572E+03  0.55536224829E+03  0.00000000000E+00 0. -1.
         22    1    3    3    0    0  0.54417068053E+02 -0.54072975079E+01 -0.20451487775E+02  0.58384240288E+02  0.00000000000E+00 0.  1.
         22    1    3    3    0    0 -0.31117655620E+02  0.95698725587E+02 -0.18152937846E+02  0.10225499363E+03  0.00000000000E+00 0.  1.
</event>
<event>
 7    1  0.6017574E-006  0.1248720E+03  0.7818608E-02  0.1383930E+00
          2   -1    0    0  502    0  0.00000000000E+00  0.00000000000E+00  0.63664233548E+03  0.63664233548E+03  0.00000000000E+00 0. -1.
          1   -1    0    0  501    0 -0.00000000000E+00 -0.00000000000E+00 -0.36523952551E+03  0.36523952551E+03  0.00000000000E+00 0. -1.
         25    2    1    2    0    0  0.14307915064E+02 -0.12933593437E+03  0.16567890152E+03  0.24496200343E+03  0.12499753743E+03 0.  0.
          2    1    1    2  501    0  0.29540387512E+02  0.12894513330E+02 -0.31578737822E+03  0.31742805675E+03  0.00000000000E+00 0. -1.
          1    1    1    2  502    0 -0.43848302576E+02  0.11644142104E+03  0.42151128668E+03  0.43949180080E+03  0.00000000000E+00 0. -1.
         22    1    3    3    0    0  0.50733151391E+02 -0.99181273608E+02  0.16321488612E+03  0.19761041656E+03  0.00000000000E+00 0.  1.
         22    1    3    3    0    0 -0.36425236327E+02 -0.30154660763E+02  0.24640154021E+01  0.47351586870E+02  0.00000000000E+00 0.  1.
</event>
<event>
 7    1  0.6017574E-006  0.8228896E+02  0.7818608E-02  0.1362032E+00
          2   -1    0    0  502    0  0.00000000000E+00  0.00000000000E+00  0.14939469051E+04  0.14939469051E+04  0.00000000000E+00 0. -1.
          1   -1    0    0  501    0 -0.00000000000E+00 -0.00000000000E+00 -0.33058973387E+02  0.33058973387E+02  0.00000000000E+00 0. -1.
         25    2    1    2    0    0  0.83330805721E+02  0.31306041507E+02  0.27050598583E+03  0.31100555370E+03  0.12500749836E+03 0.  0.
          2    1    1    2  501    0 -0.46421572376E+01 -0.58401395506E+02  0.64844914179E+02  0.87390706117E+02  0.00000000000E+00 0. -1.
          1    1    1    2  502    0 -0.78688648483E+02  0.27095353999E+02  0.11255370317E+04  0.11286096187E+04  0.00000000000E+00 0. -1.
         22    1    3    3    0    0  0.10530728887E+03  0.52393330959E+01  0.24973923837E+03  0.27108442021E+03  0.00000000000E+00 0.  1.
         22    1    3    3    0    0 -0.21976483152E+02  0.26066708411E+02  0.20766747464E+02  0.39921133493E+02  0.00000000000E+00 0.  1.
</event>
<event>
 7    1  0.6017574E-006  0.8709042E+02  0.7818608E-02  0.1406678E+00
          2   -1    0    0  502    0  0.00000000000E+00  0.00000000000E+00  0.26018394980E+03  0.26018394980E+03  0.00000000000E+00 0. -1.
          1   -1    0    0  501    0 -0.00000000000E+00 -0.00000000000E+00 -0.18077946102E+04  0.18077946102E+04  0.00000000000E+00 0. -1.
         25    2    1    2    0    0  0.21878971169E+02  0.11751977818E+03  0.26158697481E+02  0.17491162340E+03  0.12498084214E+03 0.  0.
          2    1    1    2  501    0 -0.15621462994E+02 -0.35241858640E+02 -0.17225259047E+04  0.17229571994E+04  0.00000000000E+00 0. -1.
          1    1    1    2  502    0 -0.62575081756E+01 -0.82277919539E+02  0.14875654683E+03  0.17010973716E+03  0.00000000000E+00 0. -1.
         22    1    3    3    0    0  0.65200926229E+02  0.51000638787E+02  0.43713193485E+02  0.93611266536E+02  0.00000000000E+00 0.  1.
         22    1    3    3    0    0 -0.43321955060E+02  0.66519139393E+02 -0.17554496004E+02  0.81300356861E+02  0.00000000000E+00 0.  1.
</event>
<event>
 7    1  0.6017574E-006  0.1224719E+03  0.7818608E-02  0.1244645E+00
          2   -1    0    0  502    0  0.00000000000E+00  0.00000000000E+00  0.14544551838E+03  0.14544551838E+03  0.00000000000E+00 0. -1.
          1   -1    0    0  501    0 -0.00000000000E+00 -0.00000000000E+00 -0.26686795418E+04  0.26686795418E+04  0.00000000000E+00 0. -1.
         25    2    1    2    0    0  0.35657235394E+02  0.75228359139E+02 -0.48267097185E+03  0.50549679436E+03  0.12499999037E+03 0.  0.
          2    1    1    2  501    0 -0.11267499456E+03  0.26527543072E+02 -0.21422978908E+04  0.21454229462E+04  0.00000000000E+00 0. -1.
          1    1    1    2  502    0  0.77017759168E+02 -0.10175590221E+03  0.10173483922E+03  0.16320531968E+03  0.00000000000E+00 0. -1.
         22    1    3    3    0    0  0.40083193573E+02  0.57690217371E+02 -0.98953745993E+02  0.12135348134E+03  0.00000000000E+00 0. -1.
         22    1    3    3    0    0 -0.44259581784E+01  0.17538141768E+02 -0.38371722585E+03  0.38414331302E+03  0.00000000000E+00 0. -1.
</event>
<event>
 7    1  0.6017574E-006  0.1643823E+03  0.7818608E-02  0.1212763E+00
          2   -1    0    0  502    0  0.00000000000E+00  0.00000000000E+00  0.13101602679E+04  0.13101602679E+04  0.00000000000E+00 0. -1.
          1   -1    0    0  501    0 -0.00000000000E+00 -0.00000000000E+00 -0.94405143033E+03  0.94405143033E+03  0.00000000000E+00 0. -1.
         25    2    1    2    0    0  0.20749305048E+03  0.79659264393E+02  0.92143700305E+03  0.95607015874E+03  0.12500013376E+03 0.  0.
          2    1    1    2  501    0 -0.75873553993E+02 -0.92908782125E+02 -0.91089767503E+03  0.91876189100E+03  0.00000000000E+00 0. -1.
          1    1    1    2  502    0 -0.13161949648E+03  0.13249517732E+02  0.35556950953E+03  0.37937964848E+03  0.00000000000E+00 0. -1.
         22    1    3    3    0    0  0.16274804245E+03  0.86568709580E+02  0.51268412312E+03  0.54481747118E+03  0.00000000000E+00 0.  1.
         22    1    3    3    0    0  0.44745008032E+02 -0.69094451872E+01  0.40875287993E+03  0.41125268757E+03  0.00000000000E+00 0.  1.
</event>
<event>
 7    1  0.6805543E-006  0.4710183E+02  0.7818608E-02  0.1481849E+00
          2   -1    0    0  502    0  0.00000000000E+00  0.00000000000E+00  0.88154787897E+03  0.88154787897E+03  0.00000000000E+00 0. -1.
          1   -1    0    0  501    0 -0.00000000000E+00 -0.00000000000E+00 -0.84146629972E+03  0.84146629972E+03  0.00000000000E+00 0. -1.
         25    2    1    2    0    0 -0.17063302926E+02  0.18281130333E+02 -0.23240297138E+03  0.26506710395E+03  0.12499628979E+03 0.  0.
          2    1    1    2  501    0 -0.28966872055E+02 -0.28684097615E+02 -0.59138556471E+03  0.59278895340E+03  0.00000000000E+00 0. -1.
          1    1    1    2  502    0  0.46030174981E+02  0.10402967282E+02  0.86387011534E+03  0.86515812133E+03  0.00000000000E+00 0. -1.
         22    1    3    3    0    0 -0.38313816208E+02 -0.37891876296E+02 -0.51824115882E+02  0.74762836948E+02  0.00000000000E+00 0. -1.
         22    1    3    3    0    0  0.21250513283E+02  0.56173006629E+02 -0.18057885549E+03  0.19030426700E+03  0.00000000000E+00 0. -1.
</event>
<event>
 7    1  0.6017574E-006  0.5712229E+02  0.7818608E-02  0.1476470E+00
          2   -1    0    0  502    0  0.00000000000E+00  0.00000000000E+00  0.59037247527E+03  0.59037247527E+03  0.00000000000E+00 0. -1.
          1   -1    0    0  501    0 -0.00000000000E+00 -0.00000000000E+00 -0.12001955194E+04  0.12001955194E+04  0.00000000000E+00 0. -1.
         25    2    1    2    0    0 -0.74938557703E+02  0.46561765202E+02  0.19544519563E+03  0.24821017005E+03  0.12500271442E+03 0.  0.
          2    1    1    2  501    0  0.53874465568E+02 -0.18712787380E+02 -0.11722911579E+04  0.11736776326E+04  0.00000000000E+00 0. -1.
          1    1    1    2  502    0  0.21064092136E+02 -0.27848977822E+02  0.36702291813E+03  0.36868019200E+03  0.00000000000E+00 0. -1.
         22    1    3    3    0    0  0.46177070057E+01 -0.20578773043E+02 -0.55916997636E+01  0.21819171024E+02  0.00000000000E+00 0.  1.
         22    1    3    3    0    0 -0.79556264709E+02  0.67140538244E+02  0.20103689539E+03  0.22639099903E+03  0.00000000000E+00 0.  1.
</event>
<event>
 7    1  0.6017574E-006  0.1189028E+03  0.7818608E-02  0.1318668E+00
          2   -1    0    0  502    0  0.00000000000E+00  0.00000000000E+00  0.40246081172E+03  0.40246081172E+03  0.00000000000E+00 0. -1.
          1   -1    0    0  501    0 -0.00000000000E+00 -0.00000000000E+00 -0.17846528855E+03  0.17846528855E+03  0.00000000000E+00 0. -1.
         25    2    1    2    0    0  0.13037159423E+03 -0.26952704922E+02 -0.66410532738E+02  0.19431495030E+03  0.12499896066E+03 0.  0.
          2    1    1    2  501    0 -0.10677560121E+03 -0.27150568684E+02  0.22715955451E+02  0.11249087530E+03  0.00000000000E+00 0. -1.
          1    1    1    2  502    0 -0.23595993022E+02  0.54103273605E+02  0.26769010046E+03  0.27412027467E+03  0.00000000000E+00 0. -1.
         22    1    3    3    0    0  0.10865865108E+03 -0.15073188678E+02  0.13622997242E+02  0.11054179990E+03  0.00000000000E+00 0. -1.
         22    1    3    3    0    0  0.21712943150E+02 -0.11879516243E+02 -0.80033529980E+02  0.83773150397E+02  0.00000000000E+00 0. -1.
</event>
<event>
 7    1  0.6017574E-006  0.2675301E+03  0.7818608E-02  0.1335376E+00
          2   -1    0    0  502    0  0.00000000000E+00  0.00000000000E+00  0.17637590329E+04  0.17637590329E+04  0.00000000000E+00 0. -1.
          1   -1    0    0  501    0 -0.00000000000E+00 -0.00000000000E+00 -0.12473029403E+04  0.12473029403E+04  0.00000000000E+00 0. -1.
         25    2    1    2    0    0  0.43202036741E+02 -0.28346929175E+03  0.35750456604E+03  0.47503216588E+03  0.12499915412E+03 0.  0.
          2    1    1    2  501    0 -0.50459085419E+02  0.26203207631E+03 -0.11734640033E+04  0.12034220769E+04  0.00000000000E+00 0. -1.
          1    1    1    2  502    0  0.72570486787E+01  0.21437215439E+02  0.13324155298E+04  0.13326077304E+04  0.00000000000E+00 0. -1.
         22    1    3    3    0    0  0.81879614050E+01 -0.69611936564E+02  0.18569480255E+03  0.19848280560E+03  0.00000000000E+00 0.  1.
         22    1    3    3    0    0  0.35014075336E+02 -0.21385735519E+03  0.17180976350E+03  0.27654936028E+03  0.00000000000E+00 0.  1.
</event>
<event>
 7    1  0.6017574E-006  0.1389774E+03  0.7818608E-02  0.1429507E+00
          2   -1    0    0  502    0  0.00000000000E+00  0.00000000000E+00  0.30664424033E+04  0.30664424033E+04  0.00000000000E+00 0. -1.
          1   -1    0    0  501    0 -0.00000000000E+00 -0.00000000000E+00 -0.29728408589E+03  0.29728408589E+03  0.00000000000E+00 0. -1.
         25    2    1    2    0    0  0.21261041085E+01 -0.14707965757E+03 -0.43240819160E+01  0.19309258460E+03  0.12501640914E+03 0.  0.
          2    1    1    2  501    0 -0.18080256670E+02  0.91353130147E+01 -0.19643255790E+03  0.19747430068E+03  0.00000000000E+00 0. -1.
          1    1    1    2  502    0  0.15954152561E+02  0.13794434455E+03  0.29699149572E+04  0.29731596039E+04  0.00000000000E+00 0. -1.
         22    1    3    3    0    0  0.17086971281E+02 -0.21349071091E+02 -0.51225814944E+02  0.58067474034E+02  0.00000000000E+00 0.  1.
         22    1    3    3    0    0 -0.14960867172E+02 -0.12573058647E+03  0.46901733028E+02  0.13502511056E+03  0.00000000000E+00 0.  1.
</event>
<event>
 7    1  0.6017574E-006  0.7834267E+02  0.7818608E-02  0.1380712E+00
          2   -1    0    0  502    0  0.00000000000E+00  0.00000000000E+00  0.46354967925E+03  0.46354967925E+03  0.00000000000E+00 0. -1.
          1   -1    0    0  501    0 -0.00000000000E+00 -0.00000000000E+00 -0.34425257105E+03  0.34425257105E+03  0.00000000000E+00 0. -1.
         25    2    1    2    0    0  0.99503130438E+02 -0.30871373792E+02  0.33619010793E+03  0.37350137926E+03  0.12500230779E+03 0.  0.
          2    1    1    2  501    0 -0.50604263364E+02 -0.14844039848E+02 -0.31287118059E+03  0.31728459249E+03  0.00000000000E+00 0. -1.
          1    1    1    2  502    0 -0.48898867074E+02  0.45715413639E+02  0.95978180854E+02  0.11701627855E+03  0.00000000000E+00 0. -1.
         22    1    3    3    0    0  0.35546818231E+02  0.51906858970E+00  0.28136982434E+03  0.28360681192E+03  0.00000000000E+00 0.  1.
         22    1    3    3    0    0  0.63956312207E+02 -0.31390442381E+02  0.54820283588E+02  0.89894567336E+02  0.00000000000E+00 0.  1.
</event>
<event>
 7    1  0.6017574E-006  0.8873722E+02  0.7818608E-02  0.1309959E+00
          2   -1    0    0  502    0  0.00000000000E+00  0.00000000000E+00  0.18851730272E+04  0.18851730272E+04  0.00000000000E+00 0. -1.
          1   -1    0    0  501    0 -0.00000000000E+00 -0.00000000000E+00 -0.27592964130E+03  0.27592964130E+03  0.00000000000E+00 0. -1.
         25    2    1    2    0    0 -0.25331806689E+02  0.11550470876E+03 -0.53404691027E+02  0.18016677457E+03  0.12499986984E+03 0.  0.
          2    1    1    2  501    0  0.74699195003E+02 -0.41695462473E+02 -0.14647910886E+03  0.16963080692E+03  0.00000000000E+00 0. -1.
          1    1    1    2  502    0 -0.49367388315E+02 -0.73809246286E+02  0.18091271858E+04  0.18113050870E+04  0.00000000000E+00 0. -1.
         22    1    3    3    0    0 -0.88205148376E+01  0.30401673142E+02  0.41130220884E+02  0.51901428514E+02  0.00000000000E+00 0.  1.
         22    1    3    3    0    0 -0.16511291851E+02  0.85103035617E+02 -0.94534911910E+02  0.12826534606E+03  0.00000000000E+00 0.  1.
</event>
<event>
 7    1  0.6017574E-006  0.8453241E+02  0.7818608E-02  0.1373013E+00
          2   -1    0    0  502    0  0.00000000000E+00  0.00000000000E+00  0.31582835124E+03  0.31582835124E+03  0.00000000000E+00 0. -1.
          1   -1    0    0  501    0 -0.00000000000E+00 -0.00000000000E+00 -0.17597412331E+04  0.17597412331E+04  0.00000000000E+00 0. -1.
         25    2    1    2    0    0 -0.35461068763E+02  0.22167322204E+02 -0.59428839887E+03  0.60873068641E+03  0.12500187987E+03 0.  0.
          2    1    1    2  501    0 -0.67262943869E+01  0.51621070480E+02 -0.11517801001E+04  0.11529559302E+04  0.00000000000E+00 0. -1.
          1    1    1    2  502    0  0.42187363150E+02 -0.73788392684E+02  0.30215561710E+03  0.31388296776E+03  0.00000000000E+00 0. -1.
         22    1    3    3    0    0 -0.39787766800E+02 -0.21823150079E+02 -0.52220898188E+03  0.52417700925E+03  0.00000000000E+00 0.  1.
         22    1    3    3    0    0  0.43266980370E+01  0.43990472283E+02 -0.72079416985E+02  0.84553677156E+02  0.00000000000E+00 0.  1.
</event>
<event>
 7    1  0.6017574E-006  0.4565544E+02  0.7818608E-02  0.1533109E+00
          2   -1    0    0  502    0  0.00000000000E+00  0.00000000000E+00  0.16594973917E+02  0.16594973917E+02  0.00000000000E+00 0. -1.
          1   -1    0    0  501    0 -0.00000000000E+00 -0.00000000000E+00 -0.97639542145E+03  0.97639542145E+03  0.00000000000E+00 0. -1.
         25    2    1    2    0    0  0.39836760945E+02  0.13785346997E+02 -0.39488042844E+03  0.41631728917E+03  0.12495010678E+03 0.  0.
          2    1    1    2  501    0 -0.44158348268E+02  0.15572940850E+02 -0.52420232641E+03  0.52628942154E+03  0.00000000000E+00 0. -1.
          1    1    1    2  502    0  0.43215873223E+01 -0.29358287847E+02 -0.40717692687E+02  0.50383684661E+02  0.00000000000E+00 0. -1.
         22    1    3    3    0    0  0.51317478071E+02  0.44489337385E+02 -0.36715602850E+03  0.37338496751E+03  0.00000000000E+00 0. -1.
         22    1    3    3    0    0 -0.11480717126E+02 -0.30703990388E+02 -0.27724399937E+02  0.42932321662E+02  0.00000000000E+00 0. -1.
</event>
<event>
 7    1  0.6017574E-006  0.4597898E+02  0.7818608E-02  0.1581232E+00
          2   -1    0    0  502    0  0.00000000000E+00  0.00000000000E+00  0.14325918767E+04  0.14325918767E+04  0.00000000000E+00 0. -1.
          1   -1    0    0  501    0 -0.00000000000E+00 -0.00000000000E+00 -0.26342740773E+02  0.26342740773E+02  0.00000000000E+00 0. -1.
         25    2    1    2    0    0 -0.60876102626E+01 -0.43624427878E+02  0.24917471937E+03  0.28223186492E+03  0.12500654021E+03 0.  0.
          2    1    1    2  501    0  0.27207156154E+02  0.38669400335E+02  0.47861040377E+02  0.67277269967E+02  0.00000000000E+00 0. -1.
          1    1    1    2  502    0 -0.21119545892E+02  0.49550275438E+01  0.11092133762E+04  0.11094254826E+04  0.00000000000E+00 0. -1.
         22    1    3    3    0    0 -0.21995470000E+02  0.16382788871E+02  0.21325804040E+01  0.27508987093E+02  0.00000000000E+00 0. -1.
         22    1    3    3    0    0  0.15907859737E+02 -0.60007216749E+02  0.24704213896E+03  0.25472287782E+03  0.00000000000E+00 0. -1.
</event>
<event>
 7    1  0.6017574E-006  0.8542169E+02  0.7818608E-02  0.1395860E+00
          2   -1    0    0  502    0  0.00000000000E+00  0.00000000000E+00  0.35809207245E+04  0.35809207245E+04  0.00000000000E+00 0. -1.
          1   -1    0    0  501    0 -0.00000000000E+00 -0.00000000000E+00 -0.75879051104E+02  0.75879051104E+02  0.00000000000E+00 0. -1.
         25    2    1    2    0    0 -0.25494987172E+02 -0.11412209409E+03  0.57961968687E+03  0.60436476901E+03  0.12499578343E+03 0.  0.
          2    1    1    2  501    0  0.40191214779E+02  0.73913532138E+02 -0.35418284310E+02  0.91285260814E+02  0.00000000000E+00 0. -1.
          1    1    1    2  502    0 -0.14696227606E+02  0.40208561955E+02  0.29608402708E+04  0.29611497457E+04  0.00000000000E+00 0. -1.
         22    1    3    3    0    0  0.43805970363E+02 -0.85302759185E+01  0.16562391237E+03  0.17153136447E+03  0.00000000000E+00 0. -1.
         22    1    3    3    0    0 -0.69300957535E+02 -0.10559181817E+03  0.41399577450E+03  0.43283340454E+03  0.00000000000E+00 0. -1.
</event>
<event>
 7    1  0.6279684E-006  0.9836784E+02  0.7818608E-02  0.1335481E+00
          2   -1    0    0  502    0  0.00000000000E+00  0.00000000000E+00  0.18560788373E+04  0.18560788373E+04  0.00000000000E+00 0. -1.
          1   -1    0    0  501    0 -0.00000000000E+00 -0.00000000000E+00 -0.12045312490E+04  0.12045312490E+04  0.00000000000E+00 0. -1.
         25    2    1    2    0    0 -0.13122876797E+03  0.67026813194E+02 -0.19360284200E+02  0.19420327536E+03  0.12500603316E+03 0.  0.
          2    1    1    2  501    0  0.95869200198E+02 -0.16712628580E+02 -0.10950564696E+04  0.10993720422E+04  0.00000000000E+00 0. -1.
          1    1    1    2  502    0  0.35359567768E+02 -0.50314184614E+02  0.17659643422E+04  0.17670347688E+04  0.00000000000E+00 0. -1.
         22    1    3    3    0    0  0.23314061333E+02  0.33372762540E+01  0.79030451189E+01  0.24842322572E+02  0.00000000000E+00 0. -1.
         22    1    3    3    0    0 -0.15454282930E+03  0.63689536940E+02 -0.27263329319E+02  0.16936095279E+03  0.00000000000E+00 0. -1.
</event>
<event>
 7    1  0.6017574E-006  0.4053503E+03  0.7818608E-02  0.1064865E+00
          2   -1    0    0  502    0  0.00000000000E+00  0.00000000000E+00  0.12829055660E+04  0.12829055660E+04  0.00000000000E+00 0. -1.
          1   -1    0    0  501    0 -0.00000000000E+00 -0.00000000000E+00 -0.36276560883E+04  0.36276560883E+04  0.00000000000E+00 0. -1.
         25    2    1    2    0    0  0.54786107456E+02  0.19170551136E+03  0.67057660128E+03  0.71066866113E+03  0.12499778828E+03 0.  0.
          2    1    1    2  501    0  0.17855085718E+03 -0.36875975775E+03 -0.35589104844E+04  0.35824165034E+04  0.00000000000E+00 0. -1.
          1    1    1    2  502    0 -0.23333696464E+03  0.17705424639E+03  0.54358336089E+03  0.61747648980E+03  0.00000000000E+00 0. -1.
         22    1    3    3    0    0 -0.17266618500E+02  0.10425683128E+03  0.19514915191E+03  0.22192524524E+03  0.00000000000E+00 0.  1.
         22    1    3    3    0    0  0.72052725955E+02  0.87448680081E+02  0.47542744937E+03  0.48874341589E+03  0.00000000000E+00 0.  1.
</event>
<event>
 7    1  0.6017574E-006  0.1305109E+03  0.7818608E-02  0.1426780E+00
          2   -1    0    0  502    0  0.00000000000E+00  0.00000000000E+00  0.23970297498E+03  0.23970297498E+03  0.00000000000E+00 0. -1.
          1   -1    0    0  501    0 -0.00000000000E+00 -0.00000000000E+00 -0.19287777767E+03  0.19287777767E+03  0.00000000000E+00 0. -1.
         25    2    1    2    0    0  0.74375545465E+02  0.11449746970E+03 -0.50211164447E+02  0.19180048830E+03  0.12499949578E+03 0.  0.
          2    1    1    2  501    0 -0.83787914621E+02 -0.94587291998E+02 -0.14408638811E+02  0.12718010582E+03  0.00000000000E+00 0. -1.
          1    1    1    2  502    0  0.94123691555E+01 -0.19910177703E+02  0.11144500056E+03  0.11360015853E+03  0.00000000000E+00 0. -1.
         22    1    3    3    0    0  0.75827025817E+02  0.13717954618E+03 -0.58934891069E+02  0.16745532873E+03  0.00000000000E+00 0. -1.
         22    1    3    3    0    0 -0.14514803516E+01 -0.22682076474E+02  0.87237266216E+01  0.24345159571E+02  0.00000000000E+00 0. -1.
</event>
<event>
 7    1  0.6017574E-006  0.5605282E+02  0.7818608E-02  0.1444000E+00
          2   -1    0    0  502    0  0.00000000000E+00  0.00000000000E+00  0.51104700579E+03  0.51104700579E+03  0.00000000000E+00 0. -1.
          1   -1    0    0  501    0 -0.00000000000E+00 -0.00000000000E+00 -0.19727754394E+03  0.19727754394E+03  0.00000000000E+00 0. -1.
         25    2    1    2    0    0 -0.27051541778E+02 -0.74217808840E+02  0.68634437900E+02  0.16301866335E+03  0.12499731786E+03 0.  0.
          2    1    1    2  501    0  0.44853227579E+02  0.32837293196E+02 -0.14359249293E+03  0.15397695891E+03  0.00000000000E+00 0. -1.
          1    1    1    2  502    0 -0.17801685801E+02  0.41380515644E+02  0.38872751689E+03  0.39132892747E+03  0.00000000000E+00 0. -1.
         22    1    3    3    0    0 -0.15161425640E+02  0.23338683546E+02 -0.17045268780E+02  0.32635933645E+02  0.00000000000E+00 0. -1.
         22    1    3    3    0    0 -0.11890116138E+02 -0.97556492386E+02  0.85679706679E+02  0.13038272970E+03  0.00000000000E+00 0. -1.
</event>
<event>
 7    1  0.6017574E-006  0.2421482E+02  0.7818608E-02  0.1677633E+00
          2   -1    0    0  502    0  0.00000000000E+00  0.00000000000E+00  0.42262458314E+03  0.42262458314E+03  0.00000000000E+00 0. -1.
          1   -1    0    0  501    0 -0.00000000000E+00 -0.00000000000E+00 -0.39457981347E+04  0.39457981347E+04  0.00000000000E+00 0. -1.
         25    2    1    2    0    0 -0.40991515510E+02  0.15460467716E+02 -0.33473901728E+04  0.33500094185E+04  0.12499121790E+03 0.  0.
          2    1    1    2  501    0  0.23513740853E+02  0.12967368709E+01 -0.59651792980E+03  0.59698259448E+03  0.00000000000E+00 0. -1.
          1    1    1    2  502    0  0.17477774657E+02 -0.16757204587E+02  0.42073455108E+03  0.42143070484E+03  0.00000000000E+00 0. -1.
         22    1    3    3    0    0 -0.83554938665E+01  0.20641208946E+02 -0.99926658313E+02  0.10237778483E+03  0.00000000000E+00 0.  1.
         22    1    3    3    0    0 -0.32636021643E+02 -0.51807412300E+01 -0.32474635145E+04  0.32476316337E+04  0.00000000000E+00 0.  1.
</event>
<event>
 7    1  0.6017574E-006  0.6118578E+02  0.7818608E-02  0.1440025E+00
          2   -1    0    0  502    0  0.00000000000E+00  0.00000000000E+00  0.27505653361E+04  0.27505653361E+04  0.00000000000E+00 0. -1.
          1   -1    0    0  501    0 -0.00000000000E+00 -0.00000000000E+00 -0.60772553283E+03  0.60772553283E+03  0.00000000000E+00 0. -1.
         25    2    1    2    0    0 -0.73655924129E+02 -0.35160659626E+02  0.13769193478E+03  0.20309103974E+03  0.12500173749E+03 0.  0.
          2    1    1    2  501    0  0.12809098801E+02  0.40532855566E+02 -0.57387823976E+03  0.57545044918E+03  0.00000000000E+00 0. -1.
          1    1    1    2  502    0  0.60846825328E+02 -0.53721959400E+01  0.25790261083E+04  0.25797493800E+04  0.00000000000E+00 0. -1.
         22    1    3    3    0    0 -0.10770644703E+03 -0.39966898296E+02  0.10466294528E+03  0.15541030792E+03  0.00000000000E+00 0.  1.
         22    1    3    3    0    0  0.34050522905E+02  0.48062386699E+01  0.33028989499E+02  0.47680731827E+02  0.00000000000E+00 0.  1.
</event>
<event>
 7    1  0.6017574E-006  0.1551088E+03  0.7818608E-02  0.1290229E+00
          2   -1    0    0  502    0  0.00000000000E+00  0.00000000000E+00  0.10048332751E+04  0.10048332751E+04  0.00000000000E+00 0. -1.
          1   -1    0    0  501    0 -0.00000000000E+00 -0.00000000000E+00 -0.10046352051E+04  0.10046352051E+04  0.00000000000E+00 0. -1.
         25    2    1    2    0    0 -0.14012843183E+03 -0.87090698543E+02 -0.38080694803E+03  0.43342841706E+03  0.12500197545E+03 0.  0.
          2    1    1    2  501    0  0.15145152193E+03  0.29490086036E+02 -0.58665229289E+03  0.60660377630E+03  0.00000000000E+00 0. -1.
          1    1    1    2  502    0 -0.11323090096E+02  0.57600612507E+02  0.96765731088E+03  0.96943628684E+03  0.00000000000E+00 0. -1.
         22    1    3    3    0    0 -0.72682507510E+02 -0.10696879366E+03 -0.18788120374E+03  0.22808861531E+03  0.00000000000E+00 0.  1.
         22    1    3    3    0    0 -0.67445924323E+02  0.19878095116E+02 -0.19292574430E+03  0.20533980176E+03  0.00000000000E+00 0.  1.
</event>
<event>
 7    1  0.6017574E-006  0.6474756E+02  0.7818608E-02  0.1420542E+00
          2   -1    0    0  502    0  0.00000000000E+00  0.00000000000E+00  0.21945873741E+04  0.21945873741E+04  0.00000000000E+00 0. -1.
          1   -1    0    0  501    0 -0.00000000000E+00 -0.00000000000E+00 -0.12261602259E+02  0.12261602259E+02  0.00000000000E+00 0. -1.
         25    2    1    2    0    0 -0.34349310132E+02 -0.20580302206E+01  0.45763722663E+03  0.47564799182E+03  0.12500028131E+03 0.  0.
          2    1    1    2  501    0 -0.20906939844E+02  0.41603451691E+02  0.21499593207E+03  0.21997999484E+03  0.00000000000E+00 0. -1.
          1    1    1    2  502    0  0.55256249976E+02 -0.39545421470E+02  0.15096926131E+04  0.15112209897E+04  0.00000000000E+00 0. -1.
         22    1    3    3    0    0 -0.67266731949E+02  0.25711810668E+02  0.38093765754E+03  0.38768467776E+03  0.00000000000E+00 0. -1.
         22    1    3    3    0    0  0.32917421817E+02 -0.27769840889E+02  0.76699569084E+02  0.87963314056E+02  0.00000000000E+00 0. -1.
</event>
<event>
 7    1  0.6017574E-006  0.4688151E+02  0.7818608E-02  0.1541522E+00
          2   -1    0    0  502    0  0.00000000000E+00  0.00000000000E+00  0.50371083452E+03  0.50371083452E+03  0.00000000000E+00 0. -1.
          1   -1    0    0  501    0 -0.00000000000E+00 -0.00000000000E+00 -0.48496144538E+03  0.48496144538E+03  0.00000000000E+00 0. -1.
         25    2    1    2    0    0  0.28822772870E+02 -0.14523791599E+02  0.81074685541E+02  0.15244235668E+03  0.12499549879E+03 0.  0.
          2    1    1    2  501    0 -0.22802922882E+02  0.41206450428E+02 -0.44755716027E+03  0.45002817307E+03  0.00000000000E+00 0. -1.
          1    1    1    2  502    0 -0.60198499879E+01 -0.26682658830E+02  0.38523186387E+03  0.38620175015E+03  0.00000000000E+00 0. -1.
         22    1    3    3    0    0 -0.21793625365E+02  0.12515823139E+02 -0.22694637216E+02  0.33862287190E+02  0.00000000000E+00 0.  1.
         22    1    3    3    0    0  0.50616398235E+02 -0.27039614738E+02  0.10376932276E+03  0.11858006949E+03  0.00000000000E+00 0.  1.
</event>
<event>
 7    1  0.6017574E-006  0.1166496E+03  0.7818608E-02  0.1415860E+00
          2   -1    0    0  502    0  0.00000000000E+00  0.00000000000E+00  0.96045594782E+03  0.96045594782E+03  0.00000000000E+00 0. -1.
          1   -1    0    0  501    0 -0.00000000000E+00 -0.00000000000E+00 -0.50930563009E+03  0.50930563009E+03  0.00000000000E+00 0. -1.
         25    2    1    2    0    0  0.15127862497E+02 -0.12572218635E+03  0.22988810746E+03  0.29070301415E+03  0.12499912047E+03 0.  0.
          2    1    1    2  501    0 -0.24574321372E+02  0.10678698839E+02 -0.47375949041E+03  0.47451658204E+03  0.00000000000E+00 0. -1.
          1    1    1    2  502    0  0.94464588751E+01  0.11504348751E+03  0.69502170068E+03  0.70454198173E+03  0.00000000000E+00 0. -1.
         22    1    3    3    0    0 -0.54061060075E+02 -0.59377606275E+02  0.84606836303E+02  0.11664739642E+03  0.00000000000E+00 0.  1.
         22    1    3    3    0    0  0.69188922572E+02 -0.66344580070E+02  0.14528127116E+03  0.17405561772E+03  0.00000000000E+00 0.  1.
</event>
<event>
 7    1  0.6017574E-006  0.6350069E+02  0.7818608E-02  0.1494706E+00
          2   -1    0    0  502    0  0.00000000000E+00  0.00000000000E+00  0.66224294862E+03  0.66224294862E+03  0.00000000000E+00 0. -1.
          1   -1    0    0  501    0 -0.00000000000E+00 -0.00000000000E+00 -0.22723831543E+03  0.22723831543E+03  0.00000000000E+00 0. -1.
         25    2    1    2    0    0  0.84309350697E+02 -0.67287627655E+01  0.39098478376E+03  0.41909784673E+03  0.12498224328E+03 0.  0.
          2    1    1    2  501    0 -0.60048343000E+02  0.19975112089E+02 -0.20771205458E+03  0.21713844943E+03  0.00000000000E+00 0. -1.
          1    1    1    2  502    0 -0.24261007697E+02 -0.13246349323E+02  0.25173190402E+03  0.25324496790E+03  0.00000000000E+00 0. -1.
         22    1    3    3    0    0 -0.19853715782E+02  0.24121501125E+02  0.17008530597E+03  0.17293070332E+03  0.00000000000E+00 0. -1.
         22    1    3    3    0    0  0.10416306648E+03 -0.30850263890E+02  0.22089947779E+03  0.24616714340E+03  0.00000000000E+00 0. -1.
</event>
<event>
 7    1  0.6017574E-006  0.4066241E+02  0.7818608E-02  0.1612103E+00
          2   -1    0    0  502    0  0.00000000000E+00  0.00000000000E+00  0.10528457850E+04  0.10528457850E+04  0.00000000000E+00 0. -1.
          1   -1    0    0  501    0 -0.00000000000E+00 -0.00000000000E+00 -0.60791074459E+02  0.60791074459E+02  0.00000000000E+00 0. -1.
         25    2    1    2    0    0  0.91423525037E+01 -0.20547180171E+02  0.46609414687E+03  0.48308824171E+03  0.12499890526E+03 0.  0.
          2    1    1    2  501    0  0.13483175521E+02 -0.15248795297E+02 -0.49505384135E+02  0.53526674084E+02  0.00000000000E+00 0. -1.
          1    1    1    2  502    0 -0.22625528024E+02  0.35795975468E+02  0.57546594786E+03  0.57702194371E+03  0.00000000000E+00 0. -1.
         22    1    3    3    0    0 -0.13568490392E+00 -0.22694616133E+01 -0.81195019859E+01  0.84317957106E+01  0.00000000000E+00 0. -1.
         22    1    3    3    0    0  0.92780374076E+01 -0.18277718558E+02  0.47421364885E+03  0.47465644600E+03  0.00000000000E+00 0. -1.
</event>
<event>
 7    1  0.6017574E-006  0.2984586E+03  0.7818608E-02  0.1126388E+00
          2   -1    0    0  502    0  0.00000000000E+00  0.00000000000E+00  0.72422657311E+03  0.72422657311E+03  0.00000000000E+00 0. -1.
          1   -1    0    0  501    0 -0.00000000000E+00 -0.00000000000E+00 -0.17079427721E+04  0.17079427721E+04  0.00000000000E+00 0. -1.
         25    2    1    2    0    0 -0.25461458941E+03  0.89136270322E+02 -0.60699063304E+03  0.67589691462E+03  0.12500058708E+03 0.  0.
          2    1    1    2  501    0  0.80756138320E+02  0.15839903404E+03 -0.10253130420E+04  0.10406145501E+04  0.00000000000E+00 0. -1.
          1    1    1    2  502    0  0.17385845109E+03 -0.24753530437E+03  0.64858747600E+03  0.71565788051E+03  0.00000000000E+00 0. -1.
         22    1    3    3    0    0 -0.81038725655E+02  0.18799754841E+02 -0.33827805701E+03  0.34835721565E+03  0.00000000000E+00 0.  1.
         22    1    3    3    0    0 -0.17357586376E+03  0.70336515481E+02 -0.26871257603E+03  0.32753969897E+03  0.00000000000E+00 0.  1.
</event>
<event>
 7    1  0.6017574E-006  0.9607121E+02  0.7818608E-02  0.1386098E+00
          2   -1    0    0  502    0  0.00000000000E+00  0.00000000000E+00  0.97906917550E+03  0.97906917550E+03  0.00000000000E+00 0. -1.
          1   -1    0    0  501    0 -0.00000000000E+00 -0.00000000000E+00 -0.66852875669E+03  0.66852875669E+03  0.00000000000E+00 0. -1.
         25    2    1    2    0    0 -0.37474487883E+02  0.56862112572E+02  0.41741465919E+03  0.44101859277E+03  0.12499905747E+03 0.  0.
          2    1    1    2  501    0 -0.16690734220E+02  0.37630601605E+02 -0.65067634145E+03  0.65197725735E+03  0.00000000000E+00 0. -1.
          1    1    1    2  502    0  0.54165222103E+02 -0.94492714177E+02  0.54380210106E+03  0.55460208207E+03  0.00000000000E+00 0. -1.
         22    1    3    3    0    0  0.35565660208E+02 -0.16016187942E+02  0.12406550151E+03  0.13005261676E+03  0.00000000000E+00 0. -1.
         22    1    3    3    0    0 -0.73040148091E+02  0.72878300513E+02  0.29334915768E+03  0.31096597600E+03  0.00000000000E+00 0. -1.
</event>
<event>
 7    1  0.6017574E-006  0.5695771E+02  0.7818608E-02  0.1423833E+00
          2   -1    0    0  502    0  0.00000000000E+00  0.00000000000E+00  0.60731270569E+03  0.60731270569E+03  0.00000000000E+00 0. -1.
          1   -1    0    0  501    0 -0.00000000000E+00 -0.00000000000E+00 -0.39716125329E+03  0.39716125329E+03  0.00000000000E+00 0. -1.
         25    2    1    2    0    0 -0.37649106638E+02  0.14677564377E+02 -0.21010471364E+03  0.24779453355E+03  0.12500101614E+03 0.  0.
          2    1    1    2  501    0  0.44154455233E+02  0.41907425319E+02 -0.16126661265E+03  0.17237392080E+03  0.00000000000E+00 0. -1.
          1    1    1    2  502    0 -0.65053485943E+01 -0.56584989696E+02  0.58152277869E+03  0.58430550464E+03  0.00000000000E+00 0. -1.
         22    1    3    3    0    0 -0.42240552272E+02  0.59311653700E+02 -0.17887133721E+03  0.19312454996E+03  0.00000000000E+00 0. -1.
         22    1    3    3    0    0  0.45914456334E+01 -0.44634089322E+02 -0.31233376424E+02  0.54669983588E+02  0.00000000000E+00 0. -1.
</event>
<event>
 7    1  0.6017574E-006  0.5498695E+02  0.7818608E-02  0.1485339E+00
          2   -1    0    0  502    0  0.00000000000E+00  0.00000000000E+00  0.60126150614E+02  0.60126150614E+02  0.00000000000E+00 0. -1.
          1   -1    0    0  501    0 -0.00000000000E+00 -0.00000000000E+00 -0.43268797364E+03  0.43268797364E+03  0.00000000000E+00 0. -1.
         25    2    1    2    0    0 -0.76071149406E+02 -0.12363306049E+02 -0.17238053638E+03  0.22645229173E+03  0.12500367994E+03 0.  0.
          2    1    1    2  501    0  0.45422346527E+02  0.27252428402E+02 -0.22044359719E+03  0.22671846850E+03  0.00000000000E+00 0. -1.
          1    1    1    2  502    0  0.30648802878E+02 -0.14889122353E+02  0.20262310546E+02  0.39643364022E+02  0.00000000000E+00 0. -1.
         22    1    3    3    0    0 -0.41589710667E+02  0.44309636966E+01  0.75312786214E+01  0.42497736767E+02  0.00000000000E+00 0. -1.
         22    1    3    3    0    0 -0.34481438738E+02 -0.16794269746E+02 -0.17991181500E+03  0.18395455496E+03  0.00000000000E+00 0. -1.
</event>
<event>
 7    1  0.6017574E-006  0.8629318E+02  0.7818608E-02  0.1328350E+00
          2   -1    0    0  502    0  0.00000000000E+00  0.00000000000E+00  0.71465337073E+03  0.71465337073E+03  0.00000000000E+00 0. -1.
          1   -1    0    0  501    0 -0.00000000000E+00 -0.00000000000E+00 -0.77036105184E+03  0.77036105184E+03  0.00000000000E+00 0. -1.
         25    2    1    2    0    0  0.10885275129E+03 -0.91572772336E+01  0.14905280022E+03  0.22310394713E+03  0.12500342708E+03 0.  0.
          2    1    1    2  501    0 -0.50543696857E+02 -0.54902941164E+02 -0.72786583660E+03  0.73168140220E+03  0.00000000000E+00 0. -1.
          1    1    1    2  502    0 -0.58309054437E+02  0.64060218398E+02  0.52310535526E+03  0.53022907324E+03  0.00000000000E+00 0. -1.
         22    1    3    3    0    0  0.68060759760E+02  0.55384080347E+02  0.62756773214E+02  0.10787991453E+03  0.00000000000E+00 0. -1.
         22    1    3    3    0    0  0.40791991533E+02 -0.64541357580E+02  0.86296027009E+02  0.11522403260E+03  0.00000000000E+00 0. -1.
</event>
<event>
 7    1  0.6017574E-006  0.1215925E+03  0.7818608E-02  0.1270841E+00
          2   -1    0    0  502    0  0.00000000000E+00  0.00000000000E+00  0.42866635712E+03  0.42866635712E+03  0.00000000000E+00 0. -1.
          1   -1    0    0  501    0 -0.00000000000E+00 -0.00000000000E+00 -0.14934646261E+04  0.14934646261E+04  0.00000000000E+00 0. -1.
         25    2    1    2    0    0 -0.27555039079E+02 -0.13080998739E+03  0.20867770424E+03  0.27756224918E+03  0.12499553969E+03 0.  0.
          2    1    1    2  501    0 -0.72428398840E+02  0.53494899673E+02 -0.14359240056E+04  0.14387443578E+04  0.00000000000E+00 0. -1.
          1    1    1    2  502    0  0.99983437920E+02  0.77315087721E+02  0.16244803236E+03  0.20582437626E+03  0.00000000000E+00 0. -1.
         22    1    3    3    0    0 -0.28407765201E+02 -0.13190603051E+03  0.97728868518E+02  0.16660472307E+03  0.00000000000E+00 0.  1.
         22    1    3    3    0    0  0.85272612119E+00  0.10960431142E+01  0.11094883572E+03  0.11095752611E+03  0.00000000000E+00 0.  1.
</event>
<event>
 7    1  0.6017574E-006  0.2293559E+03  0.7818608E-02  0.1145227E+00
          2   -1    0    0  502    0  0.00000000000E+00  0.00000000000E+00  0.82685962765E+03  0.82685962765E+03  0.00000000000E+00 0. -1.
          1   -1    0    0  501    0 -0.00000000000E+00 -0.00000000000E+00 -0.18833552474E+04  0.18833552474E+04  0.00000000000E+00 0. -1.
         25    2    1    2    0    0 -0.20690375569E+03  0.30922646470E+03  0.67298543442E+02  0.39822454107E+03  0.12499408216E+03 0.  0.
          2    1    1    2  501    0  0.15357928995E+03 -0.10137593820E+03 -0.16933673601E+04  0.17033369295E+04  0.00000000000E+00 0. -1.
          1    1    1    2  502    0  0.53324465735E+02 -0.20785052650E+03  0.56957319697E+03  0.60865340443E+03  0.00000000000E+00 0. -1.
         22    1    3    3    0    0 -0.82746328476E+02  0.49385600133E+02 -0.17672850873E+02  0.97970516151E+02  0.00000000000E+00 0. -1.
         22    1    3    3    0    0 -0.12415742721E+03  0.25984086456E+03  0.84971394315E+02  0.30025402492E+03  0.00000000000E+00 0. -1.
</event>
<event>
 7    1  0.6017574E-006  0.4547135E+02  0.7818608E-02  0.1484953E+00
          2   -1    0    0  502    0  0.00000000000E+00  0.00000000000E+00  0.85932986516E+03  0.85932986516E+03  0.00000000000E+00 0. -1.
          1   -1    0    0  501    0 -0.00000000000E+00 -0.00000000000E+00 -0.36187286542E+03  0.36187286542E+03  0.00000000000E+00 0. -1.
         25    2    1    2    0    0 -0.74929469796E+02  0.30904626435E+02  0.17558793651E+03  0.23027587779E+03  0.12500534014E+03 0.  0.
          2    1    1    2  501    0  0.45182561161E+02 -0.22315421439E+01 -0.33234489265E+03  0.33540955753E+03  0.00000000000E+00 0. -1.
          1    1    1    2  502    0  0.29746908635E+02 -0.28673084291E+02  0.65421395587E+03  0.65551729526E+03  0.00000000000E+00 0. -1.
         22    1    3    3    0    0 -0.72715985703E+02  0.54320913916E+02  0.18410283596E+03  0.20526137112E+03  0.00000000000E+00 0.  1.
         22    1    3    3    0    0 -0.22134840929E+01 -0.23416287481E+02 -0.85148994499E+01  0.25014506669E+02  0.00000000000E+00 0.  1.
</event>
<event>
 7    1  0.6017574E-006  0.1492744E+03  0.7818608E-02  0.1270619E+00
          2   -1    0    0  502    0  0.00000000000E+00  0.00000000000E+00  0.14510940390E+04  0.14510940390E+04  0.00000000000E+00 0. -1.
          1   -1    0    0  501    0 -0.00000000000E+00 -0.00000000000E+00 -0.14339749287E+03  0.14339749287E+03  0.00000000000E+00 0. -1.
         25    2    1    2    0    0 -0.10567038994E+03  0.28500472743E+02  0.60723252560E+02  0.17689095624E+03  0.12499835496E+03 0.  0.
          2    1    1    2  501    0  0.17328878880E+03 -0.57315233637E+02  0.14673004334E+02  0.18311017827E+03  0.00000000000E+00 0. -1.
          1    1    1    2  502    0 -0.67618398856E+02  0.28814760894E+02  0.12323002892E+04  0.12344903973E+04  0.00000000000E+00 0. -1.
         22    1    3    3    0    0  0.23707369453E+02  0.16999852896E+01 -0.11402578447E+02  0.26361868515E+02  0.00000000000E+00 0.  1.
         22    1    3    3    0    0 -0.12937775939E+03  0.26800487453E+02  0.72125831007E+02  0.15052908773E+03  0.00000000000E+00 0.  1.
</event>
<event>
 7    1  0.6017574E-006  0.7825482E+02  0.7818608E-02  0.1338717E+00
          2   -1    0    0  502    0  0.00000000000E+00  0.00000000000E+00  0.18285290477E+04  0.18285290477E+04  0.00000000000E+00 0. -1.
          1   -1    0    0  501    0 -0.00000000000E+00 -0.00000000000E+00 -0.27969095642E+02  0.27969095642E+02  0.00000000000E+00 0. -1.
         25    2    1    2    0    0 -0.99456347011E+02  0.44157708217E+02  0.77598037371E+03  0.79348085213E+03  0.12499941658E+03 0.  0.
          2    1    1    2  501    0  0.29631525976E+02 -0.71958598221E+02  0.67572338078E+02  0.10306351470E+03  0.00000000000E+00 0. -1.
          1    1    1    2  502    0  0.69824821036E+02  0.27800890004E+02  0.95700724027E+03  0.95995377652E+03  0.00000000000E+00 0. -1.
         22    1    3    3    0    0 -0.67529934675E+02  0.28012828416E+02  0.15400535281E+03  0.17047773851E+03  0.00000000000E+00 0. -1.
         22    1    3    3    0    0 -0.31926412336E+02  0.16144879800E+02  0.62197502090E+03  0.62300311362E+03  0.00000000000E+00 0. -1.
</event>
<event>
 7    1  0.6017574E-006  0.1203163E+03  0.7818608E-02  0.1298531E+00
          2   -1    0    0  502    0  0.00000000000E+00  0.00000000000E+00  0.57320559697E+03  0.57320559697E+03  0.00000000000E+00 0. -1.
          1   -1    0    0  501    0 -0.00000000000E+00 -0.00000000000E+00 -0.13740182224E+04  0.13740182224E+04  0.00000000000E+00 0. -1.
         25    2    1    2    0    0 -0.10172207359E+03  0.89474320716E+02 -0.31812463555E+03  0.36767023748E+03  0.12500034186E+03 0.  0.
          2    1    1    2  501    0  0.36452113407E+02 -0.11492129199E+03 -0.10253371797E+04  0.10324010810E+04  0.00000000000E+00 0. -1.
          1    1    1    2  502    0  0.65269960179E+02  0.25446971274E+02  0.54264918981E+03  0.54715250091E+03  0.00000000000E+00 0. -1.
         22    1    3    3    0    0 -0.79972132122E+02  0.30660675243E+02 -0.28325516461E+03  0.29592077859E+03  0.00000000000E+00 0.  1.
         22    1    3    3    0    0 -0.21749941463E+02  0.58813645473E+02 -0.34869470933E+02  0.71749458887E+02  0.00000000000E+00 0.  1.
</event>
<event>
 7    1  0.6017574E-006  0.4111549E+02  0.7818608E-02  0.1544821E+00
          2   -1    0    0  502    0  0.00000000000E+00  0.00000000000E+00  0.13458148911E+04  0.13458148911E+04  0.00000000000E+00 0. -1.
          1   -1    0    0  501    0 -0.00000000000E+00 -0.00000000000E+00 -0.20690200200E+03  0.20690200200E+03  0.00000000000E+00 0. -1.
         25    2    1    2    0    0 -0.36639050372E+02 -0.23581536597E+02 -0.13290214934E+02  0.13304314700E+03  0.12500136107E+03 0.  0.
          2    1    1    2  501    0  0.25908115088E+02 -0.16149747027E+02 -0.13165895729E+03  0.13515223192E+03  0.00000000000E+00 0. -1.
          1    1    1    2  502    0  0.10730935284E+02  0.39731283623E+02  0.12838620614E+04  0.12845215142E+04  0.00000000000E+00 0. -1.
         22    1    3    3    0    0 -0.68977316289E+01  0.48877703274E+02 -0.22367667859E+02  0.54193368085E+02  0.00000000000E+00 0. -1.
         22    1    3    3    0    0 -0.29741318743E+02 -0.72459239871E+02  0.90774529251E+01  0.78849778914E+02  0.00000000000E+00 0. -1.
</event>
<event>
 7    1  0.6017574E-006  0.1119085E+03  0.7818608E-02  0.1300311E+00
          2   -1    0    0  502    0  0.00000000000E+00  0.00000000000E+00  0.22276888447E+04  0.22276888447E+04  0.00000000000E+00 0. -1.
          1   -1    0    0  501    0 -0.00000000000E+00 -0.00000000000E+00 -0.17092189721E+04  0.17092189721E+04  0.00000000000E+00 0. -1.
         25    2    1    2    0    0 -0.19915589138E+02  0.81421426741E+02 -0.10060649481E+04  0.10172594162E+04  0.12499584221E+03 0.  0.
          2    1    1    2  501    0  0.18330036509E+02 -0.15549590820E+03 -0.68814289786E+03  0.70573055451E+03  0.00000000000E+00 0. -1.
          1    1    1    2  502    0  0.15855526288E+01  0.74074481456E+02  0.22126777186E+04  0.22139178460E+04  0.00000000000E+00 0. -1.
         22    1    3    3    0    0 -0.69066369810E+02  0.28445019496E+02 -0.40131817845E+03  0.40821019454E+03  0.00000000000E+00 0.  1.
         22    1    3    3    0    0  0.49150780672E+02  0.52976407246E+02 -0.60474676966E+03  0.60904922164E+03  0.00000000000E+00 0.  1.
</event>
<event>
 7    1  0.6017574E-006  0.1412022E+03  0.7818608E-02  0.1415703E+00
          2   -1    0    0  502    0  0.00000000000E+00  0.00000000000E+00  0.33659827339E+03  0.33659827339E+03  0.00000000000E+00 0. -1.
          1   -1    0    0  501    0 -0.00000000000E+00 -0.00000000000E+00 -0.40625778035E+03  0.40625778035E+03  0.00000000000E+00 0. -1.
         25    2    1    2    0    0  0.12126644615E+03  0.93968220452E+02  0.14376751593E+03  0.24459691294E+03  0.12499189480E+03 0.  0.
          2    1    1    2  501    0 -0.21642429539E+02 -0.47713954304E+01 -0.32399218033E+03  0.32474927850E+03  0.00000000000E+00 0. -1.
          1    1    1    2  502    0 -0.99624016611E+02 -0.89196825021E+02  0.11056515744E+03  0.17350986231E+03  0.00000000000E+00 0. -1.
         22    1    3    3    0    0  0.76052659465E+02  0.12240059170E+03  0.11141864420E+03  0.18215385292E+03  0.00000000000E+00 0. -1.
         22    1    3    3    0    0  0.45213786685E+02 -0.28432371250E+02  0.32348871735E+02  0.62443060013E+02  0.00000000000E+00 0. -1.
</event>
<event>
 7    1  0.6017574E-006  0.6358624E+02  0.7818608E-02  0.1459309E+00
          2   -1    0    0  502    0  0.00000000000E+00  0.00000000000E+00  0.82180540607E+03  0.82180540607E+03  0.00000000000E+00 0. -1.
          1   -1    0    0  501    0 -0.00000000000E+00 -0.00000000000E+00 -0.16510053491E+03  0.16510053491E+03  0.00000000000E+00 0. -1.
         25    2    1    2    0    0  0.66441133483E+01  0.88238304880E+02  0.27142968168E+03  0.31165707223E+03  0.12500366349E+03 0.  0.
          2    1    1    2  501    0  0.16898285548E+02 -0.31201920293E+02 -0.14098590257E+03  0.14538272459E+03  0.00000000000E+00 0. -1.
          1    1    1    2  502    0 -0.23542398896E+02 -0.57036384587E+02  0.52626109205E+03  0.52986614416E+03  0.00000000000E+00 0. -1.
         22    1    3    3    0    0 -0.33303276083E+02  0.18473501810E+02  0.11806394343E+02  0.39871912600E+02  0.00000000000E+00 0.  1.
         22    1    3    3    0    0  0.39947389432E+02  0.69764803069E+02  0.25962328733E+03  0.27178515963E+03  0.00000000000E+00 0.  1.
</event>
<event>
 7    1  0.6017574E-006  0.8171601E+02  0.7818608E-02  0.1335553E+00
          2   -1    0    0  502    0  0.00000000000E+00  0.00000000000E+00  0.22613272441E+04  0.22613272441E+04  0.00000000000E+00 0. -1.
          1   -1    0    0  501    0 -0.00000000000E+00 -0.00000000000E+00 -0.26389847932E+03  0.26389847932E+03  0.00000000000E+00 0. -1.
         25    2    1    2    0    0  0.40875398324E+02  0.79058330415E+02  0.55654968486E+03  0.57731553478E+03  0.12499862870E+03 0.  0.
          2    1    1    2  501    0  0.41231930604E+02 -0.61426436193E+02 -0.24705195564E+03  0.25789134912E+03  0.00000000000E+00 0. -1.
          1    1    1    2  502    0 -0.82107328928E+02 -0.17631894221E+02  0.16879310355E+04  0.16900188395E+04  0.00000000000E+00 0. -1.
         22    1    3    3    0    0  0.14652852431E+02  0.23863402613E+02  0.13949185452E+02  0.31284945955E+02  0.00000000000E+00 0.  1.
         22    1    3    3    0    0  0.26222545893E+02  0.55194927802E+02  0.54260049941E+03  0.54603058882E+03  0.00000000000E+00 0.  1.
</event>
<event>
 7    1  0.6017574E-006  0.4395247E+02  0.7818608E-02  0.1599708E+00
          2   -1    0    0  502    0  0.00000000000E+00  0.00000000000E+00  0.34086816150E+03  0.34086816150E+03  0.00000000000E+00 0. -1.
          1   -1    0    0  501    0 -0.00000000000E+00 -0.00000000000E+00 -0.28931763427E+03  0.28931763427E+03  0.00000000000E+00 0. -1.
         25    2    1    2    0    0  0.39298755052E+02  0.85765201422E+00 -0.14967969364E+03  0.19893257510E+03  0.12500012413E+03 0.  0.
          2    1    1    2  501    0  0.21991947696E+00 -0.20276683457E+02 -0.11256847477E+03  0.11438030324E+03  0.00000000000E+00 0. -1.
          1    1    1    2  502    0 -0.39518674529E+02  0.19419031443E+02  0.31379869564E+03  0.31687291744E+03  0.00000000000E+00 0. -1.
         22    1    3    3    0    0 -0.31745170958E+02  0.39089816462E+02 -0.57799233051E+02  0.76658469665E+02  0.00000000000E+00 0. -1.
         22    1    3    3    0    0  0.71043926010E+02 -0.38232164448E+02 -0.91880460588E+02  0.12227410543E+03  0.00000000000E+00 0. -1.
</event>
<event>
 7    1  0.6017574E-006  0.1340658E+03  0.7818608E-02  0.1282414E+00
          2   -1    0    0  502    0  0.00000000000E+00  0.00000000000E+00  0.41683703817E+03  0.41683703817E+03  0.00000000000E+00 0. -1.
          1   -1    0    0  501    0 -0.00000000000E+00 -0.00000000000E+00 -0.54648856903E+03  0.54648856903E+03  0.00000000000E+00 0. -1.
         25    2    1    2    0    0 -0.70118723891E+02 -0.13908792914E+03  0.26042242398E+03  0.32818741872E+03  0.12500022169E+03 0.  0.
          2    1    1    2  501    0  0.70986503517E+02  0.17472108025E+02 -0.47895550621E+03  0.48450256467E+03  0.00000000000E+00 0. -1.
          1    1    1    2  502    0 -0.86777962622E+00  0.12161582112E+03  0.88881551375E+02  0.15063562381E+03  0.00000000000E+00 0. -1.
         22    1    3    3    0    0 -0.55833455191E+02 -0.15523273847E+03  0.17671802893E+03  0.24175160715E+03  0.00000000000E+00 0.  1.
         22    1    3    3    0    0 -0.14285268700E+02  0.16144809334E+02  0.83704395050E+02  0.86435811565E+02  0.00000000000E+00 0.  1.
</event>
<event>
 7    1  0.6017574E-006  0.8195292E+02  0.7818608E-02  0.1374976E+00
          2   -1    0    0  502    0  0.00000000000E+00  0.00000000000E+00  0.38790395702E+03  0.38790395702E+03  0.00000000000E+00 0. -1.
          1   -1    0    0  501    0 -0.00000000000E+00 -0.00000000000E+00 -0.10773782330E+03  0.10773782330E+03  0.00000000000E+00 0. -1.
         25    2    1    2    0    0 -0.11640058655E+02 -0.57814986468E+02  0.18291199040E+03  0.22925641501E+03  0.12499457575E+03 0.  0.
          2    1    1    2  501    0 -0.48749659849E+02 -0.20373669488E+02 -0.60453437423E+02  0.80288441510E+02  0.00000000000E+00 0. -1.
          1    1    1    2  502    0  0.60389718504E+02  0.78188655956E+02  0.15770758074E+03  0.18609692379E+03  0.00000000000E+00 0. -1.
         22    1    3    3    0    0  0.48394036758E+02  0.60649110484E+01  0.48485930800E+02  0.68772461242E+02  0.00000000000E+00 0. -1.
         22    1    3    3    0    0 -0.60034095414E+02 -0.63879897516E+02  0.13442605960E+03  0.16048395377E+03  0.00000000000E+00 0. -1.
</event>
<event>
 7    1  0.6017574E-006  0.6486913E+02  0.7818608E-02  0.1509424E+00
          2   -1    0    0  502    0  0.00000000000E+00  0.00000000000E+00  0.34584968962E+03  0.34584968962E+03  0.00000000000E+00 0. -1.
          1   -1    0    0  501    0 -0.00000000000E+00 -0.00000000000E+00 -0.47933368682E+03  0.47933368682E+03  0.00000000000E+00 0. -1.
         25    2    1    2    0    0 -0.77901713698E+02  0.78718290511E+01 -0.23431489180E+03  0.27688157021E+03  0.12501716967E+03 0.  0.
          2    1    1    2  501    0  0.14282377639E+02 -0.19860558554E+02 -0.21982193586E+03  0.22117891306E+03  0.00000000000E+00 0. -1.
          1    1    1    2  502    0  0.63619336059E+02  0.11988729503E+02  0.32065283046E+03  0.32712289317E+03  0.00000000000E+00 0. -1.
         22    1    3    3    0    0 -0.50154299421E+02  0.54399857051E+02 -0.19875166889E+03  0.21207787269E+03  0.00000000000E+00 0.  1.
         22    1    3    3    0    0 -0.27747414277E+02 -0.46528028000E+02 -0.35563222915E+02  0.64803697523E+02  0.00000000000E+00 0.  1.
</event>
<event>
 7    1  0.6017574E-006  0.1143067E+03  0.7818608E-02  0.1305862E+00
          2   -1    0    0  502    0  0.00000000000E+00  0.00000000000E+00  0.10792685807E+04  0.10792685807E+04  0.00000000000E+00 0. -1.
          1   -1    0    0  501    0 -0.00000000000E+00 -0.00000000000E+00 -0.31517186807E+03  0.31517186807E+03  0.00000000000E+00 0. -1.
         25    2    1    2    0    0  0.26205538550E+02  0.38083563844E+01  0.61470428606E+03  0.62783654960E+03  0.12496455452E+03 0.  0.
          2    1    1    2  501    0  0.11429012271E+03  0.19492645536E+01 -0.28656987746E+03  0.30852605473E+03  0.00000000000E+00 0. -1.
          1    1    1    2  502    0 -0.14049566126E+03 -0.57576209380E+01  0.43596230399E+03  0.45807784441E+03  0.00000000000E+00 0. -1.
         22    1    3    3    0    0  0.55416275253E+01  0.56767459999E+02  0.44994456000E+03  0.45354532433E+03  0.00000000000E+00 0. -1.
         22    1    3    3    0    0  0.20663911024E+02 -0.52959103614E+02  0.16475972606E+03  0.17429122527E+03  0.00000000000E+00 0. -1.
</event>
<event>
 7    1  0.6017574E-006  0.2340916E+03  0.7818608E-02  0.1325656E+00
          2   -1    0    0  502    0  0.00000000000E+00  0.00000000000E+00  0.19430509574E+03  0.19430509574E+03  0.00000000000E+00 0. -1.
          1   -1    0    0  501    0 -0.00000000000E+00 -0.00000000000E+00 -0.10215824427E+04  0.10215824427E+04  0.00000000000E+00 0. -1.
         25    2    1    2    0    0 -0.25153299643E+03  0.48458677285E+02 -0.45227393917E+03  0.53459825966E+03  0.12500596580E+03 0.  0.
          2    1    1    2  501    0  0.27659600729E+02  0.53492763546E+01 -0.44089766074E+03  0.44179680343E+03  0.00000000000E+00 0. -1.
          1    1    1    2  502    0  0.22387339570E+03 -0.53807953640E+02  0.65894252947E+02  0.23949247535E+03  0.00000000000E+00 0. -1.
         22    1    3    3    0    0 -0.26177103576E+03  0.32389237223E+02 -0.40173912098E+03  0.48059073980E+03  0.00000000000E+00 0. -1.
         22    1    3    3    0    0  0.10238039326E+02  0.16069440062E+02 -0.50534818181E+02  0.54007519863E+02  0.00000000000E+00 0. -1.
</event>
<event>
 7    1  0.6017574E-006  0.7993671E+02  0.7818608E-02  0.1481166E+00
          2   -1    0    0  502    0  0.00000000000E+00  0.00000000000E+00  0.17792710812E+04  0.17792710812E+04  0.00000000000E+00 0. -1.
          1   -1    0    0  501    0 -0.00000000000E+00 -0.00000000000E+00 -0.52822979878E+03  0.52822979878E+03  0.00000000000E+00 0. -1.
         25    2    1    2    0    0 -0.34433506777E+02 -0.46424499147E+02  0.43774362589E+02  0.14448949496E+03  0.12498047377E+03 0.  0.
          2    1    1    2  501    0  0.54901842168E+02  0.59216210112E+02 -0.47437365238E+03  0.48119760379E+03  0.00000000000E+00 0. -1.
          1    1    1    2  502    0 -0.20468335391E+02 -0.12791710965E+02  0.16816405722E+04  0.16818137812E+04  0.00000000000E+00 0. -1.
         22    1    3    3    0    0  0.69147362583E+01 -0.35621575479E+02 -0.37800293151E+02  0.52398209697E+02  0.00000000000E+00 0. -1.
         22    1    3    3    0    0 -0.41348243035E+02 -0.10802923668E+02  0.81574655740E+02  0.92091285261E+02  0.00000000000E+00 0. -1.
</event>
<event>
 7    1  0.6017574E-006  0.9079824E+02  0.7818608E-02  0.1382393E+00
          2   -1    0    0  502    0  0.00000000000E+00  0.00000000000E+00  0.55983356546E+03  0.55983356546E+03  0.00000000000E+00 0. -1.
          1   -1    0    0  501    0 -0.00000000000E+00 -0.00000000000E+00 -0.56251057452E+03  0.56251057452E+03  0.00000000000E+00 0. -1.
         25    2    1    2    0    0  0.78994598670E+02 -0.92536875582E+01 -0.75122960236E+02  0.16611453106E+03  0.12499920368E+03 0.  0.
          2    1    1    2  501    0  0.54392141521E+01  0.44553276621E+02 -0.43666150390E+03  0.43896224039E+03  0.00000000000E+00 0. -1.
          1    1    1    2  502    0 -0.84433812822E+02 -0.35299589063E+02  0.50910745507E+03  0.51726736853E+03  0.00000000000E+00 0. -1.
         22    1    3    3    0    0  0.19202198488E+02  0.55397093824E+02 -0.41592470835E+02  0.71885297948E+02  0.00000000000E+00 0. -1.
         22    1    3    3    0    0  0.59792400182E+02 -0.64650781382E+02 -0.33530489401E+02  0.94229233109E+02  0.00000000000E+00 0. -1.
</event>
<event>
 7    1  0.6017574E-006  0.1007354E+03  0.7818608E-02  0.1381128E+00
          2   -1    0    0  502    0  0.00000000000E+00  0.00000000000E+00  0.15962125728E+04  0.15962125728E+04  0.00000000000E+00 0. -1.
          1   -1    0    0  501    0 -0.00000000000E+00 -0.00000000000E+00 -0.43103973105E+03  0.43103973105E+03  0.00000000000E+00 0. -1.
         25    2    1    2    0    0 -0.12969036648E+03  0.40617368619E+02  0.53324333337E+03  0.56430761002E+03  0.12500105737E+03 0.  0.
          2    1    1    2  501    0  0.40478523809E+02 -0.56800848137E+01 -0.41230397081E+03  0.41432516047E+03  0.00000000000E+00 0. -1.
          1    1    1    2  502    0  0.89211842676E+02 -0.34937283806E+02  0.10442334792E+04  0.10486195334E+04  0.00000000000E+00 0. -1.
         22    1    3    3    0    0  0.16701315046E+02 -0.59989510514E+01  0.13400211390E+02  0.22237063729E+02  0.00000000000E+00 0. -1.
         22    1    3    3    0    0 -0.14639168153E+03  0.46616319671E+02  0.51984312198E+03  0.54207054629E+03  0.00000000000E+00 0. -1.
</event>
<event>
 7    1  0.6017574E-006  0.2010190E+03  0.7818608E-02  0.1254745E+00
          2   -1    0    0  502    0  0.00000000000E+00  0.00000000000E+00  0.12106933297E+04  0.12106933297E+04  0.00000000000E+00 0. -1.
          1   -1    0    0  501    0 -0.00000000000E+00 -0.00000000000E+00 -0.99342577587E+03  0.99342577587E+03  0.00000000000E+00 0. -1.
         25    2    1    2    0    0  0.11579175517E+03 -0.12302234044E+03 -0.54688124520E+02  0.21715514152E+03  0.12499335067E+03 0.  0.
          2    1    1    2  501    0 -0.95485870599E+02  0.18345590977E+03 -0.84411079482E+03  0.86907804957E+03  0.00000000000E+00 0. -1.
          1    1    1    2  502    0 -0.20305884570E+02 -0.60433569328E+02  0.11160664732E+04  0.11178859145E+04  0.00000000000E+00 0. -1.
         22    1    3    3    0    0  0.10498548861E+03 -0.32600125683E+02 -0.61269847523E+02  0.12585195759E+03  0.00000000000E+00 0.  1.
         22    1    3    3    0    0  0.10806266562E+02 -0.90422214756E+02  0.65817230030E+01  0.91303183931E+02  0.00000000000E+00 0.  1.
</event>
<event>
 7    1  0.6017574E-006  0.5334709E+02  0.7818608E-02  0.1433925E+00
          2   -1    0    0  502    0  0.00000000000E+00  0.00000000000E+00  0.58041629076E+03  0.58041629076E+03  0.00000000000E+00 0. -1.
          1   -1    0    0  501    0 -0.00000000000E+00 -0.00000000000E+00 -0.44086777106E+03  0.44086777106E+03  0.00000000000E+00 0. -1.
         25    2    1    2    0    0 -0.11788830918E+02  0.33542770504E+02 -0.54482389431E+02  0.14092338460E+03  0.12500790208E+03 0.  0.
          2    1    1    2  501    0  0.54922939366E+02 -0.62591651267E+01 -0.33971348605E+03  0.34418157856E+03  0.00000000000E+00 0. -1.
          1    1    1    2  502    0 -0.43134108447E+02 -0.27283605377E+02  0.53374439519E+03  0.53617909865E+03  0.00000000000E+00 0. -1.
         22    1    3    3    0    0  0.19136278269E+02 -0.38963443216E+02 -0.43292395074E+02  0.61307246917E+02  0.00000000000E+00 0.  1.
         22    1    3    3    0    0 -0.30925109187E+02  0.72506213720E+02 -0.11189994357E+02  0.79616137686E+02  0.00000000000E+00 0.  1.
</event>
<event>
 7    1  0.6017574E-006  0.1539479E+03  0.7818608E-02  0.1285105E+00
          2   -1    0    0  502    0  0.00000000000E+00  0.00000000000E+00  0.96653326899E+03  0.96653326899E+03  0.00000000000E+00 0. -1.
          1   -1    0    0  501    0 -0.00000000000E+00 -0.00000000000E+00 -0.44146130958E+03  0.44146130958E+03  0.00000000000E+00 0. -1.
         25    2    1    2    0    0 -0.29526352790E+01  0.21097954854E+03  0.10149875931E+03  0.26542088070E+03  0.12500063125E+03 0.  0.
          2    1    1    2  501    0  0.61791230666E+01 -0.14899963839E+03 -0.34272620941E+03  0.37376507116E+03  0.00000000000E+00 0. -1.
          1    1    1    2  502    0 -0.32264877876E+01 -0.61979910149E+02  0.76629940951E+03  0.76880862671E+03  0.00000000000E+00 0. -1.
         22    1    3    3    0    0 -0.87889671382E+01  0.13297351200E+03  0.12605113142E+03  0.18343415322E+03  0.00000000000E+00 0.  1.
         22    1    3    3    0    0  0.58363318592E+01  0.78006036537E+02 -0.24552372108E+02  0.81986727474E+02  0.00000000000E+00 0.  1.
</event>
<event>
 7    1  0.6017574E-006  0.1148959E+03  0.7818608E-02  0.1305202E+00
          2   -1    0    0  502    0  0.00000000000E+00  0.00000000000E+00  0.55944604485E+03  0.55944604485E+03  0.00000000000E+00 0. -1.
          1   -1    0    0  501    0 -0.00000000000E+00 -0.00000000000E+00 -0.42110583386E+03  0.42110583386E+03  0.00000000000E+00 0. -1.
         25    2    1    2    0    0  0.31334061942E+02 -0.15835549827E+03 -0.45020672821E+02  0.20906770299E+03  0.12499662468E+03 0.  0.
          2    1    1    2  501    0 -0.50480684091E+02  0.47035132575E+02 -0.28317986087E+03  0.29146429758E+03  0.00000000000E+00 0. -1.
          1    1    1    2  502    0  0.19146622149E+02  0.11132036570E+03  0.46654074469E+03  0.48001987814E+03  0.00000000000E+00 0. -1.
         22    1    3    3    0    0  0.25581275513E+02 -0.86500678389E+02 -0.87273155127E+02  0.12551244012E+03  0.00000000000E+00 0.  1.
         22    1    3    3    0    0  0.57527864293E+01 -0.71854819884E+02  0.42252482306E+02  0.83555262870E+02  0.00000000000E+00 0.  1.
</event>
<event>
 7    1  0.6017574E-006  0.9176283E+02  0.7818608E-02  0.1298701E+00
          2   -1    0    0  502    0  0.00000000000E+00  0.00000000000E+00  0.35815371773E+04  0.35815371773E+04  0.00000000000E+00 0. -1.
          1   -1    0    0  501    0 -0.00000000000E+00 -0.00000000000E+00 -0.13825844291E+04  0.13825844291E+04  0.00000000000E+00 0. -1.
         25    2    1    2    0    0  0.78257139212E+02  0.43158249636E+02  0.39477992753E+03  0.42363017814E+03  0.12499808919E+03 0.  0.
          2    1    1    2  501    0 -0.76365764495E+02  0.50782869102E+02 -0.13659255898E+04  0.13690008571E+04  0.00000000000E+00 0. -1.
          1    1    1    2  502    0 -0.18913747164E+01 -0.93941118738E+02  0.31700984105E+04  0.31714905712E+04  0.00000000000E+00 0. -1.
         22    1    3    3    0    0 -0.28216977036E+02 -0.14660484572E+02  0.66673435891E+02  0.73867954178E+02  0.00000000000E+00 0.  1.
         22    1    3    3    0    0  0.10647411625E+03  0.57818734208E+02  0.32810649163E+03  0.34976222396E+03  0.00000000000E+00 0.  1.
</event>
<event>
 7    1  0.6017574E-006  0.6786763E+02  0.7818608E-02  0.1387386E+00
          2   -1    0    0  502    0  0.00000000000E+00  0.00000000000E+00  0.11906516825E+04  0.11906516825E+04  0.00000000000E+00 0. -1.
          1   -1    0    0  501    0 -0.00000000000E+00 -0.00000000000E+00 -0.19528090506E+03  0.19528090506E+03  0.00000000000E+00 0. -1.
         25    2    1    2    0    0 -0.12115438863E+02  0.23770816696E+02 -0.63692635579E+02  0.14280757517E+03  0.12500166445E+03 0.  0.
          2    1    1    2  501    0  0.75145957827E+02  0.13920175051E+01 -0.75500809905E+02  0.10653274138E+03  0.00000000000E+00 0. -1.
          1    1    1    2  502    0 -0.63030518964E+02 -0.25162834202E+02  0.11345642229E+04  0.11365922710E+04  0.00000000000E+00 0. -1.
         22    1    3    3    0    0 -0.29383782551E+02 -0.44878034541E+01 -0.93586636203E+02  0.98193714324E+02  0.00000000000E+00 0.  1.
         22    1    3    3    0    0  0.17268343688E+02  0.28258620151E+02  0.29894000625E+02  0.44613860849E+02  0.00000000000E+00 0.  1.
</event>
<event>
 7    1  0.6017574E-006  0.9759845E+02  0.7818608E-02  0.1412085E+00
          2   -1    0    0  502    0  0.00000000000E+00  0.00000000000E+00  0.28708667236E+04  0.28708667236E+04  0.00000000000E+00 0. -1.
          1   -1    0    0  501    0 -0.00000000000E+00 -0.00000000000E+00 -0.64259264976E+02  0.64259264976E+02  0.00000000000E+00 0. -1.
         25    2    1    2    0    0 -0.12159720412E+03  0.15498765738E+02  0.10488574999E+04  0.10633689673E+04  0.12500165550E+03 0.  0.
          2    1    1    2  501    0  0.28004449677E+02 -0.17412180199E+02 -0.50920436856E+02  0.60665674895E+02  0.00000000000E+00 0. -1.
          1    1    1    2  502    0  0.93592754440E+02  0.19134144606E+01  0.18086703956E+04  0.18110913463E+04  0.00000000000E+00 0. -1.
         22    1    3    3    0    0 -0.16421383121E+02 -0.46465154398E+02  0.21184198854E+03  0.21749873680E+03  0.00000000000E+00 0.  1.
         22    1    3    3    0    0 -0.10517582100E+03  0.61963920136E+02  0.83701551131E+03  0.84587023053E+03  0.00000000000E+00 0.  1.
</event>
<event>
 7    1  0.6017574E-006  0.6789783E+02  0.7818608E-02  0.1434750E+00
          2   -1    0    0  502    0  0.00000000000E+00  0.00000000000E+00  0.62881303561E+03  0.62881303561E+03  0.00000000000E+00 0. -1.
          1   -1    0    0  501    0 -0.00000000000E+00 -0.00000000000E+00 -0.12745308493E+04  0.12745308493E+04  0.00000000000E+00 0. -1.
         25    2    1    2    0    0 -0.46937867309E+02  0.59966855098E+01 -0.79306250368E+03  0.80424697161E+03  0.12500373186E+03 0.  0.
          2    1    1    2  501    0 -0.13238584597E+02 -0.37589400688E+02 -0.47318298686E+03  0.47485825487E+03  0.00000000000E+00 0. -1.
          1    1    1    2  502    0  0.60176451906E+02  0.31592715178E+02  0.62052767681E+03  0.62423865845E+03  0.00000000000E+00 0. -1.
         22    1    3    3    0    0 -0.33768251873E+02  0.42156959564E+02 -0.14010385148E+03  0.15015523059E+03  0.00000000000E+00 0. -1.
         22    1    3    3    0    0 -0.13169615436E+02 -0.36160274054E+02 -0.65295865220E+03  0.65409174102E+03  0.00000000000E+00 0. -1.
</event>
<event>
 7    1  0.6017574E-006  0.1736105E+03  0.7818608E-02  0.1256831E+00
          2   -1    0    0  502    0  0.00000000000E+00  0.00000000000E+00  0.48745873629E+03  0.48745873629E+03  0.00000000000E+00 0. -1.
          1   -1    0    0  501    0 -0.00000000000E+00 -0.00000000000E+00 -0.37244832074E+03  0.37244832074E+03  0.00000000000E+00 0. -1.
         25    2    1    2    0    0 -0.16443936573E+03 -0.92471561756E+02  0.22321315715E+03  0.31786695132E+03  0.12499596186E+03 0.  0.
          2    1    1    2  501    0  0.17222366713E+03  0.20581220542E+02 -0.29473389101E+03  0.34198339824E+03  0.00000000000E+00 0. -1.
          1    1    1    2  502    0 -0.77843014008E+01  0.71890341214E+02  0.18653114941E+03  0.20005670748E+03  0.00000000000E+00 0. -1.
         22    1    3    3    0    0 -0.54411553151E+02 -0.51204502114E+02  0.17604057333E+03  0.19124016736E+03  0.00000000000E+00 0. -1.
         22    1    3    3    0    0 -0.11002781258E+03 -0.41267059642E+02  0.47172583818E+02  0.12662678396E+03  0.00000000000E+00 0. -1.
</event>
<event>
 7    1  0.6017574E-006  0.1871619E+03  0.7818608E-02  0.1317047E+00
          2   -1    0    0  502    0  0.00000000000E+00  0.00000000000E+00  0.11218100582E+04  0.11218100582E+04  0.00000000000E+00 0. -1.
          1   -1    0    0  501    0 -0.00000000000E+00 -0.00000000000E+00 -0.10531050920E+04  0.10531050920E+04  0.00000000000E+00 0. -1.
         25    2    1    2    0    0 -0.13849946215E+03 -0.14944177254E+03  0.59063124076E+03  0.63717028716E+03  0.12500307151E+03 0.  0.
          2    1    1    2  501    0  0.10347785610E+01  0.38032730146E+02 -0.10140575047E+04  0.10147709998E+04  0.00000000000E+00 0. -1.
          1    1    1    2  502    0  0.13746468359E+03  0.11140904240E+03  0.49213123010E+03  0.52297386321E+03  0.00000000000E+00 0. -1.
         22    1    3    3    0    0 -0.10114785898E+03 -0.18523998234E+02  0.26176866060E+03  0.28124163909E+03  0.00000000000E+00 0. -1.
         22    1    3    3    0    0 -0.37351603171E+02 -0.13091777431E+03  0.32886258016E+03  0.35592864807E+03  0.00000000000E+00 0. -1.
</event>
<event>
 7    1  0.6017574E-006  0.5861965E+02  0.7818608E-02  0.1479549E+00
          2   -1    0    0  502    0  0.00000000000E+00  0.00000000000E+00  0.32494818771E+03  0.32494818771E+03  0.00000000000E+00 0. -1.
          1   -1    0    0  501    0 -0.00000000000E+00 -0.00000000000E+00 -0.59763339062E+03  0.59763339062E+03  0.00000000000E+00 0. -1.
         25    2    1    2    0    0 -0.50055622890E+02  0.57178878139E+02 -0.38090580083E+03  0.40803282878E+03  0.12500628291E+03 0.  0.
          2    1    1    2  501    0  0.49593758719E+02 -0.23890103979E+02 -0.19851792086E+03  0.20600884174E+03  0.00000000000E+00 0. -1.
          1    1    1    2  502    0  0.46186417041E+00 -0.33288774160E+02  0.30673851879E+03  0.30853990781E+03  0.00000000000E+00 0. -1.
         22    1    3    3    0    0 -0.56774921005E+02  0.91308675083E+02 -0.24151825679E+03  0.26437044873E+03  0.00000000000E+00 0.  1.
         22    1    3    3    0    0  0.67192981157E+01 -0.34129796944E+02 -0.13938754405E+03  0.14366238005E+03  0.00000000000E+00 0.  1.
</event>
<event>
 7    1  0.6017574E-006  0.2385156E+03  0.7818608E-02  0.1223301E+00
          2   -1    0    0  502    0  0.00000000000E+00  0.00000000000E+00  0.21865697586E+04  0.21865697586E+04  0.00000000000E+00 0. -1.
          1   -1    0    0  501    0 -0.00000000000E+00 -0.00000000000E+00 -0.14273180809E+04  0.14273180809E+04  0.00000000000E+00 0. -1.
         25    2    1    2    0    0 -0.27200761948E+03 -0.26830988584E+02  0.51580750807E+02  0.30496061479E+03  0.12502941941E+03 0.  0.
          2    1    1    2  501    0  0.49519939585E+02 -0.54968608836E+02 -0.12925716633E+04  0.12946873280E+04  0.00000000000E+00 0. -1.
          1    1    1    2  502    0  0.22248767989E+03  0.81799597420E+02  0.20002425902E+04  0.20142398967E+04  0.00000000000E+00 0. -1.
         22    1    3    3    0    0 -0.25957331195E+03 -0.19350161334E+02  0.95206422524E+01  0.26046760959E+03  0.00000000000E+00 0.  1.
         22    1    3    3    0    0 -0.12434307531E+02 -0.74808272504E+01  0.42060108554E+02  0.44493005200E+02  0.00000000000E+00 0.  1.
</event>
<event>
 7    1  0.6017574E-006  0.6051364E+02  0.7818608E-02  0.1410124E+00
          2   -1    0    0  502    0  0.00000000000E+00  0.00000000000E+00  0.73186529361E+02  0.73186529361E+02  0.00000000000E+00 0. -1.
          1   -1    0    0  501    0 -0.00000000000E+00 -0.00000000000E+00 -0.16269057243E+04  0.16269057243E+04  0.00000000000E+00 0. -1.
         25    2    1    2    0    0 -0.17485553909E+02 -0.31042649759E+02 -0.43256403851E+02  0.13698407196E+03  0.12499651514E+03 0.  0.
          2    1    1    2  501    0 -0.32367397335E+02  0.51805507031E+02 -0.15078019706E+04  0.15090388470E+04  0.00000000000E+00 0. -1.
          1    1    1    2  502    0  0.49852951244E+02 -0.20762857272E+02 -0.26608204122E+01  0.54069334702E+02  0.00000000000E+00 0. -1.
         22    1    3    3    0    0  0.14400319282E+02 -0.31557027703E+02 -0.80677196022E+02  0.87818136799E+02  0.00000000000E+00 0.  1.
         22    1    3    3    0    0 -0.31885873191E+02  0.51437794372E+00  0.37420792171E+02  0.49165935164E+02  0.00000000000E+00 0.  1.
</event>
<event>
 7    1  0.6017574E-006  0.1336224E+03  0.7818608E-02  0.1382023E+00
          2   -1    0    0  502    0  0.00000000000E+00  0.00000000000E+00  0.53239018145E+02  0.53239018145E+02  0.00000000000E+00 0. -1.
          1   -1    0    0  501    0 -0.00000000000E+00 -0.00000000000E+00 -0.13283838225E+04  0.13283838225E+04  0.00000000000E+00 0. -1.
         25    2    1    2    0    0  0.13935962119E+03 -0.74813150544E+02 -0.34278129806E+03  0.39767223508E+03  0.12500430691E+03 0.  0.
          2    1    1    2  501    0 -0.10913045881E+03  0.70119409665E+02 -0.94275907691E+03  0.95164114336E+03  0.00000000000E+00 0. -1.
          1    1    1    2  502    0 -0.30229162382E+02  0.46937408795E+01  0.10395570580E+02  0.32309462228E+02  0.00000000000E+00 0. -1.
         22    1    3    3    0    0  0.88155359664E+02  0.21549216942E+02 -0.13001349932E+03  0.15855360669E+03  0.00000000000E+00 0. -1.
         22    1    3    3    0    0  0.51204261527E+02 -0.96362367486E+02 -0.21276779874E+03  0.23911862840E+03  0.00000000000E+00 0. -1.
</event>
<event>
 7    1  0.6017574E-006  0.8425193E+02  0.7818608E-02  0.1400860E+00
          2   -1    0    0  502    0  0.00000000000E+00  0.00000000000E+00  0.75762311505E+02  0.75762311505E+02  0.00000000000E+00 0. -1.
          1   -1    0    0  501    0 -0.00000000000E+00 -0.00000000000E+00 -0.40343924021E+03  0.40343924021E+03  0.00000000000E+00 0. -1.
         25    2    1    2    0    0  0.75188089616E+02  0.11905548171E+02 -0.85112017452E+02  0.16930978956E+03  0.12500703352E+03 0.  0.
          2    1    1    2  501    0 -0.82011862233E+02  0.29248195473E+02 -0.25243051375E+03  0.26702540470E+03  0.00000000000E+00 0. -1.
          1    1    1    2  502    0  0.68237726166E+01 -0.41153743644E+02  0.98656024915E+01  0.42866357451E+02  0.00000000000E+00 0. -1.
         22    1    3    3    0    0 -0.11470299860E+02 -0.28413548753E+02 -0.64680800329E+02  0.71571666621E+02  0.00000000000E+00 0. -1.
         22    1    3    3    0    0  0.86658389477E+02  0.40319096924E+02 -0.20431217123E+02  0.97738122944E+02  0.00000000000E+00 0. -1.
</event>
<event>
 7    1  0.6017574E-006  0.6403326E+02  0.7818608E-02  0.1453507E+00
          2   -1    0    0  502    0  0.00000000000E+00  0.00000000000E+00  0.26275325810E+03  0.26275325810E+03  0.00000000000E+00 0. -1.
          1   -1    0    0  501    0 -0.00000000000E+00 -0.00000000000E+00 -0.43080462294E+03  0.43080462294E+03  0.00000000000E+00 0. -1.
         25    2    1    2    0    0  0.15840506141E+01  0.92278252917E+02 -0.34928552423E+03  0.38228643434E+03  0.12499902106E+03 0.  0.
          2    1    1    2  501    0  0.18496877174E+02 -0.31768351220E+02 -0.55239952305E+02  0.66353710786E+02  0.00000000000E+00 0. -1.
          1    1    1    2  502    0 -0.20080927788E+02 -0.60509901697E+02  0.23647411169E+03  0.24491773591E+03  0.00000000000E+00 0. -1.
         22    1    3    3    0    0  0.51178327891E+02  0.76934830446E+02 -0.28529787149E+03  0.29988842068E+03  0.00000000000E+00 0. -1.
         22    1    3    3    0    0 -0.49594277277E+02  0.15343422471E+02 -0.63987652742E+02  0.82398013660E+02  0.00000000000E+00 0. -1.
</event>
<event>
 7    1  0.6017574E-006  0.3724995E+02  0.7818608E-02  0.1611318E+00
          2   -1    0    0  502    0  0.00000000000E+00  0.00000000000E+00  0.11198836514E+03  0.11198836514E+03  0.00000000000E+00 0. -1.
          1   -1    0    0  501    0 -0.00000000000E+00 -0.00000000000E+00 -0.15776269538E+03  0.15776269538E+03  0.00000000000E+00 0. -1.
         25    2    1    2    0    0 -0.49148128065E+02 -0.30063591687E+02 -0.85043802141E+02  0.16179141055E+03  0.12499861683E+03 0.  0.
          2    1    1    2  501    0  0.21390563178E+02  0.63854162860E+01 -0.25333808497E+02  0.33765834614E+02  0.00000000000E+00 0. -1.
          1    1    1    2  502    0  0.27757564888E+02  0.23678175401E+02  0.64603280398E+02  0.74193815355E+02  0.00000000000E+00 0. -1.
         22    1    3    3    0    0 -0.74421263475E+02 -0.36124355720E+02 -0.10156723231E+03  0.13099387853E+03  0.00000000000E+00 0. -1.
         22    1    3    3    0    0  0.25273135410E+02  0.60607640330E+01  0.16523430169E+02  0.30797532022E+02  0.00000000000E+00 0. -1.
</event>
<event>
 7    1  0.6017574E-006  0.1393215E+03  0.7818608E-02  0.1303905E+00
          2   -1    0    0  502    0  0.00000000000E+00  0.00000000000E+00  0.15700029020E+03  0.15700029020E+03  0.00000000000E+00 0. -1.
          1   -1    0    0  501    0 -0.00000000000E+00 -0.00000000000E+00 -0.83162330972E+03  0.83162330972E+03  0.00000000000E+00 0. -1.
         25    2    1    2    0    0  0.10291158216E+02  0.10055065297E+03 -0.35770032377E+01  0.16079543176E+03  0.12500413662E+03 0.  0.
          2    1    1    2  501    0 -0.59710308160E+02 -0.13010111285E+03 -0.73089290043E+03  0.74477919705E+03  0.00000000000E+00 0. -1.
          1    1    1    2  502    0  0.49419149944E+02  0.29550459881E+02  0.59846884140E+02  0.83048971105E+02  0.00000000000E+00 0. -1.
         22    1    3    3    0    0  0.34107726789E+02  0.85141415654E+02 -0.51438953854E+02  0.10515875456E+03  0.00000000000E+00 0.  1.
         22    1    3    3    0    0 -0.23816568574E+02  0.15409237320E+02  0.47861950616E+02  0.55636677203E+02  0.00000000000E+00 0.  1.
</event>
<event>
 7    1  0.6017574E-006  0.1171580E+03  0.7818608E-02  0.1341035E+00
          2   -1    0    0  502    0  0.00000000000E+00  0.00000000000E+00  0.15134341117E+03  0.15134341117E+03  0.00000000000E+00 0. -1.
          1   -1    0    0  501    0 -0.00000000000E+00 -0.00000000000E+00 -0.16773834621E+04  0.16773834621E+04  0.00000000000E+00 0. -1.
         25    2    1    2    0    0  0.73571236393E+02 -0.34897440420E+02 -0.84658925725E+02  0.17153076490E+03  0.12500044573E+03 0.  0.
          2    1    1    2  501    0 -0.11837334540E+03  0.14560783016E+02 -0.15412539239E+04  0.15458615472E+04  0.00000000000E+00 0. -1.
          1    1    1    2  502    0  0.44802109005E+02  0.20336657404E+02  0.99872798637E+02  0.11133456118E+03  0.00000000000E+00 0. -1.
         22    1    3    3    0    0  0.34904025216E+02 -0.63897693076E+01  0.30476236762E+02  0.46775219243E+02  0.00000000000E+00 0. -1.
         22    1    3    3    0    0  0.38667211176E+02 -0.28507671113E+02 -0.11513516249E+03  0.12475554566E+03  0.00000000000E+00 0. -1.
</event>
<event>
 7    1  0.6017574E-006  0.5849563E+02  0.7818608E-02  0.1437793E+00
          2   -1    0    0  502    0  0.00000000000E+00  0.00000000000E+00  0.34895344020E+02  0.34895344020E+02  0.00000000000E+00 0. -1.
          1   -1    0    0  501    0 -0.00000000000E+00 -0.00000000000E+00 -0.16000256362E+04  0.16000256362E+04  0.00000000000E+00 0. -1.
         25    2    1    2    0    0  0.56519310900E+02  0.31770699230E+02 -0.33718148159E+03  0.36540444568E+03  0.12500099026E+03 0.  0.
          2    1    1    2  501    0 -0.57445481306E+02  0.13432342893E+02 -0.12225616038E+04  0.12239841855E+04  0.00000000000E+00 0. -1.
          1    1    1    2  502    0  0.92617040596E+00 -0.45203042123E+02 -0.53872067059E+01  0.45532348994E+02  0.00000000000E+00 0. -1.
         22    1    3    3    0    0 -0.29880501216E+02  0.11394327265E+02 -0.19630150460E+03  0.19888930528E+03  0.00000000000E+00 0.  1.
         22    1    3    3    0    0  0.86399812116E+02  0.20376371965E+02 -0.14087997699E+03  0.16651514041E+03  0.00000000000E+00 0.  1.
</event>
<event>
 7    1  0.6017574E-006  0.7465174E+02  0.7818608E-02  0.1431883E+00
          2   -1    0    0  502    0  0.00000000000E+00  0.00000000000E+00  0.10990089600E+04  0.10990089600E+04  0.00000000000E+00 0. -1.
          1   -1    0    0  501    0 -0.00000000000E+00 -0.00000000000E+00 -0.29894831809E+03  0.29894831809E+03  0.00000000000E+00 0. -1.
         25    2    1    2    0    0 -0.69876423959E+02 -0.27072879012E+02  0.47250430634E+02  0.15320089565E+03  0.12498902284E+03 0.  0.
          2    1    1    2  501    0  0.74506247166E+02 -0.96762147691E+01 -0.23988240763E+03  0.25137298878E+03  0.00000000000E+00 0. -1.
          1    1    1    2  502    0 -0.46298232069E+01  0.36749093781E+02  0.99269261891E+03  0.99338339366E+03  0.00000000000E+00 0. -1.
         22    1    3    3    0    0 -0.77564926231E+02 -0.34477449888E+02 -0.18261949262E+02  0.86824599757E+02  0.00000000000E+00 0. -1.
         22    1    3    3    0    0  0.76885022726E+01  0.74045708764E+01  0.65512379896E+02  0.66376295894E+02  0.00000000000E+00 0. -1.
</event>
<event>
 7    1  0.6017574E-006  0.8174516E+02  0.7818608E-02  0.1381728E+00
          2   -1    0    0  502    0  0.00000000000E+00  0.00000000000E+00  0.92886125245E+02  0.92886125245E+02  0.00000000000E+00 0. -1.
          1   -1    0    0  501    0 -0.00000000000E+00 -0.00000000000E+00 -0.11159792270E+04  0.11159792270E+04  0.00000000000E+00 0. -1.
         25    2    1    2    0    0  0.56314610057E+02  0.72300936844E+02 -0.97799659454E+02  0.18327233253E+03  0.12500085483E+03 0.  0.
          2    1    1    2  501    0  0.21340529643E+02 -0.45355723855E+02 -0.94064078938E+03  0.94197540018E+03  0.00000000000E+00 0. -1.
          1    1    1    2  502    0 -0.77655139701E+02 -0.26945212989E+02  0.15347347127E+02  0.83617619488E+02  0.00000000000E+00 0. -1.
         22    1    3    3    0    0  0.34922978697E+02 -0.16934745313E+02  0.11575177557E+02  0.40501663859E+02  0.00000000000E+00 0. -1.
         22    1    3    3    0    0  0.21391631360E+02  0.89235682157E+02 -0.10937483701E+03  0.14277066867E+03  0.00000000000E+00 0. -1.
</event>
<event>
 7    1  0.6017574E-006  0.1384366E+03  0.7818608E-02  0.1326716E+00
          2   -1    0    0  502    0  0.00000000000E+00  0.00000000000E+00  0.79814863738E+02  0.79814863738E+02  0.00000000000E+00 0. -1.
          1   -1    0    0  501    0 -0.00000000000E+00 -0.00000000000E+00 -0.12685820330E+04  0.12685820330E+04  0.00000000000E+00 0. -1.
         25    2    1    2    0    0  0.16363539465E+03  0.19096927327E+02 -0.29872095000E+03  0.36331774332E+03  0.12499736649E+03 0.  0.
          2    1    1    2  501    0 -0.12627174125E+03 -0.47926914367E+02 -0.91955428128E+03  0.92942004389E+03  0.00000000000E+00 0. -1.
          1    1    1    2  502    0 -0.37363653407E+02  0.28829987041E+02  0.29508062021E+02  0.55659109523E+02  0.00000000000E+00 0. -1.
         22    1    3    3    0    0  0.85120621917E+02 -0.52658772345E+02 -0.13440845516E+03  0.16758311192E+03  0.00000000000E+00 0. -1.
         22    1    3    3    0    0  0.78514772736E+02  0.71755699672E+02 -0.16431249483E+03  0.19573463141E+03  0.00000000000E+00 0. -1.
</event>
<event>
 7    1  0.6017574E-006  0.5421604E+02  0.7818608E-02  0.1517233E+00
          2   -1    0    0  502    0  0.00000000000E+00  0.00000000000E+00  0.36752232970E+03  0.36752232970E+03  0.00000000000E+00 0. -1.
          1   -1    0    0  501    0 -0.00000000000E+00 -0.00000000000E+00 -0.13056918425E+04  0.13056918425E+04  0.00000000000E+00 0. -1.
         25    2    1    2    0    0  0.19461950074E+01  0.67939092017E+02 -0.68995929414E+02  0.15813094303E+03  0.12500179586E+03 0.  0.
          2    1    1    2  501    0 -0.21510994855E+02 -0.17558667512E+02 -0.11897041444E+04  0.11900281429E+04  0.00000000000E+00 0. -1.
          1    1    1    2  502    0  0.19564799848E+02 -0.50380424505E+02  0.32053056101E+03  0.32505508626E+03  0.00000000000E+00 0. -1.
         22    1    3    3    0    0 -0.54427414595E+02  0.62809174736E+02 -0.26116371098E+02  0.87117166676E+02  0.00000000000E+00 0.  1.
         22    1    3    3    0    0  0.56373609602E+02  0.51299172816E+01 -0.42879558316E+02  0.71013776356E+02  0.00000000000E+00 0.  1.
</event>
<event>
 7    1  0.6017574E-006  0.1280787E+03  0.7818608E-02  0.1339453E+00
          2   -1    0    0  502    0  0.00000000000E+00  0.00000000000E+00  0.76198022033E+03  0.76198022033E+03  0.00000000000E+00 0. -1.
          1   -1    0    0  501    0 -0.00000000000E+00 -0.00000000000E+00 -0.19303262138E+03  0.19303262138E+03  0.00000000000E+00 0. -1.
         25    2    1    2    0    0  0.24298801704E+02 -0.14755051235E+03 -0.76040653594E+01  0.19505014771E+03  0.12500061141E+03 0.  0.
          2    1    1    2  501    0 -0.49694853363E+02  0.10964410403E+03 -0.51011940519E+02  0.13074259472E+03  0.00000000000E+00 0. -1.
          1    1    1    2  502    0  0.25396051659E+02  0.37906408321E+02  0.62756360482E+03  0.62922009928E+03  0.00000000000E+00 0. -1.
         22    1    3    3    0    0  0.54356869384E+02 -0.34182459914E+02  0.31362550167E+02  0.71461313786E+02  0.00000000000E+00 0.  1.
         22    1    3    3    0    0 -0.30058067681E+02 -0.11336805244E+03 -0.38966615526E+02  0.12358883393E+03  0.00000000000E+00 0.  1.
</event>
<event>
 7    1  0.6017574E-006  0.4404120E+02  0.7818608E-02  0.1490294E+00
          2   -1    0    0  502    0  0.00000000000E+00  0.00000000000E+00  0.23844629488E+03  0.23844629488E+03  0.00000000000E+00 0. -1.
          1   -1    0    0  501    0 -0.00000000000E+00 -0.00000000000E+00 -0.71552111316E+02  0.71552111316E+02  0.00000000000E+00 0. -1.
         25    2    1    2    0    0  0.68233236041E+02  0.82637446933E+01  0.72327661948E+02  0.15993602307E+03  0.12499670722E+03 0.  0.
          2    1    1    2  501    0 -0.30329613127E+02 -0.27728784219E+02 -0.53483517116E+01  0.41441232761E+02  0.00000000000E+00 0. -1.
          1    1    1    2  502    0 -0.37903622914E+02  0.19465039526E+02  0.99914873324E+02  0.10862115036E+03  0.00000000000E+00 0. -1.
         22    1    3    3    0    0 -0.74247677657E+01  0.13016897934E+02  0.82140598405E+02  0.83496375457E+02  0.00000000000E+00 0.  1.
         22    1    3    3    0    0  0.75658003807E+02 -0.47531532409E+01 -0.98129364570E+01  0.76439647616E+02  0.00000000000E+00 0.  1.
</event>
<event>
 7    1  0.6017574E-006  0.7922573E+02  0.7818608E-02  0.1431658E+00
          2   -1    0    0  502    0  0.00000000000E+00  0.00000000000E+00  0.12083922908E+03  0.12083922908E+03  0.00000000000E+00 0. -1.
          1   -1    0    0  501    0 -0.00000000000E+00 -0.00000000000E+00 -0.48679488833E+03  0.48679488833E+03  0.00000000000E+00 0. -1.
         25    2    1    2    0    0 -0.83891479961E+02  0.46145210613E+02 -0.17143928161E+03  0.23277592014E+03  0.12500416332E+03 0.  0.
          2    1    1    2  501    0  0.32497368231E+02  0.12890354405E+02 -0.26634103880E+03  0.26862574174E+03  0.00000000000E+00 0. -1.
          1    1    1    2  502    0  0.51394111730E+02 -0.59035565018E+02  0.71824661156E+02  0.10623245553E+03  0.00000000000E+00 0. -1.
         22    1    3    3    0    0 -0.67201052215E+02  0.28124627981E+02 -0.18901852792E+03  0.20257092589E+03  0.00000000000E+00 0.  1.
         22    1    3    3    0    0 -0.16690427746E+02  0.18020582631E+02  0.17579246314E+02  0.30204994251E+02  0.00000000000E+00 0.  1.
</event>
<event>
 7    1  0.6017574E-006  0.6893825E+02  0.7818608E-02  0.1373069E+00
          2   -1    0    0  502    0  0.00000000000E+00  0.00000000000E+00  0.88893717606E+02  0.88893717606E+02  0.00000000000E+00 0. -1.
          1   -1    0    0  501    0 -0.00000000000E+00 -0.00000000000E+00 -0.15301982841E+04  0.15301982841E+04  0.00000000000E+00 0. -1.
         25    2    1    2    0    0 -0.99726986322E+02  0.50011724411E+02 -0.65853951751E+03  0.67951886294E+03  0.12499977838E+03 0.  0.
          2    1    1    2  501    0  0.31614446653E+02 -0.55420585039E+02 -0.84484795973E+03  0.84725379288E+03  0.00000000000E+00 0. -1.
          1    1    1    2  502    0  0.68112539668E+02  0.54088606281E+01  0.62082910697E+02  0.92319345935E+02  0.00000000000E+00 0. -1.
         22    1    3    3    0    0 -0.25714221625E+02  0.34196435468E+02 -0.51913092063E+03  0.52089109240E+03  0.00000000000E+00 0. -1.
         22    1    3    3    0    0 -0.74012764696E+02  0.15815288943E+02 -0.13940859688E+03  0.15862777054E+03  0.00000000000E+00 0. -1.
</event>
<event>
 7    1  0.6017574E-006  0.3035453E+03  0.7818608E-02  0.1134195E+00
          2   -1    0    0  502    0  0.00000000000E+00  0.00000000000E+00  0.19956120640E+04  0.19956120640E+04  0.00000000000E+00 0. -1.
          1   -1    0    0  501    0 -0.00000000000E+00 -0.00000000000E+00 -0.70763488086E+03  0.70763488086E+03  0.00000000000E+00 0. -1.
         25    2    1    2    0    0  0.30962221052E+03  0.14241975304E+02  0.68289016348E+03  0.76028363760E+03  0.12499394829E+03 0.  0.
          2    1    1    2  501    0 -0.25721468733E+03 -0.16419134850E+03 -0.62877924819E+03  0.69891454216E+03  0.00000000000E+00 0. -1.
          1    1    1    2  502    0 -0.52407523187E+02  0.14994937320E+03  0.12338662679E+04  0.12440487651E+04  0.00000000000E+00 0. -1.
         22    1    3    3    0    0  0.26485048563E+02 -0.11626452768E+01  0.71448953968E+01  0.27456494162E+02  0.00000000000E+00 0.  1.
         22    1    3    3    0    0  0.28313716196E+03  0.15404620581E+02  0.67574526808E+03  0.73282714343E+03  0.00000000000E+00 0.  1.
</event>
<event>
 7    1  0.6017574E-006  0.1229097E+03  0.7818608E-02  0.1321415E+00
          2   -1    0    0  502    0  0.00000000000E+00  0.00000000000E+00  0.18011962147E+04  0.18011962147E+04  0.00000000000E+00 0. -1.
          1   -1    0    0  501    0 -0.00000000000E+00 -0.00000000000E+00 -0.10514451417E+03  0.10514451417E+03  0.00000000000E+00 0. -1.
         25    2    1    2    0    0 -0.38914855831E+02 -0.62109130914E+02  0.44469910481E+03  0.46771189029E+03  0.12500083342E+03 0.  0.
          2    1    1    2  501    0  0.54036831155E+02  0.11573403927E+03 -0.49205539172E+02  0.13687779971E+03  0.00000000000E+00 0. -1.
          1    1    1    2  502    0 -0.15121975324E+02 -0.53624908361E+02  0.13005581349E+04  0.13017510389E+04  0.00000000000E+00 0. -1.
         22    1    3    3    0    0  0.39930118133E+02 -0.50901257391E+02  0.17886369006E+03  0.19020402719E+03  0.00000000000E+00 0.  1.
         22    1    3    3    0    0 -0.78844973963E+02 -0.11207873522E+02  0.26583541475E+03  0.27750786310E+03  0.00000000000E+00 0.  1.
</event>
<event>
 7    1  0.6017574E-006  0.4854142E+02  0.7818608E-02  0.1488261E+00
          2   -1    0    0  502    0  0.00000000000E+00  0.00000000000E+00  0.85776446307E+03  0.85776446307E+03  0.00000000000E+00 0. -1.
          1   -1    0    0  501    0 -0.00000000000E+00 -0.00000000000E+00 -0.38064962581E+02  0.38064962581E+02  0.00000000000E+00 0. -1.
         25    2    1    2    0    0  0.26489367470E+02  0.63973936532E+02  0.53524198522E+03  0.55398859001E+03  0.12500009591E+03 0.  0.
          2    1    1    2  501    0 -0.38939622177E+02 -0.28265074101E+02 -0.63953428119E+01  0.48539767191E+02  0.00000000000E+00 0. -1.
          1    1    1    2  502    0  0.12450254707E+02 -0.35708862431E+02  0.29085285808E+03  0.29330106845E+03  0.00000000000E+00 0. -1.
         22    1    3    3    0    0  0.54255310728E+02  0.43927797562E+02  0.13224734671E+03  0.14954146867E+03  0.00000000000E+00 0. -1.
         22    1    3    3    0    0 -0.27765943259E+02  0.20046138970E+02  0.40299463851E+03  0.40444712134E+03  0.00000000000E+00 0. -1.
</event>
<event>
 7    1  0.6017574E-006  0.9867720E+02  0.7818608E-02  0.1398449E+00
          2   -1    0    0  502    0  0.00000000000E+00  0.00000000000E+00  0.18996182172E+04  0.18996182172E+04  0.00000000000E+00 0. -1.
          1   -1    0    0  501    0 -0.00000000000E+00 -0.00000000000E+00 -0.54988223947E+02  0.54988223947E+02  0.00000000000E+00 0. -1.
         25    2    1    2    0    0  0.45325679646E+02  0.93304125461E+02  0.93737804921E+03  0.95134730525E+03  0.12499604389E+03 0.  0.
          2    1    1    2  501    0 -0.71476394213E+02 -0.68122189118E+02  0.35241770235E+01  0.98802466586E+02  0.00000000000E+00 0. -1.
          1    1    1    2  502    0  0.26150714567E+02 -0.25181936343E+02  0.90372776701E+03  0.90445666931E+03  0.00000000000E+00 0. -1.
         22    1    3    3    0    0 -0.12134986053E+02  0.10336470100E+02  0.57381833552E+03  0.57403970479E+03  0.00000000000E+00 0.  1.
         22    1    3    3    0    0  0.57460665699E+02  0.82967655361E+02  0.36355971369E+03  0.37730760045E+03  0.00000000000E+00 0.  1.
</event>
<event>
 7    1  0.6017574E-006  0.6858717E+02  0.7818608E-02  0.1520430E+00
          2   -1    0    0  502    0  0.00000000000E+00  0.00000000000E+00  0.41459742699E+02  0.41459742699E+02  0.00000000000E+00 0. -1.
          1   -1    0    0  501    0 -0.00000000000E+00 -0.00000000000E+00 -0.87187752583E+03  0.87187752583E+03  0.00000000000E+00 0. -1.
         25    2    1    2    0    0  0.59182827715E+02  0.22076947105E+02 -0.72573170969E+03  0.73912256974E+03  0.12500263985E+03 0.  0.
          2    1    1    2  501    0  0.97471510048E+01 -0.19145907692E+02 -0.10298432772E+03  0.10520144718E+03  0.00000000000E+00 0. -1.
          1    1    1    2  502    0 -0.68929978720E+02 -0.29310394132E+01 -0.17017457277E+01  0.69013251603E+02  0.00000000000E+00 0. -1.
         22    1    3    3    0    0 -0.18888289911E+02 -0.34693644862E+02 -0.29968954820E+03  0.30228172586E+03  0.00000000000E+00 0.  1.
         22    1    3    3    0    0  0.78071117626E+02  0.56770591967E+02 -0.42604216149E+03  0.43684084389E+03  0.00000000000E+00 0.  1.
</event>
<event>
 7    1  0.6017574E-006  0.1504261E+03  0.7818608E-02  0.1250402E+00
          2   -1    0    0  502    0  0.00000000000E+00  0.00000000000E+00  0.20986108031E+04  0.20986108031E+04  0.00000000000E+00 0. -1.
          1   -1    0    0  501    0 -0.00000000000E+00 -0.00000000000E+00 -0.26151711707E+03  0.26151711707E+03  0.00000000000E+00 0. -1.
         25    2    1    2    0    0  0.35198897859E+01 -0.70489939200E+02  0.90305886893E+03  0.91439682471E+03  0.12500004453E+03 0.  0.
          2    1    1    2  501    0 -0.57260804744E+02  0.14137916455E+03 -0.23126621254E+03  0.27703958019E+03  0.00000000000E+00 0. -1.
          1    1    1    2  502    0  0.53740914959E+02 -0.70889225352E+02  0.11653010296E+04  0.11686915152E+04  0.00000000000E+00 0. -1.
         22    1    3    3    0    0 -0.53491417164E+02 -0.22782874230E+02  0.22958432977E+03  0.23683191412E+03  0.00000000000E+00 0. -1.
         22    1    3    3    0    0  0.57011306950E+02 -0.47707064970E+02  0.67347453916E+03  0.67756491060E+03  0.00000000000E+00 0. -1.
</event>
<event>
 7    1  0.6017574E-006  0.9841204E+02  0.7818608E-02  0.1293571E+00
          2   -1    0    0  502    0  0.00000000000E+00  0.00000000000E+00  0.27292833959E+04  0.27292833959E+04  0.00000000000E+00 0. -1.
          1   -1    0    0  501    0 -0.00000000000E+00 -0.00000000000E+00 -0.27310898050E+03  0.27310898050E+03  0.00000000000E+00 0. -1.
         25    2    1    2    0    0 -0.66363752029E+02 -0.42064106643E+02  0.18215344505E+03  0.23447997882E+03  0.12500978472E+03 0.  0.
          2    1    1    2  501    0 -0.23910061288E+02  0.86433533517E+02 -0.23776382014E+03  0.25411430679E+03  0.00000000000E+00 0. -1.
          1    1    1    2  502    0  0.90273813316E+02 -0.44369426874E+02  0.25117847905E+04  0.25137980908E+04  0.00000000000E+00 0. -1.
         22    1    3    3    0    0 -0.61527612901E+02 -0.82508006707E+02  0.10382906840E+03  0.14619744787E+03  0.00000000000E+00 0. -1.
         22    1    3    3    0    0 -0.48361391280E+01  0.40443900064E+02  0.78324376646E+02  0.88282530950E+02  0.00000000000E+00 0. -1.
</event>
<event>
 7    1  0.6017574E-006  0.3438960E+03  0.7818608E-02  0.1252298E+00
          2   -1    0    0  502    0  0.00000000000E+00  0.00000000000E+00  0.26118694754E+04  0.26118694754E+04  0.00000000000E+00 0. -1.
          1   -1    0    0  501    0 -0.00000000000E+00 -0.00000000000E+00 -0.94808022125E+03  0.94808022125E+03  0.00000000000E+00 0. -1.
         25    2    1    2    0    0 -0.22805641268E+03  0.29506822367E+03 -0.15322673513E+02  0.39361689221E+03  0.12499795808E+03 0.  0.
          2    1    1    2  501    0  0.19481807056E+03 -0.27627609791E+03 -0.70502815343E+03  0.78188698673E+03  0.00000000000E+00 0. -1.
          1    1    1    2  502    0  0.33238342115E+02 -0.18792125765E+02  0.23841400811E+04  0.23844458177E+04  0.00000000000E+00 0. -1.
         22    1    3    3    0    0 -0.13025357243E+03  0.69906139682E+02 -0.47564592132E+01  0.14790363552E+03  0.00000000000E+00 0.  1.
         22    1    3    3    0    0 -0.97802840241E+02  0.22516208399E+03 -0.10566214299E+02  0.24571325668E+03  0.00000000000E+00 0.  1.
</event>
<event>
 7    1  0.6017574E-006  0.1017777E+03  0.7818608E-02  0.1358319E+00
          2   -1    0    0  502    0  0.00000000000E+00  0.00000000000E+00  0.42991298273E+04  0.42991298273E+04  0.00000000000E+00 0. -1.
          1   -1    0    0  501    0 -0.00000000000E+00 -0.00000000000E+00 -0.41308894960E+03  0.41308894960E+03  0.00000000000E+00 0. -1.
         25    2    1    2    0    0  0.42892625893E+02  0.75465965115E+02  0.81439964228E+03  0.82849644480E+03  0.12499876980E+03 0.  0.
          2    1    1    2  501    0 -0.39379380749E+02  0.28937190545E+02 -0.40378255590E+03  0.40672896267E+03  0.00000000000E+00 0. -1.
          1    1    1    2  502    0 -0.35132451443E+01 -0.10440315566E+03  0.34754237913E+04  0.34769933694E+04  0.00000000000E+00 0. -1.
         22    1    3    3    0    0  0.54786656397E+02  0.50296403752E+02  0.78303647749E+03  0.78656050691E+03  0.00000000000E+00 0.  1.
         22    1    3    3    0    0 -0.11894030504E+02  0.25169561363E+02  0.31363164783E+02  0.41935937882E+02  0.00000000000E+00 0.  1.
</event>
<event>
 7    1  0.6017574E-006  0.2166015E+03  0.7818608E-02  0.1237815E+00
          2   -1    0    0  502    0  0.00000000000E+00  0.00000000000E+00  0.33143184536E+03  0.33143184536E+03  0.00000000000E+00 0. -1.
          1   -1    0    0  501    0 -0.00000000000E+00 -0.00000000000E+00 -0.80233473549E+03  0.80233473549E+03  0.00000000000E+00 0. -1.
         25    2    1    2    0    0  0.39240598022E+02 -0.26048292102E+03  0.18286281463E+03  0.34418693038E+03  0.12503862361E+03 0.  0.
          2    1    1    2  501    0  0.12956823511E+02  0.21362854233E+03 -0.68137707309E+03  0.71419867622E+03  0.00000000000E+00 0. -1.
          1    1    1    2  502    0 -0.52197421534E+02  0.46854378687E+02  0.27611368336E+02  0.75380974246E+02  0.00000000000E+00 0. -1.
         22    1    3    3    0    0  0.40763509408E+02 -0.24486190770E+03  0.20157219599E+03  0.31976611411E+03  0.00000000000E+00 0.  1.
         22    1    3    3    0    0 -0.15229113856E+01 -0.15621013322E+02 -0.18709381357E+02  0.24420816266E+02  0.00000000000E+00 0.  1.
</event>
<event>
 7    1  0.6017574E-006  0.5428009E+02  0.7818608E-02  0.1471762E+00
          2   -1    0    0  502    0  0.00000000000E+00  0.00000000000E+00  0.16269812807E+04  0.16269812807E+04  0.00000000000E+00 0. -1.
          1   -1    0    0  501    0 -0.00000000000E+00 -0.00000000000E+00 -0.31722729753E+03  0.31722729753E+03  0.00000000000E+00 0. -1.
         25    2    1    2    0    0  0.69254903526E+02 -0.21980263435E+02  0.55490440256E+03  0.57342912409E+03  0.12499076256E+03 0.  0.
          2    1    1    2  501    0 -0.52834966407E+02 -0.12288196094E+02 -0.30523318515E+03  0.31001585565E+03  0.00000000000E+00 0. -1.
          1    1    1    2  502    0 -0.16419937118E+02  0.34268459530E+02  0.10600827658E+04  0.10607635985E+04  0.00000000000E+00 0. -1.
         22    1    3    3    0    0  0.47974681197E+02  0.43989487995E+01  0.52790032572E+03  0.53009402438E+03  0.00000000000E+00 0. -1.
         22    1    3    3    0    0  0.21280222329E+02 -0.26379212235E+02  0.27004076839E+02  0.43335099705E+02  0.00000000000E+00 0. -1.
</event>
<event>
 7    1  0.6017574E-006  0.3055318E+03  0.7818608E-02  0.1214824E+00
          2   -1    0    0  502    0  0.00000000000E+00  0.00000000000E+00  0.71690400982E+03  0.71690400982E+03  0.00000000000E+00 0. -1.
          1   -1    0    0  501    0 -0.00000000000E+00 -0.00000000000E+00 -0.88505680202E+03  0.88505680202E+03  0.00000000000E+00 0. -1.
         25    2    1    2    0    0  0.17392750509E+03  0.27144473274E+03  0.49979432332E+03  0.60774187808E+03  0.12499121884E+03 0.  0.
          2    1    1    2  501    0  0.20975511283E+00 -0.63141124829E+02 -0.71575816885E+03  0.71853782219E+03  0.00000000000E+00 0. -1.
          1    1    1    2  502    0 -0.17413726021E+03 -0.20830360791E+03  0.47811053324E+02  0.27568111158E+03  0.00000000000E+00 0. -1.
         22    1    3    3    0    0  0.10577023944E+03  0.21451522743E+03  0.26634352128E+03  0.35797066595E+03  0.00000000000E+00 0. -1.
         22    1    3    3    0    0  0.68157265656E+02  0.56929505305E+02  0.23345080204E+03  0.24977121213E+03  0.00000000000E+00 0. -1.
</event>
<event>
 7    1  0.6017574E-006  0.1456963E+03  0.7818608E-02  0.1360802E+00
          2   -1    0    0  502    0  0.00000000000E+00  0.00000000000E+00  0.71698806467E+03  0.71698806467E+03  0.00000000000E+00 0. -1.
          1   -1    0    0  501    0 -0.00000000000E+00 -0.00000000000E+00 -0.33322112438E+03  0.33322112438E+03  0.00000000000E+00 0. -1.
         25    2    1    2    0    0 -0.45806779210E+01 -0.17165572430E+03  0.23859617412E+03  0.31943714438E+03  0.12500113844E+03 0.  0.
          2    1    1    2  501    0  0.52168583848E+01  0.33022306998E+02 -0.28081337695E+03  0.28279646575E+03  0.00000000000E+00 0. -1.
          1    1    1    2  502    0 -0.63618046385E+00  0.13863341730E+03  0.42598414311E+03  0.44797557891E+03  0.00000000000E+00 0. -1.
         22    1    3    3    0    0 -0.10108948122E-01 -0.69718348964E+02  0.11755161978E+02  0.70702419460E+02  0.00000000000E+00 0. -1.
         22    1    3    3    0    0 -0.45705689729E+01 -0.10193737534E+03  0.22684101215E+03  0.24873472492E+03  0.00000000000E+00 0. -1.
</event>
<event>
 7    1  0.6017574E-006  0.7166395E+02  0.7818608E-02  0.1373494E+00
          2   -1    0    0  502    0  0.00000000000E+00  0.00000000000E+00  0.16187690200E+04  0.16187690200E+04  0.00000000000E+00 0. -1.
          1   -1    0    0  501    0 -0.00000000000E+00 -0.00000000000E+00 -0.46502714685E+03  0.46502714685E+03  0.00000000000E+00 0. -1.
         25    2    1    2    0    0 -0.23886875612E+02  0.37096484172E+02  0.13133838379E+03  0.18660728011E+03  0.12500309585E+03 0.  0.
          2    1    1    2  501    0 -0.29967533435E+02 -0.66088895115E+02 -0.43373653800E+03  0.43976491392E+03  0.00000000000E+00 0. -1.
          1    1    1    2  502    0  0.53854409047E+02  0.28992410942E+02  0.14561400274E+04  0.14574239728E+04  0.00000000000E+00 0. -1.
         22    1    3    3    0    0  0.10804125750E+02 -0.41095358301E+02  0.67937207359E+02  0.80131278230E+02  0.00000000000E+00 0.  1.
         22    1    3    3    0    0 -0.34691001362E+02  0.78191842473E+02  0.63401176428E+02  0.10647600188E+03  0.00000000000E+00 0.  1.
</event>
<event>
 7    1  0.6017574E-006  0.1901346E+03  0.7818608E-02  0.1170477E+00
          2   -1    0    0  502    0  0.00000000000E+00  0.00000000000E+00  0.13502513116E+04  0.13502513116E+04  0.00000000000E+00 0. -1.
          1   -1    0    0  501    0 -0.00000000000E+00 -0.00000000000E+00 -0.13289126995E+04  0.13289126995E+04  0.00000000000E+00 0. -1.
         25    2    1    2    0    0  0.15146746921E+03 -0.43286730837E+02  0.21523940602E+03  0.29456542034E+03  0.12499859865E+03 0.  0.
          2    1    1    2  501    0 -0.14951161823E+03 -0.12196651163E+03 -0.12757198561E+04  0.12902289352E+04  0.00000000000E+00 0. -1.
          1    1    1    2  502    0 -0.19558509822E+01  0.16525324247E+03  0.10818190622E+04  0.10943696555E+04  0.00000000000E+00 0. -1.
         22    1    3    3    0    0  0.97983928326E+02 -0.87606640152E+02  0.13448739762E+03  0.18804955126E+03  0.00000000000E+00 0. -1.
         22    1    3    3    0    0  0.53483540889E+02  0.44319909314E+02  0.80752008397E+02  0.10651586909E+03  0.00000000000E+00 0. -1.
</event>
<event>
 7    1  0.6017574E-006  0.1174004E+03  0.7818608E-02  0.1268051E+00
          2   -1    0    0  502    0  0.00000000000E+00  0.00000000000E+00  0.10876074582E+04  0.10876074582E+04  0.00000000000E+00 0. -1.
          1   -1    0    0  501    0 -0.00000000000E+00 -0.00000000000E+00 -0.57127541197E+03  0.57127541197E+03  0.00000000000E+00 0. -1.
         25    2    1    2    0    0  0.52640453846E+02  0.18093512699E+02  0.33613372344E+02  0.14090175943E+03  0.12500021771E+03 0.  0.
          2    1    1    2  501    0  0.54374853230E+02 -0.78884677222E+02 -0.50936241911E+03  0.51829479157E+03  0.00000000000E+00 0. -1.
          1    1    1    2  502    0 -0.10701530708E+03  0.60791164523E+02  0.99208109296E+03  0.99968631912E+03  0.00000000000E+00 0. -1.
         22    1    3    3    0    0 -0.15569586710E+02  0.56459872368E+02  0.15072828103E+02  0.60475775027E+02  0.00000000000E+00 0. -1.
         22    1    3    3    0    0  0.68210040555E+02 -0.38366359669E+02  0.18540544241E+02  0.80425984405E+02  0.00000000000E+00 0. -1.
</event>
<event>
 7    1  0.6017574E-006  0.8706356E+02  0.7818608E-02  0.1386966E+00
          2   -1    0    0  502    0  0.00000000000E+00  0.00000000000E+00  0.22425688240E+03  0.22425688240E+03  0.00000000000E+00 0. -1.
          1   -1    0    0  501    0 -0.00000000000E+00 -0.00000000000E+00 -0.13209558566E+04  0.13209558566E+04  0.00000000000E+00 0. -1.
         25    2    1    2    0    0  0.42901375448E+02 -0.10361518326E+03 -0.22473476566E+03  0.28054255532E+03  0.12498710425E+03 0.  0.
          2    1    1    2  501    0 -0.59766474610E+02  0.61779118225E+02 -0.10639702350E+04  0.10674368140E+04  0.00000000000E+00 0. -1.
          1    1    1    2  502    0  0.16865099162E+02  0.41836065039E+02  0.19200602647E+03  0.19723336966E+03  0.00000000000E+00 0. -1.
         22    1    3    3    0    0  0.42837232865E+02 -0.54171261092E+02 -0.22033307690E+03  0.23090305071E+03  0.00000000000E+00 0.  1.
         22    1    3    3    0    0  0.64142582706E-01 -0.49443922172E+02 -0.44016887589E+01  0.49639504611E+02  0.00000000000E+00 0.  1.
</event>
<event>
 7    1  0.6017574E-006  0.6658610E+02  0.7818608E-02  0.1516678E+00
          2   -1    0    0  502    0  0.00000000000E+00  0.00000000000E+00  0.38708488831E+02  0.38708488831E+02  0.00000000000E+00 0. -1.
          1   -1    0    0  501    0 -0.00000000000E+00 -0.00000000000E+00 -0.10627833684E+04  0.10627833684E+04  0.00000000000E+00 0. -1.
         25    2    1    2    0    0  0.15651566249E+02  0.60709810866E+02 -0.64630955024E+03  0.66126965170E+03  0.12502345726E+03 0.  0.
          2    1    1    2  501    0  0.55106000092E+01 -0.68903980032E+02 -0.40148687947E+03  0.40739396113E+03  0.00000000000E+00 0. -1.
          1    1    1    2  502    0 -0.21162166259E+02  0.81941691659E+01  0.23721550145E+02  0.32828244399E+02  0.00000000000E+00 0. -1.
         22    1    3    3    0    0  0.23747006860E+02 -0.10917032370E+02 -0.26279696629E+02  0.37063788062E+02  0.00000000000E+00 0.  1.
         22    1    3    3    0    0 -0.80954406109E+01  0.71626843236E+02 -0.62002985362E+03  0.62420586364E+03  0.00000000000E+00 0.  1.
</event>
<event>
 7    1  0.6017574E-006  0.6324732E+02  0.7818608E-02  0.1452958E+00
          2   -1    0    0  502    0  0.00000000000E+00  0.00000000000E+00  0.43328075629E+03  0.43328075629E+03  0.00000000000E+00 0. -1.
          1   -1    0    0  501    0 -0.00000000000E+00 -0.00000000000E+00 -0.15826368255E+03  0.15826368255E+03  0.00000000000E+00 0. -1.
         25    2    1    2    0    0  0.94102430123E+02  0.27056739328E+02  0.17495334043E+03  0.23626390170E+03  0.12499850168E+03 0.  0.
          2    1    1    2  501    0 -0.61316063749E+02 -0.91283276078E+01 -0.11839831981E+03  0.13364560664E+03  0.00000000000E+00 0. -1.
          1    1    1    2  502    0 -0.32786366374E+02 -0.17928411721E+02  0.21846205312E+03  0.22163493051E+03  0.00000000000E+00 0. -1.
         22    1    3    3    0    0  0.74399725959E+01  0.28754868038E+02 -0.10540926297E+02  0.31516769430E+02  0.00000000000E+00 0.  1.
         22    1    3    3    0    0  0.86662457527E+02 -0.16981287101E+01  0.18549426673E+03  0.20474713227E+03  0.00000000000E+00 0.  1.
</event>
<event>
 7    1  0.6017574E-006  0.1020204E+03  0.7818608E-02  0.1288401E+00
          2   -1    0    0  502    0  0.00000000000E+00  0.00000000000E+00  0.27870457246E+03  0.27870457246E+03  0.00000000000E+00 0. -1.
          1   -1    0    0  501    0 -0.00000000000E+00 -0.00000000000E+00 -0.12187794281E+04  0.12187794281E+04  0.00000000000E+00 0. -1.
         25    2    1    2    0    0 -0.75671296717E+02  0.49155577013E+02 -0.57326678252E+03  0.59363512602E+03  0.12500177201E+03 0.  0.
          2    1    1    2  501    0 -0.83216326952E+01 -0.10706362229E+03 -0.62085965868E+03  0.63007823686E+03  0.00000000000E+00 0. -1.
          1    1    1    2  502    0  0.83992929412E+02  0.57908045276E+02  0.25405158559E+03  0.27377063765E+03  0.00000000000E+00 0. -1.
         22    1    3    3    0    0 -0.96042790124E+02  0.65802573972E+02 -0.35071492828E+03  0.36953370238E+03  0.00000000000E+00 0.  1.
         22    1    3    3    0    0  0.20371493407E+02 -0.16646996959E+02 -0.22255185424E+03  0.22410142364E+03  0.00000000000E+00 0.  1.
</event>
<event>
 7    1  0.6017574E-006  0.1452679E+03  0.7818608E-02  0.1246482E+00
          2   -1    0    0  502    0  0.00000000000E+00  0.00000000000E+00  0.15643134341E+04  0.15643134341E+04  0.00000000000E+00 0. -1.
          1   -1    0    0  501    0 -0.00000000000E+00 -0.00000000000E+00 -0.49963138677E+02  0.49963138677E+02  0.00000000000E+00 0. -1.
         25    2    1    2    0    0  0.11627844597E+03  0.10055891185E+03  0.48869366643E+03  0.52733268025E+03  0.12500193721E+03 0.  0.
          2    1    1    2  501    0  0.33227478936E+02 -0.89857043405E+02  0.67646845158E+02  0.11727936419E+03  0.00000000000E+00 0. -1.
          1    1    1    2  502    0 -0.14950592491E+03 -0.10701868449E+02  0.95800978385E+03  0.96966452834E+03  0.00000000000E+00 0. -1.
         22    1    3    3    0    0  0.13176425215E+03  0.87262452012E+02  0.47963607906E+03  0.50500229902E+03  0.00000000000E+00 0. -1.
         22    1    3    3    0    0 -0.15485806177E+02  0.13296459842E+02  0.90575873669E+01  0.22330381237E+02  0.00000000000E+00 0. -1.
</event>
<event>
 7    1  0.6017574E-006  0.7536886E+02  0.7818608E-02  0.1407150E+00
          2   -1    0    0  502    0  0.00000000000E+00  0.00000000000E+00  0.28969219563E+03  0.28969219563E+03  0.00000000000E+00 0. -1.
          1   -1    0    0  501    0 -0.00000000000E+00 -0.00000000000E+00 -0.35123373789E+03  0.35123373789E+03  0.00000000000E+00 0. -1.
         25    2    1    2    0    0  0.38114528283E+02  0.54755235775E+02  0.17480792585E+02  0.14276176394E+03  0.12499796007E+03 0.  0.
          2    1    1    2  501    0  0.47921017331E+00 -0.76665874286E+02 -0.28105003935E+03  0.29131943042E+03  0.00000000000E+00 0. -1.
          1    1    1    2  502    0 -0.38593738457E+02  0.21910638511E+02  0.20202770451E+03  0.20684473916E+03  0.00000000000E+00 0. -1.
         22    1    3    3    0    0  0.47389620506E+02  0.91566081628E+02  0.68002578782E+01  0.10332650649E+03  0.00000000000E+00 0. -1.
         22    1    3    3    0    0 -0.92750922228E+01 -0.36810845853E+02  0.10680534707E+02  0.39435257445E+02  0.00000000000E+00 0. -1.
</event>
<event>
 7    1  0.6017574E-006  0.2916497E+02  0.7818608E-02  0.1619617E+00
          2   -1    0    0  502    0  0.00000000000E+00  0.00000000000E+00  0.11744206763E+04  0.11744206763E+04  0.00000000000E+00 0. -1.
          1   -1    0    0  501    0 -0.00000000000E+00 -0.00000000000E+00 -0.22064745624E+03  0.22064745624E+03  0.00000000000E+00 0. -1.
         25    2    1    2    0    0 -0.18502947163E+02 -0.43479899589E+02  0.15262162064E+03  0.20286050007E+03  0.12500465064E+03 0.  0.
          2    1    1    2  501    0 -0.43193367801E+01  0.28774613481E+02 -0.19425940181E+03  0.19642644996E+03  0.00000000000E+00 0. -1.
          1    1    1    2  502    0  0.22822283944E+02  0.14705286107E+02  0.99541100120E+03  0.99578118248E+03  0.00000000000E+00 0. -1.
         22    1    3    3    0    0 -0.12393724676E+02  0.42125513687E+02  0.76185575246E+02  0.87934095722E+02  0.00000000000E+00 0.  1.
         22    1    3    3    0    0 -0.61092224875E+01 -0.85605413276E+02  0.76436045398E+02  0.11492640435E+03  0.00000000000E+00 0.  1.
</event>
<event>
 7    1  0.6017574E-006  0.1988197E+03  0.7818608E-02  0.1221319E+00
          2   -1    0    0  502    0  0.00000000000E+00  0.00000000000E+00  0.12622035499E+04  0.12622035499E+04  0.00000000000E+00 0. -1.
          1   -1    0    0  501    0 -0.00000000000E+00 -0.00000000000E+00 -0.87093502526E+02  0.87093502526E+02  0.00000000000E+00 0. -1.
         25    2    1    2    0    0 -0.10829244192E+03  0.21832349486E+03  0.61391776953E+03  0.67224327909E+03  0.12499438845E+03 0.  0.
          2    1    1    2  501    0  0.13625590539E+03 -0.13213030537E+03  0.11536500571E+03  0.22211072440E+03  0.00000000000E+00 0. -1.
          1    1    1    2  502    0 -0.27963463462E+02 -0.86193189492E+02  0.44582727214E+03  0.45494304894E+03  0.00000000000E+00 0. -1.
         22    1    3    3    0    0  0.87404657586E+01  0.11869953090E+03  0.29913466647E+03  0.32194335381E+03  0.00000000000E+00 0.  1.
         22    1    3    3    0    0 -0.11703290768E+03  0.99623963965E+02  0.31478310306E+03  0.35029992528E+03  0.00000000000E+00 0.  1.
</event>
<event>
 7    1  0.6017574E-006  0.6599863E+02  0.7818608E-02  0.1396008E+00
          2   -1    0    0  502    0  0.00000000000E+00  0.00000000000E+00  0.73686975103E+03  0.73686975103E+03  0.00000000000E+00 0. -1.
          1   -1    0    0  501    0 -0.00000000000E+00 -0.00000000000E+00 -0.13005795316E+03  0.13005795316E+03  0.00000000000E+00 0. -1.
         25    2    1    2    0    0  0.21720921898E+02  0.20201127428E+01  0.23076610761E+03  0.26334676657E+03  0.12499057459E+03 0.  0.
          2    1    1    2  501    0  0.41438875632E+02  0.36684446206E+02 -0.10402389586E+03  0.11782996188E+03  0.00000000000E+00 0. -1.
          1    1    1    2  502    0 -0.63159797530E+02 -0.38704558949E+02  0.48006958613E+03  0.48575097574E+03  0.00000000000E+00 0. -1.
         22    1    3    3    0    0  0.36502017821E+02 -0.12675236058E+02  0.78137433537E+01  0.39422246250E+02  0.00000000000E+00 0.  1.
         22    1    3    3    0    0 -0.14781095923E+02  0.14695348801E+02  0.22295236425E+03  0.22392452032E+03  0.00000000000E+00 0.  1.
</event>
<event>
 7    1  0.6017574E-006  0.1434808E+03  0.7818608E-02  0.1316090E+00
          2   -1    0    0  502    0  0.00000000000E+00  0.00000000000E+00  0.62009534473E+03  0.62009534473E+03  0.00000000000E+00 0. -1.
          1   -1    0    0  501    0 -0.00000000000E+00 -0.00000000000E+00 -0.13026891566E+04  0.13026891566E+04  0.00000000000E+00 0. -1.
         25    2    1    2    0    0  0.48409374288E+02  0.11735304497E+03 -0.41258654603E+03  0.44940765805E+03  0.12499752186E+03 0.  0.
          2    1    1    2  501    0  0.48797456510E+02 -0.11163696272E+02 -0.86234442884E+03  0.86379611821E+03  0.00000000000E+00 0. -1.
          1    1    1    2  502    0 -0.97206830798E+02 -0.10618934870E+03  0.59233716299E+03  0.60958072508E+03  0.00000000000E+00 0. -1.
         22    1    3    3    0    0  0.81162048878E+02  0.62726594288E+02 -0.32707119730E+03  0.34277904241E+03  0.00000000000E+00 0.  1.
         22    1    3    3    0    0 -0.32752674589E+02  0.54626450685E+02 -0.85515348724E+02  0.10662861565E+03  0.00000000000E+00 0.  1.
</event>
<event>
 7    1  0.6017574E-006  0.3113371E+02  0.7818608E-02  0.1632688E+00
          2   -1    0    0  502    0  0.00000000000E+00  0.00000000000E+00  0.37391940777E+03  0.37391940777E+03  0.00000000000E+00 0. -1.
          1   -1    0    0  501    0 -0.00000000000E+00 -0.00000000000E+00 -0.10848644703E+04  0.10848644703E+04  0.00000000000E+00 0. -1.
         25    2    1    2    0    0  0.38158545604E+02  0.22138350213E+02  0.12434071435E+00  0.13256064111E+03  0.12500450775E+03 0.  0.
          2    1    1    2  501    0 -0.31107358276E+02  0.35243458942E+00 -0.10179567889E+04  0.10184320380E+04  0.00000000000E+00 0. -1.
          1    1    1    2  502    0 -0.70511873274E+01 -0.22490784803E+02  0.30688738569E+03  0.30779119893E+03  0.00000000000E+00 0. -1.
         22    1    3    3    0    0  0.16347901412E+02  0.43913479262E+01  0.62173968173E+02  0.64437102166E+02  0.00000000000E+00 0. -1.
         22    1    3    3    0    0  0.21810644192E+02  0.17747002287E+02 -0.62049627458E+02  0.68123538942E+02  0.00000000000E+00 0. -1.
</event>
<event>
 7    1  0.6017574E-006  0.1089433E+03  0.7818608E-02  0.1439562E+00
          2   -1    0    0  502    0  0.00000000000E+00  0.00000000000E+00  0.22892605748E+03  0.22892605748E+03  0.00000000000E+00 0. -1.
          1   -1    0    0  501    0 -0.00000000000E+00 -0.00000000000E+00 -0.10620651506E+04  0.10620651506E+04  0.00000000000E+00 0. -1.
         25    2    1    2    0    0  0.94702558600E+02 -0.82075957572E+02 -0.28432172238E+03  0.33491579404E+03  0.12499883944E+03 0.  0.
          2    1    1    2  501    0 -0.70866497341E+02  0.79672975155E+02 -0.74794719715E+03  0.75550966450E+03  0.00000000000E+00 0. -1.
          1    1    1    2  502    0 -0.23836061259E+02  0.24029824176E+01  0.19912982639E+03  0.20056574957E+03  0.00000000000E+00 0. -1.
         22    1    3    3    0    0  0.53781122062E+02 -0.44601198757E+01 -0.21945854659E+02  0.58257379758E+02  0.00000000000E+00 0. -1.
         22    1    3    3    0    0  0.40921436538E+02 -0.77615837697E+02 -0.26237586772E+03  0.27665841428E+03  0.00000000000E+00 0. -1.
</event>
<event>
 7    1  0.6017574E-006  0.4317572E+02  0.7818608E-02  0.1494894E+00
          2   -1    0    0  502    0  0.00000000000E+00  0.00000000000E+00  0.10895169132E+04  0.10895169132E+04  0.00000000000E+00 0. -1.
          1   -1    0    0  501    0 -0.00000000000E+00 -0.00000000000E+00 -0.81427156007E+02  0.81427156007E+02  0.00000000000E+00 0. -1.
         25    2    1    2    0    0 -0.10331308080E+02  0.20636246583E+02  0.84445626858E+02  0.15260603967E+03  0.12499979539E+03 0.  0.
          2    1    1    2  501    0  0.46194425820E+02 -0.16026517694E+01 -0.35533180235E+02  0.58301804150E+02  0.00000000000E+00 0. -1.
          1    1    1    2  502    0 -0.35863117740E+02 -0.19033594813E+02  0.95917731052E+03  0.96003622534E+03  0.00000000000E+00 0. -1.
         22    1    3    3    0    0  0.43176127432E+01  0.67217895660E+02  0.17229609047E+02  0.69525151598E+02  0.00000000000E+00 0. -1.
         22    1    3    3    0    0 -0.14648920823E+02 -0.46581649078E+02  0.67216017811E+02  0.83080888070E+02  0.00000000000E+00 0. -1.
</event>
<event>
 7    1  0.6017574E-006  0.1111269E+03  0.7818608E-02  0.1440113E+00
          2   -1    0    0  502    0  0.00000000000E+00  0.00000000000E+00  0.26440322283E+04  0.26440322283E+04  0.00000000000E+00 0. -1.
          1   -1    0    0  501    0 -0.00000000000E+00 -0.00000000000E+00 -0.14043149306E+03  0.14043149306E+03  0.00000000000E+00 0. -1.
         25    2    1    2    0    0 -0.10618976257E+03 -0.20589257149E+02  0.90767238115E+03  0.92260279389E+03  0.12500632222E+03 0.  0.
          2    1    1    2  501    0  0.11123953872E+03 -0.22487142968E+01 -0.10959680899E+03  0.15617538933E+03  0.00000000000E+00 0. -1.
          1    1    1    2  502    0 -0.50497761522E+01  0.22837971446E+02  0.17055251631E+04  0.17056855382E+04  0.00000000000E+00 0. -1.
         22    1    3    3    0    0 -0.12101590449E+03  0.10770827969E+02  0.55036469646E+03  0.56361525794E+03  0.00000000000E+00 0. -1.
         22    1    3    3    0    0  0.14826141923E+02 -0.31360085117E+02  0.35730768470E+03  0.35898753595E+03  0.00000000000E+00 0. -1.
</event>
<event>
 7    1  0.6017574E-006  0.1547300E+03  0.7818608E-02  0.1275794E+00
          2   -1    0    0  502    0  0.00000000000E+00  0.00000000000E+00  0.15375273461E+04  0.15375273461E+04  0.00000000000E+00 0. -1.
          1   -1    0    0  501    0 -0.00000000000E+00 -0.00000000000E+00 -0.29820179298E+03  0.29820179298E+03  0.00000000000E+00 0. -1.
         25    2    1    2    0    0  0.21783589764E+03  0.45867087551E+01  0.32492743672E+03  0.41070247703E+03  0.12500067722E+03 0.  0.
          2    1    1    2  501    0 -0.15057612046E+03 -0.98625062846E+01 -0.23193903613E+03  0.27670589723E+03  0.00000000000E+00 0. -1.
          1    1    1    2  502    0 -0.67259777179E+02  0.52757975295E+01  0.11463371526E+04  0.11483207649E+04  0.00000000000E+00 0. -1.
         22    1    3    3    0    0  0.15874752402E+03 -0.40443505705E+02  0.27846817979E+03  0.32308045545E+03  0.00000000000E+00 0.  1.
         22    1    3    3    0    0  0.59088373620E+02  0.45030214460E+02  0.46459256929E+02  0.87622021581E+02  0.00000000000E+00 0.  1.
</event>
<event>
 7    1  0.6017574E-006  0.9764339E+02  0.7818608E-02  0.1373302E+00
          2   -1    0    0  502    0  0.00000000000E+00  0.00000000000E+00  0.76610623187E+03  0.76610623187E+03  0.00000000000E+00 0. -1.
          1   -1    0    0  501    0 -0.00000000000E+00 -0.00000000000E+00 -0.20423264469E+03  0.20423264469E+03  0.00000000000E+00 0. -1.
         25    2    1    2    0    0  0.12454744279E+02 -0.64411121658E+02  0.48455296787E+03  0.50469916347E+03  0.12500301474E+03 0.  0.
          2    1    1    2  501    0 -0.53474744302E+02  0.82817377200E+02 -0.17956679682E+03  0.20484750612E+03  0.00000000000E+00 0. -1.
          1    1    1    2  502    0  0.41020000023E+02 -0.18406255542E+02  0.25688741613E+03  0.26079220696E+03  0.00000000000E+00 0. -1.
         22    1    3    3    0    0  0.58501699801E+01 -0.11890148363E+02 -0.35623822638E+01  0.13721905272E+02  0.00000000000E+00 0.  1.
         22    1    3    3    0    0  0.66045742989E+01 -0.52520973294E+02  0.48811535013E+03  0.49097725820E+03  0.00000000000E+00 0.  1.
</event>
<event>
 7    1  0.6017574E-006  0.1144373E+03  0.7818608E-02  0.1372543E+00
          2   -1    0    0  502    0  0.00000000000E+00  0.00000000000E+00  0.57459331971E+03  0.57459331971E+03  0.00000000000E+00 0. -1.
          1   -1    0    0  501    0 -0.00000000000E+00 -0.00000000000E+00 -0.35645113180E+03  0.35645113180E+03  0.00000000000E+00 0. -1.
         25    2    1    2    0    0  0.67822134457E+02 -0.12680018302E+03  0.36008335395E+02  0.19390621225E+03  0.12499956239E+03 0.  0.
          2    1    1    2  501    0 -0.68592193335E+02  0.88204786727E+02 -0.26538985279E+03  0.28795268248E+03  0.00000000000E+00 0. -1.
          1    1    1    2  502    0  0.77005887775E+00  0.38595396289E+02  0.44752370530E+03  0.44918555677E+03  0.00000000000E+00 0. -1.
         22    1    3    3    0    0  0.75622817597E+02 -0.10687468336E+03  0.73936499291E+02  0.15035828681E+03  0.00000000000E+00 0. -1.
         22    1    3    3    0    0 -0.78006831398E+01 -0.19925499651E+02 -0.37928163896E+02  0.43547925442E+02  0.00000000000E+00 0. -1.
</event>
<event>
 7    1  0.6017574E-006  0.1100830E+03  0.7818608E-02  0.1397005E+00
          2   -1    0    0  502    0  0.00000000000E+00  0.00000000000E+00  0.72745458140E+03  0.72745458140E+03  0.00000000000E+00 0. -1.
          1   -1    0    0  501    0 -0.00000000000E+00 -0.00000000000E+00 -0.74195759729E+03  0.74195759729E+03  0.00000000000E+00 0. -1.
         25    2    1    2    0    0  0.76858011855E+02 -0.87271631080E+02  0.27523455789E+03  0.32389002420E+03  0.12500877706E+03 0.  0.
          2    1    1    2  501    0 -0.46415257013E+02  0.99795539639E+02 -0.71276670319E+03  0.72121418386E+03  0.00000000000E+00 0. -1.
          1    1    1    2  502    0 -0.30442754842E+02 -0.12523908558E+02  0.42302912942E+03  0.42430797064E+03  0.00000000000E+00 0. -1.
         22    1    3    3    0    0 -0.17828633674E+02  0.20568667016E+02  0.44864240887E+02  0.52475997864E+02  0.00000000000E+00 0. -1.
         22    1    3    3    0    0  0.94686645528E+02 -0.10784029810E+03  0.23037031700E+03  0.27141402633E+03  0.00000000000E+00 0. -1.
</event>
<event>
 7    1  0.6017574E-006  0.8255306E+02  0.7818608E-02  0.1430661E+00
          2   -1    0    0  502    0  0.00000000000E+00  0.00000000000E+00  0.67327728896E+03  0.67327728896E+03  0.00000000000E+00 0. -1.
          1   -1    0    0  501    0 -0.00000000000E+00 -0.00000000000E+00 -0.41663054415E+02  0.41663054415E+02  0.00000000000E+00 0. -1.
         25    2    1    2    0    0 -0.71128304508E+02  0.32514817103E+02  0.17573720502E+03  0.22940741347E+03  0.12501098788E+03 0.  0.
          2    1    1    2  501    0  0.60040630353E+02 -0.64450396014E+02  0.12490966781E+03  0.15284356693E+03  0.00000000000E+00 0. -1.
          1    1    1    2  502    0  0.11087674155E+02  0.31935578912E+02  0.33096736171E+03  0.33268936298E+03  0.00000000000E+00 0. -1.
         22    1    3    3    0    0  0.35826173238E+02  0.15811508412E+02  0.49298697101E+02  0.62959352149E+02  0.00000000000E+00 0. -1.
         22    1    3    3    0    0 -0.10695447775E+03  0.16703308691E+02  0.12643850792E+03  0.16644806132E+03  0.00000000000E+00 0. -1.
</event>
<event>
 7    1  0.6017574E-006  0.2108164E+03  0.7818608E-02  0.1207844E+00
          2   -1    0    0  502    0  0.00000000000E+00  0.00000000000E+00  0.22246881288E+04  0.22246881288E+04  0.00000000000E+00 0. -1.
          1   -1    0    0  501    0 -0.00000000000E+00 -0.00000000000E+00 -0.50385879451E+03  0.50385879451E+03  0.00000000000E+00 0. -1.
         25    2    1    2    0    0 -0.14035951617E+03  0.38917852603E+02  0.90027226675E+02  0.21200959050E+03  0.12501108708E+03 0.  0.
          2    1    1    2  501    0  0.18528216810E+03 -0.12665935628E+03 -0.41316821041E+03  0.47019149763E+03  0.00000000000E+00 0. -1.
          1    1    1    2  502    0 -0.44922651937E+02  0.87741503675E+02  0.20439703180E+04  0.20463458352E+04  0.00000000000E+00 0. -1.
         22    1    3    3    0    0  0.85561297574E+01 -0.26726307761E+02  0.53939271818E+01  0.28576167227E+02  0.00000000000E+00 0. -1.
         22    1    3    3    0    0 -0.14891564593E+03  0.65644160363E+02  0.84633299493E+02  0.18343342327E+03  0.00000000000E+00 0. -1.
</event>
<event>
 7    1  0.6017574E-006  0.3545287E+02  0.7818608E-02  0.1596870E+00
          2   -1    0    0  502    0  0.00000000000E+00  0.00000000000E+00  0.37698939517E+02  0.37698939517E+02  0.00000000000E+00 0. -1.
          1   -1    0    0  501    0 -0.00000000000E+00 -0.00000000000E+00 -0.15924077598E+04  0.15924077598E+04  0.00000000000E+00 0. -1.
         25    2    1    2    0    0 -0.34897386496E+02 -0.44315466861E+02 -0.34440721528E+03  0.37070406160E+03  0.12499393252E+03 0.  0.
          2    1    1    2  501    0  0.11961143904E+02  0.33005395987E+02 -0.12278728651E+04  0.12283746163E+04  0.00000000000E+00 0. -1.
          1    1    1    2  502    0  0.22936242593E+02  0.11310070875E+02  0.17571260135E+02  0.31028021371E+02  0.00000000000E+00 0. -1.
         22    1    3    3    0    0  0.32892985635E+02 -0.48030536600E+00 -0.25179197961E+02  0.41426696793E+02  0.00000000000E+00 0. -1.
         22    1    3    3    0    0 -0.67790372131E+02 -0.43835161495E+02 -0.31922801732E+03  0.32927736481E+03  0.00000000000E+00 0. -1.
</event>
<event>
 7    1  0.6017574E-006  0.9438337E+02  0.7818608E-02  0.1318389E+00
          2   -1    0    0  502    0  0.00000000000E+00  0.00000000000E+00  0.64059817186E+03  0.64059817186E+03  0.00000000000E+00 0. -1.
          1   -1    0    0  501    0 -0.00000000000E+00 -0.00000000000E+00 -0.48528414022E+03  0.48528414022E+03  0.00000000000E+00 0. -1.
         25    2    1    2    0    0  0.11269379897E+03  0.11910639245E+03  0.12680384963E+03  0.24205406410E+03  0.12499891445E+03 0.  0.
          2    1    1    2  501    0 -0.51050211191E+02 -0.77190762995E+02 -0.41953664839E+03  0.42962255213E+03  0.00000000000E+00 0. -1.
          1    1    1    2  502    0 -0.61643587777E+02 -0.41915629459E+02  0.44804683040E+03  0.45420569585E+03  0.00000000000E+00 0. -1.
         22    1    3    3    0    0  0.10849857143E+03  0.14435674284E+03  0.11084929866E+03  0.21189236942E+03  0.00000000000E+00 0.  1.
         22    1    3    3    0    0  0.41952275354E+01 -0.25250350387E+02  0.15954550972E+02  0.30161694671E+02  0.00000000000E+00 0.  1.
</event>
<event>
 7    1  0.6017574E-006  0.3493695E+02  0.7818608E-02  0.1584000E+00
          2   -1    0    0  502    0  0.00000000000E+00  0.00000000000E+00  0.23024976547E+02  0.23024976547E+02  0.00000000000E+00 0. -1.
          1   -1    0    0  501    0 -0.00000000000E+00 -0.00000000000E+00 -0.86876539422E+03  0.86876539422E+03  0.00000000000E+00 0. -1.
         25    2    1    2    0    0 -0.14712331845E+02 -0.92704922750E+00 -0.52687986429E+03  0.54170534894E+03  0.12499992622E+03 0.  0.
          2    1    1    2  501    0  0.32340082237E+02 -0.20913815455E+02 -0.31969409900E+03  0.32200556755E+03  0.00000000000E+00 0. -1.
          1    1    1    2  502    0 -0.17627750392E+02  0.21840864682E+02  0.83354561805E+00  0.28079454273E+02  0.00000000000E+00 0. -1.
         22    1    3    3    0    0  0.12121454001E+02 -0.41763615602E+02 -0.71320541353E+02  0.83532920781E+02  0.00000000000E+00 0.  1.
         22    1    3    3    0    0 -0.26833785847E+02  0.40836566375E+02 -0.45555932293E+03  0.45817242816E+03  0.00000000000E+00 0.  1.
</event>
<event>
 7    1  0.6017574E-006  0.5226318E+02  0.7818608E-02  0.1504554E+00
          2   -1    0    0  502    0  0.00000000000E+00  0.00000000000E+00  0.31709643125E+04  0.31709643125E+04  0.00000000000E+00 0. -1.
          1   -1    0    0  501    0 -0.00000000000E+00 -0.00000000000E+00 -0.39578506599E+03  0.39578506599E+03  0.00000000000E+00 0. -1.
         25    2    1    2    0    0 -0.31538405610E+02  0.73752542094E+02  0.15349525030E+04  0.15421216470E+04  0.12500351571E+03 0.  0.
          2    1    1    2  501    0  0.95529366677E+01 -0.51352768942E+02 -0.39030965767E+03  0.39378927658E+03  0.00000000000E+00 0. -1.
          1    1    1    2  502    0  0.21985468943E+02 -0.22399773152E+02  0.16305364012E+04  0.16308384550E+04  0.00000000000E+00 0. -1.
         22    1    3    3    0    0  0.95842717456E+01  0.70241866032E+02  0.38777893618E+03  0.39420588701E+03  0.00000000000E+00 0.  1.
         22    1    3    3    0    0 -0.41122677356E+02  0.35106760617E+01  0.11471735669E+04  0.11479157599E+04  0.00000000000E+00 0.  1.
</event>
<event>
 7    1  0.6017574E-006  0.6389044E+02  0.7818608E-02  0.1428389E+00
          2   -1    0    0  502    0  0.00000000000E+00  0.00000000000E+00  0.35256991029E+03  0.35256991029E+03  0.00000000000E+00 0. -1.
          1   -1    0    0  501    0 -0.00000000000E+00 -0.00000000000E+00 -0.66360119968E+02  0.66360119968E+02  0.00000000000E+00 0. -1.
         25    2    1    2    0    0 -0.74378639014E+02  0.63187735834E+02  0.87350954628E+02  0.18105462919E+03  0.12500287027E+03 0.  0.
          2    1    1    2  501    0  0.41908298138E+02 -0.32847346519E+02  0.25737066219E+02  0.59140935093E+02  0.00000000000E+00 0. -1.
          1    1    1    2  502    0  0.32470340876E+02 -0.30340389315E+02  0.17312176947E+03  0.17873446597E+03  0.00000000000E+00 0. -1.
         22    1    3    3    0    0 -0.10604292274E+03  0.45823986700E+02  0.41631072937E+02  0.12279285588E+03  0.00000000000E+00 0. -1.
         22    1    3    3    0    0  0.31664283727E+02  0.17363749134E+02  0.45719881691E+02  0.58261773315E+02  0.00000000000E+00 0. -1.
</event>
<event>
 7    1  0.6017574E-006  0.1286604E+03  0.7818608E-02  0.1399247E+00
          2   -1    0    0  502    0  0.00000000000E+00  0.00000000000E+00  0.12323167220E+04  0.12323167220E+04  0.00000000000E+00 0. -1.
          1   -1    0    0  501    0 -0.00000000000E+00 -0.00000000000E+00 -0.16330640347E+03  0.16330640347E+03  0.00000000000E+00 0. -1.
         25    2    1    2    0    0 -0.57600858533E+02 -0.10323689553E+03  0.19910298213E+03  0.26314742566E+03  0.12501541758E+03 0.  0.
          2    1    1    2  501    0 -0.27319987246E+02  0.43756680704E+01 -0.12553005924E+03  0.12854308207E+03  0.00000000000E+00 0. -1.
          1    1    1    2  502    0  0.84920845779E+02  0.98861227463E+02  0.99543739561E+03  0.10039326177E+04  0.00000000000E+00 0. -1.
         22    1    3    3    0    0 -0.59729327460E+02  0.23202871144E+01  0.10914712632E+03  0.12444304511E+03  0.00000000000E+00 0. -1.
         22    1    3    3    0    0  0.21284689277E+01 -0.10555718265E+03  0.89955855810E+02  0.13870438055E+03  0.00000000000E+00 0. -1.
</event>
<event>
 7    1  0.6017574E-006  0.1614327E+03  0.7818608E-02  0.1267457E+00
          2   -1    0    0  502    0  0.00000000000E+00  0.00000000000E+00  0.21585987335E+04  0.21585987335E+04  0.00000000000E+00 0. -1.
          1   -1    0    0  501    0 -0.00000000000E+00 -0.00000000000E+00 -0.63267893415E+03  0.63267893415E+03  0.00000000000E+00 0. -1.
         25    2    1    2    0    0 -0.43773412227E+02 -0.11439225389E+03  0.11871854690E+04  0.12000148437E+04  0.12499835137E+03 0.  0.
          2    1    1    2  501    0 -0.79567865295E+01  0.16166964124E+03 -0.61449742939E+03  0.63545847549E+03  0.00000000000E+00 0. -1.
          1    1    1    2  502    0  0.51730198757E+02 -0.47277387350E+02  0.95323175974E+03  0.95580434849E+03  0.00000000000E+00 0. -1.
         22    1    3    3    0    0 -0.31436986868E+02 -0.10661713609E+03  0.48090874809E+03  0.49358760301E+03  0.00000000000E+00 0.  1.
         22    1    3    3    0    0 -0.12336425359E+02 -0.77751178037E+01  0.70627672092E+03  0.70642724067E+03  0.00000000000E+00 0.  1.
</event>
<event>
 7    1  0.6017574E-006  0.4409338E+02  0.7818608E-02  0.1519216E+00
          2   -1    0    0  502    0  0.00000000000E+00  0.00000000000E+00  0.15713367246E+03  0.15713367246E+03  0.00000000000E+00 0. -1.
          1   -1    0    0  501    0 -0.00000000000E+00 -0.00000000000E+00 -0.51422188500E+03  0.51422188500E+03  0.00000000000E+00 0. -1.
         25    2    1    2    0    0 -0.13195209105E+02  0.33255350281E+01  0.12596080153E+00  0.12573727843E+03  0.12499869837E+03 0.  0.
          2    1    1    2  501    0 -0.29483145312E+02  0.16304837425E+02 -0.44488285962E+03  0.44615676882E+03  0.00000000000E+00 0. -1.
          1    1    1    2  502    0  0.42678354417E+02 -0.19630372453E+02  0.87668686278E+02  0.99461510204E+02  0.00000000000E+00 0. -1.
         22    1    3    3    0    0  0.24354473922E+02  0.92038805526E+01  0.53916837284E+02  0.59873843705E+02  0.00000000000E+00 0. -1.
         22    1    3    3    0    0 -0.37549683027E+02 -0.58783455245E+01 -0.53790876483E+02  0.65863434729E+02  0.00000000000E+00 0. -1.
</event>
<event>
 7    1  0.6017574E-006  0.4780431E+02  0.7818608E-02  0.1477856E+00
          2   -1    0    0  502    0  0.00000000000E+00  0.00000000000E+00  0.15968588528E+03  0.15968588528E+03  0.00000000000E+00 0. -1.
          1   -1    0    0  501    0 -0.00000000000E+00 -0.00000000000E+00 -0.58404305656E+03  0.58404305656E+03  0.00000000000E+00 0. -1.
         25    2    1    2    0    0  0.75134549471E+01 -0.62701081859E+02 -0.38920808218E+03  0.41363805673E+03  0.12500253227E+03 0.  0.
          2    1    1    2  501    0  0.26245221727E+02  0.38881514063E+02 -0.17660273203E+03  0.18272686929E+03  0.00000000000E+00 0. -1.
          1    1    1    2  502    0 -0.33758676674E+02  0.23819567796E+02  0.14145364293E+03  0.14736401582E+03  0.00000000000E+00 0. -1.
         22    1    3    3    0    0 -0.18780740428E+02 -0.39905911544E+02 -0.37238101886E+03  0.37498376124E+03  0.00000000000E+00 0.  1.
         22    1    3    3    0    0  0.26294195375E+02 -0.22795170316E+02 -0.16827063320E+02  0.38654295494E+02  0.00000000000E+00 0.  1.
</event>
<event>
 7    1  0.6017574E-006  0.1087705E+03  0.7818608E-02  0.1319546E+00
          2   -1    0    0  502    0  0.00000000000E+00  0.00000000000E+00  0.18456928557E+03  0.18456928557E+03  0.00000000000E+00 0. -1.
          1   -1    0    0  501    0 -0.00000000000E+00 -0.00000000000E+00 -0.37335105503E+03  0.37335105503E+03  0.00000000000E+00 0. -1.
         25    2    1    2    0    0  0.53575207761E+02  0.19006360125E+02 -0.75905869785E+02  0.15690061077E+03  0.12499822390E+03 0.  0.
          2    1    1    2  501    0  0.55643054071E+02  0.31657070076E+02 -0.22656026139E+03  0.23543124600E+03  0.00000000000E+00 0. -1.
          1    1    1    2  502    0 -0.10921826183E+03 -0.50663430201E+02  0.11368436172E+03  0.16558848383E+03  0.00000000000E+00 0. -1.
         22    1    3    3    0    0  0.58176033173E+01  0.60943352996E+02 -0.70114099569E+02  0.93080200586E+02  0.00000000000E+00 0.  1.
         22    1    3    3    0    0  0.47757604444E+02 -0.41936992871E+02 -0.57917702161E+01  0.63820410180E+02  0.00000000000E+00 0.  1.
</event>
<event>
 7    1  0.6017574E-006  0.6378849E+02  0.7818608E-02  0.1513803E+00
          2   -1    0    0  502    0  0.00000000000E+00  0.00000000000E+00  0.17985617554E+04  0.17985617554E+04  0.00000000000E+00 0. -1.
          1   -1    0    0  501    0 -0.00000000000E+00 -0.00000000000E+00 -0.98693809353E+03  0.98693809353E+03  0.00000000000E+00 0. -1.
         25    2    1    2    0    0  0.56532306846E+02  0.63458135144E+02  0.15825754978E+03  0.21884626229E+03  0.12500159128E+03 0.  0.
          2    1    1    2  501    0 -0.79077020454E+01 -0.22819974077E+02 -0.95586757972E+03  0.95617263762E+03  0.00000000000E+00 0. -1.
          1    1    1    2  502    0 -0.48624604800E+02 -0.40638161067E+02  0.16092336918E+04  0.16104809490E+04  0.00000000000E+00 0. -1.
         22    1    3    3    0    0 -0.17993661115E+02  0.51700385198E+02  0.12486778620E+03  0.13634025708E+03  0.00000000000E+00 0. -1.
         22    1    3    3    0    0  0.74525967961E+02  0.11757749946E+02  0.33389763582E+02  0.82506005214E+02  0.00000000000E+00 0. -1.
</event>
<event>
 7    1  0.6017574E-006  0.6574681E+02  0.7818608E-02  0.1498151E+00
          2   -1    0    0  502    0  0.00000000000E+00  0.00000000000E+00  0.14311408416E+04  0.14311408416E+04  0.00000000000E+00 0. -1.
          1   -1    0    0  501    0 -0.00000000000E+00 -0.00000000000E+00 -0.10499681403E+03  0.10499681403E+03  0.00000000000E+00 0. -1.
         25    2    1    2    0    0 -0.39987746717E+02 -0.54480973856E+02  0.20531925745E+03  0.24969457751E+03  0.12499675258E+03 0.  0.
          2    1    1    2  501    0  0.15725229266E+02  0.64018349534E+02 -0.69524364213E+02  0.95808502398E+02  0.00000000000E+00 0. -1.
          1    1    1    2  502    0  0.24262517451E+02 -0.95373756773E+01  0.11903491344E+04  0.11906345758E+04  0.00000000000E+00 0. -1.
         22    1    3    3    0    0 -0.40219904542E+02 -0.86940660182E+02  0.95842610674E+02  0.13550691914E+03  0.00000000000E+00 0.  1.
         22    1    3    3    0    0  0.23215782447E+00  0.32459686325E+02  0.10947664678E+03  0.11418765837E+03  0.00000000000E+00 0.  1.
</event>
<event>
 7    1  0.6017574E-006  0.8524547E+02  0.7818608E-02  0.1417965E+00
          2   -1    0    0  502    0  0.00000000000E+00  0.00000000000E+00  0.13960668058E+04  0.13960668058E+04  0.00000000000E+00 0. -1.
          1   -1    0    0  501    0 -0.00000000000E+00 -0.00000000000E+00 -0.10575630098E+03  0.10575630098E+03  0.00000000000E+00 0. -1.
         25    2    1    2    0    0 -0.11688133281E+03  0.10667512635E+02  0.78265105637E+03  0.80121300880E+03  0.12499827054E+03 0.  0.
          2    1    1    2  501    0  0.82079847524E+02 -0.20163518580E+02 -0.77300817211E+02  0.11453857513E+03  0.00000000000E+00 0. -1.
          1    1    1    2  502    0  0.34801485289E+02  0.94960059451E+01  0.58496026569E+03  0.58607152289E+03  0.00000000000E+00 0. -1.
         22    1    3    3    0    0 -0.10463499497E+03 -0.33523705387E+02  0.67953124818E+03  0.68835676669E+03  0.00000000000E+00 0. -1.
         22    1    3    3    0    0 -0.12246337848E+02  0.44191218022E+02  0.10311980820E+03  0.11285624211E+03  0.00000000000E+00 0. -1.
</event>
<event>
 7    1  0.6017574E-006  0.9616787E+02  0.7818608E-02  0.1345374E+00
          2   -1    0    0  502    0  0.00000000000E+00  0.00000000000E+00  0.90415008143E+03  0.90415008143E+03  0.00000000000E+00 0. -1.
          1   -1    0    0  501    0 -0.00000000000E+00 -0.00000000000E+00 -0.29997913622E+03  0.29997913622E+03  0.00000000000E+00 0. -1.
         25    2    1    2    0    0 -0.10849275072E+03  0.77523571934E+02  0.11277024156E+03  0.21476263173E+03  0.12500111776E+03 0.  0.
          2    1    1    2  501    0  0.57699762680E+02  0.21538951001E+01 -0.24256554021E+03  0.24934302311E+03  0.00000000000E+00 0. -1.
          1    1    1    2  502    0  0.50792988045E+02 -0.79677467034E+02  0.73396624386E+03  0.74002356281E+03  0.00000000000E+00 0. -1.
         22    1    3    3    0    0 -0.27692404244E+02  0.85508755472E+02  0.96649338983E+02  0.13198375370E+03  0.00000000000E+00 0.  1.
         22    1    3    3    0    0 -0.80800346480E+02 -0.79851835377E+01  0.16120902576E+02  0.82778878026E+02  0.00000000000E+00 0.  1.
</event>
<event>
 7    1  0.6017574E-006  0.6675521E+02  0.7818608E-02  0.1413084E+00
          2   -1    0    0  502    0  0.00000000000E+00  0.00000000000E+00  0.11922215961E+04  0.11922215961E+04  0.00000000000E+00 0. -1.
          1   -1    0    0  501    0 -0.00000000000E+00 -0.00000000000E+00 -0.43893304947E+02  0.43893304947E+02  0.00000000000E+00 0. -1.
         25    2    1    2    0    0 -0.47631775258E+02  0.80398002742E+01  0.32158564037E+03  0.34839033640E+03  0.12500031202E+03 0.  0.
          2    1    1    2  501    0  0.59167262740E+02  0.38388139851E+02  0.11957244342E+02  0.71535934701E+02  0.00000000000E+00 0. -1.
          1    1    1    2  502    0 -0.11535487482E+02 -0.46427940125E+02  0.81478540644E+03  0.81618862994E+03  0.00000000000E+00 0. -1.
         22    1    3    3    0    0 -0.58746475722E+02 -0.40303839761E+02  0.25850181992E+03  0.26813940182E+03  0.00000000000E+00 0. -1.
         22    1    3    3    0    0  0.11114700465E+02  0.48343640036E+02  0.63083820449E+02  0.80250934579E+02  0.00000000000E+00 0. -1.
</event>
<event>
 7    1  0.6017574E-006  0.9063110E+02  0.7818608E-02  0.1324963E+00
          2   -1    0    0  502    0  0.00000000000E+00  0.00000000000E+00  0.23316076229E+04  0.23316076229E+04  0.00000000000E+00 0. -1.
          1   -1    0    0  501    0 -0.00000000000E+00 -0.00000000000E+00 -0.22622176622E+03  0.22622176622E+03  0.00000000000E+00 0. -1.
         25    2    1    2    0    0 -0.57076524466E+02 -0.11042217294E+02 -0.20232826362E+02  0.13933563398E+03  0.12500156570E+03 0.  0.
          2    1    1    2  501    0  0.17344344806E+02 -0.71129864098E+02 -0.13630811103E+03  0.15472616132E+03  0.00000000000E+00 0. -1.
          1    1    1    2  502    0  0.39732179660E+02  0.82172081393E+02  0.22619267940E+04  0.22637675938E+04  0.00000000000E+00 0. -1.
         22    1    3    3    0    0 -0.92628118367E+02  0.11971516370E+02 -0.25084287533E+02  0.96708360535E+02  0.00000000000E+00 0. -1.
         22    1    3    3    0    0  0.35551593900E+02 -0.23013733665E+02  0.48514611709E+01  0.42627273447E+02  0.00000000000E+00 0. -1.
</event>
<event>
 7    1  0.6017574E-006  0.1630611E+03  0.7818608E-02  0.1252231E+00
          2   -1    0    0  502    0  0.00000000000E+00  0.00000000000E+00  0.11314270064E+04  0.11314270064E+04  0.00000000000E+00 0. -1.
          1   -1    0    0  501    0 -0.00000000000E+00 -0.00000000000E+00 -0.21844714504E+03  0.21844714504E+03  0.00000000000E+00 0. -1.
         25    2    1    2    0    0 -0.11799252098E+03 -0.13148352754E+03  0.58623015871E+03  0.62490293865E+03  0.12501092241E+03 0.  0.
          2    1    1    2  501    0  0.15243620706E+03  0.58634100828E+02 -0.16175299495E+03  0.22986688839E+03  0.00000000000E+00 0. -1.
          1    1    1    2  502    0 -0.34443686084E+02  0.72849426710E+02  0.48850269765E+03  0.49510432445E+03  0.00000000000E+00 0. -1.
         22    1    3    3    0    0 -0.28844902664E+02 -0.36487468799E+02  0.34260620791E+02  0.57768104746E+02  0.00000000000E+00 0.  1.
         22    1    3    3    0    0 -0.89147618316E+02 -0.94996058739E+02  0.55196953792E+03  0.56713483390E+03  0.00000000000E+00 0.  1.
</event>
<event>
 7    1  0.6017574E-006  0.2223337E+03  0.7818608E-02  0.1146823E+00
          2   -1    0    0  502    0  0.00000000000E+00  0.00000000000E+00  0.48939354231E+03  0.48939354231E+03  0.00000000000E+00 0. -1.
          1   -1    0    0  501    0 -0.00000000000E+00 -0.00000000000E+00 -0.12725094901E+04  0.12725094901E+04  0.00000000000E+00 0. -1.
         25    2    1    2    0    0  0.20725252132E+03 -0.10682843125E+03  0.24357522145E+02  0.26567670234E+03  0.12499959986E+03 0.  0.
          2    1    1    2  501    0  0.17483612871E+02  0.18543028383E+03 -0.11019293640E+04  0.11175591216E+04  0.00000000000E+00 0. -1.
          1    1    1    2  502    0 -0.22473613420E+03 -0.78601852580E+02  0.29445589409E+03  0.37866720852E+03  0.00000000000E+00 0. -1.
         22    1    3    3    0    0 -0.11296554477E+02 -0.22465448757E+02  0.18708735697E+02  0.31342069528E+02  0.00000000000E+00 0. -1.
         22    1    3    3    0    0  0.21854907580E+03 -0.84362982491E+02  0.56487864474E+01  0.23433463281E+03  0.00000000000E+00 0. -1.
</event>
<event>
 7    1  0.6017574E-006  0.1027498E+03  0.7818608E-02  0.1397154E+00
          2   -1    0    0  502    0  0.00000000000E+00  0.00000000000E+00  0.21133829870E+04  0.21133829870E+04  0.00000000000E+00 0. -1.
          1   -1    0    0  501    0 -0.00000000000E+00 -0.00000000000E+00 -0.51370208625E+02  0.51370208625E+02  0.00000000000E+00 0. -1.
         25    2    1    2    0    0  0.12368592119E+03  0.46426891029E+02  0.86016282976E+03  0.87918089440E+03  0.12500115222E+03 0.  0.
          2    1    1    2  501    0 -0.32949768840E+02 -0.12456550119E+02 -0.32199802782E+02  0.47725048001E+02  0.00000000000E+00 0. -1.
          1    1    1    2  502    0 -0.90736152355E+02 -0.33970340910E+02  0.12340497513E+04  0.12378472532E+04  0.00000000000E+00 0. -1.
         22    1    3    3    0    0  0.99890795799E+02  0.88189222516E+02  0.60041780963E+03  0.61502606137E+03  0.00000000000E+00 0.  1.
         22    1    3    3    0    0  0.23795125396E+02 -0.41762331487E+02  0.25974502014E+03  0.26415483302E+03  0.00000000000E+00 0.  1.
</event>
<event>
 7    1  0.6017574E-006  0.1050073E+03  0.7818608E-02  0.1336243E+00
          2   -1    0    0  502    0  0.00000000000E+00  0.00000000000E+00  0.14597323707E+04  0.14597323707E+04  0.00000000000E+00 0. -1.
          1   -1    0    0  501    0 -0.00000000000E+00 -0.00000000000E+00 -0.69318118456E+03  0.69318118456E+03  0.00000000000E+00 0. -1.
         25    2    1    2    0    0  0.11398523377E+03 -0.24720312670E+02 -0.53082754273E+02  0.17900941261E+03  0.12499145421E+03 0.  0.
          2    1    1    2  501    0 -0.78699829292E+02  0.69773608576E+02 -0.57175026308E+03  0.58134360143E+03  0.00000000000E+00 0. -1.
          1    1    1    2  502    0 -0.35285404477E+02 -0.45053295906E+02  0.13913842035E+04  0.13925605413E+04  0.00000000000E+00 0. -1.
         22    1    3    3    0    0 -0.17791433898E+02  0.11419577451E+02  0.15410402630E+02  0.26161467438E+02  0.00000000000E+00 0.  1.
         22    1    3    3    0    0  0.13177666767E+03 -0.36139890120E+02 -0.68493156903E+02  0.15284794517E+03  0.00000000000E+00 0.  1.
</event>
<event>
 7    1  0.6017574E-006  0.3607043E+02  0.7818608E-02  0.1620551E+00
          2   -1    0    0  502    0  0.00000000000E+00  0.00000000000E+00  0.53883239930E+03  0.53883239930E+03  0.00000000000E+00 0. -1.
          1   -1    0    0  501    0 -0.00000000000E+00 -0.00000000000E+00 -0.19456518055E+03  0.19456518055E+03  0.00000000000E+00 0. -1.
         25    2    1    2    0    0  0.30029523177E+02  0.10334622826E+02  0.27932157367E+02  0.13196466267E+03  0.12500356030E+03 0.  0.
          2    1    1    2  501    0  0.44635491410E+01 -0.21370932344E+02 -0.14099293017E+03  0.14267321535E+03  0.00000000000E+00 0. -1.
          1    1    1    2  502    0 -0.34493072318E+02  0.11036309518E+02  0.45732799156E+03  0.45875970183E+03  0.00000000000E+00 0. -1.
         22    1    3    3    0    0  0.79267276101E+02  0.59654999547E+01  0.15397626808E+02  0.80968976537E+02  0.00000000000E+00 0.  1.
         22    1    3    3    0    0 -0.49237752924E+02  0.43691228712E+01  0.12534530559E+02  0.50995686131E+02  0.00000000000E+00 0.  1.
</event>
<event>
 7    1  0.6017574E-006  0.6010996E+02  0.7818608E-02  0.1416433E+00
          2   -1    0    0  502    0  0.00000000000E+00  0.00000000000E+00  0.44400468814E+02  0.44400468814E+02  0.00000000000E+00 0. -1.
          1   -1    0    0  501    0 -0.00000000000E+00 -0.00000000000E+00 -0.11679672263E+04  0.11679672263E+04  0.00000000000E+00 0. -1.
         25    2    1    2    0    0  0.94531515466E+01 -0.31976124959E+02 -0.28847049535E+03  0.31615211927E+03  0.12500040474E+03 0.  0.
          2    1    1    2  501    0 -0.60035231603E+02  0.20963158933E+02 -0.84163793796E+03  0.84403678929E+03  0.00000000000E+00 0. -1.
          1    1    1    2  502    0  0.50582080056E+02  0.11012966026E+02  0.65416758289E+01  0.52178786553E+02  0.00000000000E+00 0. -1.
         22    1    3    3    0    0  0.43470500549E+02  0.23379166578E+02 -0.55416515222E+02  0.74210915688E+02  0.00000000000E+00 0.  1.
         22    1    3    3    0    0 -0.34017349003E+02 -0.55355291537E+02 -0.23305398013E+03  0.24194120358E+03  0.00000000000E+00 0.  1.
</event>
<event>
 7    1  0.6017574E-006  0.2464822E+02  0.7818608E-02  0.1668694E+00
          2   -1    0    0  502    0  0.00000000000E+00  0.00000000000E+00  0.26305127181E+03  0.26305127181E+03  0.00000000000E+00 0. -1.
          1   -1    0    0  501    0 -0.00000000000E+00 -0.00000000000E+00 -0.51387639165E+03  0.51387639165E+03  0.00000000000E+00 0. -1.
         25    2    1    2    0    0 -0.29635295764E+02 -0.11027589494E+02  0.13823235730E+02  0.12967467674E+03  0.12499832582E+03 0.  0.
          2    1    1    2  501    0  0.21603622296E+02 -0.11904962705E+02 -0.45484357492E+03  0.45551193428E+03  0.00000000000E+00 0. -1.
          1    1    1    2  502    0  0.80316734674E+01  0.22932552199E+02  0.19019521934E+03  0.19174105243E+03  0.00000000000E+00 0. -1.
         22    1    3    3    0    0 -0.35222454107E+02 -0.53654549929E+02  0.43411321755E+02  0.77485320273E+02  0.00000000000E+00 0.  1.
         22    1    3    3    0    0  0.55871583434E+01  0.42626960435E+02 -0.29588086025E+02  0.52189356471E+02  0.00000000000E+00 0.  1.
</event>
<event>
 7    1  0.6017574E-006  0.6365594E+02  0.7818608E-02  0.1451502E+00
          2   -1    0    0  502    0  0.00000000000E+00  0.00000000000E+00  0.92766879890E+03  0.92766879890E+03  0.00000000000E+00 0. -1.
          1   -1    0    0  501    0 -0.00000000000E+00 -0.00000000000E+00 -0.32077144126E+03  0.32077144126E+03  0.00000000000E+00 0. -1.
         25    2    1    2    0    0 -0.65996838456E+02  0.56396493049E+02  0.51060446290E+03  0.53279482331E+03  0.12496903255E+03 0.  0.
          2    1    1    2  501    0  0.60563065037E+02 -0.19264707171E+02 -0.30553207017E+03  0.31207188225E+03  0.00000000000E+00 0. -1.
          1    1    1    2  502    0  0.54337734187E+01 -0.37131785878E+02  0.40182496490E+03  0.40357353460E+03  0.00000000000E+00 0. -1.
         22    1    3    3    0    0 -0.29627827830E+02 -0.25604201760E+02  0.49857903245E+02  0.63397112282E+02  0.00000000000E+00 0. -1.
         22    1    3    3    0    0 -0.36369010627E+02  0.82000694810E+02  0.46074655966E+03  0.46939771103E+03  0.00000000000E+00 0. -1.
</event>
<event>
 7    1  0.6017574E-006  0.6547827E+02  0.7818608E-02  0.1473808E+00
          2   -1    0    0  502    0  0.00000000000E+00  0.00000000000E+00  0.29066376916E+03  0.29066376916E+03  0.00000000000E+00 0. -1.
          1   -1    0    0  501    0 -0.00000000000E+00 -0.00000000000E+00 -0.72515986868E+03  0.72515986868E+03  0.00000000000E+00 0. -1.
         25    2    1    2    0    0  0.40584217830E+02  0.19257313429E+02 -0.43133469051E+03  0.45132377466E+03  0.12500244588E+03 0.  0.
          2    1    1    2  501    0 -0.68681480679E+02 -0.32458587970E+02 -0.27785774902E+03  0.28805491561E+03  0.00000000000E+00 0. -1.
          1    1    1    2  502    0  0.28097262849E+02  0.13201274541E+02  0.27469634000E+03  0.27644494757E+03  0.00000000000E+00 0. -1.
         22    1    3    3    0    0  0.51152018880E+02 -0.64755668829E+00 -0.58109258276E+02  0.77418565362E+02  0.00000000000E+00 0. -1.
         22    1    3    3    0    0 -0.10567801050E+02  0.19904870117E+02 -0.37322543223E+03  0.37390520929E+03  0.00000000000E+00 0. -1.
</event>
<event>
 7    1  0.6017574E-006  0.1289991E+03  0.7818608E-02  0.1282780E+00
          2   -1    0    0  502    0  0.00000000000E+00  0.00000000000E+00  0.17506837600E+04  0.17506837600E+04  0.00000000000E+00 0. -1.
          1   -1    0    0  501    0 -0.00000000000E+00 -0.00000000000E+00 -0.28789198892E+03  0.28789198892E+03  0.00000000000E+00 0. -1.
         25    2    1    2    0    0  0.14879023317E+03 -0.82401788498E+02 -0.99757900350E+02  0.23346545356E+03  0.12500356432E+03 0.  0.
          2    1    1    2  501    0 -0.72665585280E+02 -0.21267062599E+02 -0.10674371883E+03  0.13086938812E+03  0.00000000000E+00 0. -1.
          1    1    1    2  502    0 -0.76124647885E+02  0.10366885110E+03  0.16692933902E+04  0.16742409072E+04  0.00000000000E+00 0. -1.
         22    1    3    3    0    0 -0.20732492759E+02 -0.21437593431E+02 -0.61683687099E+01  0.30454153094E+02  0.00000000000E+00 0.  1.
         22    1    3    3    0    0  0.16952272592E+03 -0.60964195067E+02 -0.93589531641E+02  0.20301130047E+03  0.00000000000E+00 0.  1.
</event>
<event>
 7    1  0.6017574E-006  0.2189603E+03  0.7818608E-02  0.1322446E+00
          2   -1    0    0  502    0  0.00000000000E+00  0.00000000000E+00  0.31479066187E+03  0.31479066187E+03  0.00000000000E+00 0. -1.
          1   -1    0    0  501    0 -0.00000000000E+00 -0.00000000000E+00 -0.31335171226E+03  0.31335171226E+03  0.00000000000E+00 0. -1.
         25    2    1    2    0    0 -0.13177709277E+03  0.14164108648E+03  0.18547789094E+03  0.29571826567E+03  0.12497937855E+03 0.  0.
          2    1    1    2  501    0  0.15486661933E+03 -0.16231067446E+03 -0.19726144358E+03  0.29873148805E+03  0.00000000000E+00 0. -1.
          1    1    1    2  502    0 -0.23089526557E+02  0.20669587981E+02  0.13222502249E+02  0.33692620404E+02  0.00000000000E+00 0. -1.
         22    1    3    3    0    0 -0.12015572724E+03  0.10391617715E+03  0.19841855305E+03  0.25417689284E+03  0.00000000000E+00 0.  1.
         22    1    3    3    0    0 -0.11621365529E+02  0.37724909329E+02 -0.12940662103E+02  0.41541372827E+02  0.00000000000E+00 0.  1.
</event>
<event>
 7    1  0.6017574E-006  0.6290666E+02  0.7818608E-02  0.1386342E+00
          2   -1    0    0  502    0  0.00000000000E+00  0.00000000000E+00  0.50355730802E+03  0.50355730802E+03  0.00000000000E+00 0. -1.
          1   -1    0    0  501    0 -0.00000000000E+00 -0.00000000000E+00 -0.38104149168E+03  0.38104149168E+03  0.00000000000E+00 0. -1.
         25    2    1    2    0    0 -0.63732687005E+02  0.49244446116E+02  0.16259784944E+03  0.22034152514E+03  0.12500182475E+03 0.  0.
          2    1    1    2  501    0  0.61612004607E+02  0.13464426136E+02 -0.34613771850E+03  0.35183611249E+03  0.00000000000E+00 0. -1.
          1    1    1    2  502    0  0.21206823982E+01 -0.62708872252E+02  0.30605568539E+03  0.31242116207E+03  0.00000000000E+00 0. -1.
         22    1    3    3    0    0 -0.58635599020E+02 -0.13251374209E+02  0.14223158875E+03  0.15441359146E+03  0.00000000000E+00 0.  1.
         22    1    3    3    0    0 -0.50970879844E+01  0.62495820325E+02  0.20366260695E+02  0.65927933675E+02  0.00000000000E+00 0.  1.
</event>
<event>
 7    1  0.6017574E-006  0.2212491E+03  0.7818608E-02  0.1298258E+00
          2   -1    0    0  502    0  0.00000000000E+00  0.00000000000E+00  0.20168281353E+04  0.20168281353E+04  0.00000000000E+00 0. -1.
          1   -1    0    0  501    0 -0.00000000000E+00 -0.00000000000E+00 -0.28074403011E+03  0.28074403011E+03  0.00000000000E+00 0. -1.
         25    2    1    2    0    0 -0.21486694157E+03 -0.61787369736E+02  0.92293650822E+03  0.95782106983E+03  0.12499568776E+03 0.  0.
          2    1    1    2  501    0  0.19910326098E+03  0.96574696684E+02 -0.21639013629E+03  0.30950520457E+03  0.00000000000E+00 0. -1.
          1    1    1    2  502    0  0.15763680590E+02 -0.34787326948E+02  0.10295377332E+04  0.10302458910E+04  0.00000000000E+00 0. -1.
         22    1    3    3    0    0 -0.20911526071E+03 -0.34338892950E+02  0.88843497387E+03  0.91335921446E+03  0.00000000000E+00 0. -1.
         22    1    3    3    0    0 -0.57516808603E+01 -0.27448476787E+02  0.34501534348E+02  0.44461855371E+02  0.00000000000E+00 0. -1.
</event>
<event>
 7    1  0.6017574E-006  0.1223985E+03  0.7818608E-02  0.1348612E+00
          2   -1    0    0  502    0  0.00000000000E+00  0.00000000000E+00  0.23334745181E+04  0.23334745181E+04  0.00000000000E+00 0. -1.
          1   -1    0    0  501    0 -0.00000000000E+00 -0.00000000000E+00 -0.14129512295E+04  0.14129512295E+04  0.00000000000E+00 0. -1.
         25    2    1    2    0    0  0.13882841678E+03 -0.61144893330E+02  0.14624260536E+04  0.14755767571E+04  0.12499910616E+03 0.  0.
          2    1    1    2  501    0 -0.12053964773E+03  0.20989210817E+02 -0.14031488638E+04  0.14084733180E+04  0.00000000000E+00 0. -1.
          1    1    1    2  502    0 -0.18288769046E+02  0.40155682513E+02  0.86124609870E+03  0.86237567246E+03  0.00000000000E+00 0. -1.
         22    1    3    3    0    0  0.71415385465E+02  0.27075095819E+02  0.82740860230E+03  0.83092611781E+03  0.00000000000E+00 0. -1.
         22    1    3    3    0    0  0.67413031314E+02 -0.88219989149E+02  0.63501745131E+03  0.64465063930E+03  0.00000000000E+00 0. -1.
</event>
<event>
 7    1  0.6017574E-006  0.7099480E+02  0.7818608E-02  0.1360733E+00
          2   -1    0    0  502    0  0.00000000000E+00  0.00000000000E+00  0.21220056274E+04  0.21220056274E+04  0.00000000000E+00 0. -1.
          1   -1    0    0  501    0 -0.00000000000E+00 -0.00000000000E+00 -0.22030636398E+03  0.22030636398E+03  0.00000000000E+00 0. -1.
         25    2    1    2    0    0  0.21175886119E+02 -0.10189733496E+03  0.23362738468E+03  0.28467173887E+03  0.12499903607E+03 0.  0.
          2    1    1    2  501    0  0.34536972404E+02  0.61787998064E+02 -0.18769760200E+03  0.20060146800E+03  0.00000000000E+00 0. -1.
          1    1    1    2  502    0 -0.55712858524E+02  0.40109336893E+02  0.18557694808E+04  0.18570387845E+04  0.00000000000E+00 0. -1.
         22    1    3    3    0    0  0.16974135217E+00  0.29478753164E+02  0.46876211372E+02  0.55375128829E+02  0.00000000000E+00 0.  1.
         22    1    3    3    0    0  0.21006144767E+02 -0.13137608812E+03  0.18675117330E+03  0.22929661005E+03  0.00000000000E+00 0.  1.
</event>
<event>
 7    1  0.6017574E-006  0.6186636E+02  0.7818608E-02  0.1425248E+00
          2   -1    0    0  502    0  0.00000000000E+00  0.00000000000E+00  0.55442640022E+03  0.55442640022E+03  0.00000000000E+00 0. -1.
          1   -1    0    0  501    0 -0.00000000000E+00 -0.00000000000E+00 -0.33210605075E+03  0.33210605075E+03  0.00000000000E+00 0. -1.
         25    2    1    2    0    0 -0.16636548329E+02  0.42097658877E+01 -0.46150128283E+02  0.13434718343E+03  0.12499933794E+03 0.  0.
          2    1    1    2  501    0 -0.35739970232E+02  0.30529657436E+02 -0.23761123904E+03  0.24221582601E+03  0.00000000000E+00 0. -1.
          1    1    1    2  502    0  0.52376518560E+02 -0.34739423324E+02  0.50608171678E+03  0.50996944153E+03  0.00000000000E+00 0. -1.
         22    1    3    3    0    0  0.21366203573E+01 -0.10435095195E+02  0.41849306139E+02  0.43183570749E+02  0.00000000000E+00 0. -1.
         22    1    3    3    0    0 -0.18773168686E+02  0.14644861083E+02 -0.87999434422E+02  0.91163612682E+02  0.00000000000E+00 0. -1.
</event>
<event>
 7    1  0.6017574E-006  0.1185314E+03  0.7818608E-02  0.1422180E+00
          2   -1    0    0  502    0  0.00000000000E+00  0.00000000000E+00  0.89552094231E+03  0.89552094231E+03  0.00000000000E+00 0. -1.
          1   -1    0    0  501    0 -0.00000000000E+00 -0.00000000000E+00 -0.16322147765E+03  0.16322147765E+03  0.00000000000E+00 0. -1.
         25    2    1    2    0    0 -0.67962940576E+02 -0.11043949676E+03  0.64060099716E+02  0.19116633473E+03  0.12500010969E+03 0.  0.
          2    1    1    2  501    0 -0.10751287647E+02  0.22698615273E+02 -0.93477428754E+02  0.96792804525E+02  0.00000000000E+00 0. -1.
          1    1    1    2  502    0  0.78714228223E+02  0.87740881482E+02  0.76171679370E+03  0.77078328070E+03  0.00000000000E+00 0. -1.
         22    1    3    3    0    0 -0.97254106156E+01 -0.59208024809E+02 -0.31758754589E+02  0.67888086631E+02  0.00000000000E+00 0. -1.
         22    1    3    3    0    0 -0.58237529960E+02 -0.51231471946E+02  0.95818854306E+02  0.12327824810E+03  0.00000000000E+00 0. -1.
</event>
<event>
 7    1  0.6017574E-006  0.1233207E+03  0.7818608E-02  0.1297860E+00
          2   -1    0    0  502    0  0.00000000000E+00  0.00000000000E+00  0.29066906568E+03  0.29066906568E+03  0.00000000000E+00 0. -1.
          1   -1    0    0  501    0 -0.00000000000E+00 -0.00000000000E+00 -0.44414409688E+03  0.44414409688E+03  0.00000000000E+00 0. -1.
         25    2    1    2    0    0 -0.83211124319E+02 -0.11359985077E+03  0.64229861907E+02  0.19894635011E+03  0.12500063103E+03 0.  0.
          2    1    1    2  501    0  0.14994227464E+02  0.12233083220E+03 -0.35854293799E+03  0.37913414215E+03  0.00000000000E+00 0. -1.
          1    1    1    2  502    0  0.68216896855E+02 -0.87309814361E+01  0.14083804488E+03  0.15673267030E+03  0.00000000000E+00 0. -1.
         22    1    3    3    0    0 -0.28865871824E+02  0.38429187475E+01 -0.27714972024E+02  0.40201072809E+02  0.00000000000E+00 0. -1.
         22    1    3    3    0    0 -0.54345252495E+02 -0.11744276951E+03  0.91944833931E+02  0.15874527731E+03  0.00000000000E+00 0. -1.
</event>
<event>
 7    1  0.6017574E-006  0.8927159E+02  0.7818608E-02  0.1482363E+00
          2   -1    0    0  502    0  0.00000000000E+00  0.00000000000E+00  0.52766631870E+03  0.52766631870E+03  0.00000000000E+00 0. -1.
          1   -1    0    0  501    0 -0.00000000000E+00 -0.00000000000E+00 -0.18575777740E+03  0.18575777740E+03  0.00000000000E+00 0. -1.
         25    2    1    2    0    0 -0.39076014142E+02 -0.96314993044E+02 -0.11175909559E+03  0.19727648518E+03  0.12499761354E+03 0.  0.
          2    1    1    2  501    0 -0.69855090856E+01  0.20260804766E+02 -0.22895439191E+02  0.31360782559E+02  0.00000000000E+00 0. -1.
          1    1    1    2  502    0  0.46061523227E+02  0.76054188278E+02  0.47656307608E+03  0.48478682837E+03  0.00000000000E+00 0. -1.
         22    1    3    3    0    0 -0.60771396230E+02 -0.76360178436E+01 -0.79700717339E+02  0.10051704190E+03  0.00000000000E+00 0.  1.
         22    1    3    3    0    0  0.21695382089E+02 -0.88678975201E+02 -0.32058378253E+02  0.96759443275E+02  0.00000000000E+00 0.  1.
</event>
<event>
 7    1  0.6017574E-006  0.7173276E+02  0.7818608E-02  0.1476112E+00
          2   -1    0    0  502    0  0.00000000000E+00  0.00000000000E+00  0.15589273272E+04  0.15589273272E+04  0.00000000000E+00 0. -1.
          1   -1    0    0  501    0 -0.00000000000E+00 -0.00000000000E+00 -0.49215230649E+03  0.49215230649E+03  0.00000000000E+00 0. -1.
         25    2    1    2    0    0 -0.45662733233E+02  0.84067200216E+02  0.55175540346E+03  0.57377136039E+03  0.12500867728E+03 0.  0.
          2    1    1    2  501    0  0.44379905764E+02 -0.56220017837E+02 -0.47828203598E+03  0.48361552124E+03  0.00000000000E+00 0. -1.
          1    1    1    2  502    0  0.12828274685E+01 -0.27847182379E+02  0.99330165318E+03  0.99369275202E+03  0.00000000000E+00 0. -1.
         22    1    3    3    0    0  0.34991039699E+02  0.10419538233E+02  0.25411534945E+03  0.25672465885E+03  0.00000000000E+00 0. -1.
         22    1    3    3    0    0 -0.80653772932E+02  0.73647661983E+02  0.29764005401E+03  0.31704670154E+03  0.00000000000E+00 0. -1.
</event>
<event>
 7    1  0.6017574E-006  0.1208942E+03  0.7818608E-02  0.1276002E+00
          2   -1    0    0  502    0  0.00000000000E+00  0.00000000000E+00  0.16469557319E+03  0.16469557319E+03  0.00000000000E+00 0. -1.
          1   -1    0    0  501    0 -0.00000000000E+00 -0.00000000000E+00 -0.60762214298E+03  0.60762214298E+03  0.00000000000E+00 0. -1.
         25    2    1    2    0    0 -0.23704104215E+02 -0.43512944829E+02 -0.17295976461E+03  0.21907959697E+03  0.12500211481E+03 0.  0.
          2    1    1    2  501    0 -0.65527741470E+01 -0.85927587745E+02 -0.37440128413E+03  0.38419111226E+03  0.00000000000E+00 0. -1.
          1    1    1    2  502    0  0.30256878362E+02  0.12944053257E+03  0.10443447895E+03  0.16904700694E+03  0.00000000000E+00 0. -1.
         22    1    3    3    0    0 -0.22244003018E+02  0.33020346343E+02 -0.13228746345E+02  0.41954006635E+02  0.00000000000E+00 0. -1.
         22    1    3    3    0    0 -0.14601011972E+01 -0.76533291172E+02 -0.15973101827E+03  0.17712559033E+03  0.00000000000E+00 0. -1.
</event>
<event>
 7    1  0.6017574E-006  0.9461533E+02  0.7818608E-02  0.1413492E+00
          2   -1    0    0  502    0  0.00000000000E+00  0.00000000000E+00  0.13557622947E+03  0.13557622947E+03  0.00000000000E+00 0. -1.
          1   -1    0    0  501    0 -0.00000000000E+00 -0.00000000000E+00 -0.28271076935E+04  0.28271076935E+04  0.00000000000E+00 0. -1.
         25    2    1    2    0    0  0.42888255111E+02 -0.46673654919E+02 -0.32422945474E+03  0.35322500595E+03  0.12500133208E+03 0.  0.
          2    1    1    2  501    0 -0.60639902794E+02  0.75255806085E+02 -0.24850854212E+04  0.24869640498E+04  0.00000000000E+00 0. -1.
          1    1    1    2  502    0  0.17751647683E+02 -0.28582151167E+02  0.11778341195E+03  0.12249486721E+03  0.00000000000E+00 0. -1.
         22    1    3    3    0    0 -0.30545155094E+02 -0.82405087794E+01 -0.20844678725E+03  0.21083400010E+03  0.00000000000E+00 0.  1.
         22    1    3    3    0    0  0.73433410205E+02 -0.38433146139E+02 -0.11578266749E+03  0.14239100585E+03  0.00000000000E+00 0.  1.
</event>
<event>
 7    1  0.6017574E-006  0.2348286E+03  0.7818608E-02  0.1246651E+00
          2   -1    0    0  502    0  0.00000000000E+00  0.00000000000E+00  0.19486278221E+03  0.19486278221E+03  0.00000000000E+00 0. -1.
          1   -1    0    0  501    0 -0.00000000000E+00 -0.00000000000E+00 -0.42587792314E+04  0.42587792314E+04  0.00000000000E+00 0. -1.
         25    2    1    2    0    0 -0.60824273600E+02  0.24535421015E+03 -0.97700141692E+03  0.10168845809E+04  0.12499680564E+03 0.  0.
          2    1    1    2  501    0 -0.45966733107E+02 -0.37249836117E+02 -0.31832434107E+04  0.31837931941E+04  0.00000000000E+00 0. -1.
          1    1    1    2  502    0  0.10679100671E+03 -0.20810437403E+03  0.96328378370E+02  0.25296423875E+03  0.00000000000E+00 0. -1.
         22    1    3    3    0    0 -0.99435736589E+02  0.16570582221E+03 -0.68895427418E+03  0.71554446203E+03  0.00000000000E+00 0. -1.
         22    1    3    3    0    0  0.38611462989E+02  0.79648387938E+02 -0.28804714274E+03  0.30134011883E+03  0.00000000000E+00 0. -1.
</event>
<event>
 7    1  0.6017574E-006  0.1232262E+03  0.7818608E-02  0.1284691E+00
          2   -1    0    0  502    0  0.00000000000E+00  0.00000000000E+00  0.33687901477E+02  0.33687901477E+02  0.00000000000E+00 0. -1.
          1   -1    0    0  501    0 -0.00000000000E+00 -0.00000000000E+00 -0.27976972740E+04  0.27976972740E+04  0.00000000000E+00 0. -1.
         25    2    1    2    0    0 -0.11407015645E+03 -0.49497401160E+02 -0.26926590395E+03  0.32186119218E+03  0.12501402596E+03 0.  0.
          2    1    1    2  501    0  0.62545208489E+02  0.10784398511E+03 -0.22323399592E+04  0.22358184008E+04  0.00000000000E+00 0. -1.
          1    1    1    2  502    0  0.51524947959E+02 -0.58346583955E+02 -0.26240350939E+03  0.27370558244E+03  0.00000000000E+00 0. -1.
         22    1    3    3    0    0 -0.93850278046E+02 -0.35067540087E+01 -0.25168202706E+03  0.26863360690E+03  0.00000000000E+00 0.  1.
         22    1    3    3    0    0 -0.20219878402E+02 -0.45990647152E+02 -0.17583876894E+02  0.53227585279E+02  0.00000000000E+00 0.  1.
</event>
