<event>
 7    1  0.6370239E-006  0.1267547E+03  0.7818608E-02  0.1426067E+00
          2   -1    0    0  502    0  0.00000000000E+00  0.00000000000E+00  0.18995788302E+04  0.18995788302E+04  0.00000000000E+00 0. -1.
          1   -1    0    0  501    0 -0.00000000000E+00 -0.00000000000E+00 -0.70780305554E+02  0.70780305554E+02  0.00000000000E+00 0. -1.
         25    2    1    2    0    0 -0.45686511994E+02 -0.13464081368E+03  0.97122345018E+03  0.98950239924E+03  0.12499840735E+03 0.  0.
          2    1    1    2  501    0  0.20029567958E+01  0.22710873043E+02 -0.55452905102E+02  0.59956820084E+02  0.00000000000E+00 0. -1.
          1    1    1    2  502    0  0.43683555199E+02  0.11192994063E+03  0.91302797960E+03  0.92089991646E+03  0.00000000000E+00 0. -1.
         22    1    3    3    0    0  0.43346193140E+02 -0.48493712748E+02  0.30502314722E+03  0.31188083137E+03  0.00000000000E+00 0. -1.
         22    1    3    3    0    0 -0.89032705135E+02 -0.86147100930E+02  0.66620030296E+03  0.67762156788E+03  0.00000000000E+00 0. -1.
</event>
<event>
 7    1  0.6370239E-006  0.2046871E+03  0.7818608E-02  0.1243121E+00
          2   -1    0    0  502    0  0.00000000000E+00  0.00000000000E+00  0.28543364264E+03  0.28543364264E+03  0.00000000000E+00 0. -1.
          1   -1    0    0  501    0 -0.00000000000E+00 -0.00000000000E+00 -0.14879354805E+04  0.14879354805E+04  0.00000000000E+00 0. -1.
         25    2    1    2    0    0 -0.87146314859E+02  0.25237033803E+03 -0.27752577240E+03  0.40488396526E+03  0.12500081305E+03 0.  0.
          2    1    1    2  501    0  0.24481632575E+02 -0.65936239936E+02 -0.11017757216E+04  0.11040184232E+04  0.00000000000E+00 0. -1.
          1    1    1    2  502    0  0.62664682284E+02 -0.18643409810E+03  0.17679965615E+03  0.26446673468E+03  0.00000000000E+00 0. -1.
         22    1    3    3    0    0 -0.73913566293E+02  0.13185359698E+03 -0.22879008793E+03  0.27421431519E+03  0.00000000000E+00 0.  1.
         22    1    3    3    0    0 -0.13232748566E+02  0.12051674105E+03 -0.48735684467E+02  0.13066965007E+03  0.00000000000E+00 0.  1.
</event>
<event>
 7    1  0.6370239E-006  0.2083643E+03  0.7818608E-02  0.1193801E+00
          2   -1    0    0  502    0  0.00000000000E+00  0.00000000000E+00  0.32784372042E+04  0.32784372042E+04  0.00000000000E+00 0. -1.
          1   -1    0    0  501    0 -0.00000000000E+00 -0.00000000000E+00 -0.38098463140E+03  0.38098463140E+03  0.00000000000E+00 0. -1.
         25    2    1    2    0    0  0.96887645000E+02 -0.11758819045E+03  0.69783075542E+03  0.72512586614E+03  0.12500224097E+03 0.  0.
          2    1    1    2  501    0 -0.20110339185E+03  0.66328710206E+02 -0.33537835221E+03  0.39663674961E+03  0.00000000000E+00 0. -1.
          1    1    1    2  502    0  0.10421574685E+03  0.51259480245E+02  0.25350001696E+04  0.25376592198E+04  0.00000000000E+00 0. -1.
         22    1    3    3    0    0  0.58343700786E+02 -0.89505508800E+02  0.21639425602E+03  0.24133316715E+03  0.00000000000E+00 0.  1.
         22    1    3    3    0    0  0.38543944214E+02 -0.28082681651E+02  0.48143649940E+03  0.48379269899E+03  0.00000000000E+00 0.  1.
</event>
<event>
 7    1  0.6370239E-006  0.5943669E+02  0.7818608E-02  0.1499179E+00
          2   -1    0    0  502    0  0.00000000000E+00  0.00000000000E+00  0.72776139887E+03  0.72776139887E+03  0.00000000000E+00 0. -1.
          1   -1    0    0  501    0 -0.00000000000E+00 -0.00000000000E+00 -0.88391821416E+03  0.88391821416E+03  0.00000000000E+00 0. -1.
         25    2    1    2    0    0 -0.21592614573E+02 -0.77993001642E+02  0.19324415491E+03  0.24395999411E+03  0.12499610399E+03 0.  0.
          2    1    1    2  501    0 -0.14052417063E+00  0.59349571706E+02 -0.85713075270E+03  0.85918305304E+03  0.00000000000E+00 0. -1.
          1    1    1    2  502    0  0.21733138744E+02  0.18643429936E+02  0.50772978250E+03  0.50853656588E+03  0.00000000000E+00 0. -1.
         22    1    3    3    0    0  0.38662492513E+02 -0.75835054500E+02  0.86464707364E+02  0.12133379347E+03  0.00000000000E+00 0.  1.
         22    1    3    3    0    0 -0.60255107087E+02 -0.21579471418E+01  0.10677944754E+03  0.12262620064E+03  0.00000000000E+00 0.  1.
</event>
<event>
 7    1  0.6370239E-006  0.4905333E+02  0.7818608E-02  0.1505427E+00
          2   -1    0    0  502    0  0.00000000000E+00  0.00000000000E+00  0.83058593546E+03  0.83058593546E+03  0.00000000000E+00 0. -1.
          1   -1    0    0  501    0 -0.00000000000E+00 -0.00000000000E+00 -0.20630142862E+02  0.20630142862E+02  0.00000000000E+00 0. -1.
         25    2    1    2    0    0 -0.25205892851E+02 -0.66220748662E+00  0.44720136897E+03  0.46502673271E+03  0.12500008870E+03 0.  0.
          2    1    1    2  501    0 -0.26837175393E+02  0.19615709770E+02  0.19591619612E+02  0.38585510388E+02  0.00000000000E+00 0. -1.
          1    1    1    2  502    0  0.52043068244E+02 -0.18953502284E+02  0.34316280402E+03  0.34760383523E+03  0.00000000000E+00 0. -1.
         22    1    3    3    0    0  0.15008671783E+02  0.19852517735E+02  0.39593485118E+03  0.39671625763E+03  0.00000000000E+00 0.  1.
         22    1    3    3    0    0 -0.40214564633E+02 -0.20514725221E+02  0.51266517789E+02  0.68310475081E+02  0.00000000000E+00 0.  1.
</event>
<event>
 7    1  0.6370239E-006  0.9549709E+02  0.7818608E-02  0.1370562E+00
          2   -1    0    0  502    0  0.00000000000E+00  0.00000000000E+00  0.80957337135E+03  0.80957337135E+03  0.00000000000E+00 0. -1.
          1   -1    0    0  501    0 -0.00000000000E+00 -0.00000000000E+00 -0.61134761609E+03  0.61134761609E+03  0.00000000000E+00 0. -1.
         25    2    1    2    0    0 -0.21257491699E+02  0.75370931667E+02  0.29405334629E+02  0.15040472753E+03  0.12499700022E+03 0.  0.
          2    1    1    2  501    0 -0.46614785984E+02 -0.61776057845E+01 -0.54657041301E+03  0.54858938876E+03  0.00000000000E+00 0. -1.
          1    1    1    2  502    0  0.67872277683E+02 -0.69193325883E+02  0.71539083364E+03  0.72192687115E+03  0.00000000000E+00 0. -1.
         22    1    3    3    0    0 -0.43429054887E+02  0.91861248876E+01 -0.34149181446E+02  0.56005663038E+02  0.00000000000E+00 0.  1.
         22    1    3    3    0    0  0.22171563188E+02  0.66184806780E+02  0.63554516075E+02  0.94399064488E+02  0.00000000000E+00 0.  1.
</event>
<event>
 7    1  0.6370239E-006  0.6427064E+02  0.7818608E-02  0.1416159E+00
          2   -1    0    0  502    0  0.00000000000E+00  0.00000000000E+00  0.21098731591E+04  0.21098731591E+04  0.00000000000E+00 0. -1.
          1   -1    0    0  501    0 -0.00000000000E+00 -0.00000000000E+00 -0.37475881985E+03  0.37475881985E+03  0.00000000000E+00 0. -1.
         25    2    1    2    0    0  0.65497280481E+02  0.88026598237E+02  0.58654039068E+03  0.60966647572E+03  0.12500002386E+03 0.  0.
          2    1    1    2  501    0 -0.27491276635E+02 -0.57867347829E+02 -0.35997752747E+03  0.36563399804E+03  0.00000000000E+00 0. -1.
          1    1    1    2  502    0 -0.38006003846E+02 -0.30159250408E+02  0.15085514760E+04  0.15093315052E+04  0.00000000000E+00 0. -1.
         22    1    3    3    0    0 -0.16207509070E+02  0.18868619356E+02  0.16938542070E+02  0.30093560011E+02  0.00000000000E+00 0. -1.
         22    1    3    3    0    0  0.81704789551E+02  0.69157978881E+02  0.56960184861E+03  0.57957291571E+03  0.00000000000E+00 0. -1.
</event>
<event>
 7    1  0.6370239E-006  0.8244031E+02  0.7818608E-02  0.1427835E+00
          2   -1    0    0  502    0  0.00000000000E+00  0.00000000000E+00  0.21377029978E+04  0.21377029978E+04  0.00000000000E+00 0. -1.
          1   -1    0    0  501    0 -0.00000000000E+00 -0.00000000000E+00 -0.76548935885E+02  0.76548935885E+02  0.00000000000E+00 0. -1.
         25    2    1    2    0    0  0.43019029667E+02  0.67861767228E+02  0.11552951961E+03  0.18822148232E+03  0.12499760055E+03 0.  0.
          2    1    1    2  501    0  0.26160040929E+02 -0.22623424640E+02 -0.31737962192E+02  0.46941083583E+02  0.00000000000E+00 0. -1.
          1    1    1    2  502    0 -0.69179070596E+02 -0.45238342588E+02  0.19773625045E+04  0.19790893678E+04  0.00000000000E+00 0. -1.
         22    1    3    3    0    0  0.90504884986E+01  0.99657558651E+02  0.92648818882E+02  0.13637207917E+03  0.00000000000E+00 0. -1.
         22    1    3    3    0    0  0.33968541168E+02 -0.31795791423E+02  0.22880700725E+02  0.51849403150E+02  0.00000000000E+00 0. -1.
</event>
<event>
 7    1  0.6370239E-006  0.2640832E+02  0.7818608E-02  0.1658034E+00
          2   -1    0    0  502    0  0.00000000000E+00  0.00000000000E+00  0.18319910479E+04  0.18319910479E+04  0.00000000000E+00 0. -1.
          1   -1    0    0  501    0 -0.00000000000E+00 -0.00000000000E+00 -0.11699018196E+02  0.11699018196E+02  0.00000000000E+00 0. -1.
         25    2    1    2    0    0 -0.32868391649E+02 -0.16234252497E+02  0.53772352049E+03  0.55327696612E+03  0.12499973850E+03 0.  0.
          2    1    1    2  501    0  0.22660286569E+02 -0.80927153045E+01  0.34480154530E+02  0.42045947306E+02  0.00000000000E+00 0. -1.
          1    1    1    2  502    0  0.10208105080E+02  0.24326967802E+02  0.12480883546E+04  0.12483671526E+04  0.00000000000E+00 0. -1.
         22    1    3    3    0    0 -0.25277058123E+02  0.14493964967E+02  0.21816910678E+02  0.36400306033E+02  0.00000000000E+00 0. -1.
         22    1    3    3    0    0 -0.75913335269E+01 -0.30728217465E+02  0.51590660981E+03  0.51687666009E+03  0.00000000000E+00 0. -1.
</event>
<event>
 7    1  0.6370239E-006  0.6550926E+02  0.7818608E-02  0.1484504E+00
          2   -1    0    0  502    0  0.00000000000E+00  0.00000000000E+00  0.22662155453E+03  0.22662155453E+03  0.00000000000E+00 0. -1.
          1   -1    0    0  501    0 -0.00000000000E+00 -0.00000000000E+00 -0.13605362983E+04  0.13605362983E+04  0.00000000000E+00 0. -1.
         25    2    1    2    0    0 -0.29756085495E+02  0.43910708008E+02 -0.29720429041E+03  0.32675679393E+03  0.12500414890E+03 0.  0.
          2    1    1    2  501    0  0.19565806640E+02  0.21090767398E+02 -0.10432439535E+04  0.10436405453E+04  0.00000000000E+00 0. -1.
          1    1    1    2  502    0  0.10190278855E+02 -0.65001475406E+02  0.20653350013E+03  0.21676051362E+03  0.00000000000E+00 0. -1.
         22    1    3    3    0    0 -0.31172894419E+02 -0.17432830066E+01 -0.27353742456E+03  0.27531347773E+03  0.00000000000E+00 0.  1.
         22    1    3    3    0    0  0.14168089244E+01  0.45653991015E+02 -0.23666865846E+02  0.51443316204E+02  0.00000000000E+00 0.  1.
</event>
<event>
 7    1  0.6370239E-006  0.1813643E+03  0.7818608E-02  0.1260294E+00
          2   -1    0    0  502    0  0.00000000000E+00  0.00000000000E+00  0.16338227481E+04  0.16338227481E+04  0.00000000000E+00 0. -1.
          1   -1    0    0  501    0 -0.00000000000E+00 -0.00000000000E+00 -0.48076815252E+03  0.48076815252E+03  0.00000000000E+00 0. -1.
         25    2    1    2    0    0  0.20016902253E+03  0.13438020523E+02  0.87609724164E+03  0.90742517020E+03  0.12500337890E+03 0.  0.
          2    1    1    2  501    0 -0.16658647607E+03 -0.71295494353E+02 -0.44585201980E+03  0.48126720757E+03  0.00000000000E+00 0. -1.
          1    1    1    2  502    0 -0.33582546457E+02  0.57857473831E+02  0.72280937371E+03  0.72589852282E+03  0.00000000000E+00 0. -1.
         22    1    3    3    0    0  0.17653846776E+03  0.56945386841E+02  0.64868164682E+03  0.67468250800E+03  0.00000000000E+00 0.  1.
         22    1    3    3    0    0  0.23630554771E+02 -0.43507366318E+02  0.22741559482E+03  0.23274266220E+03  0.00000000000E+00 0.  1.
</event>
<event>
 7    1  0.6370239E-006  0.1098974E+03  0.7818608E-02  0.1385681E+00
          2   -1    0    0  502    0  0.00000000000E+00  0.00000000000E+00  0.60696981141E+03  0.60696981141E+03  0.00000000000E+00 0. -1.
          1   -1    0    0  501    0 -0.00000000000E+00 -0.00000000000E+00 -0.52039294561E+03  0.52039294561E+03  0.00000000000E+00 0. -1.
         25    2    1    2    0    0  0.12412221978E+03 -0.62283022793E+02  0.15059982528E+03  0.23998046959E+03  0.12499927215E+03 0.  0.
          2    1    1    2  501    0 -0.10416708697E+03  0.32189589937E+02 -0.46864100708E+03  0.48115625864E+03  0.00000000000E+00 0. -1.
          1    1    1    2  502    0 -0.19955132809E+02  0.30093432856E+02  0.40461804759E+03  0.40622602879E+03  0.00000000000E+00 0. -1.
         22    1    3    3    0    0  0.62226301854E+02 -0.97325372229E+00 -0.41716738340E+01  0.62373573954E+02  0.00000000000E+00 0. -1.
         22    1    3    3    0    0  0.61895917927E+02 -0.61309769071E+02  0.15477149912E+03  0.17760689564E+03  0.00000000000E+00 0. -1.
</event>
<event>
 7    1  0.6370239E-006  0.5736830E+02  0.7818608E-02  0.1479869E+00
          2   -1    0    0  502    0  0.00000000000E+00  0.00000000000E+00  0.69165464428E+03  0.69165464428E+03  0.00000000000E+00 0. -1.
          1   -1    0    0  501    0 -0.00000000000E+00 -0.00000000000E+00 -0.15120321447E+04  0.15120321447E+04  0.00000000000E+00 0. -1.
         25    2    1    2    0    0  0.24671287949E+02  0.60894057998E+02 -0.12584758445E+03  0.18915920759E+03  0.12500733000E+03 0.  0.
          2    1    1    2  501    0  0.21236447789E+02 -0.26477040463E+02 -0.13530685353E+04  0.13534941750E+04  0.00000000000E+00 0. -1.
          1    1    1    2  502    0 -0.45907735738E+02 -0.34417017535E+02  0.65853861933E+03  0.66103340645E+03  0.00000000000E+00 0. -1.
         22    1    3    3    0    0  0.34116403888E+02  0.88781478869E+02 -0.49267232264E+02  0.10711367877E+03  0.00000000000E+00 0. -1.
         22    1    3    3    0    0 -0.94451159394E+01 -0.27887420871E+02 -0.76580352186E+02  0.82045528817E+02  0.00000000000E+00 0. -1.
</event>
<event>
 7    1  0.6370239E-006  0.1034970E+03  0.7818608E-02  0.1390889E+00
          2   -1    0    0  502    0  0.00000000000E+00  0.00000000000E+00  0.17289072809E+04  0.17289072809E+04  0.00000000000E+00 0. -1.
          1   -1    0    0  501    0 -0.00000000000E+00 -0.00000000000E+00 -0.16461198882E+04  0.16461198882E+04  0.00000000000E+00 0. -1.
         25    2    1    2    0    0 -0.12117973514E+03  0.69873217527E+02  0.12231259632E+04  0.12374283005E+04  0.12499952939E+03 0.  0.
          2    1    1    2  501    0  0.91665079835E+02 -0.47949713221E+02 -0.16366557035E+04  0.16399218133E+04  0.00000000000E+00 0. -1.
          1    1    1    2  502    0  0.29514655307E+02 -0.21923504305E+02  0.49631713299E+03  0.49767705535E+03  0.00000000000E+00 0. -1.
         22    1    3    3    0    0  0.67618404985E+01  0.58433255247E+02  0.35145432312E+03  0.35634296548E+03  0.00000000000E+00 0. -1.
         22    1    3    3    0    0 -0.12794157564E+03  0.11439962280E+02  0.87167164003E+03  0.88108533500E+03  0.00000000000E+00 0. -1.
</event>
<event>
 7    1  0.9343543E-006  0.6047229E+02  0.7818608E-02  0.1459577E+00
          2   -1    0    0  502    0  0.00000000000E+00  0.00000000000E+00  0.12249282826E+04  0.12249282826E+04  0.00000000000E+00 0. -1.
          1   -1    0    0  501    0 -0.00000000000E+00 -0.00000000000E+00 -0.99058842030E+03  0.99058842030E+03  0.00000000000E+00 0. -1.
         25    2    1    2    0    0  0.26475257501E+02  0.64096552536E+02 -0.25964723126E+03  0.29639654219E+03  0.12499967285E+03 0.  0.
          2    1    1    2  501    0  0.22987005545E+02 -0.29296969011E+02 -0.71132134236E+03  0.71229542109E+03  0.00000000000E+00 0. -1.
          1    1    1    2  502    0 -0.49462263046E+02 -0.34799583525E+02  0.12053084359E+04  0.12068247396E+04  0.00000000000E+00 0. -1.
         22    1    3    3    0    0  0.23070278836E+02  0.43554843875E+02 -0.26906624092E+03  0.27354324008E+03  0.00000000000E+00 0. -1.
         22    1    3    3    0    0  0.34049786656E+01  0.20541708661E+02  0.94190096586E+01  0.22853302111E+02  0.00000000000E+00 0. -1.
</event>
<event>
 7    1  0.6370239E-006  0.1816646E+03  0.7818608E-02  0.1212719E+00
          2   -1    0    0  502    0  0.00000000000E+00  0.00000000000E+00  0.92660127294E+03  0.92660127294E+03  0.00000000000E+00 0. -1.
          1   -1    0    0  501    0 -0.00000000000E+00 -0.00000000000E+00 -0.12667019635E+04  0.12667019635E+04  0.00000000000E+00 0. -1.
         25    2    1    2    0    0 -0.28077850021E+03 -0.64778397526E+02  0.41682930949E+03  0.52192363711E+03  0.12499921101E+03 0.  0.
          2    1    1    2  501    0  0.17731846464E+03  0.31788390475E+02 -0.12008925827E+04  0.12143291707E+04  0.00000000000E+00 0. -1.
          1    1    1    2  502    0  0.10346003557E+03  0.32990007052E+02  0.44396258263E+03  0.45705042862E+03  0.00000000000E+00 0. -1.
         22    1    3    3    0    0 -0.25375889321E+03 -0.90001908337E+02  0.39779155004E+03  0.48034574701E+03  0.00000000000E+00 0. -1.
         22    1    3    3    0    0 -0.27019606999E+02  0.25223510811E+02  0.19037759457E+02  0.41577890100E+02  0.00000000000E+00 0. -1.
</event>
<event>
 7    1  0.6370239E-006  0.1300927E+03  0.7818608E-02  0.1315192E+00
          2   -1    0    0  502    0  0.00000000000E+00  0.00000000000E+00  0.49660181696E+03  0.49660181696E+03  0.00000000000E+00 0. -1.
          1   -1    0    0  501    0 -0.00000000000E+00 -0.00000000000E+00 -0.10552621059E+04  0.10552621059E+04  0.00000000000E+00 0. -1.
         25    2    1    2    0    0 -0.17594518414E+03  0.82533126913E+01 -0.20118133397E+03  0.29516825398E+03  0.12500217607E+03 0.  0.
          2    1    1    2  501    0  0.48789138098E+02 -0.26784505307E+02 -0.79691546385E+03  0.79885671196E+03  0.00000000000E+00 0. -1.
          1    1    1    2  502    0  0.12715604605E+03  0.18531192616E+02  0.43943650888E+03  0.45783895693E+03  0.00000000000E+00 0. -1.
         22    1    3    3    0    0 -0.94202858607E+02  0.65519446874E+02 -0.12443848063E+03  0.16926875656E+03  0.00000000000E+00 0.  1.
         22    1    3    3    0    0 -0.81742325538E+02 -0.57266134183E+02 -0.76742853346E+02  0.12589949741E+03  0.00000000000E+00 0.  1.
</event>
<event>
 7    1  0.6370239E-006  0.2159797E+03  0.7818608E-02  0.1305657E+00
          2   -1    0    0  502    0  0.00000000000E+00  0.00000000000E+00  0.37127159246E+03  0.37127159246E+03  0.00000000000E+00 0. -1.
          1   -1    0    0  501    0 -0.00000000000E+00 -0.00000000000E+00 -0.26089432275E+04  0.26089432275E+04  0.00000000000E+00 0. -1.
         25    2    1    2    0    0  0.12139770939E+03  0.14848099703E+03 -0.72637830609E+03  0.76160264481E+03  0.12501653767E+03 0.  0.
          2    1    1    2  501    0 -0.15429558856E+03 -0.16441273830E+03 -0.18571711793E+04  0.18708082388E+04  0.00000000000E+00 0. -1.
          1    1    1    2  502    0  0.32897879169E+02  0.15931741268E+02  0.34587785031E+03  0.34780393639E+03  0.00000000000E+00 0. -1.
         22    1    3    3    0    0  0.10247485074E+03  0.75000617116E+02 -0.60707076506E+03  0.62021052989E+03  0.00000000000E+00 0. -1.
         22    1    3    3    0    0  0.18922858648E+02  0.73480379918E+02 -0.11930754103E+03  0.14139211491E+03  0.00000000000E+00 0. -1.
</event>
<event>
 7    1  0.6370239E-006  0.1966861E+03  0.7818608E-02  0.1245927E+00
          2   -1    0    0  502    0  0.00000000000E+00  0.00000000000E+00  0.14451381981E+04  0.14451381981E+04  0.00000000000E+00 0. -1.
          1   -1    0    0  501    0 -0.00000000000E+00 -0.00000000000E+00 -0.18479886728E+03  0.18479886728E+03  0.00000000000E+00 0. -1.
         25    2    1    2    0    0  0.17866624985E+03 -0.14783095198E+03  0.54426328058E+03  0.60466743961E+03  0.12499829894E+03 0.  0.
          2    1    1    2  501    0 -0.85480783900E+01  0.70639187258E+02 -0.13571328990E+03  0.15323531407E+03  0.00000000000E+00 0. -1.
          1    1    1    2  502    0 -0.17011817146E+03  0.77191764718E+02  0.85178934012E+03  0.87203431167E+03  0.00000000000E+00 0. -1.
         22    1    3    3    0    0  0.68289952491E+02  0.11584813708E+02  0.15570838900E+03  0.17041956438E+03  0.00000000000E+00 0. -1.
         22    1    3    3    0    0  0.11037629735E+03 -0.15941576568E+03  0.38855489158E+03  0.43424787523E+03  0.00000000000E+00 0. -1.
</event>
<event>
 7    1  0.6370239E-006  0.6769364E+02  0.7818608E-02  0.1405997E+00
          2   -1    0    0  502    0  0.00000000000E+00  0.00000000000E+00  0.10527211538E+03  0.10527211538E+03  0.00000000000E+00 0. -1.
          1   -1    0    0  501    0 -0.00000000000E+00 -0.00000000000E+00 -0.88998147873E+03  0.88998147873E+03  0.00000000000E+00 0. -1.
         25    2    1    2    0    0 -0.19072440285E+02  0.40140814420E+02 -0.67514915454E+03  0.68806285305E+03  0.12501626256E+03 0.  0.
          2    1    1    2  501    0 -0.46529126021E+02 -0.56840034399E+02 -0.18902836224E+03  0.20279908977E+03  0.00000000000E+00 0. -1.
          1    1    1    2  502    0  0.65601566305E+02  0.16699219979E+02  0.79468153437E+02  0.10439165130E+03  0.00000000000E+00 0. -1.
         22    1    3    3    0    0  0.98936869809E+01  0.57607349079E+02 -0.62405904578E+03  0.62679038309E+03  0.00000000000E+00 0.  1.
         22    1    3    3    0    0 -0.28966127265E+02 -0.17466534659E+02 -0.51090108759E+02  0.61272469958E+02  0.00000000000E+00 0.  1.
</event>
<event>
 7    1  0.6370239E-006  0.1868226E+03  0.7818608E-02  0.1234621E+00
          2   -1    0    0  502    0  0.00000000000E+00  0.00000000000E+00  0.23296708238E+04  0.23296708238E+04  0.00000000000E+00 0. -1.
          1   -1    0    0  501    0 -0.00000000000E+00 -0.00000000000E+00 -0.40879146803E+03  0.40879146803E+03  0.00000000000E+00 0. -1.
         25    2    1    2    0    0  0.26131109341E+03 -0.57866100231E+02  0.51704605482E+02  0.29987933875E+03  0.12498911346E+03 0.  0.
          2    1    1    2  501    0 -0.83457394573E+02  0.97120931939E+01 -0.27446570536E+03  0.28703812444E+03  0.00000000000E+00 0. -1.
          1    1    1    2  502    0 -0.17785369884E+03  0.48154007037E+02  0.21436404556E+04  0.21515448286E+04  0.00000000000E+00 0. -1.
         22    1    3    3    0    0  0.85513705737E+02 -0.34897893377E+01  0.75759154815E+02  0.11429882780E+03  0.00000000000E+00 0.  1.
         22    1    3    3    0    0  0.17579738767E+03 -0.54376310894E+02 -0.24054549333E+02  0.18558051094E+03  0.00000000000E+00 0.  1.
</event>
<event>
 7    1  0.6370239E-006  0.8277704E+02  0.7818608E-02  0.1422250E+00
          2   -1    0    0  502    0  0.00000000000E+00  0.00000000000E+00  0.66143828584E+03  0.66143828584E+03  0.00000000000E+00 0. -1.
          1   -1    0    0  501    0 -0.00000000000E+00 -0.00000000000E+00 -0.45360763092E+03  0.45360763092E+03  0.00000000000E+00 0. -1.
         25    2    1    2    0    0  0.23120429580E+02 -0.51756145290E+02  0.94159743017E+02  0.16646154144E+03  0.12502053726E+03 0.  0.
          2    1    1    2  501    0 -0.13704279464E+02 -0.33230599066E+02 -0.41322999006E+03  0.41479043465E+03  0.00000000000E+00 0. -1.
          1    1    1    2  502    0 -0.94161501154E+01  0.84986744356E+02  0.52690090196E+03  0.53379394066E+03  0.00000000000E+00 0. -1.
         22    1    3    3    0    0 -0.10559603185E+02  0.23772156525E+02 -0.14602415341E+02  0.29830373431E+02  0.00000000000E+00 0.  1.
         22    1    3    3    0    0  0.33680032765E+02 -0.75528301814E+02  0.10876215836E+03  0.13663116801E+03  0.00000000000E+00 0.  1.
</event>
<event>
 7    1  0.7794018E-006  0.4843237E+02  0.7818608E-02  0.1513378E+00
          2   -1    0    0  502    0  0.00000000000E+00  0.00000000000E+00  0.10378334352E+04  0.10378334352E+04  0.00000000000E+00 0. -1.
          1   -1    0    0  501    0 -0.00000000000E+00 -0.00000000000E+00 -0.11073344380E+04  0.11073344380E+04  0.00000000000E+00 0. -1.
         25    2    1    2    0    0  0.23935889897E+02  0.58687792467E+01 -0.30726418606E+03  0.33262201606E+03  0.12497502205E+03 0.  0.
          2    1    1    2  501    0  0.21037568581E+02 -0.23980055958E+02 -0.78649458326E+03  0.78714125281E+03  0.00000000000E+00 0. -1.
          1    1    1    2  502    0 -0.44973458479E+02  0.18111276712E+02  0.10242577665E+04  0.10254046044E+04  0.00000000000E+00 0. -1.
         22    1    3    3    0    0 -0.29887020745E+01 -0.19996369080E+02 -0.29132620213E+03  0.29202695623E+03  0.00000000000E+00 0.  1.
         22    1    3    3    0    0  0.26924591972E+02  0.25865148327E+02 -0.15937983932E+02  0.40595059830E+02  0.00000000000E+00 0.  1.
</event>
<event>
 7    1  0.6370239E-006  0.5980316E+02  0.7818608E-02  0.1439943E+00
          2   -1    0    0  502    0  0.00000000000E+00  0.00000000000E+00  0.10329440960E+04  0.10329440960E+04  0.00000000000E+00 0. -1.
          1   -1    0    0  501    0 -0.00000000000E+00 -0.00000000000E+00 -0.99443653900E+03  0.99443653900E+03  0.00000000000E+00 0. -1.
         25    2    1    2    0    0 -0.41764707799E+02 -0.68807256133E+02 -0.10009060326E+02  0.14900746333E+03  0.12499725407E+03 0.  0.
          2    1    1    2  501    0 -0.78472830408E+00  0.59676665949E+02 -0.91346255841E+03  0.91541016264E+03  0.00000000000E+00 0. -1.
          1    1    1    2  502    0  0.42549436103E+02  0.91305901838E+01  0.96197917572E+03  0.96296300900E+03  0.00000000000E+00 0. -1.
         22    1    3    3    0    0  0.32667586487E+02 -0.60376269857E+02 -0.24159020283E+02  0.72774469629E+02  0.00000000000E+00 0. -1.
         22    1    3    3    0    0 -0.74432294285E+02 -0.84309862757E+01  0.14149959957E+02  0.76232993703E+02  0.00000000000E+00 0. -1.
</event>
<event>
 7    1  0.6370239E-006  0.8381121E+02  0.7818608E-02  0.1339006E+00
          2   -1    0    0  502    0  0.00000000000E+00  0.00000000000E+00  0.16122795573E+04  0.16122795573E+04  0.00000000000E+00 0. -1.
          1   -1    0    0  501    0 -0.00000000000E+00 -0.00000000000E+00 -0.32034877149E+03  0.32034877149E+03  0.00000000000E+00 0. -1.
         25    2    1    2    0    0  0.58117638996E+02  0.12167762421E+02  0.48469228551E+03  0.50406057210E+03  0.12499893725E+03 0.  0.
          2    1    1    2  501    0 -0.61536596485E+02  0.57746066942E+02 -0.30381210681E+03  0.31531437835E+03  0.00000000000E+00 0. -1.
          1    1    1    2  502    0  0.34189574895E+01 -0.69913829363E+02  0.11110506071E+04  0.11132533783E+04  0.00000000000E+00 0. -1.
         22    1    3    3    0    0  0.38171797577E+02  0.22820103440E+02  0.47857314360E+03  0.48063509758E+03  0.00000000000E+00 0.  1.
         22    1    3    3    0    0  0.19945841418E+02 -0.10652341019E+02  0.61191419133E+01  0.23425474527E+02  0.00000000000E+00 0.  1.
</event>
<event>
 7    1  0.6370239E-006  0.8103780E+02  0.7818608E-02  0.1416232E+00
          2   -1    0    0  502    0  0.00000000000E+00  0.00000000000E+00  0.16553001718E+04  0.16553001718E+04  0.00000000000E+00 0. -1.
          1   -1    0    0  501    0 -0.00000000000E+00 -0.00000000000E+00 -0.82031604174E+03  0.82031604174E+03  0.00000000000E+00 0. -1.
         25    2    1    2    0    0 -0.85159747129E+02  0.82586175586E+02  0.38285098125E+02  0.17653330811E+03  0.12500240479E+03 0.  0.
          2    1    1    2  501    0  0.24710512863E+02 -0.29468681138E+02 -0.74965282400E+03  0.75063864085E+03  0.00000000000E+00 0. -1.
          1    1    1    2  502    0  0.60449234266E+02 -0.53117494448E+02  0.15463518559E+04  0.15484442645E+04  0.00000000000E+00 0. -1.
         22    1    3    3    0    0 -0.41993615044E+02  0.10914999400E+03  0.45197255144E+02  0.12537933150E+03  0.00000000000E+00 0.  1.
         22    1    3    3    0    0 -0.43166132085E+02 -0.26563818414E+02 -0.69121570193E+01  0.51153976606E+02  0.00000000000E+00 0.  1.
</event>
<event>
 7    1  0.6370239E-006  0.4265102E+02  0.7818608E-02  0.1495556E+00
          2   -1    0    0  502    0  0.00000000000E+00  0.00000000000E+00  0.35268040723E+03  0.35268040723E+03  0.00000000000E+00 0. -1.
          1   -1    0    0  501    0 -0.00000000000E+00 -0.00000000000E+00 -0.15315901766E+03  0.15315901766E+03  0.00000000000E+00 0. -1.
         25    2    1    2    0    0  0.29731136932E+02 -0.76619694095E+02  0.96895055050E+02  0.17823573096E+03  0.12499922428E+03 0.  0.
          2    1    1    2  501    0 -0.18047645186E+02  0.37410484778E+02 -0.10660437099E+03  0.11441046185E+03  0.00000000000E+00 0. -1.
          1    1    1    2  502    0 -0.11683491745E+02  0.39209209317E+02  0.20923070551E+03  0.21319323207E+03  0.00000000000E+00 0. -1.
         22    1    3    3    0    0 -0.25437622397E+02 -0.86799945512E+02  0.41930098749E+02  0.99696721888E+02  0.00000000000E+00 0.  1.
         22    1    3    3    0    0  0.55168759329E+02  0.10180251416E+02  0.54964956301E+02  0.78539009072E+02  0.00000000000E+00 0.  1.
</event>
<event>
 7    1  0.6370239E-006  0.1827657E+03  0.7818608E-02  0.1227670E+00
          2   -1    0    0  502    0  0.00000000000E+00  0.00000000000E+00  0.12162433204E+04  0.12162433204E+04  0.00000000000E+00 0. -1.
          1   -1    0    0  501    0 -0.00000000000E+00 -0.00000000000E+00 -0.21525701618E+03  0.21525701618E+03  0.00000000000E+00 0. -1.
         25    2    1    2    0    0 -0.49800701904E+02 -0.99700634937E+02  0.51467119180E+03  0.54123176035E+03  0.12500022490E+03 0.  0.
          2    1    1    2  501    0  0.13648291116E+03  0.13130120352E+03 -0.15353278336E+03  0.24380300788E+03  0.00000000000E+00 0. -1.
          1    1    1    2  502    0 -0.86682209258E+02 -0.31600568588E+02  0.63984789576E+03  0.64646556834E+03  0.00000000000E+00 0. -1.
         22    1    3    3    0    0 -0.65656983599E+02 -0.29937695304E+01  0.15301563863E+03  0.16653404402E+03  0.00000000000E+00 0.  1.
         22    1    3    3    0    0  0.15856281695E+02 -0.96706865406E+02  0.36165555317E+03  0.37469771633E+03  0.00000000000E+00 0.  1.
</event>
<event>
 7    1  0.6370239E-006  0.5305972E+02  0.7818608E-02  0.1431830E+00
          2   -1    0    0  502    0  0.00000000000E+00  0.00000000000E+00  0.35619045501E+04  0.35619045501E+04  0.00000000000E+00 0. -1.
          1   -1    0    0  501    0 -0.00000000000E+00 -0.00000000000E+00 -0.92249498152E+02  0.92249498152E+02  0.00000000000E+00 0. -1.
         25    2    1    2    0    0  0.97721167462E+01  0.24407342244E+01  0.10994877215E+03  0.16677651816E+03  0.12499689222E+03 0.  0.
          2    1    1    2  501    0 -0.10423147472E+02 -0.55496462853E+02 -0.51101642331E+02  0.76156925104E+02  0.00000000000E+00 0. -1.
          1    1    1    2  502    0  0.65103072558E+00  0.53055728629E+02  0.34108079221E+04  0.34112206050E+04  0.00000000000E+00 0. -1.
         22    1    3    3    0    0 -0.34025050333E+01  0.12715669273E+02  0.13555992816E+03  0.13619750148E+03  0.00000000000E+00 0. -1.
         22    1    3    3    0    0  0.13174621779E+02 -0.10274935048E+02 -0.25611156014E+02  0.30579016688E+02  0.00000000000E+00 0. -1.
</event>
<event>
 7    1  0.6370239E-006  0.3707688E+02  0.7818608E-02  0.1541735E+00
          2   -1    0    0  502    0  0.00000000000E+00  0.00000000000E+00  0.11455376513E+04  0.11455376513E+04  0.00000000000E+00 0. -1.
          1   -1    0    0  501    0 -0.00000000000E+00 -0.00000000000E+00 -0.27466186860E+02  0.27466186860E+02  0.00000000000E+00 0. -1.
         25    2    1    2    0    0 -0.27541748514E+02 -0.21441728883E+02  0.37069805517E+03  0.39275742450E+03  0.12499220275E+03 0.  0.
          2    1    1    2  501    0 -0.27765277369E+01  0.37986638182E+02  0.65847060622E+01  0.38652970657E+02  0.00000000000E+00 0. -1.
          1    1    1    2  502    0  0.30318276251E+02 -0.16544909299E+02  0.74078870323E+03  0.74159344302E+03  0.00000000000E+00 0. -1.
         22    1    3    3    0    0 -0.65254361183E+02 -0.48311084320E+02  0.19902365698E+03  0.21494768796E+03  0.00000000000E+00 0.  1.
         22    1    3    3    0    0  0.37712612669E+02  0.26869355437E+02  0.17167439819E+03  0.17780973654E+03  0.00000000000E+00 0.  1.
</event>
<event>
 7    1  0.6370239E-006  0.6666845E+02  0.7818608E-02  0.1428191E+00
          2   -1    0    0  502    0  0.00000000000E+00  0.00000000000E+00  0.11772628615E+03  0.11772628615E+03  0.00000000000E+00 0. -1.
          1   -1    0    0  501    0 -0.00000000000E+00 -0.00000000000E+00 -0.93792767837E+03  0.93792767837E+03  0.00000000000E+00 0. -1.
         25    2    1    2    0    0 -0.60723555832E+01 -0.46234397362E+02 -0.77828053886E+03  0.78963262094E+03  0.12499834350E+03 0.  0.
          2    1    1    2  501    0  0.41242798446E+02 -0.10873271815E+02 -0.14047685999E+03  0.14680921176E+03  0.00000000000E+00 0. -1.
          1    1    1    2  502    0 -0.35170442863E+02  0.57107669177E+02  0.98556006631E+02  0.11921213182E+03  0.00000000000E+00 0. -1.
         22    1    3    3    0    0 -0.59793551138E+02 -0.26955487536E+02 -0.25702556559E+03  0.26526215040E+03  0.00000000000E+00 0. -1.
         22    1    3    3    0    0  0.53721195554E+02 -0.19278909826E+02 -0.52125497327E+03  0.52437047054E+03  0.00000000000E+00 0. -1.
</event>
<event>
 7    1  0.6370239E-006  0.9226898E+02  0.7818608E-02  0.1392689E+00
          2   -1    0    0  502    0  0.00000000000E+00  0.00000000000E+00  0.26655351244E+03  0.26655351244E+03  0.00000000000E+00 0. -1.
          1   -1    0    0  501    0 -0.00000000000E+00 -0.00000000000E+00 -0.32482642079E+03  0.32482642079E+03  0.00000000000E+00 0. -1.
         25    2    1    2    0    0  0.42708468217E+02  0.52017753917E+02  0.99485893733E+02  0.17335685783E+03  0.12500118849E+03 0.  0.
          2    1    1    2  501    0  0.19692396895E+02  0.35561167215E+02 -0.26384978037E+03  0.26696271970E+03  0.00000000000E+00 0. -1.
          1    1    1    2  502    0 -0.62400865111E+02 -0.87578921131E+02  0.10609097828E+03  0.15106035571E+03  0.00000000000E+00 0. -1.
         22    1    3    3    0    0 -0.38138093251E+02  0.35493983845E+02  0.66528701717E+02  0.84500918327E+02  0.00000000000E+00 0. -1.
         22    1    3    3    0    0  0.80846561468E+02  0.16523770072E+02  0.32957192016E+02  0.88855939499E+02  0.00000000000E+00 0. -1.
</event>
<event>
 7    1  0.6370239E-006  0.9248626E+02  0.7818608E-02  0.1298654E+00
          2   -1    0    0  502    0  0.00000000000E+00  0.00000000000E+00  0.84160858163E+02  0.84160858163E+02  0.00000000000E+00 0. -1.
          1   -1    0    0  501    0 -0.00000000000E+00 -0.00000000000E+00 -0.19063276153E+04  0.19063276153E+04  0.00000000000E+00 0. -1.
         25    2    1    2    0    0  0.22328351876E+02  0.13643742204E+02 -0.23977395075E+03  0.27165869812E+03  0.12498877473E+03 0.  0.
          2    1    1    2  501    0 -0.23787008139E+02  0.89374976160E+02 -0.16096111832E+04  0.16122660665E+04  0.00000000000E+00 0. -1.
          1    1    1    2  502    0  0.14586562627E+01 -0.10301871836E+03  0.27218376789E+02  0.10656370886E+03  0.00000000000E+00 0. -1.
         22    1    3    3    0    0  0.35939206271E+02  0.58537089799E+02 -0.81533536742E+02  0.10661113940E+03  0.00000000000E+00 0.  1.
         22    1    3    3    0    0 -0.13610854395E+02 -0.44893347595E+02 -0.15824041401E+03  0.16504755873E+03  0.00000000000E+00 0.  1.
</event>
<event>
 7    1  0.6370239E-006  0.1752343E+03  0.7818608E-02  0.1264377E+00
          2   -1    0    0  502    0  0.00000000000E+00  0.00000000000E+00  0.40047698236E+04  0.40047698236E+04  0.00000000000E+00 0. -1.
          1   -1    0    0  501    0 -0.00000000000E+00 -0.00000000000E+00 -0.83894458150E+02  0.83894458150E+02  0.00000000000E+00 0. -1.
         25    2    1    2    0    0 -0.19663891184E+03 -0.56487651903E+02  0.38147136235E+03  0.45055829389E+03  0.12499863775E+03 0.  0.
          2    1    1    2  501    0  0.22737735084E+02  0.62518489493E+02 -0.23801259001E+02  0.70654554385E+02  0.00000000000E+00 0. -1.
          1    1    1    2  502    0  0.17390117675E+03 -0.60308375894E+01  0.35632052621E+04  0.35674514335E+04  0.00000000000E+00 0. -1.
         22    1    3    3    0    0 -0.10244893148E+03 -0.31054735359E+01  0.29405838977E+03  0.31140931926E+03  0.00000000000E+00 0.  1.
         22    1    3    3    0    0 -0.94189980359E+02 -0.53382178368E+02  0.87412972574E+02  0.13914897463E+03  0.00000000000E+00 0.  1.
</event>
<event>
 7    1  0.6370239E-006  0.9712053E+02  0.7818608E-02  0.1339595E+00
          2   -1    0    0  502    0  0.00000000000E+00  0.00000000000E+00  0.25768109173E+04  0.25768109173E+04  0.00000000000E+00 0. -1.
          1   -1    0    0  501    0 -0.00000000000E+00 -0.00000000000E+00 -0.44430826436E+03  0.44430826436E+03  0.00000000000E+00 0. -1.
         25    2    1    2    0    0  0.14999696981E+03  0.25960608635E+02 -0.56100301078E+02  0.20480548753E+03  0.12499999916E+03 0.  0.
          2    1    1    2  501    0 -0.53270194811E+02 -0.27820368870E+02 -0.31003377930E+03  0.31580473537E+03  0.00000000000E+00 0. -1.
          1    1    1    2  502    0 -0.96726774996E+02  0.18597602346E+01  0.24986367333E+04  0.25005089588E+04  0.00000000000E+00 0. -1.
         22    1    3    3    0    0  0.16605404115E+03  0.27347700302E+02 -0.71188361214E+02  0.18272827933E+03  0.00000000000E+00 0.  1.
         22    1    3    3    0    0 -0.16057071343E+02 -0.13870916666E+01  0.15088060136E+02  0.22077208204E+02  0.00000000000E+00 0.  1.
</event>
<event>
 7    1  0.6370239E-006  0.2339089E+03  0.7818608E-02  0.1282081E+00
          2   -1    0    0  502    0  0.00000000000E+00  0.00000000000E+00  0.10455725159E+04  0.10455725159E+04  0.00000000000E+00 0. -1.
          1   -1    0    0  501    0 -0.00000000000E+00 -0.00000000000E+00 -0.43110836030E+03  0.43110836030E+03  0.00000000000E+00 0. -1.
         25    2    1    2    0    0  0.75647672107E+02 -0.25023788575E+03  0.40986981135E+03  0.50195678296E+03  0.12500311974E+03 0.  0.
          2    1    1    2  501    0 -0.93574306999E+02  0.21221929775E+03 -0.34927141631E+03  0.41926567177E+03  0.00000000000E+00 0. -1.
          1    1    1    2  502    0  0.17926634892E+02  0.38018587997E+02  0.55386576057E+03  0.55545842149E+03  0.00000000000E+00 0. -1.
         22    1    3    3    0    0  0.31600767660E+02 -0.87031416699E+02  0.26016996057E+03  0.27615481960E+03  0.00000000000E+00 0. -1.
         22    1    3    3    0    0  0.44046904447E+02 -0.16320646905E+03  0.14969985078E+03  0.22580196336E+03  0.00000000000E+00 0. -1.
</event>
<event>
 7    1  0.6370239E-006  0.8728594E+02  0.7818608E-02  0.1353982E+00
          2   -1    0    0  502    0  0.00000000000E+00  0.00000000000E+00  0.61463750433E+03  0.61463750433E+03  0.00000000000E+00 0. -1.
          1   -1    0    0  501    0 -0.00000000000E+00 -0.00000000000E+00 -0.43008314293E+03  0.43008314293E+03  0.00000000000E+00 0. -1.
         25    2    1    2    0    0  0.30568145097E+02  0.13344723549E+03  0.12876470958E+03  0.22571644433E+03  0.12499994662E+03 0.  0.
          2    1    1    2  501    0  0.66441334363E+01 -0.58734433667E+02 -0.37529097482E+03  0.37991735152E+03  0.00000000000E+00 0. -1.
          1    1    1    2  502    0 -0.37212278534E+02 -0.74712801819E+02  0.43108062663E+03  0.43908685141E+03  0.00000000000E+00 0. -1.
         22    1    3    3    0    0 -0.36718760639E+02  0.10690464931E+03  0.80018979714E+02  0.13849154683E+03  0.00000000000E+00 0. -1.
         22    1    3    3    0    0  0.67286905737E+02  0.26542586171E+02  0.48745729870E+02  0.87224897505E+02  0.00000000000E+00 0. -1.
</event>
<event>
 7    1  0.6370239E-006  0.2648050E+02  0.7818608E-02  0.1647454E+00
          2   -1    0    0  502    0  0.00000000000E+00  0.00000000000E+00  0.85674898920E+02  0.85674898920E+02  0.00000000000E+00 0. -1.
          1   -1    0    0  501    0 -0.00000000000E+00 -0.00000000000E+00 -0.13846754481E+04  0.13846754481E+04  0.00000000000E+00 0. -1.
         25    2    1    2    0    0  0.19985333154E+02  0.91896042922E+01 -0.45858073119E+03  0.47581933370E+03  0.12499555564E+03 0.  0.
          2    1    1    2  501    0  0.10173067077E+01 -0.25448216291E+02 -0.91500416941E+03  0.91535855088E+03  0.00000000000E+00 0. -1.
          1    1    1    2  502    0 -0.21002639862E+02  0.16258611999E+02  0.74584351381E+02  0.79172462487E+02  0.00000000000E+00 0. -1.
         22    1    3    3    0    0 -0.53270431956E+02  0.34382096144E+01 -0.18615037630E+03  0.19365309913E+03  0.00000000000E+00 0.  1.
         22    1    3    3    0    0  0.73255765110E+02  0.57513946778E+01 -0.27243035489E+03  0.28216623456E+03  0.00000000000E+00 0.  1.
</event>
<event>
 7    1  0.6370239E-006  0.3285486E+02  0.7818608E-02  0.1643359E+00
          2   -1    0    0  502    0  0.00000000000E+00  0.00000000000E+00  0.21413644141E+04  0.21413644141E+04  0.00000000000E+00 0. -1.
          1   -1    0    0  501    0 -0.00000000000E+00 -0.00000000000E+00 -0.90971813506E+01  0.90971813506E+01  0.00000000000E+00 0. -1.
         25    2    1    2    0    0  0.13703774884E+01  0.13629516884E+02  0.84630995511E+03  0.85560033770E+03  0.12499502426E+03 0.  0.
          2    1    1    2  501    0  0.22773253701E+01 -0.34320568146E+02  0.63449016945E+02  0.72172469543E+02  0.00000000000E+00 0. -1.
          1    1    1    2  502    0 -0.36477028585E+01  0.20691051263E+02  0.12225082607E+04  0.12226887882E+04  0.00000000000E+00 0. -1.
         22    1    3    3    0    0 -0.59343654222E+02 -0.33568998627E+01  0.50806325193E+03  0.51152830423E+03  0.00000000000E+00 0.  1.
         22    1    3    3    0    0  0.60714031711E+02  0.16986416746E+02  0.33824670318E+03  0.34407203346E+03  0.00000000000E+00 0.  1.
</event>
<event>
 7    1  0.6370239E-006  0.4560497E+02  0.7818608E-02  0.1509866E+00
          2   -1    0    0  502    0  0.00000000000E+00  0.00000000000E+00  0.25391922147E+04  0.25391922147E+04  0.00000000000E+00 0. -1.
          1   -1    0    0  501    0 -0.00000000000E+00 -0.00000000000E+00 -0.24649110411E+03  0.24649110411E+03  0.00000000000E+00 0. -1.
         25    2    1    2    0    0  0.73213237388E+02 -0.23614689354E+02  0.28128571829E+03  0.31727599481E+03  0.12499827953E+03 0.  0.
          2    1    1    2  501    0 -0.45284482951E+02  0.30348616935E+01 -0.22610641993E+03  0.23061658204E+03  0.00000000000E+00 0. -1.
          1    1    1    2  502    0 -0.27928754436E+02  0.20579827660E+02  0.22375218122E+04  0.22377907420E+04  0.00000000000E+00 0. -1.
         22    1    3    3    0    0  0.10752893839E+03 -0.19906424730E+02  0.23794123313E+03  0.26186784599E+03  0.00000000000E+00 0.  1.
         22    1    3    3    0    0 -0.34315701007E+02 -0.37082646240E+01  0.43344485159E+02  0.55408148822E+02  0.00000000000E+00 0.  1.
</event>
<event>
 7    1  0.6370239E-006  0.5381227E+02  0.7818608E-02  0.1490637E+00
          2   -1    0    0  502    0  0.00000000000E+00  0.00000000000E+00  0.80002743587E+03  0.80002743587E+03  0.00000000000E+00 0. -1.
          1   -1    0    0  501    0 -0.00000000000E+00 -0.00000000000E+00 -0.11166349191E+03  0.11166349191E+03  0.00000000000E+00 0. -1.
         25    2    1    2    0    0 -0.35546698020E+02 -0.74192621246E+02  0.35612431485E+03  0.38628712293E+03  0.12500040371E+03 0.  0.
          2    1    1    2  501    0  0.10092681136E+02  0.52332370692E+02 -0.88510384828E+02  0.10331808872E+03  0.00000000000E+00 0. -1.
          1    1    1    2  502    0  0.25454016884E+02  0.21860250553E+02  0.42075001394E+03  0.42208571613E+03  0.00000000000E+00 0. -1.
         22    1    3    3    0    0  0.37211784372E+02  0.91548729812E+01  0.76246287575E+02  0.85334781681E+02  0.00000000000E+00 0.  1.
         22    1    3    3    0    0 -0.72758482392E+02 -0.83347494227E+02  0.27987802727E+03  0.30095234125E+03  0.00000000000E+00 0.  1.
</event>
<event>
 7    1  0.6370239E-006  0.1865844E+03  0.7818608E-02  0.1271664E+00
          2   -1    0    0  502    0  0.00000000000E+00  0.00000000000E+00  0.17678993338E+04  0.17678993338E+04  0.00000000000E+00 0. -1.
          1   -1    0    0  501    0 -0.00000000000E+00 -0.00000000000E+00 -0.32501580419E+04  0.32501580419E+04  0.00000000000E+00 0. -1.
         25    2    1    2    0    0  0.12010635235E+03  0.10156530358E+03  0.40287855207E+03  0.45019644750E+03  0.12499866742E+03 0.  0.
          2    1    1    2  501    0 -0.10160951512E+03 -0.15676249014E+03 -0.32231615893E+04  0.32285708297E+04  0.00000000000E+00 0. -1.
          1    1    1    2  502    0 -0.18496837231E+02  0.55197186562E+02  0.13380243292E+04  0.13392900985E+04  0.00000000000E+00 0. -1.
         22    1    3    3    0    0  0.11352595484E+03  0.77650256689E+02  0.18300933625E+03  0.22893257073E+03  0.00000000000E+00 0. -1.
         22    1    3    3    0    0  0.65803975151E+01  0.23915046892E+02  0.21986921582E+03  0.22126387678E+03  0.00000000000E+00 0. -1.
</event>
<event>
 7    1  0.6370239E-006  0.1771845E+03  0.7818608E-02  0.1247847E+00
          2   -1    0    0  502    0  0.00000000000E+00  0.00000000000E+00  0.98110694106E+03  0.98110694106E+03  0.00000000000E+00 0. -1.
          1   -1    0    0  501    0 -0.00000000000E+00 -0.00000000000E+00 -0.33673330271E+03  0.33673330271E+03  0.00000000000E+00 0. -1.
         25    2    1    2    0    0 -0.20760444208E+03 -0.11652851413E+03  0.61846524009E+01  0.26896316015E+03  0.12499773044E+03 0.  0.
          2    1    1    2  501    0  0.13377766801E+03  0.93024985423E+02 -0.17087552084E+03  0.23611132119E+03  0.00000000000E+00 0. -1.
          1    1    1    2  502    0  0.73826774064E+02  0.23503528712E+02  0.80906450679E+03  0.81276576243E+03  0.00000000000E+00 0. -1.
         22    1    3    3    0    0 -0.84380668321E+02  0.67931226358E+01  0.36191618189E+02  0.92065612085E+02  0.00000000000E+00 0.  1.
         22    1    3    3    0    0 -0.12322377376E+03 -0.12332163677E+03 -0.30006965788E+02  0.17689754806E+03  0.00000000000E+00 0.  1.
</event>
<event>
 7    1  0.6370239E-006  0.1327326E+03  0.7818608E-02  0.1339397E+00
          2   -1    0    0  502    0  0.00000000000E+00  0.00000000000E+00  0.20102044194E+04  0.20102044194E+04  0.00000000000E+00 0. -1.
          1   -1    0    0  501    0 -0.00000000000E+00 -0.00000000000E+00 -0.15643136150E+03  0.15643136150E+03  0.00000000000E+00 0. -1.
         25    2    1    2    0    0 -0.12532251879E+03  0.52836324913E+02  0.54170795239E+03  0.57233693132E+03  0.12499858528E+03 0.  0.
          2    1    1    2  501    0  0.99302698573E+02 -0.88378993678E+02 -0.10939266925E+03  0.17215873069E+03  0.00000000000E+00 0. -1.
          1    1    1    2  502    0  0.26019820218E+02  0.35542668765E+02  0.14214577748E+04  0.14221401189E+04  0.00000000000E+00 0. -1.
         22    1    3    3    0    0 -0.80948705985E+01 -0.15857547031E+02  0.47103633237E+01  0.18416738324E+02  0.00000000000E+00 0.  1.
         22    1    3    3    0    0 -0.11722764819E+03  0.68693871944E+02  0.53699758907E+03  0.55392019299E+03  0.00000000000E+00 0.  1.
</event>
<event>
 7    1  0.6370239E-006  0.3839327E+02  0.7818608E-02  0.1585454E+00
          2   -1    0    0  502    0  0.00000000000E+00  0.00000000000E+00  0.11126333665E+04  0.11126333665E+04  0.00000000000E+00 0. -1.
          1   -1    0    0  501    0 -0.00000000000E+00 -0.00000000000E+00 -0.18610551411E+02  0.18610551411E+02  0.00000000000E+00 0. -1.
         25    2    1    2    0    0  0.54872911104E+02 -0.19976671256E+01  0.38814130339E+03  0.41145304807E+03  0.12499964931E+03 0.  0.
          2    1    1    2  501    0 -0.33390336828E+02  0.15387015575E+02  0.43626012015E+02  0.57051763918E+02  0.00000000000E+00 0. -1.
          1    1    1    2  502    0 -0.21482574275E+02 -0.13389348449E+02  0.66225549968E+03  0.66273910592E+03  0.00000000000E+00 0. -1.
         22    1    3    3    0    0  0.35675928939E+02  0.38412234961E+02  0.34614406561E+03  0.35009139644E+03  0.00000000000E+00 0. -1.
         22    1    3    3    0    0  0.19196982165E+02 -0.40409902086E+02  0.41997237775E+02  0.61361651637E+02  0.00000000000E+00 0. -1.
</event>
<event>
 7    1  0.6370239E-006  0.1505543E+03  0.7818608E-02  0.1277944E+00
          2   -1    0    0  502    0  0.00000000000E+00  0.00000000000E+00  0.15678461657E+04  0.15678461657E+04  0.00000000000E+00 0. -1.
          1   -1    0    0  501    0 -0.00000000000E+00 -0.00000000000E+00 -0.27319450762E+03  0.27319450762E+03  0.00000000000E+00 0. -1.
         25    2    1    2    0    0 -0.73950590962E+02 -0.16658016491E+03  0.25863944809E+03  0.34020100154E+03  0.12499886436E+03 0.  0.
          2    1    1    2  501    0  0.10458630565E+03  0.10595445643E+03 -0.20754958000E+03  0.25542409895E+03  0.00000000000E+00 0. -1.
          1    1    1    2  502    0 -0.30635714692E+02  0.60625708479E+02  0.12435617899E+04  0.12454155728E+04  0.00000000000E+00 0. -1.
         22    1    3    3    0    0 -0.71734804707E+02 -0.21644698513E+02  0.10478677464E+03  0.12882019764E+03  0.00000000000E+00 0.  1.
         22    1    3    3    0    0 -0.22157862549E+01 -0.14493546640E+03  0.15385267345E+03  0.21138080390E+03  0.00000000000E+00 0.  1.
</event>
<event>
 7    1  0.6370239E-006  0.1380287E+03  0.7818608E-02  0.1358737E+00
          2   -1    0    0  502    0  0.00000000000E+00  0.00000000000E+00  0.16365776648E+04  0.16365776648E+04  0.00000000000E+00 0. -1.
          1   -1    0    0  501    0 -0.00000000000E+00 -0.00000000000E+00 -0.34481094178E+03  0.34481094178E+03  0.00000000000E+00 0. -1.
         25    2    1    2    0    0  0.12183955238E+03 -0.85929778935E+02  0.80121317449E+02  0.21040986659E+03  0.12499633202E+03 0.  0.
          2    1    1    2  501    0 -0.90363325252E+02  0.10320907297E+03 -0.26261340783E+03  0.29628271172E+03  0.00000000000E+00 0. -1.
          1    1    1    2  502    0 -0.31476227126E+02 -0.17279294032E+02  0.14742588134E+04  0.14746960283E+04  0.00000000000E+00 0. -1.
         22    1    3    3    0    0 -0.60446933467E+01 -0.39589777057E+02 -0.16759415913E+02  0.43413900847E+02  0.00000000000E+00 0.  1.
         22    1    3    3    0    0  0.12788424572E+03 -0.46340001879E+02  0.96880733362E+02  0.16699596575E+03  0.00000000000E+00 0.  1.
</event>
<event>
 7    1  0.6370239E-006  0.1188265E+03  0.7818608E-02  0.1316892E+00
          2   -1    0    0  502    0  0.00000000000E+00  0.00000000000E+00  0.56761095087E+03  0.56761095087E+03  0.00000000000E+00 0. -1.
          1   -1    0    0  501    0 -0.00000000000E+00 -0.00000000000E+00 -0.24894281547E+04  0.24894281547E+04  0.00000000000E+00 0. -1.
         25    2    1    2    0    0  0.30180589160E+02 -0.13884361260E+03 -0.20148697563E+03  0.27642518991E+03  0.12500187019E+03 0.  0.
          2    1    1    2  501    0  0.25171763484E+02  0.11566139755E+03 -0.22472111467E+04  0.22503264462E+04  0.00000000000E+00 0. -1.
          1    1    1    2  502    0 -0.55352352644E+02  0.23182215050E+02  0.52688091848E+03  0.53028746948E+03  0.00000000000E+00 0. -1.
         22    1    3    3    0    0  0.57056760580E+02 -0.39892714479E+02 -0.28281311708E+02  0.75144761549E+02  0.00000000000E+00 0.  1.
         22    1    3    3    0    0 -0.26876171420E+02 -0.98950898124E+02 -0.17320566392E+03  0.20128042837E+03  0.00000000000E+00 0.  1.
</event>
<event>
 7    1  0.6370239E-006  0.2547199E+02  0.7818608E-02  0.1684269E+00
          2   -1    0    0  502    0  0.00000000000E+00  0.00000000000E+00  0.76135100343E+03  0.76135100343E+03  0.00000000000E+00 0. -1.
          1   -1    0    0  501    0 -0.00000000000E+00 -0.00000000000E+00 -0.48871573505E+03  0.48871573505E+03  0.00000000000E+00 0. -1.
         25    2    1    2    0    0  0.10691805394E+02 -0.14749177804E+02 -0.36873042605E+03  0.38976812504E+03  0.12500084501E+03 0.  0.
          2    1    1    2  501    0 -0.19566304880E+02 -0.91362270726E+01 -0.10818289521E+03  0.11031704197E+03  0.00000000000E+00 0. -1.
          1    1    1    2  502    0  0.88744994857E+01  0.23885404877E+02  0.74954858964E+03  0.74998157147E+03  0.00000000000E+00 0. -1.
         22    1    3    3    0    0 -0.42753352387E+02 -0.10946325278E+02 -0.50534173098E+02  0.67092278454E+02  0.00000000000E+00 0.  1.
         22    1    3    3    0    0  0.53445157781E+02 -0.38028525256E+01 -0.31819625296E+03  0.32267584659E+03  0.00000000000E+00 0.  1.
</event>
<event>
 7    1  0.6370239E-006  0.8965847E+02  0.7818608E-02  0.1417819E+00
          2   -1    0    0  502    0  0.00000000000E+00  0.00000000000E+00  0.22024689659E+03  0.22024689659E+03  0.00000000000E+00 0. -1.
          1   -1    0    0  501    0 -0.00000000000E+00 -0.00000000000E+00 -0.55515590431E+03  0.55515590431E+03  0.00000000000E+00 0. -1.
         25    2    1    2    0    0  0.69190577466E+02  0.75300845133E+02 -0.62276514205E+02  0.17309039315E+03  0.12499746674E+03 0.  0.
          2    1    1    2  501    0 -0.35452520453E+02 -0.81685859986E+02 -0.43108301671E+03  0.44018408448E+03  0.00000000000E+00 0. -1.
          1    1    1    2  502    0 -0.33738057013E+02  0.63850148533E+01  0.15845052320E+03  0.16212832327E+03  0.00000000000E+00 0. -1.
         22    1    3    3    0    0  0.73569652970E+02  0.10448969576E+03 -0.34048368042E+02  0.13224931654E+03  0.00000000000E+00 0. -1.
         22    1    3    3    0    0 -0.43790755038E+01 -0.29188850627E+02 -0.28228146163E+02  0.40841076614E+02  0.00000000000E+00 0. -1.
</event>
<event>
 7    1  0.6370239E-006  0.7336936E+02  0.7818608E-02  0.1477999E+00
          2   -1    0    0  502    0  0.00000000000E+00  0.00000000000E+00  0.11467221272E+04  0.11467221272E+04  0.00000000000E+00 0. -1.
          1   -1    0    0  501    0 -0.00000000000E+00 -0.00000000000E+00 -0.19586932528E+02  0.19586932528E+02  0.00000000000E+00 0. -1.
         25    2    1    2    0    0 -0.13387541258E+02  0.52408615547E+02  0.48550757640E+03  0.50425042583E+03  0.12499998383E+03 0.  0.
          2    1    1    2  501    0  0.71039380024E+01  0.25937133504E+02  0.15545375741E+02  0.31062188212E+02  0.00000000000E+00 0. -1.
          1    1    1    2  502    0  0.62836032552E+01 -0.78345749051E+02  0.62608224249E+03  0.63099644565E+03  0.00000000000E+00 0. -1.
         22    1    3    3    0    0 -0.10245105943E+02  0.46451289411E+02  0.51184607210E+02  0.69875235234E+02  0.00000000000E+00 0.  1.
         22    1    3    3    0    0 -0.31424353143E+01  0.59573261353E+01  0.43432296919E+03  0.43437519059E+03  0.00000000000E+00 0.  1.
</event>
<event>
 7    1  0.6370239E-006  0.1837928E+03  0.7818608E-02  0.1240605E+00
          2   -1    0    0  502    0  0.00000000000E+00  0.00000000000E+00  0.17030370637E+04  0.17030370637E+04  0.00000000000E+00 0. -1.
          1   -1    0    0  501    0 -0.00000000000E+00 -0.00000000000E+00 -0.49055136175E+03  0.49055136175E+03  0.00000000000E+00 0. -1.
         25    2    1    2    0    0  0.15727846141E+03  0.18812574256E+03 -0.14396375702E+03  0.31061163802E+03  0.12500486751E+03 0.  0.
          2    1    1    2  501    0 -0.76559343466E+02 -0.24391035824E+02 -0.25184649262E+03  0.26435376212E+03  0.00000000000E+00 0. -1.
          1    1    1    2  502    0 -0.80719117948E+02 -0.16373470673E+03  0.16082959516E+04  0.16186230253E+04  0.00000000000E+00 0. -1.
         22    1    3    3    0    0 -0.10917681403E+02  0.67188327624E+02 -0.36293702317E+02  0.77140780162E+02  0.00000000000E+00 0.  1.
         22    1    3    3    0    0  0.16819614282E+03  0.12093741494E+03 -0.10767005470E+03  0.23347085786E+03  0.00000000000E+00 0.  1.
</event>
<event>
 7    1  0.6370239E-006  0.6487769E+02  0.7818608E-02  0.1395907E+00
          2   -1    0    0  502    0  0.00000000000E+00  0.00000000000E+00  0.24017152753E+04  0.24017152753E+04  0.00000000000E+00 0. -1.
          1   -1    0    0  501    0 -0.00000000000E+00 -0.00000000000E+00 -0.17843870135E+04  0.17843870135E+04  0.00000000000E+00 0. -1.
         25    2    1    2    0    0 -0.12109276557E+02 -0.69377803881E+02  0.13979299660E+03  0.20030724310E+03  0.12498398094E+03 0.  0.
          2    1    1    2  501    0  0.55601975911E+02  0.33556905213E+02 -0.17531729219E+04  0.17543753702E+04  0.00000000000E+00 0. -1.
          1    1    1    2  502    0 -0.43492699354E+02  0.35820898668E+02  0.22307081871E+04  0.22314196754E+04  0.00000000000E+00 0. -1.
         22    1    3    3    0    0  0.69341462111E+01 -0.97631089605E+02  0.63282052226E+02  0.11655269270E+03  0.00000000000E+00 0. -1.
         22    1    3    3    0    0 -0.19043422768E+02  0.28253285724E+02  0.76510944370E+02  0.83754550404E+02  0.00000000000E+00 0. -1.
</event>
<event>
 7    1  0.6370239E-006  0.5930525E+02  0.7818608E-02  0.1463213E+00
          2   -1    0    0  502    0  0.00000000000E+00  0.00000000000E+00  0.92415222235E+02  0.92415222235E+02  0.00000000000E+00 0. -1.
          1   -1    0    0  501    0 -0.00000000000E+00 -0.00000000000E+00 -0.81698885782E+03  0.81698885782E+03  0.00000000000E+00 0. -1.
         25    2    1    2    0    0  0.84042071982E+02 -0.21879992232E+02 -0.26227504962E+03  0.30324030277E+03  0.12499870259E+03 0.  0.
          2    1    1    2  501    0 -0.57384902928E+02 -0.37556979688E+01 -0.52781012524E+03  0.53093376297E+03  0.00000000000E+00 0. -1.
          1    1    1    2  502    0 -0.26657169054E+02  0.25635690200E+02  0.65511539283E+02  0.75230014311E+02  0.00000000000E+00 0. -1.
         22    1    3    3    0    0  0.10758552176E+03  0.95660924008E+01 -0.22253300499E+03  0.24736024928E+03  0.00000000000E+00 0.  1.
         22    1    3    3    0    0 -0.23543449782E+02 -0.31446084632E+02 -0.39742044636E+02  0.55880053491E+02  0.00000000000E+00 0.  1.
</event>
<event>
 7    1  0.6370239E-006  0.7451752E+02  0.7818608E-02  0.1454682E+00
          2   -1    0    0  502    0  0.00000000000E+00  0.00000000000E+00  0.49797963044E+03  0.49797963044E+03  0.00000000000E+00 0. -1.
          1   -1    0    0  501    0 -0.00000000000E+00 -0.00000000000E+00 -0.56850137623E+03  0.56850137623E+03  0.00000000000E+00 0. -1.
         25    2    1    2    0    0  0.43990104287E+02 -0.15639097189E+02  0.24477991029E+02  0.13566095969E+03  0.12500005322E+03 0.  0.
          2    1    1    2  501    0  0.22515423109E+02 -0.21768795368E+02 -0.50894152770E+03  0.50990420997E+03  0.00000000000E+00 0. -1.
          1    1    1    2  502    0 -0.66505527396E+02  0.37407892557E+02  0.41394179089E+03  0.42091583700E+03  0.00000000000E+00 0. -1.
         22    1    3    3    0    0  0.57759500781E+02  0.40039035342E+02  0.33059012491E+02  0.77667126820E+02  0.00000000000E+00 0. -1.
         22    1    3    3    0    0 -0.13769396494E+02 -0.55678132531E+02 -0.85810214619E+01  0.57993832873E+02  0.00000000000E+00 0. -1.
</event>
<event>
 7    1  0.6370239E-006  0.8972974E+02  0.7818608E-02  0.1382072E+00
          2   -1    0    0  502    0  0.00000000000E+00  0.00000000000E+00  0.31674109056E+04  0.31674109056E+04  0.00000000000E+00 0. -1.
          1   -1    0    0  501    0 -0.00000000000E+00 -0.00000000000E+00 -0.29840437270E+03  0.29840437270E+03  0.00000000000E+00 0. -1.
         25    2    1    2    0    0  0.10884285223E+03  0.69164389567E+02  0.29857306975E+03  0.34842696729E+03  0.12499997715E+03 0.  0.
          2    1    1    2  501    0 -0.44882310605E+02 -0.76967955367E+01 -0.27088474768E+03  0.27468565487E+03  0.00000000000E+00 0. -1.
          1    1    1    2  502    0 -0.63960541622E+02 -0.61467594030E+02  0.28413182108E+04  0.28427026561E+04  0.00000000000E+00 0. -1.
         22    1    3    3    0    0 -0.22329999390E+02  0.12616956480E+01  0.90723236835E+02  0.93439426639E+02  0.00000000000E+00 0. -1.
         22    1    3    3    0    0  0.13117285162E+03  0.67902693919E+02  0.20784983291E+03  0.25498754065E+03  0.00000000000E+00 0. -1.
</event>
<event>
 7    1  0.6370239E-006  0.3682158E+02  0.7818608E-02  0.1559882E+00
          2   -1    0    0  502    0  0.00000000000E+00  0.00000000000E+00  0.72460776841E+03  0.72460776841E+03  0.00000000000E+00 0. -1.
          1   -1    0    0  501    0 -0.00000000000E+00 -0.00000000000E+00 -0.25711684530E+03  0.25711684530E+03  0.00000000000E+00 0. -1.
         25    2    1    2    0    0 -0.12922620080E+02  0.13135410468E+02 -0.12460059489E+03  0.17745500755E+03  0.12500175334E+03 0.  0.
          2    1    1    2  501    0 -0.19845326243E+01 -0.40265287876E+02 -0.10190164727E+03  0.10958639283E+03  0.00000000000E+00 0. -1.
          1    1    1    2  502    0  0.14907152704E+02  0.27129877408E+02  0.69399316527E+03  0.69468321333E+03  0.00000000000E+00 0. -1.
         22    1    3    3    0    0 -0.57525182953E+02 -0.14064906974E+02 -0.10705940632E+03  0.12234657643E+03  0.00000000000E+00 0.  1.
         22    1    3    3    0    0  0.44602562873E+02  0.27200317442E+02 -0.17541188576E+02  0.55108431120E+02  0.00000000000E+00 0.  1.
</event>
<event>
 7    1  0.6370239E-006  0.1892200E+03  0.7818608E-02  0.1272063E+00
          2   -1    0    0  502    0  0.00000000000E+00  0.00000000000E+00  0.25521785823E+03  0.25521785823E+03  0.00000000000E+00 0. -1.
          1   -1    0    0  501    0 -0.00000000000E+00 -0.00000000000E+00 -0.77394987422E+03  0.77394987422E+03  0.00000000000E+00 0. -1.
         25    2    1    2    0    0 -0.18412998933E+03 -0.14137740560E+03 -0.26670108988E+03  0.37502768118E+03  0.12499946610E+03 0.  0.
          2    1    1    2  501    0  0.14384811224E+03  0.10079115572E+03 -0.43144791814E+03  0.46583091625E+03  0.00000000000E+00 0. -1.
          1    1    1    2  502    0  0.40281877091E+02  0.40586249873E+02  0.17941699203E+03  0.18830913501E+03  0.00000000000E+00 0. -1.
         22    1    3    3    0    0 -0.18169292252E+03 -0.12430062189E+03 -0.17364046019E+03  0.28038183271E+03  0.00000000000E+00 0. -1.
         22    1    3    3    0    0 -0.24370668167E+01 -0.17076783705E+02 -0.93060629684E+02  0.94645848475E+02  0.00000000000E+00 0. -1.
</event>
<event>
 7    1  0.6370239E-006  0.4946289E+02  0.7818608E-02  0.1560306E+00
          2   -1    0    0  502    0  0.00000000000E+00  0.00000000000E+00  0.13702013944E+04  0.13702013944E+04  0.00000000000E+00 0. -1.
          1   -1    0    0  501    0 -0.00000000000E+00 -0.00000000000E+00 -0.59546225742E+02  0.59546225742E+02  0.00000000000E+00 0. -1.
         25    2    1    2    0    0 -0.41448223961E+02  0.60377873992E+01  0.57873193261E+03  0.59355701702E+03  0.12499948995E+03 0.  0.
          2    1    1    2  501    0  0.40378020978E+02 -0.28995389068E+02 -0.40073767302E+02  0.63851577828E+02  0.00000000000E+00 0. -1.
          1    1    1    2  502    0  0.10702029832E+01  0.22957601669E+02  0.77199700336E+03  0.77233902531E+03  0.00000000000E+00 0. -1.
         22    1    3    3    0    0 -0.54864138731E+02 -0.39727337251E+02  0.46959063881E+03  0.47445094910E+03  0.00000000000E+00 0. -1.
         22    1    3    3    0    0  0.13415914769E+02  0.45765124651E+02  0.10914129380E+03  0.11910606792E+03  0.00000000000E+00 0. -1.
</event>
<event>
 7    1  0.6370239E-006  0.3158699E+02  0.7818608E-02  0.1619562E+00
          2   -1    0    0  502    0  0.00000000000E+00  0.00000000000E+00  0.58440386776E+03  0.58440386776E+03  0.00000000000E+00 0. -1.
          1   -1    0    0  501    0 -0.00000000000E+00 -0.00000000000E+00 -0.40677639002E+03  0.40677639002E+03  0.00000000000E+00 0. -1.
         25    2    1    2    0    0  0.33355938980E+02  0.33143648350E+02  0.43000117779E+03  0.45026349107E+03  0.12500031359E+03 0.  0.
          2    1    1    2  501    0 -0.30481404043E+02 -0.82330739210E+01 -0.39492077203E+03  0.39618091282E+03  0.00000000000E+00 0. -1.
          1    1    1    2  502    0 -0.28745349371E+01 -0.24910574429E+02  0.14254707198E+03  0.14473585389E+03  0.00000000000E+00 0. -1.
         22    1    3    3    0    0  0.36432822260E+02  0.29832828189E+02  0.44669836937E+02  0.64905643110E+02  0.00000000000E+00 0.  1.
         22    1    3    3    0    0 -0.30768832792E+01  0.33108201618E+01  0.38533134086E+03  0.38535784796E+03  0.00000000000E+00 0.  1.
</event>
<event>
 7    1  0.6370239E-006  0.1006894E+03  0.7818608E-02  0.1367563E+00
          2   -1    0    0  502    0  0.00000000000E+00  0.00000000000E+00  0.24917766120E+04  0.24917766120E+04  0.00000000000E+00 0. -1.
          1   -1    0    0  501    0 -0.00000000000E+00 -0.00000000000E+00 -0.14611386494E+04  0.14611386494E+04  0.00000000000E+00 0. -1.
         25    2    1    2    0    0 -0.70565689285E+01  0.55632789708E+02  0.59721978714E+02  0.14941464559E+03  0.12495286759E+03 0.  0.
          2    1    1    2  501    0  0.20062129833E+02 -0.99464294888E+02 -0.14142555999E+04  0.14178908762E+04  0.00000000000E+00 0. -1.
          1    1    1    2  502    0 -0.13005560904E+02  0.43831505180E+02  0.23851715838E+04  0.23856097396E+04  0.00000000000E+00 0. -1.
         22    1    3    3    0    0 -0.25253803788E+02  0.91719320807E+02  0.31857690699E+02  0.10032497631E+03  0.00000000000E+00 0. -1.
         22    1    3    3    0    0  0.18197234859E+02 -0.36086531099E+02  0.27864288015E+02  0.49089669279E+02  0.00000000000E+00 0. -1.
</event>
<event>
 7    1  0.6370239E-006  0.8613961E+02  0.7818608E-02  0.1396948E+00
          2   -1    0    0  502    0  0.00000000000E+00  0.00000000000E+00  0.13674226969E+04  0.13674226969E+04  0.00000000000E+00 0. -1.
          1   -1    0    0  501    0 -0.00000000000E+00 -0.00000000000E+00 -0.52830561348E+03  0.52830561348E+03  0.00000000000E+00 0. -1.
         25    2    1    2    0    0  0.31855666802E+02  0.11368160770E+03  0.19104174169E+03  0.25702149895E+03  0.12499924967E+03 0.  0.
          2    1    1    2  501    0 -0.30597792423E+02 -0.28898197764E+02 -0.49284557451E+03  0.49463935453E+03  0.00000000000E+00 0. -1.
          1    1    1    2  502    0 -0.12578743784E+01 -0.84783409933E+02  0.11409209162E+04  0.11440674569E+04  0.00000000000E+00 0. -1.
         22    1    3    3    0    0  0.53260000287E+02  0.89431961408E+02  0.56075311241E+02  0.11823342963E+03  0.00000000000E+00 0. -1.
         22    1    3    3    0    0 -0.21404333485E+02  0.24249646290E+02  0.13496643045E+03  0.13878806932E+03  0.00000000000E+00 0. -1.
</event>
<event>
 7    1  0.6370239E-006  0.1462256E+03  0.7818608E-02  0.1358767E+00
          2   -1    0    0  502    0  0.00000000000E+00  0.00000000000E+00  0.21072940110E+04  0.21072940110E+04  0.00000000000E+00 0. -1.
          1   -1    0    0  501    0 -0.00000000000E+00 -0.00000000000E+00 -0.12458180311E+03  0.12458180311E+03  0.00000000000E+00 0. -1.
         25    2    1    2    0    0  0.17867018062E+03 -0.18297348030E+01  0.12314271170E+03  0.25042615607E+03  0.12499100299E+03 0.  0.
          2    1    1    2  501    0 -0.33869063900E+02 -0.10593180485E+01 -0.53270496649E+02  0.63134629621E+02  0.00000000000E+00 0. -1.
          1    1    1    2  502    0 -0.14480111672E+03  0.28890528516E+01  0.19128399929E+04  0.19183150285E+04  0.00000000000E+00 0. -1.
         22    1    3    3    0    0  0.37608550603E+02  0.42189747468E+02  0.77201651933E+02  0.95679009878E+02  0.00000000000E+00 0. -1.
         22    1    3    3    0    0  0.14106163002E+03 -0.44019482271E+02  0.45941059762E+02  0.15474714619E+03  0.00000000000E+00 0. -1.
</event>
<event>
 7    1  0.6370239E-006  0.1604110E+03  0.7818608E-02  0.1322237E+00
          2   -1    0    0  502    0  0.00000000000E+00  0.00000000000E+00  0.82144986964E+03  0.82144986964E+03  0.00000000000E+00 0. -1.
          1   -1    0    0  501    0 -0.00000000000E+00 -0.00000000000E+00 -0.60797867685E+03  0.60797867685E+03  0.00000000000E+00 0. -1.
         25    2    1    2    0    0 -0.52608363627E+02  0.15935896509E+03  0.64625164063E+03  0.67928565456E+03  0.12499959123E+03 0.  0.
          2    1    1    2  501    0 -0.25499986951E+02 -0.33849188383E+02 -0.55604943946E+03  0.55766208048E+03  0.00000000000E+00 0. -1.
          1    1    1    2  502    0  0.78108350577E+02 -0.12550977671E+03  0.12326899162E+03  0.19248081145E+03  0.00000000000E+00 0. -1.
         22    1    3    3    0    0 -0.67790642946E+02  0.63504206325E+02  0.17479257761E+03  0.19794140719E+03  0.00000000000E+00 0.  1.
         22    1    3    3    0    0  0.15182279319E+02  0.95854758768E+02  0.47145906302E+03  0.48134424738E+03  0.00000000000E+00 0.  1.
</event>
<event>
 7    1  0.6370239E-006  0.8369406E+02  0.7818608E-02  0.1462065E+00
          2   -1    0    0  502    0  0.00000000000E+00  0.00000000000E+00  0.99438913296E+03  0.99438913296E+03  0.00000000000E+00 0. -1.
          1   -1    0    0  501    0 -0.00000000000E+00 -0.00000000000E+00 -0.91895657601E+03  0.91895657601E+03  0.00000000000E+00 0. -1.
         25    2    1    2    0    0 -0.46054977152E+02  0.99381170935E+02  0.50371120476E+02  0.17366684359E+03  0.12500097891E+03 0.  0.
          2    1    1    2  501    0  0.36970400941E+02 -0.74566750990E+02 -0.85508996219E+03  0.85913087148E+03  0.00000000000E+00 0. -1.
          1    1    1    2  502    0  0.90845762108E+01 -0.24814419945E+02  0.88015139867E+03  0.88054799389E+03  0.00000000000E+00 0. -1.
         22    1    3    3    0    0 -0.11333897722E+02  0.41833928922E+01 -0.37589478348E+02  0.39483248298E+02  0.00000000000E+00 0. -1.
         22    1    3    3    0    0 -0.34721079430E+02  0.95197778042E+02  0.87960598824E+02  0.13418359530E+03  0.00000000000E+00 0. -1.
</event>
<event>
 7    1  0.6370239E-006  0.1498828E+03  0.7818608E-02  0.1246159E+00
          2   -1    0    0  502    0  0.00000000000E+00  0.00000000000E+00  0.13679499997E+03  0.13679499997E+03  0.00000000000E+00 0. -1.
          1   -1    0    0  501    0 -0.00000000000E+00 -0.00000000000E+00 -0.13111330593E+04  0.13111330593E+04  0.00000000000E+00 0. -1.
         25    2    1    2    0    0 -0.18401880464E+03 -0.10245841894E+03 -0.15003014684E+03  0.28722238017E+03  0.12500801028E+03 0.  0.
          2    1    1    2  501    0  0.93019881709E+02  0.50343017683E+01 -0.10231559843E+04  0.10273880527E+04  0.00000000000E+00 0. -1.
          1    1    1    2  502    0  0.90998922933E+02  0.97424117169E+02 -0.11519282131E+01  0.13331762644E+03  0.00000000000E+00 0. -1.
         22    1    3    3    0    0  0.19186030489E+02 -0.78644430161E+01 -0.14262615619E+02  0.25166951229E+02  0.00000000000E+00 0.  1.
         22    1    3    3    0    0 -0.20320483513E+03 -0.94593975921E+02 -0.13576753123E+03  0.26205542894E+03  0.00000000000E+00 0.  1.
</event>
<event>
 7    1  0.6370239E-006  0.5880578E+02  0.7818608E-02  0.1428374E+00
          2   -1    0    0  502    0  0.00000000000E+00  0.00000000000E+00  0.13520909137E+04  0.13520909137E+04  0.00000000000E+00 0. -1.
          1   -1    0    0  501    0 -0.00000000000E+00 -0.00000000000E+00 -0.89628335914E+03  0.89628335914E+03  0.00000000000E+00 0. -1.
         25    2    1    2    0    0 -0.59400979751E+02 -0.79704856743E+02  0.48868822674E+03  0.51412295906E+03  0.12499957397E+03 0.  0.
          2    1    1    2  501    0  0.48875268769E+02  0.32578327654E+02 -0.88190300743E+03  0.88385691933E+03  0.00000000000E+00 0. -1.
          1    1    1    2  502    0  0.10525710982E+02  0.47126529089E+02  0.84902233522E+03  0.85039439441E+03  0.00000000000E+00 0. -1.
         22    1    3    3    0    0 -0.82209846417E+02 -0.94081689400E+02  0.44960750058E+03  0.46664411248E+03  0.00000000000E+00 0. -1.
         22    1    3    3    0    0  0.22808866666E+02  0.14376832658E+02  0.39080726157E+02  0.47478846582E+02  0.00000000000E+00 0. -1.
</event>
<event>
 7    1  0.6370239E-006  0.1035532E+03  0.7818608E-02  0.1428692E+00
          2   -1    0    0  502    0  0.00000000000E+00  0.00000000000E+00  0.20252437184E+03  0.20252437184E+03  0.00000000000E+00 0. -1.
          1   -1    0    0  501    0 -0.00000000000E+00 -0.00000000000E+00 -0.76860572525E+03  0.76860572525E+03  0.00000000000E+00 0. -1.
         25    2    1    2    0    0 -0.16580308840E+02  0.81755483138E+02  0.63420305488E+02  0.16311166271E+03  0.12499765478E+03 0.  0.
          2    1    1    2  501    0  0.10445097297E+01 -0.10427126679E+03 -0.71277745175E+03  0.72036468806E+03  0.00000000000E+00 0. -1.
          1    1    1    2  502    0  0.15535799111E+02  0.22515783649E+02  0.83275792852E+02  0.87653746312E+02  0.00000000000E+00 0. -1.
         22    1    3    3    0    0  0.42673015294E+02  0.77515726895E+02  0.23544128612E+02  0.91564185916E+02  0.00000000000E+00 0. -1.
         22    1    3    3    0    0 -0.59253324135E+02  0.42397562430E+01  0.39876176876E+02  0.71547476799E+02  0.00000000000E+00 0. -1.
</event>
<event>
 7    1  0.6370239E-006  0.8559403E+02  0.7818608E-02  0.1361320E+00
          2   -1    0    0  502    0  0.00000000000E+00  0.00000000000E+00  0.10353311886E+04  0.10353311886E+04  0.00000000000E+00 0. -1.
          1   -1    0    0  501    0 -0.00000000000E+00 -0.00000000000E+00 -0.19738345240E+03  0.19738345240E+03  0.00000000000E+00 0. -1.
         25    2    1    2    0    0 -0.11306841797E+02  0.52075805601E+02  0.21840464442E+03  0.25722778525E+03  0.12500324234E+03 0.  0.
          2    1    1    2  501    0  0.67872200896E+02 -0.55354112869E+02 -0.16611434446E+03  0.18778894776E+03  0.00000000000E+00 0. -1.
          1    1    1    2  502    0 -0.56565359099E+02  0.32783072682E+01  0.78565743620E+03  0.78769790796E+03  0.00000000000E+00 0. -1.
         22    1    3    3    0    0 -0.39531497224E+02  0.69956641058E+02  0.20679272970E+03  0.22185559258E+03  0.00000000000E+00 0.  1.
         22    1    3    3    0    0  0.28224655427E+02 -0.17880835457E+02  0.11611914722E+02  0.35372192668E+02  0.00000000000E+00 0.  1.
</event>
<event>
 7    1  0.6370239E-006  0.1208187E+03  0.7818608E-02  0.1396944E+00
          2   -1    0    0  502    0  0.00000000000E+00  0.00000000000E+00  0.57129752241E+03  0.57129752241E+03  0.00000000000E+00 0. -1.
          1   -1    0    0  501    0 -0.00000000000E+00 -0.00000000000E+00 -0.40954330625E+03  0.40954330625E+03  0.00000000000E+00 0. -1.
         25    2    1    2    0    0  0.78645042279E+02 -0.51046713490E+02 -0.16134878542E+01  0.15626298287E+03  0.12499882735E+03 0.  0.
          2    1    1    2  501    0  0.27460298787E+02 -0.12099441540E+02 -0.32218104709E+03  0.32357548053E+03  0.00000000000E+00 0. -1.
          1    1    1    2  502    0 -0.10610534107E+03  0.63146155031E+02  0.48554875111E+03  0.50100236526E+03  0.00000000000E+00 0. -1.
         22    1    3    3    0    0  0.11078009270E+03 -0.23043672752E+02 -0.66243729728E+01  0.11334514595E+03  0.00000000000E+00 0.  1.
         22    1    3    3    0    0 -0.32135050424E+02 -0.28003040738E+02  0.50108851186E+01  0.42917836921E+02  0.00000000000E+00 0.  1.
</event>
<event>
 7    1  0.6370239E-006  0.6188621E+02  0.7818608E-02  0.1473274E+00
          2   -1    0    0  502    0  0.00000000000E+00  0.00000000000E+00  0.32351152862E+03  0.32351152862E+03  0.00000000000E+00 0. -1.
          1   -1    0    0  501    0 -0.00000000000E+00 -0.00000000000E+00 -0.31828659009E+03  0.31828659009E+03  0.00000000000E+00 0. -1.
         25    2    1    2    0    0  0.54884254669E+02 -0.25987454414E+02 -0.10886343903E+03  0.17653217840E+03  0.12499892981E+03 0.  0.
          2    1    1    2  501    0 -0.63058309125E+02 -0.59544324822E+01 -0.16888836399E+03  0.18037484610E+03  0.00000000000E+00 0. -1.
          1    1    1    2  502    0  0.81740544569E+01  0.31941886896E+02  0.28297674155E+03  0.28489109421E+03  0.00000000000E+00 0. -1.
         22    1    3    3    0    0  0.18503488727E+02 -0.69710721518E+02 -0.27351678652E+02  0.77136749443E+02  0.00000000000E+00 0.  1.
         22    1    3    3    0    0  0.36380765942E+02  0.43723267104E+02 -0.81511760378E+02  0.99395428953E+02  0.00000000000E+00 0.  1.
</event>
<event>
 7    1  0.6370239E-006  0.1939076E+03  0.7818608E-02  0.1272368E+00
          2   -1    0    0  502    0  0.00000000000E+00  0.00000000000E+00  0.18812022182E+04  0.18812022182E+04  0.00000000000E+00 0. -1.
          1   -1    0    0  501    0 -0.00000000000E+00 -0.00000000000E+00 -0.64749835912E+03  0.64749835912E+03  0.00000000000E+00 0. -1.
         25    2    1    2    0    0  0.11751727797E+03 -0.20437247688E+03  0.76660610651E+03  0.81171963784E+03  0.12500171198E+03 0.  0.
          2    1    1    2  501    0 -0.27460212068E+02  0.48388004753E+02 -0.61625305002E+03  0.61875947177E+03  0.00000000000E+00 0. -1.
          1    1    1    2  502    0 -0.90057065905E+02  0.15598447213E+03  0.10833508026E+04  0.10982214677E+04  0.00000000000E+00 0. -1.
         22    1    3    3    0    0  0.64397119639E+02 -0.44459579792E+02  0.40878322773E+03  0.41620592322E+03  0.00000000000E+00 0.  1.
         22    1    3    3    0    0  0.53120158334E+02 -0.15991289709E+03  0.35782287878E+03  0.39551371462E+03  0.00000000000E+00 0.  1.
</event>
<event>
 7    1  0.6370239E-006  0.8245341E+02  0.7818608E-02  0.1455880E+00
          2   -1    0    0  502    0  0.00000000000E+00  0.00000000000E+00  0.37907532881E+03  0.37907532881E+03  0.00000000000E+00 0. -1.
          1   -1    0    0  501    0 -0.00000000000E+00 -0.00000000000E+00 -0.12095879856E+04  0.12095879856E+04  0.00000000000E+00 0. -1.
         25    2    1    2    0    0 -0.10347240390E+03 -0.37721100524E+02 -0.42667265807E+03  0.45804351016E+03  0.12499952105E+03 0.  0.
          2    1    1    2  501    0  0.25648925255E+02  0.11372523072E+02 -0.76232424741E+03  0.76284038949E+03  0.00000000000E+00 0. -1.
          1    1    1    2  502    0  0.77823478646E+02  0.26348577452E+02  0.35848424868E+03  0.36777941475E+03  0.00000000000E+00 0. -1.
         22    1    3    3    0    0  0.33951394223E+01 -0.23899558364E+02 -0.75538047730E+01  0.25293790310E+02  0.00000000000E+00 0. -1.
         22    1    3    3    0    0 -0.10686754332E+03 -0.13821542160E+02 -0.41911885330E+03  0.43274971985E+03  0.00000000000E+00 0. -1.
</event>
<event>
 7    1  0.6370239E-006  0.3133153E+02  0.7818608E-02  0.1610020E+00
          2   -1    0    0  502    0  0.00000000000E+00  0.00000000000E+00  0.10663278348E+03  0.10663278348E+03  0.00000000000E+00 0. -1.
          1   -1    0    0  501    0 -0.00000000000E+00 -0.00000000000E+00 -0.45185546812E+03  0.45185546812E+03  0.00000000000E+00 0. -1.
         25    2    1    2    0    0 -0.31183020421E+02  0.11801697690E+02 -0.27740468652E+02  0.13231168039E+03  0.12500074534E+03 0.  0.
          2    1    1    2  501    0  0.27787900581E+02  0.14727285185E+02 -0.36782676815E+03  0.36916878486E+03  0.00000000000E+00 0. -1.
          1    1    1    2  502    0  0.33951198399E+01 -0.26528982875E+02  0.50344552167E+02  0.57007786345E+02  0.00000000000E+00 0. -1.
         22    1    3    3    0    0 -0.19221075798E+02 -0.27668234074E+02 -0.67238275436E+02  0.75206160753E+02  0.00000000000E+00 0. -1.
         22    1    3    3    0    0 -0.11961944623E+02  0.39469931764E+02  0.39497806783E+02  0.57105519639E+02  0.00000000000E+00 0. -1.
</event>
<event>
 7    1  0.6370239E-006  0.1945514E+03  0.7818608E-02  0.1311396E+00
          2   -1    0    0  502    0  0.00000000000E+00  0.00000000000E+00  0.10553674635E+04  0.10553674635E+04  0.00000000000E+00 0. -1.
          1   -1    0    0  501    0 -0.00000000000E+00 -0.00000000000E+00 -0.20116236923E+03  0.20116236923E+03  0.00000000000E+00 0. -1.
         25    2    1    2    0    0  0.20377211364E+03 -0.97604898789E+02  0.47734449100E+03  0.54270871376E+03  0.12500077734E+03 0.  0.
          2    1    1    2  501    0 -0.17859318932E+03  0.68460208818E+02 -0.11319733284E+03  0.22225202727E+03  0.00000000000E+00 0. -1.
          1    1    1    2  502    0 -0.25178924316E+02  0.29144689971E+02  0.49005793610E+03  0.49156909170E+03  0.00000000000E+00 0. -1.
         22    1    3    3    0    0  0.10214354200E+03 -0.11401816207E+03  0.25002643644E+03  0.29316661367E+03  0.00000000000E+00 0. -1.
         22    1    3    3    0    0  0.10162857164E+03  0.16413263281E+02  0.22731805456E+03  0.24954210009E+03  0.00000000000E+00 0. -1.
</event>
<event>
 7    1  0.6370239E-006  0.1033590E+03  0.7818608E-02  0.1393665E+00
          2   -1    0    0  502    0  0.00000000000E+00  0.00000000000E+00  0.56626703712E+03  0.56626703712E+03  0.00000000000E+00 0. -1.
          1   -1    0    0  501    0 -0.00000000000E+00 -0.00000000000E+00 -0.24633115983E+03  0.24633115983E+03  0.00000000000E+00 0. -1.
         25    2    1    2    0    0 -0.76677169591E+02  0.56723116085E+02  0.21410316808E+02  0.15868041879E+03  0.12499669359E+03 0.  0.
          2    1    1    2  501    0 -0.23555444549E+02 -0.27231656235E+02 -0.17005767842E+03  0.17382760442E+03  0.00000000000E+00 0. -1.
          1    1    1    2  502    0  0.10023261414E+03 -0.29491459850E+02  0.46858323890E+03  0.48009017374E+03  0.00000000000E+00 0. -1.
         22    1    3    3    0    0 -0.10406341552E+03  0.16039715242E+02  0.28615996251E+02  0.10911160413E+03  0.00000000000E+00 0. -1.
         22    1    3    3    0    0  0.27386245931E+02  0.40683400843E+02 -0.72056794426E+01  0.49568814658E+02  0.00000000000E+00 0. -1.
</event>
<event>
 7    1  0.6370239E-006  0.4136025E+02  0.7818608E-02  0.1522504E+00
          2   -1    0    0  502    0  0.00000000000E+00  0.00000000000E+00  0.14494352662E+04  0.14494352662E+04  0.00000000000E+00 0. -1.
          1   -1    0    0  501    0 -0.00000000000E+00 -0.00000000000E+00 -0.41701481638E+03  0.41701481638E+03  0.00000000000E+00 0. -1.
         25    2    1    2    0    0  0.19710671164E+02  0.12544602848E+02 -0.31628647137E+03  0.34090540225E+03  0.12503393017E+03 0.  0.
          2    1    1    2  501    0 -0.39756115953E+02  0.23633432970E+02 -0.82051355697E+02  0.94188708884E+02  0.00000000000E+00 0. -1.
          1    1    1    2  502    0  0.20045444789E+02 -0.36178035817E+02  0.14307582768E+04  0.14313559714E+04  0.00000000000E+00 0. -1.
         22    1    3    3    0    0 -0.22218882873E+02  0.50883219092E+02 -0.23667122845E+03  0.24309679372E+03  0.00000000000E+00 0. -1.
         22    1    3    3    0    0  0.41929554037E+02 -0.38338616244E+02 -0.79615242917E+02  0.97808608527E+02  0.00000000000E+00 0. -1.
</event>
<event>
 7    1  0.6370239E-006  0.1363542E+03  0.7818608E-02  0.1278061E+00
          2   -1    0    0  502    0  0.00000000000E+00  0.00000000000E+00  0.20029861512E+03  0.20029861512E+03  0.00000000000E+00 0. -1.
          1   -1    0    0  501    0 -0.00000000000E+00 -0.00000000000E+00 -0.12919241351E+04  0.12919241351E+04  0.00000000000E+00 0. -1.
         25    2    1    2    0    0 -0.42757526098E+02  0.71794600638E+02  0.99127033001E+02  0.18009325977E+03  0.12499897129E+03 0.  0.
          2    1    1    2  501    0  0.11767268438E+03 -0.72254599383E+02 -0.12228534712E+04  0.12306251256E+04  0.00000000000E+00 0. -1.
          1    1    1    2  502    0 -0.74915158284E+02  0.45999874554E+00  0.32100918202E+02  0.81504364846E+02  0.00000000000E+00 0. -1.
         22    1    3    3    0    0  0.29311692018E+02  0.72589234979E+02  0.51507527374E+02  0.93709112151E+02  0.00000000000E+00 0.  1.
         22    1    3    3    0    0 -0.72069218116E+02 -0.79463434166E+00  0.47619505626E+02  0.86384147618E+02  0.00000000000E+00 0.  1.
</event>
<event>
 7    1  0.6370239E-006  0.2535591E+03  0.7818608E-02  0.1267821E+00
          2   -1    0    0  502    0  0.00000000000E+00  0.00000000000E+00  0.12805180649E+04  0.12805180649E+04  0.00000000000E+00 0. -1.
          1   -1    0    0  501    0 -0.00000000000E+00 -0.00000000000E+00 -0.52702606613E+03  0.52702606613E+03  0.00000000000E+00 0. -1.
         25    2    1    2    0    0  0.25320961659E+03  0.97851869802E+01  0.46121811902E+03  0.54088610066E+03  0.12499904302E+03 0.  0.
          2    1    1    2  501    0 -0.25143634167E+03  0.34639212938E+02 -0.45342815580E+03  0.51963179412E+03  0.00000000000E+00 0. -1.
          1    1    1    2  502    0 -0.17732749233E+01 -0.44424399918E+02  0.74570203551E+03  0.74702623620E+03  0.00000000000E+00 0. -1.
         22    1    3    3    0    0  0.83696889554E+02  0.36907826881E+02  0.26410758853E+03  0.27949986641E+03  0.00000000000E+00 0. -1.
         22    1    3    3    0    0  0.16951272704E+03 -0.27122639900E+02  0.19711053049E+03  0.26138623425E+03  0.00000000000E+00 0. -1.
</event>
<event>
 7    1  0.6370239E-006  0.4260604E+02  0.7818608E-02  0.1561824E+00
          2   -1    0    0  502    0  0.00000000000E+00  0.00000000000E+00  0.10788603130E+04  0.10788603130E+04  0.00000000000E+00 0. -1.
          1   -1    0    0  501    0 -0.00000000000E+00 -0.00000000000E+00 -0.25618349454E+03  0.25618349454E+03  0.00000000000E+00 0. -1.
         25    2    1    2    0    0  0.14801054708E+02 -0.38019007301E+02 -0.11404603299E+01  0.13147726100E+03  0.12498181217E+03 0.  0.
          2    1    1    2  501    0 -0.36411174553E+02  0.22809211863E+02 -0.18726918629E+03  0.19213480141E+03  0.00000000000E+00 0. -1.
          1    1    1    2  502    0  0.21610119845E+02  0.15209795438E+02  0.10110864650E+04  0.10114317451E+04  0.00000000000E+00 0. -1.
         22    1    3    3    0    0 -0.17932050741E+02 -0.51341519850E+02  0.46917133597E+02  0.71824282309E+02  0.00000000000E+00 0. -1.
         22    1    3    3    0    0  0.32733105449E+02  0.13322512549E+02 -0.48057593927E+02  0.59652978693E+02  0.00000000000E+00 0. -1.
</event>
<event>
 7    1  0.6370239E-006  0.1715596E+03  0.7818608E-02  0.1325509E+00
          2   -1    0    0  502    0  0.00000000000E+00  0.00000000000E+00  0.13985742064E+04  0.13985742064E+04  0.00000000000E+00 0. -1.
          1   -1    0    0  501    0 -0.00000000000E+00 -0.00000000000E+00 -0.12798045545E+04  0.12798045545E+04  0.00000000000E+00 0. -1.
         25    2    1    2    0    0 -0.98481112784E+02  0.17174603129E+03 -0.61322953034E+03  0.65640746930E+03  0.12500032017E+03 0.  0.
          2    1    1    2  501    0  0.78981994465E+02 -0.13855985853E+03 -0.63485147718E+03  0.65457878665E+03  0.00000000000E+00 0. -1.
          1    1    1    2  502    0  0.19499118319E+02 -0.33186172756E+02  0.13668506594E+04  0.13673925050E+04  0.00000000000E+00 0. -1.
         22    1    3    3    0    0  0.18058083580E+02  0.19766733129E+01 -0.12813452732E+03  0.12941583640E+03  0.00000000000E+00 0.  1.
         22    1    3    3    0    0 -0.11653919636E+03  0.16976935797E+03 -0.48509500301E+03  0.52699163290E+03  0.00000000000E+00 0.  1.
</event>
<event>
 7    1  0.6370239E-006  0.6996227E+02  0.7818608E-02  0.1397509E+00
          2   -1    0    0  502    0  0.00000000000E+00  0.00000000000E+00  0.15636889160E+04  0.15636889160E+04  0.00000000000E+00 0. -1.
          1   -1    0    0  501    0 -0.00000000000E+00 -0.00000000000E+00 -0.31497818667E+03  0.31497818667E+03  0.00000000000E+00 0. -1.
         25    2    1    2    0    0 -0.61595316613E+02  0.27970439720E+02 -0.36242405787E+02  0.14668062624E+03  0.12500146243E+03 0.  0.
          2    1    1    2  501    0  0.27373540763E+02 -0.66574265564E+02 -0.21726702340E+03  0.22888076159E+03  0.00000000000E+00 0. -1.
          1    1    1    2  502    0  0.34221775850E+02  0.38603825845E+02  0.15022201586E+04  0.15031057149E+04  0.00000000000E+00 0. -1.
         22    1    3    3    0    0 -0.34208255367E+02 -0.23686777264E+02  0.35103106933E+02  0.54438003901E+02  0.00000000000E+00 0. -1.
         22    1    3    3    0    0 -0.27387061246E+02  0.51657216984E+02 -0.71345512720E+02  0.92242622336E+02  0.00000000000E+00 0. -1.
</event>
<event>
 7    1  0.6370239E-006  0.6667263E+02  0.7818608E-02  0.1487736E+00
          2   -1    0    0  502    0  0.00000000000E+00  0.00000000000E+00  0.42170388560E+03  0.42170388560E+03  0.00000000000E+00 0. -1.
          1   -1    0    0  501    0 -0.00000000000E+00 -0.00000000000E+00 -0.16743427241E+04  0.16743427241E+04  0.00000000000E+00 0. -1.
         25    2    1    2    0    0  0.38789243168E+02  0.64612351588E+02  0.14425545206E+03  0.20521687372E+03  0.12499987377E+03 0.  0.
          2    1    1    2  501    0  0.13423734438E+02 -0.24154662812E+02 -0.16393268922E+04  0.16395597896E+04  0.00000000000E+00 0. -1.
          1    1    1    2  502    0 -0.52212977606E+02 -0.40457688776E+02  0.24243260161E+03  0.25126994634E+03  0.00000000000E+00 0. -1.
         22    1    3    3    0    0 -0.24197965787E+02 -0.20112252383E+02  0.73124414079E+01  0.32303498935E+02  0.00000000000E+00 0.  1.
         22    1    3    3    0    0  0.62987208955E+02  0.84724603971E+02  0.13694301066E+03  0.17291337478E+03  0.00000000000E+00 0.  1.
</event>
<event>
 7    1  0.6370239E-006  0.7929706E+02  0.7818608E-02  0.1428799E+00
          2   -1    0    0  502    0  0.00000000000E+00  0.00000000000E+00  0.40797901584E+03  0.40797901584E+03  0.00000000000E+00 0. -1.
          1   -1    0    0  501    0 -0.00000000000E+00 -0.00000000000E+00 -0.23514309036E+03  0.23514309036E+03  0.00000000000E+00 0. -1.
         25    2    1    2    0    0 -0.19439081767E+02 -0.93192539049E+02 -0.53724182944E+02  0.16605593705E+03  0.12500223663E+03 0.  0.
          2    1    1    2  501    0 -0.11862558265E+02  0.76038265480E+02 -0.11240569894E+03  0.13622620621E+03  0.00000000000E+00 0. -1.
          1    1    1    2  502    0  0.31301640032E+02  0.17154273569E+02  0.33896580737E+03  0.34083996293E+03  0.00000000000E+00 0. -1.
         22    1    3    3    0    0 -0.54779150776E+02 -0.10612049602E+03 -0.42950132401E+02  0.12691347016E+03  0.00000000000E+00 0.  1.
         22    1    3    3    0    0  0.35340069009E+02  0.12927956969E+02 -0.10774050543E+02  0.39142466888E+02  0.00000000000E+00 0.  1.
</event>
<event>
 7    1  0.6370239E-006  0.7038676E+02  0.7818608E-02  0.1447423E+00
          2   -1    0    0  502    0  0.00000000000E+00  0.00000000000E+00  0.76623635065E+03  0.76623635065E+03  0.00000000000E+00 0. -1.
          1   -1    0    0  501    0 -0.00000000000E+00 -0.00000000000E+00 -0.21740419963E+03  0.21740419963E+03  0.00000000000E+00 0. -1.
         25    2    1    2    0    0 -0.56329379255E+01 -0.43031463734E+02  0.15096555928E+03  0.20074608402E+03  0.12499981321E+03 0.  0.
          2    1    1    2  501    0  0.20206449902E+02 -0.28547143840E+02 -0.18864083180E+03  0.19185568394E+03  0.00000000000E+00 0. -1.
          1    1    1    2  502    0 -0.14573511976E+02  0.71578607574E+02  0.58650742355E+03  0.59103878231E+03  0.00000000000E+00 0. -1.
         22    1    3    3    0    0 -0.39063507563E+02 -0.27715094887E+01  0.14244048528E+03  0.14772586346E+03  0.00000000000E+00 0.  1.
         22    1    3    3    0    0  0.33430569638E+02 -0.40259954245E+02  0.85250739955E+01  0.53020220565E+02  0.00000000000E+00 0.  1.
</event>
<event>
 7    1  0.6370239E-006  0.4638770E+02  0.7818608E-02  0.1530460E+00
          2   -1    0    0  502    0  0.00000000000E+00  0.00000000000E+00  0.77018049090E+03  0.77018049090E+03  0.00000000000E+00 0. -1.
          1   -1    0    0  501    0 -0.00000000000E+00 -0.00000000000E+00 -0.81401336878E+02  0.81401336878E+02  0.00000000000E+00 0. -1.
         25    2    1    2    0    0 -0.26194672750E+01  0.58639753906E+02  0.15382218528E+03  0.20671817392E+03  0.12500262557E+03 0.  0.
          2    1    1    2  501    0 -0.22265255234E+02 -0.19685859508E+02 -0.49955434418E+02  0.58127618935E+02  0.00000000000E+00 0. -1.
          1    1    1    2  502    0  0.24884722509E+02 -0.38953894398E+02  0.58491240317E+03  0.58673603492E+03  0.00000000000E+00 0. -1.
         22    1    3    3    0    0 -0.48554088420E+02 -0.39385487101E+01  0.10298662036E+03  0.11392653616E+03  0.00000000000E+00 0. -1.
         22    1    3    3    0    0  0.45934621145E+02  0.62578302617E+02  0.50835564921E+02  0.92791637764E+02  0.00000000000E+00 0. -1.
</event>
<event>
 7    1  0.6370239E-006  0.8939358E+02  0.7818608E-02  0.1392963E+00
          2   -1    0    0  502    0  0.00000000000E+00  0.00000000000E+00  0.72367050460E+03  0.72367050460E+03  0.00000000000E+00 0. -1.
          1   -1    0    0  501    0 -0.00000000000E+00 -0.00000000000E+00 -0.12132682286E+03  0.12132682286E+03  0.00000000000E+00 0. -1.
         25    2    1    2    0    0 -0.49948212653E+02  0.11966159330E+03 -0.49760468305E+01  0.18017745759E+03  0.12500173728E+03 0.  0.
          2    1    1    2  501    0  0.19416562834E+02 -0.37090169681E+02 -0.85169197420E+01  0.42722611357E+02  0.00000000000E+00 0. -1.
          1    1    1    2  502    0  0.30531649819E+02 -0.82571423621E+02  0.61583664831E+03  0.62209725851E+03  0.00000000000E+00 0. -1.
         22    1    3    3    0    0 -0.59033607412E+01  0.10151514068E+03 -0.51157625504E+02  0.11383003163E+03  0.00000000000E+00 0. -1.
         22    1    3    3    0    0 -0.44044851912E+02  0.18146452627E+02  0.46181578673E+02  0.66347425961E+02  0.00000000000E+00 0. -1.
</event>
<event>
 7    1  0.6370239E-006  0.4703096E+02  0.7818608E-02  0.1505076E+00
          2   -1    0    0  502    0  0.00000000000E+00  0.00000000000E+00  0.12338647854E+03  0.12338647854E+03  0.00000000000E+00 0. -1.
          1   -1    0    0  501    0 -0.00000000000E+00 -0.00000000000E+00 -0.81550350376E+03  0.81550350376E+03  0.00000000000E+00 0. -1.
         25    2    1    2    0    0 -0.12036495517E+02 -0.56399673889E+01  0.20741114189E+02  0.12740394412E+03  0.12499953881E+03 0.  0.
          2    1    1    2  501    0  0.35920347717E+02  0.30887131431E+02 -0.75521301289E+03  0.75669741714E+03  0.00000000000E+00 0. -1.
          1    1    1    2  502    0 -0.23883852200E+02 -0.25247164042E+02  0.42354873485E+02  0.54788621045E+02  0.00000000000E+00 0. -1.
         22    1    3    3    0    0 -0.41160511677E+02  0.46883591716E+02 -0.38500560659E+01  0.62506654249E+02  0.00000000000E+00 0.  1.
         22    1    3    3    0    0  0.29124016160E+02 -0.52523559105E+02  0.24591170254E+02  0.64897289872E+02  0.00000000000E+00 0.  1.
</event>
<event>
 7    1  0.6370239E-006  0.4067001E+02  0.7818608E-02  0.1598117E+00
          2   -1    0    0  502    0  0.00000000000E+00  0.00000000000E+00  0.14628699775E+03  0.14628699775E+03  0.00000000000E+00 0. -1.
          1   -1    0    0  501    0 -0.00000000000E+00 -0.00000000000E+00 -0.76696759317E+03  0.76696759317E+03  0.00000000000E+00 0. -1.
         25    2    1    2    0    0 -0.40625022237E+02 -0.42798883481E+02 -0.50207891386E+03  0.52075933673E+03  0.12499965678E+03 0.  0.
          2    1    1    2  501    0  0.62670980709E+01  0.21219440922E+02 -0.25204809318E+03  0.25301735606E+03  0.00000000000E+00 0. -1.
          1    1    1    2  502    0  0.34357924166E+02  0.21579442559E+02  0.13344641161E+03  0.13947789813E+03  0.00000000000E+00 0. -1.
         22    1    3    3    0    0 -0.28948030852E+02 -0.45100703952E+02 -0.50553367278E+03  0.50836636032E+03  0.00000000000E+00 0. -1.
         22    1    3    3    0    0 -0.11676991385E+02  0.23018204713E+01  0.34547589210E+01  0.12392976417E+02  0.00000000000E+00 0. -1.
</event>
<event>
 7    1  0.6370239E-006  0.3220248E+02  0.7818608E-02  0.1582944E+00
          2   -1    0    0  502    0  0.00000000000E+00  0.00000000000E+00  0.23411805290E+03  0.23411805290E+03  0.00000000000E+00 0. -1.
          1   -1    0    0  501    0 -0.00000000000E+00 -0.00000000000E+00 -0.13190782081E+04  0.13190782081E+04  0.00000000000E+00 0. -1.
         25    2    1    2    0    0  0.56686938077E+00 -0.40325866148E+01 -0.70279652247E+03  0.71384212137E+03  0.12502415432E+03 0.  0.
          2    1    1    2  501    0 -0.54870229406E+01  0.34283787275E+02 -0.60923509001E+03  0.61022363146E+03  0.00000000000E+00 0. -1.
          1    1    1    2  502    0  0.49201535598E+01 -0.30251200660E+02  0.22707145729E+03  0.22913050816E+03  0.00000000000E+00 0. -1.
         22    1    3    3    0    0 -0.56351649921E+02 -0.28323199922E+02 -0.33806062610E+03  0.34389344137E+03  0.00000000000E+00 0. -1.
         22    1    3    3    0    0  0.56918519302E+02  0.24290613307E+02 -0.36473589637E+03  0.36994868000E+03  0.00000000000E+00 0. -1.
</event>
<event>
 7    1  0.6370239E-006  0.5160976E+02  0.7818608E-02  0.1497101E+00
          2   -1    0    0  502    0  0.00000000000E+00  0.00000000000E+00  0.31061880802E+03  0.31061880802E+03  0.00000000000E+00 0. -1.
          1   -1    0    0  501    0 -0.00000000000E+00 -0.00000000000E+00 -0.13558900573E+03  0.13558900573E+03  0.00000000000E+00 0. -1.
         25    2    1    2    0    0 -0.16341031532E+01 -0.76606843242E+02  0.66841687530E+02  0.16115195574E+03  0.12502344949E+03 0.  0.
          2    1    1    2  501    0 -0.15430117746E+02  0.47834462238E+02 -0.79693570994E+02  0.94219369394E+02  0.00000000000E+00 0. -1.
          1    1    1    2  502    0  0.17064220899E+02  0.28772381005E+02  0.18788168576E+03  0.19083648862E+03  0.00000000000E+00 0. -1.
         22    1    3    3    0    0 -0.26229084609E+02 -0.10321152135E+03  0.32779057021E+02  0.11142284146E+03  0.00000000000E+00 0.  1.
         22    1    3    3    0    0  0.24594981456E+02  0.26604678110E+02  0.34062630509E+02  0.49729114283E+02  0.00000000000E+00 0.  1.
</event>
<event>
 7    1  0.6370239E-006  0.6578651E+02  0.7818608E-02  0.1495997E+00
          2   -1    0    0  502    0  0.00000000000E+00  0.00000000000E+00  0.11484638898E+03  0.11484638898E+03  0.00000000000E+00 0. -1.
          1   -1    0    0  501    0 -0.00000000000E+00 -0.00000000000E+00 -0.35586115631E+04  0.35586115631E+04  0.00000000000E+00 0. -1.
         25    2    1    2    0    0  0.55198893035E+02  0.74620732143E+01 -0.19682812762E+04  0.19730331970E+04  0.12500485507E+03 0.  0.
          2    1    1    2  501    0 -0.68231937049E+02  0.15547328291E+02 -0.15856174231E+04  0.15871609651E+04  0.00000000000E+00 0. -1.
          1    1    1    2  502    0  0.13033044013E+02 -0.23009401505E+02  0.11013352511E+03  0.11326379009E+03  0.00000000000E+00 0. -1.
         22    1    3    3    0    0  0.83613917518E+02  0.34777087076E+02 -0.10469390750E+04  0.10508483049E+04  0.00000000000E+00 0.  1.
         22    1    3    3    0    0 -0.28415024482E+02 -0.27315013862E+02 -0.92134220114E+03  0.92218489209E+03  0.00000000000E+00 0.  1.
</event>
<event>
 7    1  0.6370239E-006  0.6117642E+02  0.7818608E-02  0.1394760E+00
          2   -1    0    0  502    0  0.00000000000E+00  0.00000000000E+00  0.67448171695E+03  0.67448171695E+03  0.00000000000E+00 0. -1.
          1   -1    0    0  501    0 -0.00000000000E+00 -0.00000000000E+00 -0.22941868545E+03  0.22941868545E+03  0.00000000000E+00 0. -1.
         25    2    1    2    0    0  0.12935308647E+02 -0.49581535205E+00  0.27030259475E+03  0.29808791382E+03  0.12500137438E+03 0.  0.
          2    1    1    2  501    0 -0.17265737204E+02 -0.59651531019E+02 -0.20864665843E+03  0.21769207360E+03  0.00000000000E+00 0. -1.
          1    1    1    2  502    0  0.43304285571E+01  0.60147346371E+02  0.38340709518E+03  0.38812041498E+03  0.00000000000E+00 0. -1.
         22    1    3    3    0    0  0.69041513891E+02 -0.54948836855E+01  0.14370937915E+03  0.15952839886E+03  0.00000000000E+00 0.  1.
         22    1    3    3    0    0 -0.56106205245E+02  0.49990683335E+01  0.12659321560E+03  0.13855951496E+03  0.00000000000E+00 0.  1.
</event>
<event>
 7    1  0.6370239E-006  0.5648127E+02  0.7818608E-02  0.1551888E+00
          2   -1    0    0  502    0  0.00000000000E+00  0.00000000000E+00  0.12737628520E+04  0.12737628520E+04  0.00000000000E+00 0. -1.
          1   -1    0    0  501    0 -0.00000000000E+00 -0.00000000000E+00 -0.73726824424E+02  0.73726824424E+02  0.00000000000E+00 0. -1.
         25    2    1    2    0    0 -0.38470606832E+02 -0.24710210020E+02  0.21431517020E+03  0.25228340446E+03  0.12500136767E+03 0.  0.
          2    1    1    2  501    0  0.55936034272E+02  0.12630855838E+02 -0.39585115332E+02  0.69680411919E+02  0.00000000000E+00 0. -1.
          1    1    1    2  502    0 -0.17465427440E+02  0.12079354182E+02  0.10253059727E+04  0.10255258601E+04  0.00000000000E+00 0. -1.
         22    1    3    3    0    0 -0.26667444035E+02 -0.36761946896E+02  0.90281023803E+01  0.46304426824E+02  0.00000000000E+00 0.  1.
         22    1    3    3    0    0 -0.11803162798E+02  0.12051736877E+02  0.20528706782E+03  0.20597897764E+03  0.00000000000E+00 0.  1.
</event>
<event>
 7    1  0.6370239E-006  0.8455283E+02  0.7818608E-02  0.1374840E+00
          2   -1    0    0  502    0  0.00000000000E+00  0.00000000000E+00  0.61191932746E+02  0.61191932746E+02  0.00000000000E+00 0. -1.
          1   -1    0    0  501    0 -0.00000000000E+00 -0.00000000000E+00 -0.25919074743E+04  0.25919074743E+04  0.00000000000E+00 0. -1.
         25    2    1    2    0    0 -0.12304441183E+02  0.86604125458E+02 -0.66482055749E+03  0.68210269146E+03  0.12500413682E+03 0.  0.
          2    1    1    2  501    0  0.57941830682E+02 -0.63244624700E+02 -0.19047425012E+04  0.19066727916E+04  0.00000000000E+00 0. -1.
          1    1    1    2  502    0 -0.45637389499E+02 -0.23359500758E+02  0.38847517207E+02  0.64323923925E+02  0.00000000000E+00 0. -1.
         22    1    3    3    0    0  0.53056540567E+02  0.30887630234E+02 -0.36878635861E+03  0.37386149908E+03  0.00000000000E+00 0.  1.
         22    1    3    3    0    0 -0.65360981750E+02  0.55716495223E+02 -0.29603419888E+03  0.30824119238E+03  0.00000000000E+00 0.  1.
</event>
<event>
 7    1  0.6370239E-006  0.9773875E+02  0.7818608E-02  0.1387442E+00
          2   -1    0    0  502    0  0.00000000000E+00  0.00000000000E+00  0.15586448881E+04  0.15586448881E+04  0.00000000000E+00 0. -1.
          1   -1    0    0  501    0 -0.00000000000E+00 -0.00000000000E+00 -0.12410523594E+03  0.12410523594E+03  0.00000000000E+00 0. -1.
         25    2    1    2    0    0  0.20039727332E+02  0.12857568018E+03  0.28530528240E+03  0.33757520567E+03  0.12499847643E+03 0.  0.
          2    1    1    2  501    0 -0.22634912234E+02 -0.33012388679E+02 -0.91965676317E+02  0.10029876708E+03  0.00000000000E+00 0. -1.
          1    1    1    2  502    0  0.25951849026E+01 -0.95563291500E+02  0.12412000461E+04  0.12448761513E+04  0.00000000000E+00 0. -1.
         22    1    3    3    0    0  0.40847862675E+02  0.23309680632E+02  0.18431989345E+03  0.19022542475E+03  0.00000000000E+00 0. -1.
         22    1    3    3    0    0 -0.20808135343E+02  0.10526599955E+03  0.10098538895E+03  0.14734978092E+03  0.00000000000E+00 0. -1.
</event>
<event>
 7    1  0.6370239E-006  0.7004263E+02  0.7818608E-02  0.1401518E+00
          2   -1    0    0  502    0  0.00000000000E+00  0.00000000000E+00  0.20652327061E+03  0.20652327061E+03  0.00000000000E+00 0. -1.
          1   -1    0    0  501    0 -0.00000000000E+00 -0.00000000000E+00 -0.62285416685E+03  0.62285416685E+03  0.00000000000E+00 0. -1.
         25    2    1    2    0    0 -0.79448393088E+02  0.18496341001E+02 -0.83856620061E+02  0.17120401863E+03  0.12499888588E+03 0.  0.
          2    1    1    2  501    0  0.34790464811E+02  0.35797083736E+02 -0.48639955928E+03  0.48895433213E+03  0.00000000000E+00 0. -1.
          1    1    1    2  502    0  0.44657928277E+02 -0.54293424737E+02  0.15392528309E+03  0.16921908670E+03  0.00000000000E+00 0. -1.
         22    1    3    3    0    0 -0.10911862532E+02  0.29264948937E+02  0.26426984735E+02  0.40913219165E+02  0.00000000000E+00 0. -1.
         22    1    3    3    0    0 -0.68536530556E+02 -0.10768607936E+02 -0.11028360480E+03  0.13029079946E+03  0.00000000000E+00 0. -1.
</event>
<event>
 7    1  0.6370239E-006  0.7347043E+02  0.7818608E-02  0.1455689E+00
          2   -1    0    0  502    0  0.00000000000E+00  0.00000000000E+00  0.15788401188E+04  0.15788401188E+04  0.00000000000E+00 0. -1.
          1   -1    0    0  501    0 -0.00000000000E+00 -0.00000000000E+00 -0.13468485546E+03  0.13468485546E+03  0.00000000000E+00 0. -1.
         25    2    1    2    0    0  0.28749391744E+02  0.32988428284E+02  0.27606940386E+03  0.30619306349E+03  0.12500044982E+03 0.  0.
          2    1    1    2  501    0 -0.42663359987E+02 -0.61283868411E+02 -0.10775621746E+03  0.13110025635E+03  0.00000000000E+00 0. -1.
          1    1    1    2  502    0  0.13913968243E+02  0.28295440127E+02  0.12758420770E+04  0.12762316544E+04  0.00000000000E+00 0. -1.
         22    1    3    3    0    0 -0.32534119362E+02  0.38178611393E+02  0.46049757798E+02  0.68092991444E+02  0.00000000000E+00 0. -1.
         22    1    3    3    0    0  0.61283511106E+02 -0.51901831095E+01  0.23001964606E+03  0.23810007205E+03  0.00000000000E+00 0. -1.
</event>
<event>
 7    1  0.6370239E-006  0.6507761E+02  0.7818608E-02  0.1429306E+00
          2   -1    0    0  502    0  0.00000000000E+00  0.00000000000E+00  0.20982269439E+04  0.20982269439E+04  0.00000000000E+00 0. -1.
          1   -1    0    0  501    0 -0.00000000000E+00 -0.00000000000E+00 -0.29017594110E+02  0.29017594110E+02  0.00000000000E+00 0. -1.
         25    2    1    2    0    0 -0.69768630522E+02  0.59449114338E+02  0.53893167208E+03  0.56077904412E+03  0.12499572051E+03 0.  0.
          2    1    1    2  501    0  0.60768622021E+02 -0.17067875180E+02  0.38242248371E+02  0.73801133772E+02  0.00000000000E+00 0. -1.
          1    1    1    2  502    0  0.90000085011E+01 -0.42381239158E+02  0.14920354293E+04  0.14926643601E+04  0.00000000000E+00 0. -1.
         22    1    3    3    0    0  0.22396413702E+02 -0.22009275445E+02  0.13068652138E+03  0.13440600591E+03  0.00000000000E+00 0.  1.
         22    1    3    3    0    0 -0.92165044224E+02  0.81458389783E+02  0.40824515070E+03  0.42637303821E+03  0.00000000000E+00 0.  1.
</event>
<event>
 7    1  0.6370239E-006  0.6776329E+02  0.7818608E-02  0.1487341E+00
          2   -1    0    0  502    0  0.00000000000E+00  0.00000000000E+00  0.70918754281E+03  0.70918754281E+03  0.00000000000E+00 0. -1.
          1   -1    0    0  501    0 -0.00000000000E+00 -0.00000000000E+00 -0.83582279980E+03  0.83582279980E+03  0.00000000000E+00 0. -1.
         25    2    1    2    0    0  0.44628009965E+02  0.16742402552E+02  0.36521450405E+03  0.38894369151E+03  0.12499437538E+03 0.  0.
          2    1    1    2  501    0  0.25683892527E+02  0.91483905180E+01 -0.81950250952E+03  0.81995592472E+03  0.00000000000E+00 0. -1.
          1    1    1    2  502    0 -0.70311902492E+02 -0.25890793070E+02  0.32765274848E+03  0.33611072637E+03  0.00000000000E+00 0. -1.
         22    1    3    3    0    0  0.41539777923E+02  0.62223989260E+02  0.13581279674E+03  0.15505642118E+03  0.00000000000E+00 0. -1.
         22    1    3    3    0    0  0.30882320421E+01 -0.45481586707E+02  0.22940170731E+03  0.23388727033E+03  0.00000000000E+00 0. -1.
</event>
<event>
 7    1  0.6370239E-006  0.4824597E+02  0.7818608E-02  0.1458630E+00
          2   -1    0    0  502    0  0.00000000000E+00  0.00000000000E+00  0.68122581305E+03  0.68122581305E+03  0.00000000000E+00 0. -1.
          1   -1    0    0  501    0 -0.00000000000E+00 -0.00000000000E+00 -0.15985701830E+04  0.15985701830E+04  0.00000000000E+00 0. -1.
         25    2    1    2    0    0  0.20198275748E+02 -0.11672162632E+02  0.10070388264E+03  0.16220342747E+03  0.12499788071E+03 0.  0.
          2    1    1    2  501    0  0.13683538374E+02  0.46264825796E+02 -0.15663820908E+04  0.15671249241E+04  0.00000000000E+00 0. -1.
          1    1    1    2  502    0 -0.33881814122E+02 -0.34592663163E+02  0.54833383813E+03  0.55046764456E+03  0.00000000000E+00 0. -1.
         22    1    3    3    0    0  0.24135949177E+01  0.42813276781E+00 -0.29819153157E+02  0.29919736515E+02  0.00000000000E+00 0. -1.
         22    1    3    3    0    0  0.17784680830E+02 -0.12100295400E+02  0.13052303579E+03  0.13228369096E+03  0.00000000000E+00 0. -1.
</event>
<event>
 7    1  0.6370239E-006  0.7654838E+02  0.7818608E-02  0.1339259E+00
          2   -1    0    0  502    0  0.00000000000E+00  0.00000000000E+00  0.25562543005E+03  0.25562543005E+03  0.00000000000E+00 0. -1.
          1   -1    0    0  501    0 -0.00000000000E+00 -0.00000000000E+00 -0.17879662329E+04  0.17879662329E+04  0.00000000000E+00 0. -1.
         25    2    1    2    0    0  0.93032456415E+01 -0.25113325779E+02 -0.77094637601E+03  0.78147390303E+03  0.12500366766E+03 0.  0.
          2    1    1    2  501    0 -0.22813841934E+01  0.10126111077E+03 -0.10033068454E+04  0.10084064872E+04  0.00000000000E+00 0. -1.
          1    1    1    2  502    0 -0.70218614481E+01 -0.76147784995E+02  0.24191241855E+03  0.25371127280E+03  0.00000000000E+00 0. -1.
         22    1    3    3    0    0 -0.46941156240E+02 -0.46815275410E+02 -0.45804507129E+03  0.46281792261E+03  0.00000000000E+00 0. -1.
         22    1    3    3    0    0  0.56244401881E+02  0.21701949631E+02 -0.31290130472E+03  0.31865598042E+03  0.00000000000E+00 0. -1.
</event>
<event>
 7    1  0.6370239E-006  0.1771517E+03  0.7818608E-02  0.1321868E+00
          2   -1    0    0  502    0  0.00000000000E+00  0.00000000000E+00  0.68263304210E+02  0.68263304210E+02  0.00000000000E+00 0. -1.
          1   -1    0    0  501    0 -0.00000000000E+00 -0.00000000000E+00 -0.12489222036E+04  0.12489222036E+04  0.00000000000E+00 0. -1.
         25    2    1    2    0    0  0.12435133296E+03 -0.83439456644E+02 -0.34479351191E+03  0.39614854232E+03  0.12500281914E+03 0.  0.
          2    1    1    2  501    0 -0.15361556592E+03  0.10845801551E+03 -0.85681359386E+03  0.87720602930E+03  0.00000000000E+00 0. -1.
          1    1    1    2  502    0  0.29264232965E+02 -0.25018558867E+02  0.20948206361E+02  0.43830936204E+02  0.00000000000E+00 0. -1.
         22    1    3    3    0    0  0.33549339726E+01  0.15630061506E+02  0.16252527025E+01  0.16068473822E+02  0.00000000000E+00 0. -1.
         22    1    3    3    0    0  0.12099639899E+03 -0.99069518150E+02 -0.34641876461E+03  0.38008006850E+03  0.00000000000E+00 0. -1.
</event>
<event>
 7    1  0.6370239E-006  0.8590137E+02  0.7818608E-02  0.1336949E+00
          2   -1    0    0  502    0  0.00000000000E+00  0.00000000000E+00  0.15798474101E+03  0.15798474101E+03  0.00000000000E+00 0. -1.
          1   -1    0    0  501    0 -0.00000000000E+00 -0.00000000000E+00 -0.46727949056E+04  0.46727949056E+04  0.00000000000E+00 0. -1.
         25    2    1    2    0    0 -0.51205942634E+02  0.14101706036E+03 -0.99636887801E+03  0.10153244094E+04  0.12499942158E+03 0.  0.
          2    1    1    2  501    0  0.52281199381E+01 -0.69329345908E+02 -0.36543803397E+04  0.36550416631E+04  0.00000000000E+00 0. -1.
          1    1    1    2  502    0  0.45977822696E+02 -0.71687714452E+02  0.13593905316E+03  0.16041357411E+03  0.00000000000E+00 0. -1.
         22    1    3    3    0    0 -0.88650210675E+02  0.12440370596E+03 -0.72872880904E+03  0.74456753826E+03  0.00000000000E+00 0.  1.
         22    1    3    3    0    0  0.37444268040E+02  0.16613354399E+02 -0.26764006897E+03  0.27075687114E+03  0.00000000000E+00 0.  1.
</event>
<event>
 7    1  0.6370239E-006  0.1261835E+03  0.7818608E-02  0.1282252E+00
          2   -1    0    0  502    0  0.00000000000E+00  0.00000000000E+00  0.14519455439E+03  0.14519455439E+03  0.00000000000E+00 0. -1.
          1   -1    0    0  501    0 -0.00000000000E+00 -0.00000000000E+00 -0.12187531612E+04  0.12187531612E+04  0.00000000000E+00 0. -1.
         25    2    1    2    0    0 -0.14945245586E+03 -0.66802108743E+02 -0.48907865393E+03  0.53068032849E+03  0.12500049211E+03 0.  0.
          2    1    1    2  501    0  0.24754157016E+02  0.73747170986E+02 -0.67471754109E+03  0.67918714193E+03  0.00000000000E+00 0. -1.
          1    1    1    2  502    0  0.12469829884E+03 -0.69450622434E+01  0.90237588204E+02  0.15408024516E+03  0.00000000000E+00 0. -1.
         22    1    3    3    0    0 -0.15976352927E+03 -0.80161557737E+02 -0.47841838935E+03  0.51071950804E+03  0.00000000000E+00 0.  1.
         22    1    3    3    0    0  0.10311073410E+02  0.13359448994E+02 -0.10660264575E+02  0.19960820452E+02  0.00000000000E+00 0.  1.
</event>
<event>
 7    1  0.6370239E-006  0.1357965E+03  0.7818608E-02  0.1241582E+00
          2   -1    0    0  502    0  0.00000000000E+00  0.00000000000E+00  0.21737370433E+04  0.21737370433E+04  0.00000000000E+00 0. -1.
          1   -1    0    0  501    0 -0.00000000000E+00 -0.00000000000E+00 -0.20147519394E+04  0.20147519394E+04  0.00000000000E+00 0. -1.
         25    2    1    2    0    0  0.22988256370E+03 -0.54590704828E+02  0.30700618387E+03  0.40706827494E+03  0.12500258149E+03 0.  0.
          2    1    1    2  501    0 -0.13513066723E+03  0.34372036107E+01 -0.19607963707E+04  0.19654502077E+04  0.00000000000E+00 0. -1.
          1    1    1    2  502    0 -0.94751896473E+02  0.51153501218E+02  0.18127752907E+04  0.18159705001E+04  0.00000000000E+00 0. -1.
         22    1    3    3    0    0  0.37974456840E+02 -0.38469729353E+01 -0.37185606270E+01  0.38349527587E+02  0.00000000000E+00 0. -1.
         22    1    3    3    0    0  0.19190810686E+03 -0.50743731893E+02  0.31072474450E+03  0.36871874735E+03  0.00000000000E+00 0. -1.
</event>
<event>
 7    1  0.6370239E-006  0.5842858E+02  0.7818608E-02  0.1405559E+00
          2   -1    0    0  502    0  0.00000000000E+00  0.00000000000E+00  0.14087718216E+04  0.14087718216E+04  0.00000000000E+00 0. -1.
          1   -1    0    0  501    0 -0.00000000000E+00 -0.00000000000E+00 -0.10785955683E+03  0.10785955683E+03  0.00000000000E+00 0. -1.
         25    2    1    2    0    0  0.89872210778E+02 -0.51900583121E+02  0.93283453287E+03  0.94687688298E+03  0.12499952402E+03 0.  0.
          2    1    1    2  501    0 -0.58010980996E+02  0.34766986827E+01 -0.90486331526E+02  0.10754132946E+03  0.00000000000E+00 0. -1.
          1    1    1    2  502    0 -0.31861229782E+02  0.48423884438E+02  0.45856406338E+03  0.46221316595E+03  0.00000000000E+00 0. -1.
         22    1    3    3    0    0  0.35653761583E+02 -0.26129727663E+02  0.75836460942E+02  0.87778825413E+02  0.00000000000E+00 0. -1.
         22    1    3    3    0    0  0.54218449195E+02 -0.25770855458E+02  0.85699807193E+03  0.85909805756E+03  0.00000000000E+00 0. -1.
</event>
<event>
 7    1  0.6370239E-006  0.1119924E+03  0.7818608E-02  0.1375725E+00
          2   -1    0    0  502    0  0.00000000000E+00  0.00000000000E+00  0.20489529923E+03  0.20489529923E+03  0.00000000000E+00 0. -1.
          1   -1    0    0  501    0 -0.00000000000E+00 -0.00000000000E+00 -0.23066889647E+03  0.23066889647E+03  0.00000000000E+00 0. -1.
         25    2    1    2    0    0 -0.86666834498E+02 -0.75705966170E+01 -0.25055538550E+02  0.15434031248E+03  0.12499879163E+03 0.  0.
          2    1    1    2  501    0 -0.28175758405E+02 -0.26128962300E+02 -0.11162423437E+03  0.11805323262E+03  0.00000000000E+00 0. -1.
          1    1    1    2  502    0  0.11484259290E+03  0.33699558917E+02  0.11090617568E+03  0.16317065061E+03  0.00000000000E+00 0. -1.
         22    1    3    3    0    0 -0.77024332198E+02  0.50590363945E+02 -0.58589717642E+01  0.92338833785E+02  0.00000000000E+00 0.  1.
         22    1    3    3    0    0 -0.96425022994E+01 -0.58160960562E+02 -0.19196566786E+02  0.62001478696E+02  0.00000000000E+00 0.  1.
</event>
<event>
 7    1  0.6370239E-006  0.8074700E+02  0.7818608E-02  0.1446200E+00
          2   -1    0    0  502    0  0.00000000000E+00  0.00000000000E+00  0.17067800608E+04  0.17067800608E+04  0.00000000000E+00 0. -1.
          1   -1    0    0  501    0 -0.00000000000E+00 -0.00000000000E+00 -0.30769179925E+02  0.30769179925E+02  0.00000000000E+00 0. -1.
         25    2    1    2    0    0 -0.51049216336E+02  0.57158783231E+02  0.27668724110E+03  0.31313638939E+03  0.12500167992E+03 0.  0.
          2    1    1    2  501    0  0.75369141230E+02 -0.38317414855E+02  0.13226087153E+03  0.15697665390E+03  0.00000000000E+00 0. -1.
          1    1    1    2  502    0 -0.24319924895E+02 -0.18841368376E+02  0.12670627683E+04  0.12674361975E+04  0.00000000000E+00 0. -1.
         22    1    3    3    0    0 -0.13309487345E+02  0.80473521050E+02  0.24606795527E+03  0.25923458229E+03  0.00000000000E+00 0.  1.
         22    1    3    3    0    0 -0.37739728990E+02 -0.23314737819E+02  0.30619285831E+02  0.53901807100E+02  0.00000000000E+00 0.  1.
</event>
<event>
 7    1  0.6370239E-006  0.1143866E+03  0.7818608E-02  0.1304342E+00
          2   -1    0    0  502    0  0.00000000000E+00  0.00000000000E+00  0.23555788981E+03  0.23555788981E+03  0.00000000000E+00 0. -1.
          1   -1    0    0  501    0 -0.00000000000E+00 -0.00000000000E+00 -0.56780812440E+03  0.56780812440E+03  0.00000000000E+00 0. -1.
         25    2    1    2    0    0 -0.14450588186E+03 -0.63506682900E+02 -0.33334305454E+02  0.20408649167E+03  0.12500028599E+03 0.  0.
          2    1    1    2  501    0  0.11168453547E+03  0.18459510538E+01 -0.43349369322E+03  0.44765346537E+03  0.00000000000E+00 0. -1.
          1    1    1    2  502    0  0.32821346390E+02  0.61660731846E+02  0.13457776407E+03  0.15162605717E+03  0.00000000000E+00 0. -1.
         22    1    3    3    0    0 -0.14782281824E+03 -0.30158206984E+02 -0.58876796569E+02  0.16194931373E+03  0.00000000000E+00 0.  1.
         22    1    3    3    0    0  0.33169363858E+01 -0.33348475916E+02  0.25542491115E+02  0.42137177946E+02  0.00000000000E+00 0.  1.
</event>
<event>
 7    1  0.6370239E-006  0.8591552E+02  0.7818608E-02  0.1357894E+00
          2   -1    0    0  502    0  0.00000000000E+00  0.00000000000E+00  0.12309322936E+04  0.12309322936E+04  0.00000000000E+00 0. -1.
          1   -1    0    0  501    0 -0.00000000000E+00 -0.00000000000E+00 -0.45275797780E+03  0.45275797780E+03  0.00000000000E+00 0. -1.
         25    2    1    2    0    0  0.52824996113E+02 -0.13169631387E+03  0.24944814360E+03  0.31302414695E+03  0.12500136372E+03 0.  0.
          2    1    1    2  501    0 -0.40158167372E+02  0.74996041996E+02 -0.41577039391E+03  0.42438438375E+03  0.00000000000E+00 0. -1.
          1    1    1    2  502    0 -0.12666828741E+02  0.56700271870E+02  0.94449656609E+03  0.94628174067E+03  0.00000000000E+00 0. -1.
         22    1    3    3    0    0 -0.33634757389E+02 -0.97986864668E+01  0.23721165796E+02  0.42308449130E+02  0.00000000000E+00 0. -1.
         22    1    3    3    0    0  0.86459753502E+02 -0.12189762740E+03  0.22572697780E+03  0.27071569782E+03  0.00000000000E+00 0. -1.
</event>
<event>
 7    1  0.6370239E-006  0.1420446E+03  0.7818608E-02  0.1388051E+00
          2   -1    0    0  502    0  0.00000000000E+00  0.00000000000E+00  0.10105443607E+04  0.10105443607E+04  0.00000000000E+00 0. -1.
          1   -1    0    0  501    0 -0.00000000000E+00 -0.00000000000E+00 -0.20636167454E+03  0.20636167454E+03  0.00000000000E+00 0. -1.
         25    2    1    2    0    0 -0.16523383166E+03 -0.27902536387E+02  0.37496350221E+03  0.42930639105E+03  0.12500231494E+03 0.  0.
          2    1    1    2  501    0  0.13790776477E+03  0.25796236451E+02 -0.15135489375E+03  0.20637902331E+03  0.00000000000E+00 0. -1.
          1    1    1    2  502    0  0.27326066887E+02  0.21062999365E+01  0.58057407775E+03  0.58122062092E+03  0.00000000000E+00 0. -1.
         22    1    3    3    0    0 -0.18692731089E+02 -0.94100072887E+01 -0.51092351044E+01  0.21542300622E+02  0.00000000000E+00 0. -1.
         22    1    3    3    0    0 -0.14654110057E+03 -0.18492529099E+02  0.38007273732E+03  0.40776409043E+03  0.00000000000E+00 0. -1.
</event>
<event>
 7    1  0.6370239E-006  0.1080176E+03  0.7818608E-02  0.1340192E+00
          2   -1    0    0  502    0  0.00000000000E+00  0.00000000000E+00  0.10727874055E+04  0.10727874055E+04  0.00000000000E+00 0. -1.
          1   -1    0    0  501    0 -0.00000000000E+00 -0.00000000000E+00 -0.77215778018E+03  0.77215778018E+03  0.00000000000E+00 0. -1.
         25    2    1    2    0    0 -0.40563786457E+02 -0.86333760250E+02 -0.11233082452E+03  0.19323876330E+03  0.12499626624E+03 0.  0.
          2    1    1    2  501    0  0.89887573113E+02  0.64960105157E+02 -0.61369963431E+03  0.62363998606E+03  0.00000000000E+00 0. -1.
          1    1    1    2  502    0 -0.49323786656E+02  0.21373655093E+02  0.10266600842E+04  0.10280664363E+04  0.00000000000E+00 0. -1.
         22    1    3    3    0    0 -0.47183080185E+02 -0.10943380922E+03 -0.55350823977E+02  0.13139906914E+03  0.00000000000E+00 0.  1.
         22    1    3    3    0    0  0.66192937276E+01  0.23100048971E+02 -0.56980000546E+02  0.61839694163E+02  0.00000000000E+00 0.  1.
</event>
<event>
 7    1  0.6370239E-006  0.9118786E+02  0.7818608E-02  0.1448140E+00
          2   -1    0    0  502    0  0.00000000000E+00  0.00000000000E+00  0.10057611819E+04  0.10057611819E+04  0.00000000000E+00 0. -1.
          1   -1    0    0  501    0 -0.00000000000E+00 -0.00000000000E+00 -0.20605285290E+02  0.20605285290E+02  0.00000000000E+00 0. -1.
         25    2    1    2    0    0 -0.82590286875E+02 -0.73708359651E+02  0.60321496318E+03  0.62589717362E+03  0.12499960951E+03 0.  0.
          2    1    1    2  501    0  0.59787019586E+02  0.59525938134E+02  0.20785909879E+03  0.22432839760E+03  0.00000000000E+00 0. -1.
          1    1    1    2  502    0  0.22803267289E+02  0.14182421517E+02  0.17408183469E+03  0.17614089602E+03  0.00000000000E+00 0. -1.
         22    1    3    3    0    0 -0.11091030456E+02  0.11281360643E+02  0.33794278878E+03  0.33831288557E+03  0.00000000000E+00 0.  1.
         22    1    3    3    0    0 -0.71499256418E+02 -0.84989720294E+02  0.26527217439E+03  0.28758428805E+03  0.00000000000E+00 0.  1.
</event>
<event>
 7    1  0.6370239E-006  0.1168249E+03  0.7818608E-02  0.1410324E+00
          2   -1    0    0  502    0  0.00000000000E+00  0.00000000000E+00  0.10048190503E+04  0.10048190503E+04  0.00000000000E+00 0. -1.
          1   -1    0    0  501    0 -0.00000000000E+00 -0.00000000000E+00 -0.80216036396E+03  0.80216036396E+03  0.00000000000E+00 0. -1.
         25    2    1    2    0    0  0.39101716699E+02 -0.13584995361E+03 -0.21908215727E+02  0.18997236971E+03  0.12500150877E+03 0.  0.
          2    1    1    2  501    0 -0.22787397209E+02  0.11318054618E+03 -0.69121947022E+03  0.70079487549E+03  0.00000000000E+00 0. -1.
          1    1    1    2  502    0 -0.16314319490E+02  0.22669407427E+02  0.91578637230E+03  0.91621216906E+03  0.00000000000E+00 0. -1.
         22    1    3    3    0    0 -0.29346168158E+02 -0.11072933691E+03 -0.27487255155E+01  0.11458507377E+03  0.00000000000E+00 0. -1.
         22    1    3    3    0    0  0.68447884857E+02 -0.25120616697E+02 -0.19159490211E+02  0.75387295944E+02  0.00000000000E+00 0. -1.
</event>
<event>
 7    1  0.6370239E-006  0.9721961E+02  0.7818608E-02  0.1291839E+00
          2   -1    0    0  502    0  0.00000000000E+00  0.00000000000E+00  0.41099464177E+03  0.41099464177E+03  0.00000000000E+00 0. -1.
          1   -1    0    0  501    0 -0.00000000000E+00 -0.00000000000E+00 -0.16832354835E+03  0.16832354835E+03  0.00000000000E+00 0. -1.
         25    2    1    2    0    0 -0.71113245556E+01  0.48651479801E+02  0.96147446220E+02  0.16518838167E+03  0.12500133040E+03 0.  0.
          2    1    1    2  501    0 -0.97217344600E+02  0.66367967836E+00 -0.10151627481E+03  0.14056033086E+03  0.00000000000E+00 0. -1.
          1    1    1    2  502    0  0.10432866916E+03 -0.49315159479E+02  0.24803992200E+03  0.27356947759E+03  0.00000000000E+00 0. -1.
         22    1    3    3    0    0  0.47079425868E+02  0.50427474506E+02  0.20222847565E+02  0.71891349193E+02  0.00000000000E+00 0.  1.
         22    1    3    3    0    0 -0.54190750423E+02 -0.17759947052E+01  0.75924598656E+02  0.93297032480E+02  0.00000000000E+00 0.  1.
</event>
<event>
 7    1  0.6370239E-006  0.1171205E+03  0.7818608E-02  0.1352307E+00
          2   -1    0    0  502    0  0.00000000000E+00  0.00000000000E+00  0.32235140461E+03  0.32235140461E+03  0.00000000000E+00 0. -1.
          1   -1    0    0  501    0 -0.00000000000E+00 -0.00000000000E+00 -0.92193349872E+03  0.92193349872E+03  0.00000000000E+00 0. -1.
         25    2    1    2    0    0 -0.61985800223E+02  0.13569515587E+03 -0.23969314769E+03  0.30875996048E+03  0.12499797354E+03 0.  0.
          2    1    1    2  501    0  0.66499075107E+02 -0.91240843081E+02 -0.64100898692E+03  0.65087597878E+03  0.00000000000E+00 0. -1.
          1    1    1    2  502    0 -0.45132748844E+01 -0.44454312792E+02  0.28112004050E+03  0.28464896407E+03  0.00000000000E+00 0. -1.
         22    1    3    3    0    0 -0.14912954354E+02  0.10346879125E+03 -0.22757934859E+03  0.25044070531E+03  0.00000000000E+00 0.  1.
         22    1    3    3    0    0 -0.47072845869E+02  0.32226364625E+02 -0.12113799096E+02  0.58319255171E+02  0.00000000000E+00 0.  1.
</event>
<event>
 7    1  0.6370239E-006  0.1347298E+03  0.7818608E-02  0.1261453E+00
          2   -1    0    0  502    0  0.00000000000E+00  0.00000000000E+00  0.20155439706E+04  0.20155439706E+04  0.00000000000E+00 0. -1.
          1   -1    0    0  501    0 -0.00000000000E+00 -0.00000000000E+00 -0.19655168055E+03  0.19655168055E+03  0.00000000000E+00 0. -1.
         25    2    1    2    0    0  0.15986753395E+03  0.77470783404E+02  0.40622219899E+03  0.46065272268E+03  0.12500042108E+03 0.  0.
          2    1    1    2  501    0 -0.83583388511E+02  0.30676431256E+02 -0.15464843059E+03  0.17844708839E+03  0.00000000000E+00 0. -1.
          1    1    1    2  502    0 -0.76284145434E+02 -0.10814721466E+03  0.15674185217E+04  0.15729958401E+04  0.00000000000E+00 0. -1.
         22    1    3    3    0    0  0.16403110306E+02  0.64716449651E+02  0.18497448466E+03  0.19665411478E+03  0.00000000000E+00 0. -1.
         22    1    3    3    0    0  0.14346442364E+03  0.12754333753E+02  0.22124771432E+03  0.26399860790E+03  0.00000000000E+00 0. -1.
</event>
<event>
 7    1  0.6370239E-006  0.1219363E+03  0.7818608E-02  0.1412742E+00
          2   -1    0    0  502    0  0.00000000000E+00  0.00000000000E+00  0.80266249461E+03  0.80266249461E+03  0.00000000000E+00 0. -1.
          1   -1    0    0  501    0 -0.00000000000E+00 -0.00000000000E+00 -0.87344649388E+02  0.87344649388E+02  0.00000000000E+00 0. -1.
         25    2    1    2    0    0 -0.55534080723E+02  0.10859516165E+03  0.16697362682E+03  0.24162327552E+03  0.12499868785E+03 0.  0.
          2    1    1    2  501    0  0.77877785763E+02 -0.94798955463E+02  0.26038550369E+02  0.12541848978E+03  0.00000000000E+00 0. -1.
          1    1    1    2  502    0 -0.22343705040E+02 -0.13796206188E+02  0.52230566803E+03  0.52296537870E+03  0.00000000000E+00 0. -1.
         22    1    3    3    0    0  0.27881192443E+02  0.81180378824E+02  0.69593147888E+02  0.11050258382E+03  0.00000000000E+00 0.  1.
         22    1    3    3    0    0 -0.83415273165E+02  0.27414782827E+02  0.97380478927E+02  0.13112069170E+03  0.00000000000E+00 0.  1.
</event>
<event>
 7    1  0.6370239E-006  0.4958967E+02  0.7818608E-02  0.1516294E+00
          2   -1    0    0  502    0  0.00000000000E+00  0.00000000000E+00  0.11289816424E+04  0.11289816424E+04  0.00000000000E+00 0. -1.
          1   -1    0    0  501    0 -0.00000000000E+00 -0.00000000000E+00 -0.38494898129E+03  0.38494898129E+03  0.00000000000E+00 0. -1.
         25    2    1    2    0    0 -0.10639889756E+02  0.20071349952E+02 -0.43359702692E+02  0.13423674735E+03  0.12499349655E+03 0.  0.
          2    1    1    2  501    0  0.37672726423E+02 -0.34302269262E+02 -0.29374203802E+03  0.29812793377E+03  0.00000000000E+00 0. -1.
          1    1    1    2  502    0 -0.27032836667E+02  0.14230919310E+02  0.10811344018E+04  0.10815659426E+04  0.00000000000E+00 0. -1.
         22    1    3    3    0    0 -0.12428509852E+02 -0.28026587021E+02  0.32320042724E+02  0.44548205338E+02  0.00000000000E+00 0. -1.
         22    1    3    3    0    0  0.17886200956E+01  0.48097936973E+02 -0.75679745416E+02  0.89688542017E+02  0.00000000000E+00 0. -1.
</event>
<event>
 7    1  0.6370239E-006  0.7095991E+02  0.7818608E-02  0.1395691E+00
          2   -1    0    0  502    0  0.00000000000E+00  0.00000000000E+00  0.32976673859E+04  0.32976673859E+04  0.00000000000E+00 0. -1.
          1   -1    0    0  501    0 -0.00000000000E+00 -0.00000000000E+00 -0.63627921545E+02  0.63627921545E+02  0.00000000000E+00 0. -1.
         25    2    1    2    0    0 -0.10520070572E+03  0.23102714007E+02  0.24506454112E+04  0.24561940055E+04  0.12500054863E+03 0.  0.
          2    1    1    2  501    0  0.47292542773E+02 -0.20649992290E+02 -0.48721062577E+02  0.70970055109E+02  0.00000000000E+00 0. -1.
          1    1    1    2  502    0  0.57908162948E+02 -0.24527217173E+01  0.83211511577E+03  0.83413124691E+03  0.00000000000E+00 0. -1.
         22    1    3    3    0    0  0.14475872967E+02  0.14803676755E+02  0.84146749707E+02  0.86656651389E+02  0.00000000000E+00 0. -1.
         22    1    3    3    0    0 -0.11967657869E+03  0.82990372518E+01  0.23664986615E+04  0.23695373541E+04  0.00000000000E+00 0. -1.
</event>
<event>
 7    1  0.6370239E-006  0.1353585E+03  0.7818608E-02  0.1254824E+00
          2   -1    0    0  502    0  0.00000000000E+00  0.00000000000E+00  0.97764243027E+03  0.97764243027E+03  0.00000000000E+00 0. -1.
          1   -1    0    0  501    0 -0.00000000000E+00 -0.00000000000E+00 -0.39881190235E+03  0.39881190235E+03  0.00000000000E+00 0. -1.
         25    2    1    2    0    0  0.13856903753E+03  0.17581452207E+03  0.89986738498E+02  0.27171999882E+03  0.12498808072E+03 0.  0.
          2    1    1    2  501    0 -0.66090814051E+02 -0.67691607748E+02 -0.29518435963E+03  0.30997412091E+03  0.00000000000E+00 0. -1.
          1    1    1    2  502    0 -0.72478223482E+02 -0.10812291432E+03  0.78402814905E+03  0.79476021289E+03  0.00000000000E+00 0. -1.
         22    1    3    3    0    0  0.14665266882E+03  0.12273687858E+03  0.10194881582E+03  0.21671388438E+03  0.00000000000E+00 0.  1.
         22    1    3    3    0    0 -0.80836312855E+01  0.53077643486E+02 -0.11962077318E+02  0.55006114447E+02  0.00000000000E+00 0.  1.
</event>
<event>
 7    1  0.6370239E-006  0.7498204E+02  0.7818608E-02  0.1408609E+00
          2   -1    0    0  502    0  0.00000000000E+00  0.00000000000E+00  0.42641867479E+03  0.42641867479E+03  0.00000000000E+00 0. -1.
          1   -1    0    0  501    0 -0.00000000000E+00 -0.00000000000E+00 -0.72843072707E+03  0.72843072707E+03  0.00000000000E+00 0. -1.
         25    2    1    2    0    0  0.32720496551E+02 -0.14324717717E+02 -0.23073692812E+03  0.26483532464E+03  0.12498956255E+03 0.  0.
          2    1    1    2  501    0  0.42765288801E+02  0.10776173402E+02 -0.47612932958E+03  0.47816747518E+03  0.00000000000E+00 0. -1.
          1    1    1    2  502    0 -0.75485785352E+02  0.35485443152E+01  0.40485420543E+03  0.41184660204E+03  0.00000000000E+00 0. -1.
         22    1    3    3    0    0  0.37569453336E+02 -0.65679226656E+02 -0.16289026288E+03  0.17960640963E+03  0.00000000000E+00 0. -1.
         22    1    3    3    0    0 -0.48489567849E+01  0.51354508939E+02 -0.67846665243E+02  0.85228915016E+02  0.00000000000E+00 0. -1.
</event>
<event>
 7    1  0.6370239E-006  0.3585881E+02  0.7818608E-02  0.1573230E+00
          2   -1    0    0  502    0  0.00000000000E+00  0.00000000000E+00  0.10148125282E+03  0.10148125282E+03  0.00000000000E+00 0. -1.
          1   -1    0    0  501    0 -0.00000000000E+00 -0.00000000000E+00 -0.16271364775E+03  0.16271364775E+03  0.00000000000E+00 0. -1.
         25    2    1    2    0    0  0.20146157359E+02 -0.15300766707E+01  0.28852782799E+02  0.12987129106E+03  0.12500344146E+03 0.  0.
          2    1    1    2  501    0  0.20407024471E+02  0.20926241651E+02 -0.84025220817E+02  0.88963992551E+02  0.00000000000E+00 0. -1.
          1    1    1    2  502    0 -0.40553181829E+02 -0.19396164980E+02 -0.60599569068E+01  0.45359616953E+02  0.00000000000E+00 0. -1.
         22    1    3    3    0    0  0.42093114806E+02 -0.51069061314E+02 -0.43516273520E+01  0.66323570457E+02  0.00000000000E+00 0. -1.
         22    1    3    3    0    0 -0.21946957448E+02  0.49538984643E+02  0.33204410151E+02  0.63547720606E+02  0.00000000000E+00 0. -1.
</event>
<event>
 7    1  0.6370239E-006  0.6352392E+02  0.7818608E-02  0.1409972E+00
          2   -1    0    0  502    0  0.00000000000E+00  0.00000000000E+00  0.15026489550E+03  0.15026489550E+03  0.00000000000E+00 0. -1.
          1   -1    0    0  501    0 -0.00000000000E+00 -0.00000000000E+00 -0.12693858505E+04  0.12693858505E+04  0.00000000000E+00 0. -1.
         25    2    1    2    0    0  0.21495776538E+02 -0.51557405794E+02 -0.11904128193E+03  0.18143193429E+03  0.12500594176E+03 0.  0.
          2    1    1    2  501    0  0.40533532255E+02  0.31778535381E+02 -0.11096070683E+04  0.11108018223E+04  0.00000000000E+00 0. -1.
          1    1    1    2  502    0 -0.62029308793E+02  0.19778870413E+02  0.10952739524E+03  0.12741698934E+03  0.00000000000E+00 0. -1.
         22    1    3    3    0    0  0.18069306247E+01 -0.24454969116E+02  0.24124507529E+02  0.34399162436E+02  0.00000000000E+00 0. -1.
         22    1    3    3    0    0  0.19688845913E+02 -0.27102436678E+02 -0.14316578946E+03  0.14703277185E+03  0.00000000000E+00 0. -1.
</event>
<event>
 7    1  0.6370239E-006  0.8740047E+02  0.7818608E-02  0.1334855E+00
          2   -1    0    0  502    0  0.00000000000E+00  0.00000000000E+00  0.12451630592E+04  0.12451630592E+04  0.00000000000E+00 0. -1.
          1   -1    0    0  501    0 -0.00000000000E+00 -0.00000000000E+00 -0.32386021771E+02  0.32386021771E+02  0.00000000000E+00 0. -1.
         25    2    1    2    0    0  0.69190008927E+01 -0.52976697546E+02  0.28747874584E+03  0.31799897684E+03  0.12499966763E+03 0.  0.
          2    1    1    2  501    0  0.69402506125E+02 -0.51376772946E+01  0.69364436736E+02  0.98257461132E+02  0.00000000000E+00 0. -1.
          1    1    1    2  502    0 -0.76321507018E+02  0.58114374841E+02  0.85593385489E+03  0.86129264303E+03  0.00000000000E+00 0. -1.
         22    1    3    3    0    0  0.27319306866E+02 -0.65683130027E+01  0.25765512937E+03  0.25918266329E+03  0.00000000000E+00 0.  1.
         22    1    3    3    0    0 -0.20400305973E+02 -0.46408384544E+02  0.29823616470E+02  0.58816313546E+02  0.00000000000E+00 0.  1.
</event>
<event>
 7    1  0.6370239E-006  0.8413403E+02  0.7818608E-02  0.1349045E+00
          2   -1    0    0  502    0  0.00000000000E+00  0.00000000000E+00  0.26585456092E+04  0.26585456092E+04  0.00000000000E+00 0. -1.
          1   -1    0    0  501    0 -0.00000000000E+00 -0.00000000000E+00 -0.28448842588E+03  0.28448842588E+03  0.00000000000E+00 0. -1.
         25    2    1    2    0    0 -0.27451639609E+02  0.76020284197E+02 -0.41379539949E+02  0.15451363077E+03  0.12501807726E+03 0.  0.
          2    1    1    2  501    0 -0.49196171631E+02 -0.40865539356E+02 -0.18035530765E+03  0.19135906722E+03  0.00000000000E+00 0. -1.
          1    1    1    2  502    0  0.76647811240E+02 -0.35154744840E+02  0.25957920309E+04  0.25971613371E+04  0.00000000000E+00 0. -1.
         22    1    3    3    0    0 -0.39578688464E+02  0.10780936092E+03 -0.32186567986E+02  0.11926988741E+03  0.00000000000E+00 0.  1.
         22    1    3    3    0    0  0.12127048856E+02 -0.31789076725E+02 -0.91929719636E+01  0.35243743367E+02  0.00000000000E+00 0.  1.
</event>
<event>
 7    1  0.6370239E-006  0.1110241E+03  0.7818608E-02  0.1305704E+00
          2   -1    0    0  502    0  0.00000000000E+00  0.00000000000E+00  0.20619346558E+03  0.20619346558E+03  0.00000000000E+00 0. -1.
          1   -1    0    0  501    0 -0.00000000000E+00 -0.00000000000E+00 -0.77533995029E+03  0.77533995029E+03  0.00000000000E+00 0. -1.
         25    2    1    2    0    0 -0.61121321415E+02 -0.37176757240E+02 -0.49567999942E+02  0.15231459998E+03  0.12499929415E+03 0.  0.
          2    1    1    2  501    0  0.46036777800E+02  0.10663413933E+03 -0.66090098319E+03  0.67102930946E+03  0.00000000000E+00 0. -1.
          1    1    1    2  502    0  0.15084543615E+02 -0.69457382095E+02  0.14132249842E+03  0.15818950643E+03  0.00000000000E+00 0. -1.
         22    1    3    3    0    0 -0.46902959028E+02  0.41775384022E+02 -0.30663405000E+02  0.69895026160E+02  0.00000000000E+00 0. -1.
         22    1    3    3    0    0 -0.14218362388E+02 -0.78952141261E+02 -0.18904594942E+02  0.82419573820E+02  0.00000000000E+00 0. -1.
</event>
<event>
 7    1  0.6370239E-006  0.1402552E+03  0.7818608E-02  0.1283083E+00
          2   -1    0    0  502    0  0.00000000000E+00  0.00000000000E+00  0.16586028089E+03  0.16586028089E+03  0.00000000000E+00 0. -1.
          1   -1    0    0  501    0 -0.00000000000E+00 -0.00000000000E+00 -0.49835326716E+03  0.49835326716E+03  0.00000000000E+00 0. -1.
         25    2    1    2    0    0  0.26237535245E+01 -0.11755593186E+03 -0.22120140531E+03  0.27996630686E+03  0.12499916028E+03 0.  0.
          2    1    1    2  501    0 -0.68249716787E+02 -0.12788569103E+02 -0.20119748850E+03  0.21284266659E+03  0.00000000000E+00 0. -1.
          1    1    1    2  502    0  0.65625963263E+02  0.13034450096E+03  0.89905907538E+02  0.17140457460E+03  0.00000000000E+00 0. -1.
         22    1    3    3    0    0  0.36673008812E+02 -0.24632411299E+02 -0.15432438372E+03  0.16052314685E+03  0.00000000000E+00 0.  1.
         22    1    3    3    0    0 -0.34049255287E+02 -0.92923520557E+02 -0.66877021588E+02  0.11944316002E+03  0.00000000000E+00 0.  1.
</event>
<event>
 7    1  0.6370239E-006  0.1130909E+03  0.7818608E-02  0.1287533E+00
          2   -1    0    0  502    0  0.00000000000E+00  0.00000000000E+00  0.64846575367E+03  0.64846575367E+03  0.00000000000E+00 0. -1.
          1   -1    0    0  501    0 -0.00000000000E+00 -0.00000000000E+00 -0.11645310928E+03  0.11645310928E+03  0.00000000000E+00 0. -1.
         25    2    1    2    0    0  0.30235229426E+02  0.80237763745E+02  0.21618490442E+03  0.26403085806E+03  0.12499645307E+03 0.  0.
          2    1    1    2  501    0 -0.68069718156E+02  0.46746140101E+02 -0.60205845887E+02  0.10219311143E+03  0.00000000000E+00 0. -1.
          1    1    1    2  502    0  0.37834488730E+02 -0.12698390385E+03  0.37603358586E+03  0.39869489346E+03  0.00000000000E+00 0. -1.
         22    1    3    3    0    0  0.14891677167E+02  0.57879521566E+02  0.22707574350E+03  0.23480884641E+03  0.00000000000E+00 0. -1.
         22    1    3    3    0    0  0.15343552258E+02  0.22358242180E+02 -0.10890839079E+02  0.29222011654E+02  0.00000000000E+00 0. -1.
</event>
<event>
 7    1  0.6370239E-006  0.5815414E+02  0.7818608E-02  0.1513213E+00
          2   -1    0    0  502    0  0.00000000000E+00  0.00000000000E+00  0.24089252268E+03  0.24089252268E+03  0.00000000000E+00 0. -1.
          1   -1    0    0  501    0 -0.00000000000E+00 -0.00000000000E+00 -0.50924972319E+03  0.50924972319E+03  0.00000000000E+00 0. -1.
         25    2    1    2    0    0  0.35682487554E+02 -0.47025409307E+01 -0.17112359036E+03  0.21495105921E+03  0.12500128347E+03 0.  0.
          2    1    1    2  501    0 -0.61162149810E+02 -0.29251816240E+01 -0.31242170722E+03  0.31836565204E+03  0.00000000000E+00 0. -1.
          1    1    1    2  502    0  0.25479662256E+02  0.76277225546E+01  0.21518809708E+03  0.21682553462E+03  0.00000000000E+00 0. -1.
         22    1    3    3    0    0  0.16306482589E+02 -0.58293052041E+02 -0.41604934601E+02  0.73450336104E+02  0.00000000000E+00 0. -1.
         22    1    3    3    0    0  0.19376004965E+02  0.53590511110E+02 -0.12951865576E+03  0.14150072311E+03  0.00000000000E+00 0. -1.
</event>
<event>
 7    1  0.6370239E-006  0.4211391E+02  0.7818608E-02  0.1497797E+00
          2   -1    0    0  502    0  0.00000000000E+00  0.00000000000E+00  0.10034230310E+04  0.10034230310E+04  0.00000000000E+00 0. -1.
          1   -1    0    0  501    0 -0.00000000000E+00 -0.00000000000E+00 -0.93275985492E+03  0.93275985492E+03  0.00000000000E+00 0. -1.
         25    2    1    2    0    0 -0.24965070428E+02 -0.19437480517E+02 -0.74440279872E+03  0.75548652892E+03  0.12499319280E+03 0.  0.
          2    1    1    2  501    0  0.33346976796E+00  0.53596891560E+02 -0.17843101157E+03  0.18630717613E+03  0.00000000000E+00 0. -1.
          1    1    1    2  502    0  0.24631600660E+02 -0.34159411043E+02  0.99349698632E+03  0.99438918083E+03  0.00000000000E+00 0. -1.
         22    1    3    3    0    0 -0.48008757317E+02 -0.62264212762E+02 -0.39855053994E+03  0.40623171449E+03  0.00000000000E+00 0. -1.
         22    1    3    3    0    0  0.23043686889E+02  0.42826732245E+02 -0.34585225878E+03  0.34925481443E+03  0.00000000000E+00 0. -1.
</event>
<event>
 7    1  0.6370239E-006  0.5853480E+02  0.7818608E-02  0.1422721E+00
          2   -1    0    0  502    0  0.00000000000E+00  0.00000000000E+00  0.17622388483E+03  0.17622388483E+03  0.00000000000E+00 0. -1.
          1   -1    0    0  501    0 -0.00000000000E+00 -0.00000000000E+00 -0.16453529080E+03  0.16453529080E+03  0.00000000000E+00 0. -1.
         25    2    1    2    0    0  0.55249353995E+02  0.71738224947E+02 -0.62901244380E+02  0.16666875046E+03  0.12499216695E+03 0.  0.
          2    1    1    2  501    0 -0.48392384093E+02 -0.14949559551E+02 -0.27080151002E+02  0.57433846705E+02  0.00000000000E+00 0. -1.
          1    1    1    2  502    0 -0.68569699013E+01 -0.56788665396E+02  0.10166998941E+03  0.11665657847E+03  0.00000000000E+00 0. -1.
         22    1    3    3    0    0  0.81870307126E+02  0.51970920272E+02 -0.16131193433E+01  0.96986214984E+02  0.00000000000E+00 0. -1.
         22    1    3    3    0    0 -0.26620953131E+02  0.19767304675E+02 -0.61288125036E+02  0.69682535475E+02  0.00000000000E+00 0. -1.
</event>
<event>
 7    1  0.6370239E-006  0.6805562E+02  0.7818608E-02  0.1510232E+00
          2   -1    0    0  502    0  0.00000000000E+00  0.00000000000E+00  0.11166003508E+04  0.11166003508E+04  0.00000000000E+00 0. -1.
          1   -1    0    0  501    0 -0.00000000000E+00 -0.00000000000E+00 -0.17688537369E+03  0.17688537369E+03  0.00000000000E+00 0. -1.
         25    2    1    2    0    0  0.73992841453E+01 -0.86565759120E+02 -0.48263516586E+01  0.15230678377E+03  0.12500273058E+03 0.  0.
          2    1    1    2  501    0  0.98591526188E+01  0.20989939595E+02 -0.95832109474E+02  0.98598040856E+02  0.00000000000E+00 0. -1.
          1    1    1    2  502    0 -0.17258436764E+02  0.65575819525E+02  0.10403734383E+04  0.10425808999E+04  0.00000000000E+00 0. -1.
         22    1    3    3    0    0 -0.42636685452E+02 -0.73209874335E+01  0.29650993520E+02  0.52446784650E+02  0.00000000000E+00 0.  1.
         22    1    3    3    0    0  0.50035969598E+02 -0.79244771686E+02 -0.34477345179E+02  0.99859999118E+02  0.00000000000E+00 0.  1.
</event>
<event>
 7    1  0.6370239E-006  0.8082590E+02  0.7818608E-02  0.1390774E+00
          2   -1    0    0  502    0  0.00000000000E+00  0.00000000000E+00  0.23796082066E+04  0.23796082066E+04  0.00000000000E+00 0. -1.
          1   -1    0    0  501    0 -0.00000000000E+00 -0.00000000000E+00 -0.37966053157E+03  0.37966053157E+03  0.00000000000E+00 0. -1.
         25    2    1    2    0    0 -0.87208461769E+02 -0.21987819183E+00 -0.94580095768E+02  0.17937605803E+03  0.12500004612E+03 0.  0.
          2    1    1    2  501    0  0.68997898394E+02  0.43681197584E+02 -0.23556764803E+03  0.24932082505E+03  0.00000000000E+00 0. -1.
          1    1    1    2  502    0  0.18210563375E+02 -0.43461319392E+02  0.23300954188E+04  0.23305718551E+04  0.00000000000E+00 0. -1.
         22    1    3    3    0    0 -0.81888169007E+02  0.19141026871E+01  0.26730310273E+01  0.81954140269E+02  0.00000000000E+00 0.  1.
         22    1    3    3    0    0 -0.53202927618E+01 -0.21339808790E+01 -0.97253126796E+02  0.97421917765E+02  0.00000000000E+00 0.  1.
</event>
<event>
 7    1  0.6370239E-006  0.6283001E+02  0.7818608E-02  0.1418033E+00
          2   -1    0    0  502    0  0.00000000000E+00  0.00000000000E+00  0.13049402169E+04  0.13049402169E+04  0.00000000000E+00 0. -1.
          1   -1    0    0  501    0 -0.00000000000E+00 -0.00000000000E+00 -0.14927554308E+04  0.14927554308E+04  0.00000000000E+00 0. -1.
         25    2    1    2    0    0  0.72127864033E+01  0.80606067500E+02  0.40344565563E+03  0.43004798969E+03  0.12499405578E+03 0.  0.
          2    1    1    2  501    0  0.34873638815E+02 -0.34304294356E+02 -0.14779471053E+04  0.14787564374E+04  0.00000000000E+00 0. -1.
          1    1    1    2  502    0 -0.42086425218E+02 -0.46301773145E+02  0.88668623578E+03  0.88889122062E+03  0.00000000000E+00 0. -1.
         22    1    3    3    0    0 -0.12004168010E+02  0.36003228395E+01  0.29703156647E+03  0.29729583558E+03  0.00000000000E+00 0.  1.
         22    1    3    3    0    0  0.19216954413E+02  0.77005744661E+02  0.10641408916E+03  0.13275215411E+03  0.00000000000E+00 0.  1.
</event>
<event>
 7    1  0.6370239E-006  0.5816751E+02  0.7818608E-02  0.1520697E+00
          2   -1    0    0  502    0  0.00000000000E+00  0.00000000000E+00  0.48817361875E+03  0.48817361875E+03  0.00000000000E+00 0. -1.
          1   -1    0    0  501    0 -0.00000000000E+00 -0.00000000000E+00 -0.40906628658E+03  0.40906628658E+03  0.00000000000E+00 0. -1.
         25    2    1    2    0    0 -0.37833643235E+02 -0.28257578073E+02  0.50997696402E+02  0.14302360508E+03  0.12500044517E+03 0.  0.
          2    1    1    2  501    0  0.57276653548E+02  0.12088734203E+02 -0.36027980489E+03  0.36500450730E+03  0.00000000000E+00 0. -1.
          1    1    1    2  502    0 -0.19443010313E+02  0.16168843870E+02  0.38838944065E+03  0.38921179295E+03  0.00000000000E+00 0. -1.
         22    1    3    3    0    0 -0.39066315048E+02  0.12299338508E+02  0.82199734294E+02  0.91838156651E+02  0.00000000000E+00 0. -1.
         22    1    3    3    0    0  0.12326718130E+01 -0.40556916581E+02 -0.31202037891E+02  0.51185448429E+02  0.00000000000E+00 0. -1.
</event>
<event>
 7    1  0.6370239E-006  0.9828795E+02  0.7818608E-02  0.1341270E+00
          2   -1    0    0  502    0  0.00000000000E+00  0.00000000000E+00  0.56093746424E+03  0.56093746424E+03  0.00000000000E+00 0. -1.
          1   -1    0    0  501    0 -0.00000000000E+00 -0.00000000000E+00 -0.90836743554E+02  0.90836743554E+02  0.00000000000E+00 0. -1.
         25    2    1    2    0    0 -0.48008022871E+02 -0.13599249732E+03  0.26094933548E+03  0.32329152815E+03  0.12499650754E+03 0.  0.
          2    1    1    2  501    0  0.90348828109E+01  0.57827116901E+02 -0.35674094012E+02  0.68543749095E+02  0.00000000000E+00 0. -1.
          1    1    1    2  502    0  0.38973140060E+02  0.78165380420E+02  0.24482547921E+03  0.25993893055E+03  0.00000000000E+00 0. -1.
         22    1    3    3    0    0  0.34429190453E+02 -0.38257430573E+02  0.30715713378E+02  0.59937093670E+02  0.00000000000E+00 0.  1.
         22    1    3    3    0    0 -0.82437213324E+02 -0.97735066748E+02  0.23023362210E+03  0.26335443448E+03  0.00000000000E+00 0.  1.
</event>
<event>
 7    1  0.6370239E-006  0.1124400E+03  0.7818608E-02  0.1302734E+00
          2   -1    0    0  502    0  0.00000000000E+00  0.00000000000E+00  0.27778518159E+04  0.27778518159E+04  0.00000000000E+00 0. -1.
          1   -1    0    0  501    0 -0.00000000000E+00 -0.00000000000E+00 -0.33133255866E+02  0.33133255866E+02  0.00000000000E+00 0. -1.
         25    2    1    2    0    0  0.11375669309E+02  0.47782824146E+02  0.19210659196E+04  0.19257547691E+04  0.12499823734E+03 0.  0.
          2    1    1    2  501    0  0.12705657923E+02 -0.11575980009E+03  0.87780150101E+02  0.14583250602E+03  0.00000000000E+00 0. -1.
          1    1    1    2  502    0 -0.24081327232E+02  0.67976975942E+02  0.73587249034E+03  0.73939779660E+03  0.00000000000E+00 0. -1.
         22    1    3    3    0    0  0.44879894135E+02 -0.16748295115E+02  0.38496545637E+03  0.38793441828E+03  0.00000000000E+00 0. -1.
         22    1    3    3    0    0 -0.33504224826E+02  0.64531119261E+02  0.15361004632E+04  0.15378203509E+04  0.00000000000E+00 0. -1.
</event>
<event>
 7    1  0.6370239E-006  0.8516069E+02  0.7818608E-02  0.1330817E+00
          2   -1    0    0  502    0  0.00000000000E+00  0.00000000000E+00  0.34126755658E+04  0.34126755658E+04  0.00000000000E+00 0. -1.
          1   -1    0    0  501    0 -0.00000000000E+00 -0.00000000000E+00 -0.43371573933E+02  0.43371573933E+02  0.00000000000E+00 0. -1.
         25    2    1    2    0    0 -0.20345185447E+02 -0.12146463038E+03  0.82924785203E+03  0.84761133252E+03  0.12500155165E+03 0.  0.
          2    1    1    2  501    0 -0.39440121929E+02  0.62606037812E+02  0.73690531656E+01  0.74359546347E+02  0.00000000000E+00 0. -1.
          1    1    1    2  502    0  0.59785307376E+02  0.58858592569E+02  0.25326870866E+04  0.25340762608E+04  0.00000000000E+00 0. -1.
         22    1    3    3    0    0  0.48347272136E+02 -0.27070800776E+02  0.34940213326E+03  0.35376848037E+03  0.00000000000E+00 0.  1.
         22    1    3    3    0    0 -0.68692457583E+02 -0.94393829606E+02  0.47984571877E+03  0.49384285215E+03  0.00000000000E+00 0.  1.
</event>
<event>
 7    1  0.6370239E-006  0.9223718E+02  0.7818608E-02  0.1408079E+00
          2   -1    0    0  502    0  0.00000000000E+00  0.00000000000E+00  0.15511848942E+04  0.15511848942E+04  0.00000000000E+00 0. -1.
          1   -1    0    0  501    0 -0.00000000000E+00 -0.00000000000E+00 -0.46851419123E+03  0.46851419123E+03  0.00000000000E+00 0. -1.
         25    2    1    2    0    0 -0.42412498194E+02 -0.76068137517E+02  0.63906388742E+03  0.65697280647E+03  0.12500173874E+03 0.  0.
          2    1    1    2  501    0  0.30961943704E+02 -0.18368765058E+02 -0.45634392404E+03  0.45776176172E+03  0.00000000000E+00 0. -1.
          1    1    1    2  502    0  0.11450554490E+02  0.94436902575E+02  0.89995073956E+03  0.90496451721E+03  0.00000000000E+00 0. -1.
         22    1    3    3    0    0 -0.53303460042E+01 -0.60932357424E+02  0.59209360084E+03  0.59524448500E+03  0.00000000000E+00 0.  1.
         22    1    3    3    0    0 -0.37082152190E+02 -0.15135780093E+02  0.46970286587E+02  0.61728321475E+02  0.00000000000E+00 0.  1.
</event>
<event>
 7    1  0.6370239E-006  0.4085913E+02  0.7818608E-02  0.1550355E+00
          2   -1    0    0  502    0  0.00000000000E+00  0.00000000000E+00  0.99580817997E+03  0.99580817997E+03  0.00000000000E+00 0. -1.
          1   -1    0    0  501    0 -0.00000000000E+00 -0.00000000000E+00 -0.26757896012E+03  0.26757896012E+03  0.00000000000E+00 0. -1.
         25    2    1    2    0    0  0.41853349536E+02  0.32690178139E+01 -0.37675952663E+02  0.13714525043E+03  0.12500781160E+03 0.  0.
          2    1    1    2  501    0 -0.28597866182E+02 -0.29785240283E+02 -0.17756664626E+03  0.18230444963E+03  0.00000000000E+00 0. -1.
          1    1    1    2  502    0 -0.13255483354E+02  0.26516222469E+02  0.94347181877E+03  0.94393744004E+03  0.00000000000E+00 0. -1.
         22    1    3    3    0    0  0.40553581801E+02  0.24852880748E+02 -0.78018280864E+02  0.91373468947E+02  0.00000000000E+00 0.  1.
         22    1    3    3    0    0  0.12997677349E+01 -0.21583862934E+02  0.40342328201E+02  0.45771781481E+02  0.00000000000E+00 0.  1.
</event>
<event>
 7    1  0.6370239E-006  0.1966522E+03  0.7818608E-02  0.1268270E+00
          2   -1    0    0  502    0  0.00000000000E+00  0.00000000000E+00  0.56349787725E+03  0.56349787725E+03  0.00000000000E+00 0. -1.
          1   -1    0    0  501    0 -0.00000000000E+00 -0.00000000000E+00 -0.21699461757E+03  0.21699461757E+03  0.00000000000E+00 0. -1.
         25    2    1    2    0    0 -0.16129196918E+03  0.15282890435E+03  0.18936401925E+03  0.31757382423E+03  0.12499051453E+03 0.  0.
          2    1    1    2  501    0  0.10472864996E+03 -0.16046486140E+03 -0.88261941050E+02  0.21096737213E+03  0.00000000000E+00 0. -1.
          1    1    1    2  502    0  0.56563319227E+02  0.76359570494E+01  0.24540118147E+03  0.25195129845E+03  0.00000000000E+00 0. -1.
         22    1    3    3    0    0 -0.54284660770E+02  0.13050095573E+03  0.13514424066E+03  0.19555380238E+03  0.00000000000E+00 0. -1.
         22    1    3    3    0    0 -0.10700730841E+03  0.22327948627E+02  0.54219778587E+02  0.12202002186E+03  0.00000000000E+00 0. -1.
</event>
<event>
 7    1  0.6370239E-006  0.5475795E+02  0.7818608E-02  0.1478264E+00
          2   -1    0    0  502    0  0.00000000000E+00  0.00000000000E+00  0.15347920057E+03  0.15347920057E+03  0.00000000000E+00 0. -1.
          1   -1    0    0  501    0 -0.00000000000E+00 -0.00000000000E+00 -0.56079415569E+03  0.56079415569E+03  0.00000000000E+00 0. -1.
         25    2    1    2    0    0 -0.26232885299E+02  0.67861447074E+02 -0.93801563854E+02  0.17238753110E+03  0.12500154889E+03 0.  0.
          2    1    1    2  501    0  0.41358238419E+02 -0.35231217920E+02 -0.42308680735E+03  0.42656088564E+03  0.00000000000E+00 0. -1.
          1    1    1    2  502    0 -0.15125353120E+02 -0.32630229154E+02  0.10957341609E+03  0.11532493952E+03  0.00000000000E+00 0. -1.
         22    1    3    3    0    0 -0.85054926468E+01  0.98120140964E+02 -0.36160660270E+02  0.10491662794E+03  0.00000000000E+00 0. -1.
         22    1    3    3    0    0 -0.17727392652E+02 -0.30258693890E+02 -0.57640903583E+02  0.67470903152E+02  0.00000000000E+00 0. -1.
</event>
<event>
 7    1  0.6370239E-006  0.2056971E+03  0.7818608E-02  0.1322537E+00
          2   -1    0    0  502    0  0.00000000000E+00  0.00000000000E+00  0.12196233436E+03  0.12196233436E+03  0.00000000000E+00 0. -1.
          1   -1    0    0  501    0 -0.00000000000E+00 -0.00000000000E+00 -0.19173133229E+04  0.19173133229E+04  0.00000000000E+00 0. -1.
         25    2    1    2    0    0  0.10874910457E+03 -0.19596858847E+03 -0.49147195079E+03  0.55443620225E+03  0.12499907417E+03 0.  0.
          2    1    1    2  501    0 -0.77234310354E+02  0.18631184802E+03 -0.13837832375E+04  0.13984038371E+04  0.00000000000E+00 0. -1.
          1    1    1    2  502    0 -0.31514794220E+02  0.96567404461E+01  0.79904199758E+02  0.86435617831E+02  0.00000000000E+00 0. -1.
         22    1    3    3    0    0  0.89530584852E+02 -0.20474876661E+03 -0.48199579700E+03  0.53127933460E+03  0.00000000000E+00 0.  1.
         22    1    3    3    0    0  0.19218519722E+02  0.87801781440E+01 -0.94761537898E+01  0.23156867647E+02  0.00000000000E+00 0.  1.
</event>
<event>
 7    1  0.6370239E-006  0.6293423E+02  0.7818608E-02  0.1466226E+00
          2   -1    0    0  502    0  0.00000000000E+00  0.00000000000E+00  0.26959300058E+02  0.26959300058E+02  0.00000000000E+00 0. -1.
          1   -1    0    0  501    0 -0.00000000000E+00 -0.00000000000E+00 -0.17361952422E+04  0.17361952422E+04  0.00000000000E+00 0. -1.
         25    2    1    2    0    0 -0.10833797126E+02 -0.44535352874E+02 -0.38032290960E+03  0.40295310157E+03  0.12499967074E+03 0.  0.
          2    1    1    2  501    0  0.27326141861E+02 -0.20400832485E+02 -0.12715337846E+04  0.12719909895E+04  0.00000000000E+00 0. -1.
          1    1    1    2  502    0 -0.16492344735E+02  0.64936185359E+02 -0.57379247946E+02  0.88210451187E+02  0.00000000000E+00 0. -1.
         22    1    3    3    0    0  0.12744763535E+02  0.40789862160E+02 -0.94002767139E+02  0.10326065118E+03  0.00000000000E+00 0.  1.
         22    1    3    3    0    0 -0.23578560661E+02 -0.85325215033E+02 -0.28632014246E+03  0.29969245039E+03  0.00000000000E+00 0.  1.
</event>
<event>
 7    1  0.6370239E-006  0.4643049E+02  0.7818608E-02  0.1518178E+00
          2   -1    0    0  502    0  0.00000000000E+00  0.00000000000E+00  0.93497643091E+03  0.93497643091E+03  0.00000000000E+00 0. -1.
          1   -1    0    0  501    0 -0.00000000000E+00 -0.00000000000E+00 -0.45046216563E+02  0.45046216563E+02  0.00000000000E+00 0. -1.
         25    2    1    2    0    0  0.44127130345E+02 -0.62078071963E+02  0.23774005339E+03  0.27918912455E+03  0.12500137451E+03 0.  0.
          2    1    1    2  501    0 -0.12274581081E+02  0.29788781060E+02 -0.12528850006E+02  0.34568900767E+02  0.00000000000E+00 0. -1.
          1    1    1    2  502    0 -0.31852549264E+02  0.32289290903E+02  0.66471901096E+03  0.66626462216E+03  0.00000000000E+00 0. -1.
         22    1    3    3    0    0 -0.65154256837E+01 -0.39242316709E+02  0.21584017928E+03  0.21947526782E+03  0.00000000000E+00 0. -1.
         22    1    3    3    0    0  0.50642556028E+02 -0.22835755254E+02  0.21899874104E+02  0.59713856724E+02  0.00000000000E+00 0. -1.
</event>
<event>
 7    1  0.6370239E-006  0.1027571E+03  0.7818608E-02  0.1301887E+00
          2   -1    0    0  502    0  0.00000000000E+00  0.00000000000E+00  0.13557398621E+04  0.13557398621E+04  0.00000000000E+00 0. -1.
          1   -1    0    0  501    0 -0.00000000000E+00 -0.00000000000E+00 -0.27973215670E+03  0.27973215670E+03  0.00000000000E+00 0. -1.
         25    2    1    2    0    0 -0.15429974890E+03 -0.16609651655E+02  0.20383777705E+03  0.28505889292E+03  0.12499776015E+03 0.  0.
          2    1    1    2  501    0  0.69804354093E+02 -0.38106096995E+02 -0.23015171350E+03  0.24350468929E+03  0.00000000000E+00 0. -1.
          1    1    1    2  502    0  0.84495394807E+02  0.54715748650E+02  0.11023216419E+04  0.11069084366E+04  0.00000000000E+00 0. -1.
         22    1    3    3    0    0 -0.18347466838E+02 -0.11698185587E+02  0.12693414152E+03  0.12878568775E+03  0.00000000000E+00 0. -1.
         22    1    3    3    0    0 -0.13595228206E+03 -0.49114660688E+01  0.76903635521E+02  0.15627320517E+03  0.00000000000E+00 0. -1.
</event>
<event>
 7    1  0.6370239E-006  0.7190176E+02  0.7818608E-02  0.1473583E+00
          2   -1    0    0  502    0  0.00000000000E+00  0.00000000000E+00  0.84771399762E+03  0.84771399762E+03  0.00000000000E+00 0. -1.
          1   -1    0    0  501    0 -0.00000000000E+00 -0.00000000000E+00 -0.25448178882E+04  0.25448178882E+04  0.00000000000E+00 0. -1.
         25    2    1    2    0    0  0.28353712824E+02  0.70290237859E+02  0.51271829796E+03  0.53314970156E+03  0.12499560248E+03 0.  0.
          2    1    1    2  501    0 -0.49830503574E+02 -0.51836328600E+02 -0.25334739544E+04  0.25344941037E+04  0.00000000000E+00 0. -1.
          1    1    1    2  502    0  0.21476790751E+02 -0.18453909259E+02  0.32365176589E+03  0.32488808053E+03  0.00000000000E+00 0. -1.
         22    1    3    3    0    0  0.62021872402E+02  0.19946833673E+01  0.14651834074E+03  0.15911730135E+03  0.00000000000E+00 0. -1.
         22    1    3    3    0    0 -0.33668159578E+02  0.68295554491E+02  0.36619995723E+03  0.37403240021E+03  0.00000000000E+00 0. -1.
</event>
<event>
 7    1  0.6370239E-006  0.5138037E+02  0.7818608E-02  0.1451400E+00
          2   -1    0    0  502    0  0.00000000000E+00  0.00000000000E+00  0.24454465590E+04  0.24454465590E+04  0.00000000000E+00 0. -1.
          1   -1    0    0  501    0 -0.00000000000E+00 -0.00000000000E+00 -0.97820104174E+02  0.97820104174E+02  0.00000000000E+00 0. -1.
         25    2    1    2    0    0 -0.55343284234E+02 -0.15465278171E+02  0.64510650680E+03  0.65961387510E+03  0.12500402061E+03 0.  0.
          2    1    1    2  501    0  0.21139298104E+02  0.47007974739E+02 -0.82905373529E+02  0.97621312086E+02  0.00000000000E+00 0. -1.
          1    1    1    2  502    0  0.34203986129E+02 -0.31542696568E+02  0.17854253216E+04  0.17860314760E+04  0.00000000000E+00 0. -1.
         22    1    3    3    0    0  0.33159284243E+02  0.21699412981E+02  0.14167305959E+03  0.14711104129E+03  0.00000000000E+00 0. -1.
         22    1    3    3    0    0 -0.88502568477E+02 -0.37164691151E+02  0.50343344721E+03  0.51250283381E+03  0.00000000000E+00 0. -1.
</event>
<event>
 7    1  0.6370239E-006  0.5833791E+02  0.7818608E-02  0.1441306E+00
          2   -1    0    0  502    0  0.00000000000E+00  0.00000000000E+00  0.37128847886E+02  0.37128847886E+02  0.00000000000E+00 0. -1.
          1   -1    0    0  501    0 -0.00000000000E+00 -0.00000000000E+00 -0.23349137815E+04  0.23349137815E+04  0.00000000000E+00 0. -1.
         25    2    1    2    0    0 -0.24778244747E+02  0.54247371748E+01 -0.12925757543E+03  0.18159256943E+03  0.12499980512E+03 0.  0.
          2    1    1    2  501    0 -0.12720775171E+02 -0.56934116651E+02 -0.20829130711E+04  0.20837298705E+04  0.00000000000E+00 0. -1.
          1    1    1    2  502    0  0.37499019918E+02  0.51509379476E+02 -0.85614287075E+02  0.10672018937E+03  0.00000000000E+00 0. -1.
         22    1    3    3    0    0  0.13667353964E+02  0.37626192188E+02 -0.12501006893E+03  0.13126326309E+03  0.00000000000E+00 0. -1.
         22    1    3    3    0    0 -0.38445598711E+02 -0.32201455013E+02 -0.42475065001E+01  0.50329306340E+02  0.00000000000E+00 0. -1.
</event>
<event>
 7    1  0.6370239E-006  0.4219986E+02  0.7818608E-02  0.1495922E+00
          2   -1    0    0  502    0  0.00000000000E+00  0.00000000000E+00  0.79128265308E+02  0.79128265308E+02  0.00000000000E+00 0. -1.
          1   -1    0    0  501    0 -0.00000000000E+00 -0.00000000000E+00 -0.47735446103E+03  0.47735446103E+03  0.00000000000E+00 0. -1.
         25    2    1    2    0    0  0.36356163893E+02  0.46076820689E+00 -0.10151181049E+03  0.16508106541E+03  0.12500051012E+03 0.  0.
          2    1    1    2  501    0 -0.18775127620E+02  0.37902438214E+02 -0.33304325175E+03  0.33571849484E+03  0.00000000000E+00 0. -1.
          1    1    1    2  502    0 -0.17581036273E+02 -0.38363206421E+02  0.36328866514E+02  0.55683166088E+02  0.00000000000E+00 0. -1.
         22    1    3    3    0    0 -0.71232798721E+01 -0.48890373515E+02 -0.83273152040E+02  0.96826791691E+02  0.00000000000E+00 0. -1.
         22    1    3    3    0    0  0.43479443765E+02  0.49351141722E+02 -0.18238658446E+02  0.68254273722E+02  0.00000000000E+00 0. -1.
</event>
<event>
 7    1  0.6370239E-006  0.3155549E+03  0.7818608E-02  0.1227483E+00
          2   -1    0    0  502    0  0.00000000000E+00  0.00000000000E+00  0.23115925676E+04  0.23115925676E+04  0.00000000000E+00 0. -1.
          1   -1    0    0  501    0 -0.00000000000E+00 -0.00000000000E+00 -0.36521182051E+03  0.36521182051E+03  0.00000000000E+00 0. -1.
         25    2    1    2    0    0  0.25751745864E+03 -0.23477048460E+03  0.11055761903E+04  0.11659139722E+04  0.12499702379E+03 0.  0.
          2    1    1    2  501    0 -0.35381270840E+02  0.40184989223E+02 -0.31420103422E+03  0.31873022698E+03  0.00000000000E+00 0. -1.
          1    1    1    2  502    0 -0.22213618780E+03  0.19458549538E+03  0.11550055910E+04  0.11921601890E+04  0.00000000000E+00 0. -1.
         22    1    3    3    0    0  0.11794815142E+03 -0.41995303768E+02  0.49513417436E+03  0.51071833977E+03  0.00000000000E+00 0. -1.
         22    1    3    3    0    0  0.13956930721E+03 -0.19277518083E+03  0.61044201595E+03  0.65519563239E+03  0.00000000000E+00 0. -1.
</event>
<event>
 7    1  0.6370239E-006  0.6919854E+02  0.7818608E-02  0.1446041E+00
          2   -1    0    0  502    0  0.00000000000E+00  0.00000000000E+00  0.54479109919E+03  0.54479109919E+03  0.00000000000E+00 0. -1.
          1   -1    0    0  501    0 -0.00000000000E+00 -0.00000000000E+00 -0.13734482633E+04  0.13734482633E+04  0.00000000000E+00 0. -1.
         25    2    1    2    0    0 -0.67525047647E+02  0.72714939010E+02 -0.27522333236E+03  0.31814873803E+03  0.12499456957E+03 0.  0.
          2    1    1    2  501    0  0.55604195148E+02 -0.38808436603E+02 -0.10750757311E+04  0.10772120260E+04  0.00000000000E+00 0. -1.
          1    1    1    2  502    0  0.11920852499E+02 -0.33906502407E+02  0.52164189934E+03  0.52287859851E+03  0.00000000000E+00 0. -1.
         22    1    3    3    0    0  0.22905361768E+02 -0.28756055629E+01 -0.12547403293E+03  0.12758000488E+03  0.00000000000E+00 0.  1.
         22    1    3    3    0    0 -0.90430409415E+02  0.75590544573E+02 -0.14974929942E+03  0.19056873315E+03  0.00000000000E+00 0.  1.
</event>
<event>
 7    1  0.6370239E-006  0.7716926E+02  0.7818608E-02  0.1504729E+00
          2   -1    0    0  502    0  0.00000000000E+00  0.00000000000E+00  0.29029365209E+02  0.29029365209E+02  0.00000000000E+00 0. -1.
          1   -1    0    0  501    0 -0.00000000000E+00 -0.00000000000E+00 -0.25444637677E+04  0.25444637677E+04  0.00000000000E+00 0. -1.
         25    2    1    2    0    0 -0.29492502309E+02  0.92783975070E+02 -0.12627906864E+04  0.12726920433E+04  0.12500418253E+03 0.  0.
          2    1    1    2  501    0  0.48687922876E+01 -0.20665504023E+02 -0.12161007431E+04  0.12162860624E+04  0.00000000000E+00 0. -1.
          1    1    1    2  502    0  0.24623710021E+02 -0.72118471048E+02 -0.36542973066E+02  0.84515027314E+02  0.00000000000E+00 0. -1.
         22    1    3    3    0    0  0.45927436358E+02  0.58497574096E+02 -0.67672842837E+03  0.68080295340E+03  0.00000000000E+00 0. -1.
         22    1    3    3    0    0 -0.75419938666E+02  0.34286400974E+02 -0.58606225801E+03  0.59188908987E+03  0.00000000000E+00 0. -1.
</event>
<event>
 7    1  0.6370239E-006  0.1173228E+03  0.7818608E-02  0.1313882E+00
          2   -1    0    0  502    0  0.00000000000E+00  0.00000000000E+00  0.29686291645E+03  0.29686291645E+03  0.00000000000E+00 0. -1.
          1   -1    0    0  501    0 -0.00000000000E+00 -0.00000000000E+00 -0.12182925583E+04  0.12182925583E+04  0.00000000000E+00 0. -1.
         25    2    1    2    0    0 -0.10604401169E+03  0.35814911159E+02 -0.37784750790E+03  0.41342261642E+03  0.12498592026E+03 0.  0.
          2    1    1    2  501    0  0.79605725891E+02 -0.92390669440E+02 -0.81456679935E+03  0.82364566289E+03  0.00000000000E+00 0. -1.
          1    1    1    2  502    0  0.26438285798E+02  0.56575758281E+02  0.27098466541E+03  0.27808719544E+03  0.00000000000E+00 0. -1.
         22    1    3    3    0    0 -0.77100752472E+02 -0.39355269262E+02 -0.17730624447E+03  0.19730906614E+03  0.00000000000E+00 0. -1.
         22    1    3    3    0    0 -0.28943259217E+02  0.75170180421E+02 -0.20054126342E+03  0.21611355028E+03  0.00000000000E+00 0. -1.
</event>
<event>
 7    1  0.6370239E-006  0.9156960E+02  0.7818608E-02  0.1311774E+00
          2   -1    0    0  502    0  0.00000000000E+00  0.00000000000E+00  0.77270576727E+03  0.77270576727E+03  0.00000000000E+00 0. -1.
          1   -1    0    0  501    0 -0.00000000000E+00 -0.00000000000E+00 -0.12953690955E+03  0.12953690955E+03  0.00000000000E+00 0. -1.
         25    2    1    2    0    0 -0.23190305543E+02  0.92112493311E+01  0.38305508796E+02  0.13309712956E+03  0.12499958603E+03 0.  0.
          2    1    1    2  501    0  0.10248933236E+03  0.36578007036E+02 -0.41397788775E+02  0.11642933806E+03  0.00000000000E+00 0. -1.
          1    1    1    2  502    0 -0.79299026817E+02 -0.45789256367E+02  0.64626113770E+03  0.65271620920E+03  0.00000000000E+00 0. -1.
         22    1    3    3    0    0 -0.37737230641E+02  0.58354515020E+02  0.64429733875E+00  0.69496497169E+02  0.00000000000E+00 0.  1.
         22    1    3    3    0    0  0.14546925098E+02 -0.49143265689E+02  0.37661211457E+02  0.63600632393E+02  0.00000000000E+00 0.  1.
</event>
<event>
 7    1  0.6370239E-006  0.2347264E+02  0.7818608E-02  0.1706480E+00
          2   -1    0    0  502    0  0.00000000000E+00  0.00000000000E+00  0.19906609498E+04  0.19906609498E+04  0.00000000000E+00 0. -1.
          1   -1    0    0  501    0 -0.00000000000E+00 -0.00000000000E+00 -0.14254357015E+04  0.14254357015E+04  0.00000000000E+00 0. -1.
         25    2    1    2    0    0 -0.81408306588E+01  0.23818177322E+02  0.38996532924E+03  0.41028307121E+03  0.12500264725E+03 0.  0.
          2    1    1    2  501    0 -0.13879584600E+02 -0.15509194136E+02 -0.14151132356E+04  0.14152662815E+04  0.00000000000E+00 0. -1.
          1    1    1    2  502    0  0.22020415259E+02 -0.83089831859E+01  0.15903731547E+04  0.15905472986E+04  0.00000000000E+00 0. -1.
         22    1    3    3    0    0  0.20836282992E+02  0.28309127982E+02  0.37628950243E+03  0.37792770083E+03  0.00000000000E+00 0. -1.
         22    1    3    3    0    0 -0.28977113651E+02 -0.44909506601E+01  0.13675826805E+02  0.32355370376E+02  0.00000000000E+00 0. -1.
</event>
<event>
 7    1  0.6370239E-006  0.1230348E+03  0.7818608E-02  0.1316520E+00
          2   -1    0    0  502    0  0.00000000000E+00  0.00000000000E+00  0.14552897704E+04  0.14552897704E+04  0.00000000000E+00 0. -1.
          1   -1    0    0  501    0 -0.00000000000E+00 -0.00000000000E+00 -0.91910792612E+03  0.91910792612E+03  0.00000000000E+00 0. -1.
         25    2    1    2    0    0 -0.40332359693E+02  0.85794082821E+02  0.19041687082E+03  0.24671980016E+03  0.12499900485E+03 0.  0.
          2    1    1    2  501    0  0.40725259322E+02  0.41510427737E+02 -0.88672542617E+03  0.88863020642E+03  0.00000000000E+00 0. -1.
          1    1    1    2  502    0 -0.39289962929E+00 -0.12730451056E+03  0.12324903996E+04  0.12390476899E+04  0.00000000000E+00 0. -1.
         22    1    3    3    0    0 -0.78022424661E+02  0.78310643573E+02  0.17112039811E+03  0.20372100111E+03  0.00000000000E+00 0.  1.
         22    1    3    3    0    0  0.37690064969E+02  0.74834392483E+01  0.19296472717E+02  0.42998799049E+02  0.00000000000E+00 0.  1.
</event>
<event>
 7    1  0.6370239E-006  0.1924213E+03  0.7818608E-02  0.1291400E+00
          2   -1    0    0  502    0  0.00000000000E+00  0.00000000000E+00  0.13944832526E+04  0.13944832526E+04  0.00000000000E+00 0. -1.
          1   -1    0    0  501    0 -0.00000000000E+00 -0.00000000000E+00 -0.12791700130E+04  0.12791700130E+04  0.00000000000E+00 0. -1.
         25    2    1    2    0    0 -0.20085984999E+03 -0.79500369265E+02  0.35299538965E+02  0.25206371747E+03  0.12500028864E+03 0.  0.
          2    1    1    2  501    0  0.18822497737E+03  0.34433847133E+02 -0.11625260698E+04  0.11781685766E+04  0.00000000000E+00 0. -1.
          1    1    1    2  502    0  0.12634872621E+02  0.45066522132E+02  0.12425397704E+04  0.12434209715E+04  0.00000000000E+00 0. -1.
         22    1    3    3    0    0 -0.19565181233E+03 -0.67643023291E+02  0.67188463040E+02  0.21764535335E+03  0.00000000000E+00 0. -1.
         22    1    3    3    0    0 -0.52080376554E+01 -0.11857345974E+02 -0.31888924075E+02  0.34418364116E+02  0.00000000000E+00 0. -1.
</event>
<event>
 7    1  0.6370239E-006  0.1465362E+03  0.7818608E-02  0.1344476E+00
          2   -1    0    0  502    0  0.00000000000E+00  0.00000000000E+00  0.48598290802E+03  0.48598290802E+03  0.00000000000E+00 0. -1.
          1   -1    0    0  501    0 -0.00000000000E+00 -0.00000000000E+00 -0.56516146051E+03  0.56516146051E+03  0.00000000000E+00 0. -1.
         25    2    1    2    0    0  0.12652954834E+03  0.10976270562E+02 -0.44828591452E+02  0.18375186133E+03  0.12499975525E+03 0.  0.
          2    1    1    2  501    0  0.15394203943E+02  0.34946618444E+02 -0.43665573784E+03  0.43832234832E+03  0.00000000000E+00 0. -1.
          1    1    1    2  502    0 -0.14192375228E+03 -0.45922889006E+02  0.40230577680E+03  0.42907015888E+03  0.00000000000E+00 0. -1.
         22    1    3    3    0    0  0.65740680839E+01 -0.42927226579E+02  0.36735902439E+01  0.43582799568E+02  0.00000000000E+00 0. -1.
         22    1    3    3    0    0  0.11995548025E+03  0.53903497141E+02 -0.48502181696E+02  0.14016906176E+03  0.00000000000E+00 0. -1.
</event>
<event>
 7    1  0.6370239E-006  0.1164794E+03  0.7818608E-02  0.1358895E+00
          2   -1    0    0  502    0  0.00000000000E+00  0.00000000000E+00  0.33528581883E+03  0.33528581883E+03  0.00000000000E+00 0. -1.
          1   -1    0    0  501    0 -0.00000000000E+00 -0.00000000000E+00 -0.13051053133E+04  0.13051053133E+04  0.00000000000E+00 0. -1.
         25    2    1    2    0    0  0.98546645905E+02  0.51745861415E+02 -0.28251270318E+03  0.32836825781E+03  0.12499283854E+03 0.  0.
          2    1    1    2  501    0  0.17646857703E+02 -0.38655791726E+02 -0.98824944206E+03  0.98916259611E+03  0.00000000000E+00 0. -1.
          1    1    1    2  502    0 -0.11619350361E+03 -0.13090069688E+02  0.30094265076E+03  0.32286027821E+03  0.00000000000E+00 0. -1.
         22    1    3    3    0    0  0.93219076007E+02 -0.45821213400E+01 -0.24026549756E+03  0.25775628273E+03  0.00000000000E+00 0.  1.
         22    1    3    3    0    0  0.53275698978E+01  0.56327982755E+02 -0.42247205618E+02  0.70611975080E+02  0.00000000000E+00 0.  1.
</event>
<event>
 7    1  0.6370239E-006  0.1194087E+03  0.7818608E-02  0.1388910E+00
          2   -1    0    0  502    0  0.00000000000E+00  0.00000000000E+00  0.34239522402E+03  0.34239522402E+03  0.00000000000E+00 0. -1.
          1   -1    0    0  501    0 -0.00000000000E+00 -0.00000000000E+00 -0.12555635900E+04  0.12555635900E+04  0.00000000000E+00 0. -1.
         25    2    1    2    0    0 -0.31965855892E+02  0.83646497960E+02  0.12820733091E+02  0.15429281636E+03  0.12499339751E+03 0.  0.
          2    1    1    2  501    0  0.53061289940E+02 -0.10820873994E+03 -0.11807355140E+04  0.11868702481E+04  0.00000000000E+00 0. -1.
          1    1    1    2  502    0 -0.21095434048E+02  0.24562241979E+02  0.25474641492E+03  0.25679574954E+03  0.00000000000E+00 0. -1.
         22    1    3    3    0    0  0.18983794170E+02  0.95731723023E+02 -0.80415302630E+01  0.97926571690E+02  0.00000000000E+00 0.  1.
         22    1    3    3    0    0 -0.50949650062E+02 -0.12085225062E+02  0.20862263354E+02  0.56366244673E+02  0.00000000000E+00 0.  1.
</event>
<event>
 7    1  0.6370239E-006  0.4461132E+02  0.7818608E-02  0.1527250E+00
          2   -1    0    0  502    0  0.00000000000E+00  0.00000000000E+00  0.36078939709E+03  0.36078939709E+03  0.00000000000E+00 0. -1.
          1   -1    0    0  501    0 -0.00000000000E+00 -0.00000000000E+00 -0.99678237286E+02  0.99678237286E+02  0.00000000000E+00 0. -1.
         25    2    1    2    0    0 -0.66012795958E+02  0.28578321562E+02  0.15793522985E+03  0.21387955755E+03  0.12500607432E+03 0.  0.
          2    1    1    2  501    0  0.34496374709E+02 -0.26812490656E+02 -0.63428312909E+02  0.77019870175E+02  0.00000000000E+00 0. -1.
          1    1    1    2  502    0  0.31516421249E+02 -0.17658309056E+01  0.16660424287E+03  0.16956820666E+03  0.00000000000E+00 0. -1.
         22    1    3    3    0    0  0.27176411423E+02 -0.18846242934E+02  0.69369423914E+02  0.76849562034E+02  0.00000000000E+00 0. -1.
         22    1    3    3    0    0 -0.93189207381E+02  0.47424564495E+02  0.88565805934E+02  0.13702999551E+03  0.00000000000E+00 0. -1.
</event>
<event>
 7    1  0.6370239E-006  0.5241060E+02  0.7818608E-02  0.1474712E+00
          2   -1    0    0  502    0  0.00000000000E+00  0.00000000000E+00  0.74281337578E+03  0.74281337578E+03  0.00000000000E+00 0. -1.
          1   -1    0    0  501    0 -0.00000000000E+00 -0.00000000000E+00 -0.19460384158E+04  0.19460384158E+04  0.00000000000E+00 0. -1.
         25    2    1    2    0    0 -0.28940498611E+02  0.83340161941E+02  0.24869311471E+03  0.29198261318E+03  0.12498978376E+03 0.  0.
          2    1    1    2  501    0  0.79748285072E+01 -0.37701239422E+02 -0.19228653618E+04  0.19232514607E+04  0.00000000000E+00 0. -1.
          1    1    1    2  502    0  0.20965670104E+02 -0.45638922520E+02  0.47094720714E+03  0.47361771766E+03  0.00000000000E+00 0. -1.
         22    1    3    3    0    0 -0.43248745717E+01  0.11371918722E+03  0.18072246147E+03  0.21356817685E+03  0.00000000000E+00 0. -1.
         22    1    3    3    0    0 -0.24615624040E+02 -0.30379025279E+02  0.67970653239E+02  0.78414436334E+02  0.00000000000E+00 0. -1.
</event>
<event>
 7    1  0.6370239E-006  0.8772670E+02  0.7818608E-02  0.1421471E+00
          2   -1    0    0  502    0  0.00000000000E+00  0.00000000000E+00  0.40539002536E+03  0.40539002536E+03  0.00000000000E+00 0. -1.
          1   -1    0    0  501    0 -0.00000000000E+00 -0.00000000000E+00 -0.21281338346E+03  0.21281338346E+03  0.00000000000E+00 0. -1.
         25    2    1    2    0    0 -0.59227463952E+02 -0.17093214297E+02 -0.12115507184E+03  0.18467286300E+03  0.12500177773E+03 0.  0.
          2    1    1    2  501    0 -0.15816660186E+02 -0.30233214052E+02 -0.49221369725E+02  0.59891211450E+02  0.00000000000E+00 0. -1.
          1    1    1    2  502    0  0.75044124138E+02  0.47326428349E+02  0.36295308346E+03  0.37363933436E+03  0.00000000000E+00 0. -1.
         22    1    3    3    0    0 -0.54211640789E+02 -0.67239361236E+02 -0.58745873996E+02  0.10445626553E+03  0.00000000000E+00 0.  1.
         22    1    3    3    0    0 -0.50158231628E+01  0.50146146939E+02 -0.62409197844E+02  0.80216597474E+02  0.00000000000E+00 0.  1.
</event>
<event>
 7    1  0.6370239E-006  0.7005807E+02  0.7818608E-02  0.1516288E+00
          2   -1    0    0  502    0  0.00000000000E+00  0.00000000000E+00  0.79674088432E+02  0.79674088432E+02  0.00000000000E+00 0. -1.
          1   -1    0    0  501    0 -0.00000000000E+00 -0.00000000000E+00 -0.45793462165E+03  0.45793462165E+03  0.00000000000E+00 0. -1.
         25    2    1    2    0    0 -0.56930647703E+02 -0.46185554232E+02 -0.22484542723E+03  0.26749695766E+03  0.12499980856E+03 0.  0.
          2    1    1    2  501    0  0.64825955732E+02  0.26053127354E+02 -0.20371382332E+03  0.21536130524E+03  0.00000000000E+00 0. -1.
          1    1    1    2  502    0 -0.78953080291E+01  0.20132426878E+02  0.50298717340E+02  0.54750447184E+02  0.00000000000E+00 0. -1.
         22    1    3    3    0    0 -0.68327949122E+02 -0.54562716827E+01 -0.43268670704E+02  0.81059591637E+02  0.00000000000E+00 0. -1.
         22    1    3    3    0    0  0.11397301419E+02 -0.40729282549E+02 -0.18157675653E+03  0.18643736602E+03  0.00000000000E+00 0. -1.
</event>
<event>
 7    1  0.6370239E-006  0.4273540E+03  0.7818608E-02  0.1118530E+00
          2   -1    0    0  502    0  0.00000000000E+00  0.00000000000E+00  0.17089662505E+04  0.17089662505E+04  0.00000000000E+00 0. -1.
          1   -1    0    0  501    0 -0.00000000000E+00 -0.00000000000E+00 -0.33647451690E+04  0.33647451690E+04  0.00000000000E+00 0. -1.
         25    2    1    2    0    0 -0.44480263565E+03  0.31840140731E+03 -0.98991815839E+02  0.56978343486E+03  0.12499976873E+03 0.  0.
          2    1    1    2  501    0  0.36586563973E+03 -0.20651128777E+03 -0.30125678151E+04  0.30417214565E+04  0.00000000000E+00 0. -1.
          1    1    1    2  502    0  0.78936995912E+02 -0.11189011954E+03  0.14557807125E+04  0.14622065282E+04  0.00000000000E+00 0. -1.
         22    1    3    3    0    0 -0.11193550861E+03  0.58628504043E+02  0.26876859078E+02  0.12918678388E+03  0.00000000000E+00 0. -1.
         22    1    3    3    0    0 -0.33286712703E+03  0.25977290327E+03 -0.12586867492E+03  0.44059665098E+03  0.00000000000E+00 0. -1.
</event>
<event>
 7    1  0.6370239E-006  0.2408944E+03  0.7818608E-02  0.1347965E+00
          2   -1    0    0  502    0  0.00000000000E+00  0.00000000000E+00  0.23136198415E+04  0.23136198415E+04  0.00000000000E+00 0. -1.
          1   -1    0    0  501    0 -0.00000000000E+00 -0.00000000000E+00 -0.15058332047E+04  0.15058332047E+04  0.00000000000E+00 0. -1.
         25    2    1    2    0    0  0.50161165133E+02  0.25160464329E+03 -0.23953850432E+03  0.37259203673E+03  0.12500036706E+03 0.  0.
          2    1    1    2  501    0 -0.18314360993E+02 -0.13146112395E+02 -0.11932220922E+04  0.11934350412E+04  0.00000000000E+00 0. -1.
          1    1    1    2  502    0 -0.31846804141E+02 -0.23845853090E+03  0.22405472333E+04  0.22534259683E+04  0.00000000000E+00 0. -1.
         22    1    3    3    0    0  0.54863091121E+01  0.15299523887E+03 -0.63096749002E+02  0.16558635946E+03  0.00000000000E+00 0.  1.
         22    1    3    3    0    0  0.44674856021E+02  0.98609404429E+02 -0.17644175532E+03  0.20700567727E+03  0.00000000000E+00 0.  1.
</event>
<event>
 7    1  0.6370239E-006  0.5862037E+02  0.7818608E-02  0.1462674E+00
          2   -1    0    0  502    0  0.00000000000E+00  0.00000000000E+00  0.69611206213E+03  0.69611206213E+03  0.00000000000E+00 0. -1.
          1   -1    0    0  501    0 -0.00000000000E+00 -0.00000000000E+00 -0.45051439023E+03  0.45051439023E+03  0.00000000000E+00 0. -1.
         25    2    1    2    0    0 -0.33157162949E+02 -0.44823888439E+01 -0.41999663486E+02  0.13604585636E+03  0.12500005614E+03 0.  0.
          2    1    1    2  501    0 -0.18895987557E+02  0.32462931515E+02 -0.35916506681E+03  0.36112386446E+03  0.00000000000E+00 0. -1.
          1    1    1    2  502    0  0.52053150507E+02 -0.27980542671E+02  0.64676240220E+03  0.64945673154E+03  0.00000000000E+00 0. -1.
         22    1    3    3    0    0 -0.33907687318E+02  0.14566268790E+02 -0.82997715880E+02  0.90832418701E+02  0.00000000000E+00 0. -1.
         22    1    3    3    0    0  0.75052436832E+00 -0.19048657634E+02  0.40998052394E+02  0.45213437655E+02  0.00000000000E+00 0. -1.
</event>
<event>
 7    1  0.6370239E-006  0.1283953E+03  0.7818608E-02  0.1312804E+00
          2   -1    0    0  502    0  0.00000000000E+00  0.00000000000E+00  0.35655416394E+03  0.35655416394E+03  0.00000000000E+00 0. -1.
          1   -1    0    0  501    0 -0.00000000000E+00 -0.00000000000E+00 -0.12292036087E+04  0.12292036087E+04  0.00000000000E+00 0. -1.
         25    2    1    2    0    0 -0.13031293163E+03 -0.11364949293E+03 -0.52076090084E+02  0.21962426672E+03  0.12500092791E+03 0.  0.
          2    1    1    2  501    0  0.21867970767E+02  0.53310114063E+02 -0.10784294009E+04  0.10799676611E+04  0.00000000000E+00 0. -1.
          1    1    1    2  502    0  0.10844496086E+03  0.60339378870E+02  0.25785604618E+03  0.28616584480E+03  0.00000000000E+00 0. -1.
         22    1    3    3    0    0 -0.51500690368E+02  0.60299877608E+01  0.24275846572E+02  0.57253808498E+02  0.00000000000E+00 0.  1.
         22    1    3    3    0    0 -0.78812241263E+02 -0.11967948069E+03 -0.76351936656E+02  0.16237045822E+03  0.00000000000E+00 0.  1.
</event>
<event>
 7    1  0.6370239E-006  0.1430803E+03  0.7818608E-02  0.1228466E+00
          2   -1    0    0  502    0  0.00000000000E+00  0.00000000000E+00  0.17351558048E+03  0.17351558048E+03  0.00000000000E+00 0. -1.
          1   -1    0    0  501    0 -0.00000000000E+00 -0.00000000000E+00 -0.19172301708E+04  0.19172301708E+04  0.00000000000E+00 0. -1.
         25    2    1    2    0    0  0.14488514777E+03 -0.16071174909E+03 -0.72467444934E+03  0.76654777947E+03  0.12498987293E+03 0.  0.
          2    1    1    2  501    0 -0.11042731330E+02  0.11636237849E+03 -0.11353909576E+04  0.11413915944E+04  0.00000000000E+00 0. -1.
          1    1    1    2  502    0 -0.13384241644E+03  0.44349370596E+02  0.11635081662E+03  0.18280637746E+03  0.00000000000E+00 0. -1.
         22    1    3    3    0    0  0.16216307679E+03 -0.12140620427E+03 -0.64469902957E+03  0.67577597519E+03  0.00000000000E+00 0. -1.
         22    1    3    3    0    0 -0.17277929017E+02 -0.39305544820E+02 -0.79975419769E+02  0.90771804278E+02  0.00000000000E+00 0. -1.
</event>
<event>
 7    1  0.6370239E-006  0.2400475E+03  0.7818608E-02  0.1182981E+00
          2   -1    0    0  502    0  0.00000000000E+00  0.00000000000E+00  0.23459092272E+04  0.23459092272E+04  0.00000000000E+00 0. -1.
          1   -1    0    0  501    0 -0.00000000000E+00 -0.00000000000E+00 -0.34354249681E+03  0.34354249681E+03  0.00000000000E+00 0. -1.
         25    2    1    2    0    0  0.17644073628E+03 -0.13390420158E+03  0.18052356397E+03  0.31189311318E+03  0.12500755289E+03 0.  0.
          2    1    1    2  501    0 -0.72509660678E+02 -0.87511712327E+02 -0.25876522322E+03  0.28262234773E+03  0.00000000000E+00 0. -1.
          1    1    1    2  502    0 -0.10393107561E+03  0.22141591391E+03  0.20806083896E+04  0.20949362631E+04  0.00000000000E+00 0. -1.
         22    1    3    3    0    0  0.90806245908E+02  0.52109457636E+01  0.62497394192E+02  0.11035783856E+03  0.00000000000E+00 0.  1.
         22    1    3    3    0    0  0.85634490376E+02 -0.13911514735E+03  0.11802616978E+03  0.20153527462E+03  0.00000000000E+00 0.  1.
</event>
<event>
 7    1  0.6370239E-006  0.8027633E+02  0.7818608E-02  0.1403984E+00
          2   -1    0    0  502    0  0.00000000000E+00  0.00000000000E+00  0.81152790058E+01  0.81152790058E+01  0.00000000000E+00 0. -1.
          1   -1    0    0  501    0 -0.00000000000E+00 -0.00000000000E+00 -0.30390986534E+04  0.30390986534E+04  0.00000000000E+00 0. -1.
         25    2    1    2    0    0 -0.62966730319E+02  0.41404653550E+02 -0.13957442630E+04  0.14033548873E+04  0.12499494936E+03 0.  0.
          2    1    1    2  501    0 -0.21417433958E+02 -0.36958355644E+02 -0.11843507900E+04  0.11851208463E+04  0.00000000000E+00 0. -1.
          1    1    1    2  502    0  0.84384164277E+02 -0.44462979059E+01 -0.45088832137E+03  0.45873819887E+03  0.00000000000E+00 0. -1.
         22    1    3    3    0    0 -0.58335479341E+02 -0.12489858284E+02 -0.27926738465E+03  0.28556837507E+03  0.00000000000E+00 0.  1.
         22    1    3    3    0    0 -0.46312509782E+01  0.53894511834E+02 -0.11164768784E+04  0.11177865122E+04  0.00000000000E+00 0.  1.
</event>
<event>
 7    1  0.6370239E-006  0.6123421E+02  0.7818608E-02  0.1397090E+00
          2   -1    0    0  502    0  0.00000000000E+00  0.00000000000E+00  0.18183812484E+04  0.18183812484E+04  0.00000000000E+00 0. -1.
          1   -1    0    0  501    0 -0.00000000000E+00 -0.00000000000E+00 -0.46184459328E+02  0.46184459328E+02  0.00000000000E+00 0. -1.
         25    2    1    2    0    0  0.23390359853E+02  0.26517323213E+02  0.54188614203E+03  0.55723893999E+03  0.12499747177E+03 0.  0.
          2    1    1    2  501    0  0.36528419479E+02 -0.49145735621E+02 -0.12807873695E+02  0.62559334939E+02  0.00000000000E+00 0. -1.
          1    1    1    2  502    0 -0.59918779332E+02  0.22628412409E+02  0.12431185207E+04  0.12447674328E+04  0.00000000000E+00 0. -1.
         22    1    3    3    0    0  0.42006729747E+02  0.69132719409E+02  0.39378747304E+03  0.40201053737E+03  0.00000000000E+00 0. -1.
         22    1    3    3    0    0 -0.18616369894E+02 -0.42615396197E+02  0.14809866899E+03  0.15522840262E+03  0.00000000000E+00 0. -1.
</event>
<event>
 7    1  0.6370239E-006  0.9290168E+02  0.7818608E-02  0.1448208E+00
          2   -1    0    0  502    0  0.00000000000E+00  0.00000000000E+00  0.26255254806E+03  0.26255254806E+03  0.00000000000E+00 0. -1.
          1   -1    0    0  501    0 -0.00000000000E+00 -0.00000000000E+00 -0.66154322223E+03  0.66154322223E+03  0.00000000000E+00 0. -1.
         25    2    1    2    0    0  0.53971985621E+02 -0.97807409945E+02 -0.27312372483E+03  0.32047032136E+03  0.12500157253E+03 0.  0.
          2    1    1    2  501    0 -0.52613600821E+02  0.71497186975E+02 -0.35859090551E+03  0.36941504606E+03  0.00000000000E+00 0. -1.
          1    1    1    2  502    0 -0.13583848001E+01  0.26310222971E+02  0.23272395617E+03  0.23421040288E+03  0.00000000000E+00 0. -1.
         22    1    3    3    0    0 -0.21762784282E+02 -0.70549958250E+02 -0.69015717859E+02  0.10106475499E+03  0.00000000000E+00 0. -1.
         22    1    3    3    0    0  0.75734769902E+02 -0.27257451695E+02 -0.20410800697E+03  0.21940556637E+03  0.00000000000E+00 0. -1.
</event>
<event>
 7    1  0.7207703E-006  0.6418325E+02  0.7818608E-02  0.1403830E+00
          2   -1    0    0  502    0  0.00000000000E+00  0.00000000000E+00  0.16001188562E+04  0.16001188562E+04  0.00000000000E+00 0. -1.
          1   -1    0    0  501    0 -0.00000000000E+00 -0.00000000000E+00 -0.10813170888E+04  0.10813170888E+04  0.00000000000E+00 0. -1.
         25    2    1    2    0    0  0.40624543973E+02 -0.53719284552E+02 -0.15257252602E+03  0.20842115005E+03  0.12499953995E+03 0.  0.
          2    1    1    2  501    0 -0.64667834494E+02  0.59366532108E+01 -0.89919397098E+03  0.90153589508E+03  0.00000000000E+00 0. -1.
          1    1    1    2  502    0  0.24043290522E+02  0.47782631341E+02  0.15705682644E+04  0.15714788999E+04  0.00000000000E+00 0. -1.
         22    1    3    3    0    0  0.38947401308E+02 -0.92393363448E+02 -0.12789742202E+03  0.16251518156E+03  0.00000000000E+00 0. -1.
         22    1    3    3    0    0  0.16771426650E+01  0.38674078896E+02 -0.24675104000E+02  0.45905968494E+02  0.00000000000E+00 0. -1.
</event>
<event>
 7    1  0.6370239E-006  0.1036456E+03  0.7818608E-02  0.1295957E+00
          2   -1    0    0  502    0  0.00000000000E+00  0.00000000000E+00  0.21585442665E+04  0.21585442665E+04  0.00000000000E+00 0. -1.
          1   -1    0    0  501    0 -0.00000000000E+00 -0.00000000000E+00 -0.11724517571E+03  0.11724517571E+03  0.00000000000E+00 0. -1.
         25    2    1    2    0    0 -0.10552708813E+03  0.95908102615E+02  0.59548707031E+02  0.19875175483E+03  0.12498752363E+03 0.  0.
          2    1    1    2  501    0  0.94137986106E+02 -0.13406430210E+02  0.15640106872E+01  0.95100677855E+02  0.00000000000E+00 0. -1.
          1    1    1    2  502    0  0.11389102026E+02 -0.82501672405E+02  0.19801863730E+04  0.19819370095E+04  0.00000000000E+00 0. -1.
         22    1    3    3    0    0 -0.66386945280E+02 -0.18276933552E+02  0.19284367517E+02  0.71506360795E+02  0.00000000000E+00 0. -1.
         22    1    3    3    0    0 -0.39140142852E+02  0.11418503617E+03  0.40264339514E+02  0.12724539404E+03  0.00000000000E+00 0. -1.
</event>
<event>
 7    1  0.6370239E-006  0.1609466E+03  0.7818608E-02  0.1290063E+00
          2   -1    0    0  502    0  0.00000000000E+00  0.00000000000E+00  0.18957446635E+04  0.18957446635E+04  0.00000000000E+00 0. -1.
          1   -1    0    0  501    0 -0.00000000000E+00 -0.00000000000E+00 -0.16108886721E+04  0.16108886721E+04  0.00000000000E+00 0. -1.
         25    2    1    2    0    0  0.20040215426E+03 -0.51262258897E+01 -0.46347081771E+02  0.24075577549E+03  0.12501195871E+03 0.  0.
          2    1    1    2  501    0 -0.15465399354E+03  0.38556819252E+02 -0.14625602509E+04  0.14712195532E+04  0.00000000000E+00 0. -1.
          1    1    1    2  502    0 -0.45748160720E+02 -0.33430593363E+02  0.17937633241E+04  0.17946580069E+04  0.00000000000E+00 0. -1.
         22    1    3    3    0    0  0.27968104274E+01 -0.23573957220E+02  0.20469317923E+02  0.31345599113E+02  0.00000000000E+00 0. -1.
         22    1    3    3    0    0  0.19760534383E+03  0.18447731330E+02 -0.66816399694E+02  0.20941017637E+03  0.00000000000E+00 0. -1.
</event>
<event>
 7    1  0.6370239E-006  0.8173584E+02  0.7818608E-02  0.1473308E+00
          2   -1    0    0  502    0  0.00000000000E+00  0.00000000000E+00  0.33996112005E+03  0.33996112005E+03  0.00000000000E+00 0. -1.
          1   -1    0    0  501    0 -0.00000000000E+00 -0.00000000000E+00 -0.80923883111E+03  0.80923883111E+03  0.00000000000E+00 0. -1.
         25    2    1    2    0    0 -0.81630171280E+02 -0.58965155917E+02  0.13489925853E+02  0.16108035318E+03  0.12499811041E+03 0.  0.
          2    1    1    2  501    0  0.56682112546E+02  0.58261709907E+02 -0.73257385952E+03  0.73706970388E+03  0.00000000000E+00 0. -1.
          1    1    1    2  502    0  0.24948058734E+02  0.70344601016E+00  0.24980622261E+03  0.25104989409E+03  0.00000000000E+00 0. -1.
         22    1    3    3    0    0 -0.24461311264E+02  0.37190830936E+02  0.20470896519E+02  0.48995624894E+02  0.00000000000E+00 0.  1.
         22    1    3    3    0    0 -0.57168860016E+02 -0.96155986853E+02 -0.69809706661E+01  0.11208472828E+03  0.00000000000E+00 0.  1.
</event>
<event>
 7    1  0.6370239E-006  0.2234859E+03  0.7818608E-02  0.1289461E+00
          2   -1    0    0  502    0  0.00000000000E+00  0.00000000000E+00  0.10383951459E+04  0.10383951459E+04  0.00000000000E+00 0. -1.
          1   -1    0    0  501    0 -0.00000000000E+00 -0.00000000000E+00 -0.91633153032E+03  0.91633153032E+03  0.00000000000E+00 0. -1.
         25    2    1    2    0    0  0.68565301791E+02  0.20658309606E+03  0.15065041870E+03  0.29274257497E+03  0.12499956143E+03 0.  0.
          2    1    1    2  501    0 -0.10827083927E+03 -0.19621764940E+03 -0.82989704711E+03  0.85962378362E+03  0.00000000000E+00 0. -1.
          1    1    1    2  502    0  0.39705537474E+02 -0.10365446662E+02  0.80131024401E+03  0.80236031766E+03  0.00000000000E+00 0. -1.
         22    1    3    3    0    0  0.44156957732E+02  0.17103116872E+03  0.17028951234E+03  0.24535691473E+03  0.00000000000E+00 0.  1.
         22    1    3    3    0    0  0.24408344059E+02  0.35551927341E+02 -0.19639093644E+02  0.47385660242E+02  0.00000000000E+00 0.  1.
</event>
<event>
 7    1  0.6370239E-006  0.5390272E+02  0.7818608E-02  0.1433228E+00
          2   -1    0    0  502    0  0.00000000000E+00  0.00000000000E+00  0.25423965069E+03  0.25423965069E+03  0.00000000000E+00 0. -1.
          1   -1    0    0  501    0 -0.00000000000E+00 -0.00000000000E+00 -0.58629352358E+03  0.58629352358E+03  0.00000000000E+00 0. -1.
         25    2    1    2    0    0 -0.22711568256E+02 -0.41602116050E+02 -0.14772244926E+03  0.19923297852E+03  0.12500122528E+03 0.  0.
          2    1    1    2  501    0 -0.31710939792E+02  0.39660146514E+02 -0.40797446570E+03  0.41112245814E+03  0.00000000000E+00 0. -1.
          1    1    1    2  502    0  0.54422508048E+02  0.19419695355E+01  0.22364304207E+03  0.23017773761E+03  0.00000000000E+00 0. -1.
         22    1    3    3    0    0 -0.53706720582E+01 -0.85319409999E+02 -0.82347796187E+02  0.11869880108E+03  0.00000000000E+00 0. -1.
         22    1    3    3    0    0 -0.17340896198E+02  0.43717293949E+02 -0.65374653071E+02  0.80534177436E+02  0.00000000000E+00 0. -1.
</event>
<event>
 7    1  0.6370239E-006  0.4711843E+02  0.7818608E-02  0.1486997E+00
          2   -1    0    0  502    0  0.00000000000E+00  0.00000000000E+00  0.40627845648E+03  0.40627845648E+03  0.00000000000E+00 0. -1.
          1   -1    0    0  501    0 -0.00000000000E+00 -0.00000000000E+00 -0.81272801923E+02  0.81272801923E+02  0.00000000000E+00 0. -1.
         25    2    1    2    0    0 -0.89323897567E+01  0.63291939346E+02  0.82863648080E+02  0.16301394775E+03  0.12498602248E+03 0.  0.
          2    1    1    2  501    0  0.33346582088E+02 -0.32488867559E+02 -0.26138851098E+02  0.53392514353E+02  0.00000000000E+00 0. -1.
          1    1    1    2  502    0 -0.24414192332E+02 -0.30803071787E+02  0.26828085758E+03  0.27114479630E+03  0.00000000000E+00 0. -1.
         22    1    3    3    0    0 -0.12909880617E+02 -0.17570465836E+02  0.79008814377E+02  0.81962058518E+02  0.00000000000E+00 0. -1.
         22    1    3    3    0    0  0.39774908601E+01  0.80862405182E+02  0.38548337027E+01  0.81051889233E+02  0.00000000000E+00 0. -1.
</event>
<event>
 7    1  0.6370239E-006  0.1053405E+03  0.7818608E-02  0.1425575E+00
          2   -1    0    0  502    0  0.00000000000E+00  0.00000000000E+00  0.24225711237E+04  0.24225711237E+04  0.00000000000E+00 0. -1.
          1   -1    0    0  501    0 -0.00000000000E+00 -0.00000000000E+00 -0.72043229715E+02  0.72043229715E+02  0.00000000000E+00 0. -1.
         25    2    1    2    0    0  0.29186150299E+02  0.91189678266E+02  0.53172333277E+03  0.55454523647E+03  0.12499331138E+03 0.  0.
          2    1    1    2  501    0 -0.61211867775E+01 -0.10623271284E+03 -0.13762459275E+02  0.10729521653E+03  0.00000000000E+00 0. -1.
          1    1    1    2  502    0 -0.23064963522E+02  0.15043034577E+02  0.18325670205E+04  0.18327739004E+04  0.00000000000E+00 0. -1.
         22    1    3    3    0    0  0.24051293746E+01  0.31684805295E+02  0.44439774520E+03  0.44553234167E+03  0.00000000000E+00 0.  1.
         22    1    3    3    0    0  0.26781020925E+02  0.59504872971E+02  0.87325587568E+02  0.10901289480E+03  0.00000000000E+00 0.  1.
</event>
<event>
 7    1  0.6370239E-006  0.1781741E+03  0.7818608E-02  0.1320948E+00
          2   -1    0    0  502    0  0.00000000000E+00  0.00000000000E+00  0.10120638477E+04  0.10120638477E+04  0.00000000000E+00 0. -1.
          1   -1    0    0  501    0 -0.00000000000E+00 -0.00000000000E+00 -0.28008715467E+03  0.28008715467E+03  0.00000000000E+00 0. -1.
         25    2    1    2    0    0  0.78007206021E+02  0.19266247218E+03  0.57349337543E+03  0.62267607271E+03  0.12500754975E+03 0.  0.
          2    1    1    2  501    0 -0.46392110576E+02 -0.17052496790E+03 -0.22384841222E+03  0.28520011264E+03  0.00000000000E+00 0. -1.
          1    1    1    2  502    0 -0.31615095446E+02 -0.22137504283E+02  0.38233172981E+03  0.38427481699E+03  0.00000000000E+00 0. -1.
         22    1    3    3    0    0  0.82305012255E+02  0.14417319023E+03  0.28273259282E+03  0.32786848410E+03  0.00000000000E+00 0.  1.
         22    1    3    3    0    0 -0.42978062338E+01  0.48489281947E+02  0.29076078260E+03  0.29480758861E+03  0.00000000000E+00 0.  1.
</event>
<event>
 7    1  0.6370239E-006  0.2358351E+03  0.7818608E-02  0.1169472E+00
          2   -1    0    0  502    0  0.00000000000E+00  0.00000000000E+00  0.27549640888E+04  0.27549640888E+04  0.00000000000E+00 0. -1.
          1   -1    0    0  501    0 -0.00000000000E+00 -0.00000000000E+00 -0.41825074771E+03  0.41825074771E+03  0.00000000000E+00 0. -1.
         25    2    1    2    0    0  0.15732363499E+03  0.50318540822E+02 -0.13844332840E+01  0.20714662975E+03  0.12500051154E+03 0.  0.
          2    1    1    2  501    0  0.75643370862E+02 -0.11155216859E+03 -0.29376331345E+03  0.32320688452E+03  0.00000000000E+00 0. -1.
          1    1    1    2  502    0 -0.23296700585E+03  0.61233627766E+02  0.26318610879E+04  0.26428613223E+04  0.00000000000E+00 0. -1.
         22    1    3    3    0    0  0.75497734796E+02  0.80193347009E+02 -0.32194964059E+02  0.11474927701E+03  0.00000000000E+00 0. -1.
         22    1    3    3    0    0  0.81825900191E+02 -0.29874806187E+02  0.30810530775E+02  0.92397352740E+02  0.00000000000E+00 0. -1.
</event>
<event>
 7    1  0.6370239E-006  0.1787318E+03  0.7818608E-02  0.1251347E+00
          2   -1    0    0  502    0  0.00000000000E+00  0.00000000000E+00  0.67821974966E+03  0.67821974966E+03  0.00000000000E+00 0. -1.
          1   -1    0    0  501    0 -0.00000000000E+00 -0.00000000000E+00 -0.75453066735E+03  0.75453066735E+03  0.00000000000E+00 0. -1.
         25    2    1    2    0    0 -0.42148482843E+02  0.23028389032E+03  0.10327584007E+03  0.28478000207E+03  0.12500634260E+03 0.  0.
          2    1    1    2  501    0 -0.79021795363E+01 -0.17555205028E+03 -0.64918628604E+03  0.67255022176E+03  0.00000000000E+00 0. -1.
          1    1    1    2  502    0  0.50050662380E+02 -0.54731840038E+02  0.46959952829E+03  0.47542019318E+03  0.00000000000E+00 0. -1.
         22    1    3    3    0    0  0.15579333871E+02  0.31056394943E+02  0.65216693136E+02  0.73894738475E+02  0.00000000000E+00 0.  1.
         22    1    3    3    0    0 -0.57727816714E+02  0.19922749537E+03  0.38059146934E+02  0.21088526359E+03  0.00000000000E+00 0.  1.
</event>
<event>
 7    1  0.6370239E-006  0.1756658E+03  0.7818608E-02  0.1196019E+00
          2   -1    0    0  502    0  0.00000000000E+00  0.00000000000E+00  0.22489763884E+04  0.22489763884E+04  0.00000000000E+00 0. -1.
          1   -1    0    0  501    0 -0.00000000000E+00 -0.00000000000E+00 -0.56693293153E+02  0.56693293153E+02  0.00000000000E+00 0. -1.
         25    2    1    2    0    0  0.12570225836E+03 -0.10155897532E+03  0.35051761794E+03  0.40571266733E+03  0.12499953890E+03 0.  0.
          2    1    1    2  501    0 -0.21501548303E+03  0.10585970552E+01  0.41991837772E+03  0.47176712742E+03  0.00000000000E+00 0. -1.
          1    1    1    2  502    0  0.89313224675E+02  0.10050037827E+03  0.14218470996E+04  0.14281898868E+04  0.00000000000E+00 0. -1.
         22    1    3    3    0    0  0.14212859469E+03 -0.65116879171E+02  0.22498173780E+03  0.27396628940E+03  0.00000000000E+00 0. -1.
         22    1    3    3    0    0 -0.16426336338E+02 -0.36442096153E+02  0.12553588014E+03  0.13174637794E+03  0.00000000000E+00 0. -1.
</event>
<event>
 7    1  0.6370239E-006  0.1167161E+03  0.7818608E-02  0.1372945E+00
          2   -1    0    0  502    0  0.00000000000E+00  0.00000000000E+00  0.22286129484E+03  0.22286129484E+03  0.00000000000E+00 0. -1.
          1   -1    0    0  501    0 -0.00000000000E+00 -0.00000000000E+00 -0.13146159637E+04  0.13146159637E+04  0.00000000000E+00 0. -1.
         25    2    1    2    0    0  0.76628354586E+02 -0.42827461222E+02 -0.17250590939E+03  0.23042843661E+03  0.12503151387E+03 0.  0.
          2    1    1    2  501    0 -0.11401683910E+03  0.37807080661E+02 -0.11080366376E+04  0.11145287816E+04  0.00000000000E+00 0. -1.
          1    1    1    2  502    0  0.37388484511E+02  0.50203805609E+01  0.18878787809E+03  0.19252004028E+03  0.00000000000E+00 0. -1.
         22    1    3    3    0    0  0.94091215755E+02 -0.35814651452E+02 -0.61793847054E+02  0.11812842873E+03  0.00000000000E+00 0.  1.
         22    1    3    3    0    0 -0.17462861170E+02 -0.70128097706E+01 -0.11071206234E+03  0.11230000787E+03  0.00000000000E+00 0.  1.
</event>
<event>
 7    1  0.6370239E-006  0.1043075E+03  0.7818608E-02  0.1317242E+00
          2   -1    0    0  502    0  0.00000000000E+00  0.00000000000E+00  0.18214819534E+03  0.18214819534E+03  0.00000000000E+00 0. -1.
          1   -1    0    0  501    0 -0.00000000000E+00 -0.00000000000E+00 -0.28183864999E+04  0.28183864999E+04  0.00000000000E+00 0. -1.
         25    2    1    2    0    0 -0.43531561523E+02 -0.11899181950E+03 -0.40247566381E+03  0.44007489861E+03  0.12500082587E+03 0.  0.
          2    1    1    2  501    0  0.65928664444E+02  0.17254400563E+02 -0.23799648655E+04  0.23809403739E+04  0.00000000000E+00 0. -1.
          1    1    1    2  502    0 -0.22397102921E+02  0.10173741893E+03  0.14620222472E+03  0.17951942275E+03  0.00000000000E+00 0. -1.
         22    1    3    3    0    0 -0.76802002678E+01 -0.36122783085E+02 -0.30491693563E+03  0.30714520763E+03  0.00000000000E+00 0.  1.
         22    1    3    3    0    0 -0.35851361255E+02 -0.82869036413E+02 -0.97558728184E+02  0.13292969098E+03  0.00000000000E+00 0.  1.
</event>
<event>
 7    1  0.6370239E-006  0.1136660E+03  0.7818608E-02  0.1298250E+00
          2   -1    0    0  502    0  0.00000000000E+00  0.00000000000E+00  0.23946298477E+04  0.23946298477E+04  0.00000000000E+00 0. -1.
          1   -1    0    0  501    0 -0.00000000000E+00 -0.00000000000E+00 -0.68553180339E+03  0.68553180339E+03  0.00000000000E+00 0. -1.
         25    2    1    2    0    0  0.55383879362E+02  0.28827999245E+02  0.28946324197E+03  0.32142201291E+03  0.12499885717E+03 0.  0.
          2    1    1    2  501    0 -0.50417863285E+02 -0.10300848390E+03 -0.66397355222E+03  0.67380530329E+03  0.00000000000E+00 0. -1.
          1    1    1    2  502    0 -0.49660160770E+01  0.74180484653E+02  0.20836083545E+04  0.20849343349E+04  0.00000000000E+00 0. -1.
         22    1    3    3    0    0  0.10716107751E+02  0.65561966837E+02  0.79311028622E+02  0.10345745851E+03  0.00000000000E+00 0.  1.
         22    1    3    3    0    0  0.44667771611E+02 -0.36733967593E+02  0.21015221335E+03  0.21796455440E+03  0.00000000000E+00 0.  1.
</event>
<event>
 7    1  0.6370239E-006  0.6089615E+02  0.7818608E-02  0.1489324E+00
          2   -1    0    0  502    0  0.00000000000E+00  0.00000000000E+00  0.40780788931E+03  0.40780788931E+03  0.00000000000E+00 0. -1.
          1   -1    0    0  501    0 -0.00000000000E+00 -0.00000000000E+00 -0.11670332447E+03  0.11670332447E+03  0.00000000000E+00 0. -1.
         25    2    1    2    0    0 -0.46462820009E+02 -0.18946939059E+02  0.21690283736E+03  0.25532321328E+03  0.12500128896E+03 0.  0.
          2    1    1    2  501    0  0.38770243074E+02  0.47863279888E+02 -0.86240997674E+02  0.10597893654E+03  0.00000000000E+00 0. -1.
          1    1    1    2  502    0  0.76925769347E+01 -0.28916340829E+02  0.16044272515E+03  0.16320906397E+03  0.00000000000E+00 0. -1.
         22    1    3    3    0    0 -0.15996522051E+00 -0.50033572773E+02  0.25890417432E+02  0.56335581191E+02  0.00000000000E+00 0. -1.
         22    1    3    3    0    0 -0.46302854789E+02  0.31086633714E+02  0.19101241993E+03  0.19898763209E+03  0.00000000000E+00 0. -1.
</event>
<event>
 7    1  0.6370239E-006  0.6904440E+02  0.7818608E-02  0.1417115E+00
          2   -1    0    0  502    0  0.00000000000E+00  0.00000000000E+00  0.88001511188E+03  0.88001511188E+03  0.00000000000E+00 0. -1.
          1   -1    0    0  501    0 -0.00000000000E+00 -0.00000000000E+00 -0.91438773743E+03  0.91438773743E+03  0.00000000000E+00 0. -1.
         25    2    1    2    0    0  0.56995041244E+02 -0.61543580040E+01  0.18496203220E+03  0.23048206647E+03  0.12499887503E+03 0.  0.
          2    1    1    2  501    0 -0.70082916347E+01 -0.44280207700E+02 -0.88918637499E+03  0.89031582172E+03  0.00000000000E+00 0. -1.
          1    1    1    2  502    0 -0.49986749609E+02  0.50434565704E+02  0.66985171724E+03  0.67360496112E+03  0.00000000000E+00 0. -1.
         22    1    3    3    0    0  0.77139452758E+02  0.22057106547E+00  0.19302393042E+03  0.20786722093E+03  0.00000000000E+00 0.  1.
         22    1    3    3    0    0 -0.20144411514E+02 -0.63749290695E+01 -0.80618982147E+01  0.22614845538E+02  0.00000000000E+00 0.  1.
</event>
<event>
 7    1  0.6370239E-006  0.9845903E+02  0.7818608E-02  0.1303189E+00
          2   -1    0    0  502    0  0.00000000000E+00  0.00000000000E+00  0.19631502808E+03  0.19631502808E+03  0.00000000000E+00 0. -1.
          1   -1    0    0  501    0 -0.00000000000E+00 -0.00000000000E+00 -0.22920767456E+04  0.22920767456E+04  0.00000000000E+00 0. -1.
         25    2    1    2    0    0 -0.78801521279E+02 -0.37070646201E+02 -0.46842815322E+03  0.49257834189E+03  0.12499830241E+03 0.  0.
          2    1    1    2  501    0  0.93758705874E+02 -0.43567668953E+02 -0.18008898168E+04  0.18038550300E+04  0.00000000000E+00 0. -1.
          1    1    1    2  502    0 -0.14957184596E+02  0.80638315154E+02  0.17355625253E+03  0.19195840183E+03  0.00000000000E+00 0. -1.
         22    1    3    3    0    0 -0.35010774825E+02  0.16786557984E+02 -0.37058649281E+03  0.37261493735E+03  0.00000000000E+00 0. -1.
         22    1    3    3    0    0 -0.43790746454E+02 -0.53857204185E+02 -0.97841660408E+02  0.11996340454E+03  0.00000000000E+00 0. -1.
</event>
<event>
 7    1  0.6370239E-006  0.1370155E+03  0.7818608E-02  0.1352036E+00
          2   -1    0    0  502    0  0.00000000000E+00  0.00000000000E+00  0.11615110023E+04  0.11615110023E+04  0.00000000000E+00 0. -1.
          1   -1    0    0  501    0 -0.00000000000E+00 -0.00000000000E+00 -0.12225792569E+03  0.12225792569E+03  0.00000000000E+00 0. -1.
         25    2    1    2    0    0  0.75451783310E+02  0.10123470969E+03  0.23078627653E+03  0.29125369300E+03  0.12499988080E+03 0.  0.
          2    1    1    2  501    0  0.34930987992E+02 -0.15665779434E+02 -0.82351415931E+02  0.90814901163E+02  0.00000000000E+00 0. -1.
          1    1    1    2  502    0 -0.11038277130E+03 -0.85568930258E+02  0.89081821600E+03  0.90170033380E+03  0.00000000000E+00 0. -1.
         22    1    3    3    0    0 -0.19045584409E+02  0.75276046314E+02  0.12409776221E+03  0.14638808701E+03  0.00000000000E+00 0.  1.
         22    1    3    3    0    0  0.94497367720E+02  0.25958663378E+02  0.10668851432E+03  0.14486560599E+03  0.00000000000E+00 0.  1.
</event>
<event>
 7    1  0.6370239E-006  0.1257311E+03  0.7818608E-02  0.1246198E+00
          2   -1    0    0  502    0  0.00000000000E+00  0.00000000000E+00  0.22903502512E+04  0.22903502512E+04  0.00000000000E+00 0. -1.
          1   -1    0    0  501    0 -0.00000000000E+00 -0.00000000000E+00 -0.26577727149E+03  0.26577727149E+03  0.00000000000E+00 0. -1.
         25    2    1    2    0    0  0.41427170729E+02  0.13293558833E+03  0.44571914560E+03  0.48340342687E+03  0.12500094091E+03 0.  0.
          2    1    1    2  501    0  0.66727562884E+02 -0.10793426244E+03 -0.22881712494E+03  0.26164794920E+03  0.00000000000E+00 0. -1.
          1    1    1    2  502    0 -0.10815473361E+03 -0.25001325887E+02  0.18076709590E+04  0.18110761466E+04  0.00000000000E+00 0. -1.
         22    1    3    3    0    0 -0.31493993738E+02  0.25251997030E+02  0.37978181410E+02  0.55424518571E+02  0.00000000000E+00 0. -1.
         22    1    3    3    0    0  0.72921164468E+02  0.10768359130E+03  0.40774096419E+03  0.42797890829E+03  0.00000000000E+00 0. -1.
</event>
<event>
 7    1  0.6370239E-006  0.9849252E+02  0.7818608E-02  0.1366372E+00
          2   -1    0    0  502    0  0.00000000000E+00  0.00000000000E+00  0.11455309801E+03  0.11455309801E+03  0.00000000000E+00 0. -1.
          1   -1    0    0  501    0 -0.00000000000E+00 -0.00000000000E+00 -0.27745045953E+03  0.27745045953E+03  0.00000000000E+00 0. -1.
         25    2    1    2    0    0 -0.31659018776E+02  0.56473467899E+02 -0.46814167516E+02  0.14834147795E+03  0.12498832647E+03 0.  0.
          2    1    1    2  501    0  0.65513352368E+02 -0.89370336161E+02 -0.14930909128E+03  0.18593617470E+03  0.00000000000E+00 0. -1.
          1    1    1    2  502    0 -0.33854333592E+02  0.32896868262E+02  0.33225897274E+02  0.57725904879E+02  0.00000000000E+00 0. -1.
         22    1    3    3    0    0  0.47686632252E+02  0.19414289989E+02 -0.63695978399E+01  0.51879681263E+02  0.00000000000E+00 0.  1.
         22    1    3    3    0    0 -0.79345651028E+02  0.37059177910E+02 -0.40444569676E+02  0.96461796691E+02  0.00000000000E+00 0.  1.
</event>
<event>
 7    1  0.6370239E-006  0.5276469E+02  0.7818608E-02  0.1534327E+00
          2   -1    0    0  502    0  0.00000000000E+00  0.00000000000E+00  0.10059181776E+04  0.10059181776E+04  0.00000000000E+00 0. -1.
          1   -1    0    0  501    0 -0.00000000000E+00 -0.00000000000E+00 -0.21052965887E+04  0.21052965887E+04  0.00000000000E+00 0. -1.
         25    2    1    2    0    0  0.30426288904E+02  0.67523248876E+02  0.27180633357E+03  0.30820520497E+03  0.12500646867E+03 0.  0.
          2    1    1    2  501    0 -0.10471063647E+02 -0.51692455338E+02 -0.20865372301E+04  0.20872037193E+04  0.00000000000E+00 0. -1.
          1    1    1    2  502    0 -0.19955225256E+02 -0.15830793538E+02  0.71535248548E+03  0.71580584206E+03  0.00000000000E+00 0. -1.
         22    1    3    3    0    0  0.77584742942E+02  0.24239091196E+02  0.15328169152E+03  0.17349986408E+03  0.00000000000E+00 0. -1.
         22    1    3    3    0    0 -0.47158454038E+02  0.43284157680E+02  0.11852464205E+03  0.13470534090E+03  0.00000000000E+00 0. -1.
</event>
<event>
 7    1  0.6370239E-006  0.2966578E+02  0.7818608E-02  0.1662326E+00
          2   -1    0    0  502    0  0.00000000000E+00  0.00000000000E+00  0.48600766148E+03  0.48600766148E+03  0.00000000000E+00 0. -1.
          1   -1    0    0  501    0 -0.00000000000E+00 -0.00000000000E+00 -0.56295815740E+03  0.56295815740E+03  0.00000000000E+00 0. -1.
         25    2    1    2    0    0  0.17215961070E+02  0.14682404249E+02  0.24423510027E+03  0.27529600479E+03  0.12500057496E+03 0.  0.
          2    1    1    2  501    0 -0.13864870948E+02  0.15656768030E+02 -0.54619714540E+03  0.54659737529E+03  0.00000000000E+00 0. -1.
          1    1    1    2  502    0 -0.33510901222E+01 -0.30339172280E+02  0.22501154922E+03  0.22707243880E+03  0.00000000000E+00 0. -1.
         22    1    3    3    0    0  0.10155217685E+02  0.70033977792E+02  0.14814189716E+03  0.16417645442E+03  0.00000000000E+00 0. -1.
         22    1    3    3    0    0  0.70607433852E+01 -0.55351573543E+02  0.96093203106E+02  0.11111955037E+03  0.00000000000E+00 0. -1.
</event>
<event>
 7    1  0.6370239E-006  0.1925358E+03  0.7818608E-02  0.1218946E+00
          2   -1    0    0  502    0  0.00000000000E+00  0.00000000000E+00  0.40313489456E+03  0.40313489456E+03  0.00000000000E+00 0. -1.
          1   -1    0    0  501    0 -0.00000000000E+00 -0.00000000000E+00 -0.19146240020E+03  0.19146240020E+03  0.00000000000E+00 0. -1.
         25    2    1    2    0    0 -0.83312830882E+02 -0.14680163150E+03  0.95202346804E+02  0.23060524211E+03  0.12499417608E+03 0.  0.
          2    1    1    2  501    0  0.17650970754E+03  0.12405297462E+03  0.34814335712E+01  0.21577056738E+03  0.00000000000E+00 0. -1.
          1    1    1    2  502    0 -0.93196876654E+02  0.22748656875E+02  0.11298871399E+03  0.14822148527E+03  0.00000000000E+00 0. -1.
         22    1    3    3    0    0 -0.35187642643E+02  0.10217141598E+02 -0.68160901920E+01  0.37269548732E+02  0.00000000000E+00 0.  1.
         22    1    3    3    0    0 -0.48125188239E+02 -0.15701877310E+03  0.10201843700E+03  0.19333569338E+03  0.00000000000E+00 0.  1.
</event>
<event>
 7    1  0.6370239E-006  0.5294436E+02  0.7818608E-02  0.1553689E+00
          2   -1    0    0  502    0  0.00000000000E+00  0.00000000000E+00  0.18257382816E+04  0.18257382816E+04  0.00000000000E+00 0. -1.
          1   -1    0    0  501    0 -0.00000000000E+00 -0.00000000000E+00 -0.10371928998E+02  0.10371928998E+02  0.00000000000E+00 0. -1.
         25    2    1    2    0    0  0.49486684133E+02 -0.15755001241E+00  0.14568466145E+04  0.14630365854E+04  0.12500014016E+03 0.  0.
          2    1    1    2  501    0  0.34751726672E+01 -0.22123345976E+02  0.21007731006E+02  0.30705765326E+02  0.00000000000E+00 0. -1.
          1    1    1    2  502    0 -0.52961856801E+02  0.22280895988E+02  0.33751200704E+03  0.34236785991E+03  0.00000000000E+00 0. -1.
         22    1    3    3    0    0  0.28030206727E+02 -0.67394936784E+01  0.14170848462E+04  0.14173780634E+04  0.00000000000E+00 0. -1.
         22    1    3    3    0    0  0.21456477406E+02  0.65819436660E+01  0.39761768317E+02  0.45658521930E+02  0.00000000000E+00 0. -1.
</event>
<event>
 7    1  0.6370239E-006  0.1139279E+03  0.7818608E-02  0.1368785E+00
          2   -1    0    0  502    0  0.00000000000E+00  0.00000000000E+00  0.42643314009E+03  0.42643314009E+03  0.00000000000E+00 0. -1.
          1   -1    0    0  501    0 -0.00000000000E+00 -0.00000000000E+00 -0.40242406999E+03  0.40242406999E+03  0.00000000000E+00 0. -1.
         25    2    1    2    0    0  0.27902810947E+01  0.13069774234E+03  0.20828266180E+03  0.27585488301E+03  0.12499825500E+03 0.  0.
          2    1    1    2  501    0 -0.35584977558E+02 -0.10779635466E+03 -0.35756622063E+03  0.37515323115E+03  0.00000000000E+00 0. -1.
          1    1    1    2  502    0  0.32794696464E+02 -0.22901387681E+02  0.17329262894E+03  0.17784909591E+03  0.00000000000E+00 0. -1.
         22    1    3    3    0    0  0.58483477742E+02  0.74042782923E+02  0.74328717055E+02  0.12011415009E+03  0.00000000000E+00 0.  1.
         22    1    3    3    0    0 -0.55693196648E+02  0.56654959417E+02  0.13395394474E+03  0.15574073292E+03  0.00000000000E+00 0.  1.
</event>
<event>
 7    1  0.6370239E-006  0.3805190E+02  0.7818608E-02  0.1571203E+00
          2   -1    0    0  502    0  0.00000000000E+00  0.00000000000E+00  0.30210359597E+03  0.30210359597E+03  0.00000000000E+00 0. -1.
          1   -1    0    0  501    0 -0.00000000000E+00 -0.00000000000E+00 -0.15992005977E+03  0.15992005977E+03  0.00000000000E+00 0. -1.
         25    2    1    2    0    0 -0.40232883121E+01 -0.28224188988E+02  0.20023595881E+03  0.23776687694E+03  0.12500342747E+03 0.  0.
          2    1    1    2  501    0  0.31240495288E+02  0.22111123419E+02 -0.13609721712E+03  0.14137652858E+03  0.00000000000E+00 0. -1.
          1    1    1    2  502    0 -0.27217206976E+02  0.61130655693E+01  0.78044794513E+02  0.82880250222E+02  0.00000000000E+00 0. -1.
         22    1    3    3    0    0 -0.54984990220E+01  0.48425653702E+02  0.54619638577E+02  0.73202338394E+02  0.00000000000E+00 0.  1.
         22    1    3    3    0    0  0.14752107100E+01 -0.76649842690E+02  0.14561632023E+03  0.16456453855E+03  0.00000000000E+00 0.  1.
</event>
<event>
 7    1  0.6370239E-006  0.1206047E+03  0.7818608E-02  0.1322722E+00
          2   -1    0    0  502    0  0.00000000000E+00  0.00000000000E+00  0.20875798885E+04  0.20875798885E+04  0.00000000000E+00 0. -1.
          1   -1    0    0  501    0 -0.00000000000E+00 -0.00000000000E+00 -0.41303662994E+03  0.41303662994E+03  0.00000000000E+00 0. -1.
         25    2    1    2    0    0 -0.74028648265E+02  0.47614207742E+02  0.20195843253E+03  0.25329950203E+03  0.12500430279E+03 0.  0.
          2    1    1    2  501    0  0.65779464685E+02 -0.10312895457E+03 -0.37727329685E+03  0.39660768999E+03  0.00000000000E+00 0. -1.
          1    1    1    2  502    0  0.82491835796E+01  0.55514746830E+02  0.18498581228E+04  0.18507093264E+04  0.00000000000E+00 0. -1.
         22    1    3    3    0    0 -0.62311030422E+01 -0.28126428208E+02  0.11797704751E+03  0.12144342859E+03  0.00000000000E+00 0. -1.
         22    1    3    3    0    0 -0.67797545223E+02  0.75740635949E+02  0.83981385021E+02  0.13185607344E+03  0.00000000000E+00 0. -1.
</event>
<event>
 7    1  0.6370239E-006  0.5057206E+02  0.7818608E-02  0.1543703E+00
          2   -1    0    0  502    0  0.00000000000E+00  0.00000000000E+00  0.87590294230E+02  0.87590294230E+02  0.00000000000E+00 0. -1.
          1   -1    0    0  501    0 -0.00000000000E+00 -0.00000000000E+00 -0.20636847416E+04  0.20636847416E+04  0.00000000000E+00 0. -1.
         25    2    1    2    0    0  0.63957646264E+02  0.36377329594E+02 -0.51928325511E+03  0.53916116468E+03  0.12500308732E+03 0.  0.
          2    1    1    2  501    0 -0.24408499223E+02 -0.54102725829E+01 -0.15262262813E+04  0.15264310360E+04  0.00000000000E+00 0. -1.
          1    1    1    2  502    0 -0.39549147040E+02 -0.30967057011E+02  0.69415089053E+02  0.85682835153E+02  0.00000000000E+00 0. -1.
         22    1    3    3    0    0 -0.22141371577E+02  0.35719338013E+02 -0.31034366683E+03  0.31317615329E+03  0.00000000000E+00 0.  1.
         22    1    3    3    0    0  0.86099017841E+02  0.65799158036E+00 -0.20893958827E+03  0.22598501139E+03  0.00000000000E+00 0.  1.
</event>
<event>
 7    1  0.6370239E-006  0.3801206E+03  0.7818608E-02  0.1185773E+00
          2   -1    0    0  502    0  0.00000000000E+00  0.00000000000E+00  0.28077929338E+03  0.28077929338E+03  0.00000000000E+00 0. -1.
          1   -1    0    0  501    0 -0.00000000000E+00 -0.00000000000E+00 -0.10048626614E+04  0.10048626614E+04  0.00000000000E+00 0. -1.
         25    2    1    2    0    0 -0.23974433291E+03 -0.26051898057E+03 -0.69066459702E+02  0.38176223421E+03  0.12499897285E+03 0.  0.
          2    1    1    2  501    0 -0.55146688006E+02 -0.42410734571E+02 -0.40873457006E+03  0.41461280295E+03  0.00000000000E+00 0. -1.
          1    1    1    2  502    0  0.29489102092E+03  0.30292971514E+03 -0.24628233823E+03  0.48926691759E+03  0.00000000000E+00 0. -1.
         22    1    3    3    0    0 -0.59541588375E+02 -0.74299578866E+01  0.10812727127E+02  0.60969829329E+02  0.00000000000E+00 0.  1.
         22    1    3    3    0    0 -0.18020274454E+03 -0.25308902268E+03 -0.79879186829E+02  0.32079240488E+03  0.00000000000E+00 0.  1.
</event>
<event>
 7    1  0.6370239E-006  0.4324593E+02  0.7818608E-02  0.1596028E+00
          2   -1    0    0  502    0  0.00000000000E+00  0.00000000000E+00  0.17099438994E+03  0.17099438994E+03  0.00000000000E+00 0. -1.
          1   -1    0    0  501    0 -0.00000000000E+00 -0.00000000000E+00 -0.45638007532E+03  0.45638007532E+03  0.00000000000E+00 0. -1.
         25    2    1    2    0    0 -0.89934696245E+01  0.60521416611E+02 -0.94554345733E+02  0.16825282777E+03  0.12499906156E+03 0.  0.
          2    1    1    2  501    0 -0.56594241410E+01 -0.20297573347E+02 -0.32120700861E+03  0.32189744166E+03  0.00000000000E+00 0. -1.
          1    1    1    2  502    0  0.14652893765E+02 -0.40223843264E+02  0.13037566896E+03  0.13722419583E+03  0.00000000000E+00 0. -1.
         22    1    3    3    0    0  0.56178421136E+01  0.58967341719E+02  0.12212024418E+02  0.60480088292E+02  0.00000000000E+00 0.  1.
         22    1    3    3    0    0 -0.14611311738E+02  0.15540748912E+01 -0.10676637015E+03  0.10777273948E+03  0.00000000000E+00 0.  1.
</event>
<event>
 7    1  0.6370239E-006  0.1717402E+03  0.7818608E-02  0.1310741E+00
          2   -1    0    0  502    0  0.00000000000E+00  0.00000000000E+00  0.13214260903E+03  0.13214260903E+03  0.00000000000E+00 0. -1.
          1   -1    0    0  501    0 -0.00000000000E+00 -0.00000000000E+00 -0.83458936692E+03  0.83458936692E+03  0.00000000000E+00 0. -1.
         25    2    1    2    0    0 -0.81756263112E+02  0.13967360401E+03 -0.47025857039E+03  0.51279785699E+03  0.12500286756E+03 0.  0.
          2    1    1    2  501    0 -0.40713723572E+02 -0.16392454345E+02 -0.27211598300E+03  0.27563277753E+03  0.00000000000E+00 0. -1.
          1    1    1    2  502    0  0.12246998668E+03 -0.12328114966E+03  0.39927795492E+02  0.17830134142E+03  0.00000000000E+00 0. -1.
         22    1    3    3    0    0 -0.27369986224E+02  0.97772765002E+02 -0.12628045468E+03  0.16203512877E+03  0.00000000000E+00 0.  1.
         22    1    3    3    0    0 -0.54386276888E+02  0.41900839007E+02 -0.34397811570E+03  0.35076272822E+03  0.00000000000E+00 0.  1.
</event>
<event>
 7    1  0.6370239E-006  0.2979909E+03  0.7818608E-02  0.1104540E+00
          2   -1    0    0  502    0  0.00000000000E+00  0.00000000000E+00  0.20423788062E+04  0.20423788062E+04  0.00000000000E+00 0. -1.
          1   -1    0    0  501    0 -0.00000000000E+00 -0.00000000000E+00 -0.23121296845E+03  0.23121296845E+03  0.00000000000E+00 0. -1.
         25    2    1    2    0    0  0.15439072535E+03  0.15751055944E+03  0.70577369685E+03  0.74992458826E+03  0.12499721802E+03 0.  0.
          2    1    1    2  501    0  0.22082517577E+03  0.79088120544E+02 -0.87981944142E+02  0.25051848546E+03  0.00000000000E+00 0. -1.
          1    1    1    2  502    0 -0.37521590112E+03 -0.23659867998E+03  0.11933740850E+04  0.12731487009E+04  0.00000000000E+00 0. -1.
         22    1    3    3    0    0  0.16234924718E+03  0.95957865851E+02  0.47831310849E+03  0.51414844144E+03  0.00000000000E+00 0.  1.
         22    1    3    3    0    0 -0.79585218287E+01  0.61552693589E+02  0.22746058835E+03  0.23577614682E+03  0.00000000000E+00 0.  1.
</event>
<event>
 7    1  0.6370239E-006  0.9843304E+02  0.7818608E-02  0.1306889E+00
          2   -1    0    0  502    0  0.00000000000E+00  0.00000000000E+00  0.12124457418E+04  0.12124457418E+04  0.00000000000E+00 0. -1.
          1   -1    0    0  501    0 -0.00000000000E+00 -0.00000000000E+00 -0.12049923127E+03  0.12049923127E+03  0.00000000000E+00 0. -1.
         25    2    1    2    0    0  0.10833771587E+02  0.69601058440E+02  0.34206053112E+03  0.37093598377E+03  0.12500567652E+03 0.  0.
          2    1    1    2  501    0  0.79077261811E+02 -0.60154615412E+01 -0.87108059596E+02  0.11780158386E+03  0.00000000000E+00 0. -1.
          1    1    1    2  502    0 -0.89911033398E+02 -0.63585596899E+02  0.83699403905E+03  0.84420740548E+03  0.00000000000E+00 0. -1.
         22    1    3    3    0    0  0.46971992845E+02  0.87848949305E+02  0.20337514916E+03  0.22646248542E+03  0.00000000000E+00 0. -1.
         22    1    3    3    0    0 -0.36138221258E+02 -0.18247890865E+02  0.13868538196E+03  0.14447349835E+03  0.00000000000E+00 0. -1.
</event>
<event>
 7    1  0.6370239E-006  0.7591821E+02  0.7818608E-02  0.1454838E+00
          2   -1    0    0  502    0  0.00000000000E+00  0.00000000000E+00  0.18175670969E+03  0.18175670969E+03  0.00000000000E+00 0. -1.
          1   -1    0    0  501    0 -0.00000000000E+00 -0.00000000000E+00 -0.44240633833E+03  0.44240633833E+03  0.00000000000E+00 0. -1.
         25    2    1    2    0    0 -0.66077097313E+02 -0.76604020760E+02 -0.27585419136E+03  0.31930429655E+03  0.12500136047E+03 0.  0.
          2    1    1    2  501    0  0.71547281011E+01  0.29860171866E+02 -0.13415872538E+03  0.13762769923E+03  0.00000000000E+00 0. -1.
          1    1    1    2  502    0  0.58922369212E+02  0.46743848894E+02  0.14936328810E+03  0.16723105225E+03  0.00000000000E+00 0. -1.
         22    1    3    3    0    0 -0.59271061364E+02 -0.87411411140E+02 -0.10832227612E+03  0.15128624860E+03  0.00000000000E+00 0. -1.
         22    1    3    3    0    0 -0.68060359495E+01  0.10807390381E+02 -0.16753191524E+03  0.16801804795E+03  0.00000000000E+00 0. -1.
</event>
<event>
 7    1  0.6370239E-006  0.1145004E+03  0.7818608E-02  0.1407478E+00
          2   -1    0    0  502    0  0.00000000000E+00  0.00000000000E+00  0.34589350592E+03  0.34589350592E+03  0.00000000000E+00 0. -1.
          1   -1    0    0  501    0 -0.00000000000E+00 -0.00000000000E+00 -0.11176395937E+03  0.11176395937E+03  0.00000000000E+00 0. -1.
         25    2    1    2    0    0 -0.12246542099E+03 -0.41462390414E+02  0.64520686586E+02  0.19106207269E+03  0.12499954986E+03 0.  0.
          2    1    1    2  501    0  0.94996776869E+02  0.51182233556E+02  0.14622248437E+02  0.10889361229E+03  0.00000000000E+00 0. -1.
          1    1    1    2  502    0  0.27468644125E+02 -0.97198431425E+01  0.15498661153E+03  0.15770178032E+03  0.00000000000E+00 0. -1.
         22    1    3    3    0    0 -0.22165008439E+02 -0.68725849239E+02  0.77428497299E+01  0.72625626845E+02  0.00000000000E+00 0.  1.
         22    1    3    3    0    0 -0.10030041255E+03  0.27263458825E+02  0.56777836856E+02  0.11843644584E+03  0.00000000000E+00 0.  1.
</event>
<event>
 7    1  0.6370239E-006  0.1560336E+03  0.7818608E-02  0.1260666E+00
          2   -1    0    0  502    0  0.00000000000E+00  0.00000000000E+00  0.29330605270E+03  0.29330605270E+03  0.00000000000E+00 0. -1.
          1   -1    0    0  501    0 -0.00000000000E+00 -0.00000000000E+00 -0.55508788421E+03  0.55508788421E+03  0.00000000000E+00 0. -1.
         25    2    1    2    0    0  0.21321375132E+03 -0.41566091165E+02 -0.16352900810E+03  0.29925757265E+03  0.12500205843E+03 0.  0.
          2    1    1    2  501    0 -0.13573955570E+03  0.41334888107E+02 -0.30063150348E+03  0.33243510772E+03  0.00000000000E+00 0. -1.
          1    1    1    2  502    0 -0.77474195615E+02  0.23120305745E+00  0.20237868007E+03  0.21670125654E+03  0.00000000000E+00 0. -1.
         22    1    3    3    0    0 -0.11812294851E+02 -0.21570516933E+02 -0.13357354179E+02  0.27986361340E+02  0.00000000000E+00 0. -1.
         22    1    3    3    0    0  0.22502604617E+03 -0.19995574231E+02 -0.15017165392E+03  0.27127121131E+03  0.00000000000E+00 0. -1.
</event>
<event>
 7    1  0.6370239E-006  0.3292153E+02  0.7818608E-02  0.1573514E+00
          2   -1    0    0  502    0  0.00000000000E+00  0.00000000000E+00  0.21622821724E+04  0.21622821724E+04  0.00000000000E+00 0. -1.
          1   -1    0    0  501    0 -0.00000000000E+00 -0.00000000000E+00 -0.50419753270E+03  0.50419753270E+03  0.00000000000E+00 0. -1.
         25    2    1    2    0    0 -0.22820788815E+02 -0.35272478330E+02  0.84220468002E+03  0.85246529625E+03  0.12499368842E+03 0.  0.
          2    1    1    2  501    0 -0.98884090277E+01  0.30203543116E+02 -0.49835267719E+03  0.49936502231E+03  0.00000000000E+00 0. -1.
          1    1    1    2  502    0  0.32709197843E+02  0.50689352145E+01  0.13142326368E+04  0.13146493865E+04  0.00000000000E+00 0. -1.
         22    1    3    3    0    0 -0.22994359219E+01  0.94754533801E+01  0.97800413063E+00  0.97993935729E+01  0.00000000000E+00 0. -1.
         22    1    3    3    0    0 -0.20521352894E+02 -0.44747931710E+02  0.84122667588E+03  0.84266590268E+03  0.00000000000E+00 0. -1.
</event>
<event>
 7    1  0.6370239E-006  0.1044898E+03  0.7818608E-02  0.1370003E+00
          2   -1    0    0  502    0  0.00000000000E+00  0.00000000000E+00  0.10995086149E+04  0.10995086149E+04  0.00000000000E+00 0. -1.
          1   -1    0    0  501    0 -0.00000000000E+00 -0.00000000000E+00 -0.13928093331E+04  0.13928093331E+04  0.00000000000E+00 0. -1.
         25    2    1    2    0    0  0.28300439825E+02  0.11324567776E+03  0.26832769575E+02  0.17311334082E+03  0.12499093095E+03 0.  0.
          2    1    1    2  501    0 -0.42041598736E+02 -0.98270416671E+01 -0.13165918989E+04  0.13172996223E+04  0.00000000000E+00 0. -1.
          1    1    1    2  502    0  0.13741158911E+02 -0.10341863610E+03  0.99645841103E+03  0.10019049848E+04  0.00000000000E+00 0. -1.
         22    1    3    3    0    0  0.32119874612E+02  0.93595481850E+02 -0.37436783283E+02  0.10579845609E+03  0.00000000000E+00 0.  1.
         22    1    3    3    0    0 -0.38194347867E+01  0.19650195915E+02  0.64269552858E+02  0.67314884730E+02  0.00000000000E+00 0.  1.
</event>
<event>
 7    1  0.6370239E-006  0.2131186E+03  0.7818608E-02  0.1293625E+00
          2   -1    0    0  502    0  0.00000000000E+00  0.00000000000E+00  0.69552424016E+03  0.69552424016E+03  0.00000000000E+00 0. -1.
          1   -1    0    0  501    0 -0.00000000000E+00 -0.00000000000E+00 -0.29489588545E+03  0.29489588545E+03  0.00000000000E+00 0. -1.
         25    2    1    2    0    0 -0.17566875555E+03 -0.59783095287E+02  0.21449995842E+03  0.30994999739E+03  0.12500095423E+03 0.  0.
          2    1    1    2  501    0  0.19641500768E+03  0.95599257026E+02 -0.19757529318E+03  0.29454043808E+03  0.00000000000E+00 0. -1.
          1    1    1    2  502    0 -0.20746252127E+02 -0.35816161739E+02  0.38370368948E+03  0.38592969015E+03  0.00000000000E+00 0. -1.
         22    1    3    3    0    0 -0.19459094378E+03 -0.53636171382E+02  0.20570831711E+03  0.28819851840E+03  0.00000000000E+00 0.  1.
         22    1    3    3    0    0  0.18922188231E+02 -0.61469239047E+01  0.87916413100E+01  0.21751478981E+02  0.00000000000E+00 0.  1.
</event>
<event>
 7    1  0.6370239E-006  0.1703310E+03  0.7818608E-02  0.1292029E+00
          2   -1    0    0  502    0  0.00000000000E+00  0.00000000000E+00  0.14091260399E+04  0.14091260399E+04  0.00000000000E+00 0. -1.
          1   -1    0    0  501    0 -0.00000000000E+00 -0.00000000000E+00 -0.46038126747E+03  0.46038126747E+03  0.00000000000E+00 0. -1.
         25    2    1    2    0    0 -0.15041978531E+03  0.60093988952E+02  0.46677759754E+03  0.50964998234E+03  0.12499751842E+03 0.  0.
          2    1    1    2  501    0  0.14001858532E+02  0.50665250114E+02 -0.42894378244E+03  0.43215250561E+03  0.00000000000E+00 0. -1.
          1    1    1    2  502    0  0.13641792678E+03 -0.11075923907E+03  0.91091095738E+03  0.92770481947E+03  0.00000000000E+00 0. -1.
         22    1    3    3    0    0  0.14780454148E+02  0.28674752799E+02  0.11984169885E+03  0.12410775985E+03  0.00000000000E+00 0.  1.
         22    1    3    3    0    0 -0.16520023946E+03  0.31419236153E+02  0.34693589869E+03  0.38554222248E+03  0.00000000000E+00 0.  1.
</event>
<event>
 7    1  0.6370239E-006  0.1258453E+03  0.7818608E-02  0.1253426E+00
          2   -1    0    0  502    0  0.00000000000E+00  0.00000000000E+00  0.11083993375E+04  0.11083993375E+04  0.00000000000E+00 0. -1.
          1   -1    0    0  501    0 -0.00000000000E+00 -0.00000000000E+00 -0.18564434785E+04  0.18564434785E+04  0.00000000000E+00 0. -1.
         25    2    1    2    0    0  0.81484362154E+02 -0.44381926298E+02  0.41889604100E+03  0.44688740092E+03  0.12499999711E+03 0.  0.
          2    1    1    2  501    0 -0.94929147111E+02 -0.82616544183E+02 -0.18342365042E+04  0.18385485008E+04  0.00000000000E+00 0. -1.
          1    1    1    2  502    0  0.13444784957E+02  0.12699847048E+03  0.66729632213E+03  0.67940691436E+03  0.00000000000E+00 0. -1.
         22    1    3    3    0    0  0.88137550290E+02  0.54833580323E+01  0.35359505977E+03  0.36445543113E+03  0.00000000000E+00 0. -1.
         22    1    3    3    0    0 -0.66531881360E+01 -0.49865284330E+02  0.65300981231E+02  0.82431969790E+02  0.00000000000E+00 0. -1.
</event>
<event>
 7    1  0.6370239E-006  0.8023708E+02  0.7818608E-02  0.1416306E+00
          2   -1    0    0  502    0  0.00000000000E+00  0.00000000000E+00  0.39756001225E+03  0.39756001225E+03  0.00000000000E+00 0. -1.
          1   -1    0    0  501    0 -0.00000000000E+00 -0.00000000000E+00 -0.11244756951E+03  0.11244756951E+03  0.00000000000E+00 0. -1.
         25    2    1    2    0    0 -0.12577939201E+02 -0.67973813983E+02  0.19225130428E+03  0.23950588964E+03  0.12499545284E+03 0.  0.
          2    1    1    2  501    0 -0.24913095029E+02  0.78042703721E+02 -0.67101628262E+02  0.10589596037E+03  0.00000000000E+00 0. -1.
          1    1    1    2  502    0  0.37491034229E+02 -0.10068889738E+02  0.15996276672E+03  0.16460573175E+03  0.00000000000E+00 0. -1.
         22    1    3    3    0    0  0.22437155001E+02  0.24940614749E+02  0.94049225480E+02  0.99853477666E+02  0.00000000000E+00 0.  1.
         22    1    3    3    0    0 -0.35015094202E+02 -0.92914428733E+02  0.98202078803E+02  0.13965241197E+03  0.00000000000E+00 0.  1.
</event>
<event>
 7    1  0.6370239E-006  0.7209295E+02  0.7818608E-02  0.1507757E+00
          2   -1    0    0  502    0  0.00000000000E+00  0.00000000000E+00  0.11702404251E+04  0.11702404251E+04  0.00000000000E+00 0. -1.
          1   -1    0    0  501    0 -0.00000000000E+00 -0.00000000000E+00 -0.63485984196E+03  0.63485984196E+03  0.00000000000E+00 0. -1.
         25    2    1    2    0    0 -0.55553904750E+02  0.47170455919E+02 -0.80144282191E+02  0.16537784041E+03  0.12496173769E+03 0.  0.
          2    1    1    2  501    0  0.38306624181E+02 -0.61246610891E+02 -0.50944047915E+03  0.51453682725E+03  0.00000000000E+00 0. -1.
          1    1    1    2  502    0  0.17247280569E+02  0.14076154972E+02  0.11249653445E+04  0.11251855995E+04  0.00000000000E+00 0. -1.
         22    1    3    3    0    0 -0.25803044903E+02  0.35562830574E+01  0.32099331805E+02  0.41337771805E+02  0.00000000000E+00 0.  1.
         22    1    3    3    0    0 -0.29750859847E+02  0.43614172862E+02 -0.11224361400E+03  0.12404006860E+03  0.00000000000E+00 0.  1.
</event>
<event>
 7    1  0.6370239E-006  0.9498321E+02  0.7818608E-02  0.1312630E+00
          2   -1    0    0  502    0  0.00000000000E+00  0.00000000000E+00  0.27834014084E+04  0.27834014084E+04  0.00000000000E+00 0. -1.
          1   -1    0    0  501    0 -0.00000000000E+00 -0.00000000000E+00 -0.39005907762E+03  0.39005907762E+03  0.00000000000E+00 0. -1.
         25    2    1    2    0    0  0.10084162630E+02  0.16925483628E+03  0.13118579940E+04  0.13286631090E+04  0.12500148274E+03 0.  0.
          2    1    1    2  501    0 -0.21776512786E+02 -0.92123072854E+02 -0.37472660252E+03  0.38649825834E+03  0.00000000000E+00 0. -1.
          1    1    1    2  502    0  0.11692350156E+02 -0.77131763429E+02  0.14562109392E+04  0.14582991187E+04  0.00000000000E+00 0. -1.
         22    1    3    3    0    0  0.40434406530E+02  0.13337230369E+03  0.63206235479E+03  0.64724487867E+03  0.00000000000E+00 0.  1.
         22    1    3    3    0    0 -0.30350243900E+02  0.35882532595E+02  0.67979563925E+03  0.68141823031E+03  0.00000000000E+00 0.  1.
</event>
<event>
 7    1  0.6370239E-006  0.1995382E+03  0.7818608E-02  0.1339509E+00
          2   -1    0    0  502    0  0.00000000000E+00  0.00000000000E+00  0.14114417811E+04  0.14114417811E+04  0.00000000000E+00 0. -1.
          1   -1    0    0  501    0 -0.00000000000E+00 -0.00000000000E+00 -0.21395002171E+03  0.21395002171E+03  0.00000000000E+00 0. -1.
         25    2    1    2    0    0  0.10432330500E+03 -0.16907290066E+03  0.16619704585E+02  0.23530776730E+03  0.12499813227E+03 0.  0.
          2    1    1    2  501    0  0.24328405484E+02  0.16279860979E+02 -0.94621125538E+02  0.99045760055E+02  0.00000000000E+00 0. -1.
          1    1    1    2  502    0 -0.12865171049E+03  0.15279303968E+03  0.12754931803E+04  0.12910382754E+04  0.00000000000E+00 0. -1.
         22    1    3    3    0    0  0.14287732061E+02 -0.24030734782E+02  0.53763949835E+02  0.60598496709E+02  0.00000000000E+00 0. -1.
         22    1    3    3    0    0  0.90035572942E+02 -0.14504216587E+03 -0.37144245250E+02  0.17470927060E+03  0.00000000000E+00 0. -1.
</event>
<event>
 7    1  0.6370239E-006  0.5977839E+02  0.7818608E-02  0.1417293E+00
          2   -1    0    0  502    0  0.00000000000E+00  0.00000000000E+00  0.15068835531E+03  0.15068835531E+03  0.00000000000E+00 0. -1.
          1   -1    0    0  501    0 -0.00000000000E+00 -0.00000000000E+00 -0.64343823966E+03  0.64343823966E+03  0.00000000000E+00 0. -1.
         25    2    1    2    0    0  0.77215974847E+02 -0.73019783963E+02 -0.27270055144E+02  0.16632105540E+03  0.12499936775E+03 0.  0.
          2    1    1    2  501    0 -0.51646658941E+02  0.28074478502E+02 -0.53663537571E+03  0.53984542249E+03  0.00000000000E+00 0. -1.
          1    1    1    2  502    0 -0.25569315906E+02  0.44945305460E+02  0.71155546508E+02  0.87960117085E+02  0.00000000000E+00 0. -1.
         22    1    3    3    0    0  0.55433536091E+02 -0.73494634525E+02 -0.71800608921E+02  0.11674615912E+03  0.00000000000E+00 0.  1.
         22    1    3    3    0    0  0.21782438755E+02  0.47485056201E+00  0.44530553777E+02  0.49574896277E+02  0.00000000000E+00 0.  1.
</event>
<event>
 7    1  0.6370239E-006  0.5347462E+02  0.7818608E-02  0.1453624E+00
          2   -1    0    0  502    0  0.00000000000E+00  0.00000000000E+00  0.30494599030E+04  0.30494599030E+04  0.00000000000E+00 0. -1.
          1   -1    0    0  501    0 -0.00000000000E+00 -0.00000000000E+00 -0.18590683550E+02  0.18590683550E+02  0.00000000000E+00 0. -1.
         25    2    1    2    0    0  0.29845958796E+02 -0.48684812263E+02  0.12543643466E+04  0.12618702794E+04  0.12500278281E+03 0.  0.
          2    1    1    2  501    0  0.23776578888E+02  0.37001052937E+02  0.19152246956E+02  0.47970951476E+02  0.00000000000E+00 0. -1.
          1    1    1    2  502    0 -0.53622537684E+02  0.11683759326E+02  0.17573526259E+04  0.17582093557E+04  0.00000000000E+00 0. -1.
         22    1    3    3    0    0  0.11924768528E+02 -0.42324632196E+02  0.12794487541E+03  0.13529030171E+03  0.00000000000E+00 0. -1.
         22    1    3    3    0    0  0.17921190268E+02 -0.63601800666E+01  0.11264194712E+04  0.11265799776E+04  0.00000000000E+00 0. -1.
</event>
<event>
 7    1  0.6370239E-006  0.9025164E+02  0.7818608E-02  0.1322579E+00
          2   -1    0    0  502    0  0.00000000000E+00  0.00000000000E+00  0.51776681136E+03  0.51776681136E+03  0.00000000000E+00 0. -1.
          1   -1    0    0  501    0 -0.00000000000E+00 -0.00000000000E+00 -0.29384214830E+03  0.29384214830E+03  0.00000000000E+00 0. -1.
         25    2    1    2    0    0 -0.35795698270E+02  0.14062772126E+03 -0.63491800744E+02  0.20177681292E+03  0.12500074187E+03 0.  0.
          2    1    1    2  501    0  0.52775463912E+02 -0.53422902227E+02 -0.14772361182E+03  0.16571518206E+03  0.00000000000E+00 0. -1.
          1    1    1    2  502    0 -0.16979765642E+02 -0.87204819032E+02  0.43514007563E+03  0.44411696469E+03  0.00000000000E+00 0. -1.
         22    1    3    3    0    0 -0.68734201363E+02  0.13413608156E+03 -0.28701547038E+02  0.15342965038E+03  0.00000000000E+00 0. -1.
         22    1    3    3    0    0  0.32938503094E+02  0.64916396943E+01 -0.34790253706E+02  0.48347162532E+02  0.00000000000E+00 0. -1.
</event>
<event>
 7    1  0.6370239E-006  0.1030895E+03  0.7818608E-02  0.1391857E+00
          2   -1    0    0  502    0  0.00000000000E+00  0.00000000000E+00  0.64585414552E+03  0.64585414552E+03  0.00000000000E+00 0. -1.
          1   -1    0    0  501    0 -0.00000000000E+00 -0.00000000000E+00 -0.11569892448E+04  0.11569892448E+04  0.00000000000E+00 0. -1.
         25    2    1    2    0    0  0.81869994589E+02 -0.43215047753E+02  0.49667083542E+02  0.16328514037E+03  0.12499992605E+03 0.  0.
          2    1    1    2  501    0 -0.68676442271E+02  0.77382156713E+02 -0.10971218220E+04  0.11019894483E+04  0.00000000000E+00 0. -1.
          1    1    1    2  502    0 -0.13193552317E+02 -0.34167108960E+02  0.53631963916E+03  0.53756880165E+03  0.00000000000E+00 0. -1.
         22    1    3    3    0    0  0.65960892604E+02 -0.21740735048E+02  0.90748872752E+02  0.11427535526E+03  0.00000000000E+00 0.  1.
         22    1    3    3    0    0  0.15909101984E+02 -0.21474312705E+02 -0.41081789210E+02  0.49009785112E+02  0.00000000000E+00 0.  1.
</event>
<event>
 7    1  0.6370239E-006  0.1232845E+03  0.7818608E-02  0.1271915E+00
          2   -1    0    0  502    0  0.00000000000E+00  0.00000000000E+00  0.10709841571E+04  0.10709841571E+04  0.00000000000E+00 0. -1.
          1   -1    0    0  501    0 -0.00000000000E+00 -0.00000000000E+00 -0.16209773498E+04  0.16209773498E+04  0.00000000000E+00 0. -1.
         25    2    1    2    0    0  0.13711566874E+03  0.27416068645E+02 -0.64669789444E+02  0.19839017981E+03  0.12499653732E+03 0.  0.
          2    1    1    2  501    0 -0.11023700497E+03  0.56264164113E+02 -0.14849447461E+04  0.14900935382E+04  0.00000000000E+00 0. -1.
          1    1    1    2  502    0 -0.26878663768E+02 -0.83680232758E+02  0.99962134286E+03  0.10034777890E+04  0.00000000000E+00 0. -1.
         22    1    3    3    0    0 -0.13454150058E+02  0.13664628847E+02  0.17800195215E+02  0.26164540604E+02  0.00000000000E+00 0.  1.
         22    1    3    3    0    0  0.15056981880E+03  0.13751439798E+02 -0.82469984659E+02  0.17222563920E+03  0.00000000000E+00 0.  1.
</event>
<event>
 7    1  0.6370239E-006  0.1217268E+03  0.7818608E-02  0.1293944E+00
          2   -1    0    0  502    0  0.00000000000E+00  0.00000000000E+00  0.27616363981E+04  0.27616363981E+04  0.00000000000E+00 0. -1.
          1   -1    0    0  501    0 -0.00000000000E+00 -0.00000000000E+00 -0.17439684769E+03  0.17439684769E+03  0.00000000000E+00 0. -1.
         25    2    1    2    0    0 -0.81226536393E+02 -0.46773345418E+01  0.61986760034E+03  0.63755921440E+03  0.12500512886E+03 0.  0.
          2    1    1    2  501    0  0.98520511485E+02  0.74829197318E+02 -0.14173247793E+03  0.18813238758E+03  0.00000000000E+00 0. -1.
          1    1    1    2  502    0 -0.17293975092E+02 -0.70151862776E+02  0.21091044280E+04  0.21103416438E+04  0.00000000000E+00 0. -1.
         22    1    3    3    0    0 -0.15031255496E+02 -0.53423941978E+02  0.37917519053E+03  0.38321518932E+03  0.00000000000E+00 0.  1.
         22    1    3    3    0    0 -0.66195280898E+02  0.48746607436E+02  0.24069240982E+03  0.25434402508E+03  0.00000000000E+00 0.  1.
</event>
<event>
 7    1  0.6370239E-006  0.2125258E+03  0.7818608E-02  0.1186377E+00
          2   -1    0    0  502    0  0.00000000000E+00  0.00000000000E+00  0.40927177367E+03  0.40927177367E+03  0.00000000000E+00 0. -1.
          1   -1    0    0  501    0 -0.00000000000E+00 -0.00000000000E+00 -0.97530974794E+03  0.97530974794E+03  0.00000000000E+00 0. -1.
         25    2    1    2    0    0  0.20275174418E+03 -0.52791465974E+02 -0.84742926528E+03  0.88184835680E+03  0.12499982438E+03 0.  0.
          2    1    1    2  501    0 -0.26807138824E+03 -0.52134685401E+02  0.11709756991E+03  0.29713992578E+03  0.00000000000E+00 0. -1.
          1    1    1    2  502    0  0.65319644059E+02  0.10492615138E+03  0.16429372109E+03  0.20559323903E+03  0.00000000000E+00 0. -1.
         22    1    3    3    0    0  0.34285169440E+02 -0.52513243646E+02 -0.12272619987E+03  0.13782174624E+03  0.00000000000E+00 0.  1.
         22    1    3    3    0    0  0.16846657474E+03 -0.27822232736E+00 -0.72470306541E+03  0.74402661056E+03  0.00000000000E+00 0.  1.
</event>
<event>
 7    1  0.6370239E-006  0.9024748E+02  0.7818608E-02  0.1396520E+00
          2   -1    0    0  502    0  0.00000000000E+00  0.00000000000E+00  0.11946321536E+04  0.11946321536E+04  0.00000000000E+00 0. -1.
          1   -1    0    0  501    0 -0.00000000000E+00 -0.00000000000E+00 -0.10873340691E+04  0.10873340691E+04  0.00000000000E+00 0. -1.
         25    2    1    2    0    0 -0.82278270089E+02 -0.72314622420E+02  0.33167805709E+03  0.37098983635E+03  0.12499602704E+03 0.  0.
          2    1    1    2  501    0  0.39922103511E+02 -0.55679543488E+01 -0.10649657872E+04  0.10657283445E+04  0.00000000000E+00 0. -1.
          1    1    1    2  502    0  0.42356166577E+02  0.77882576768E+02  0.84058581452E+03  0.84524804181E+03  0.00000000000E+00 0. -1.
         22    1    3    3    0    0 -0.10083424506E+03 -0.67282893022E+02  0.17352821540E+03  0.21167563443E+03  0.00000000000E+00 0. -1.
         22    1    3    3    0    0  0.18555974974E+02 -0.50317293973E+01  0.15814984169E+03  0.15931420192E+03  0.00000000000E+00 0. -1.
</event>
<event>
 7    1  0.6370239E-006  0.6736470E+02  0.7818608E-02  0.1417962E+00
          2   -1    0    0  502    0  0.00000000000E+00  0.00000000000E+00  0.47707959001E+03  0.47707959001E+03  0.00000000000E+00 0. -1.
          1   -1    0    0  501    0 -0.00000000000E+00 -0.00000000000E+00 -0.23754563689E+03  0.23754563689E+03  0.00000000000E+00 0. -1.
         25    2    1    2    0    0 -0.35136454128E+02  0.57001086120E+01  0.11261062156E+02  0.13045995622E+03  0.12500370798E+03 0.  0.
          2    1    1    2  501    0 -0.26640239785E+02 -0.37070376283E+02 -0.17199249313E+03  0.17794755651E+03  0.00000000000E+00 0. -1.
          1    1    1    2  502    0  0.61776693914E+02  0.31370267671E+02  0.40026538410E+03  0.40621771418E+03  0.00000000000E+00 0. -1.
         22    1    3    3    0    0  0.77072631384E+01  0.29628156800E+02 -0.45869240020E+02  0.55147228039E+02  0.00000000000E+00 0.  1.
         22    1    3    3    0    0 -0.42843717267E+02 -0.23928048188E+02  0.57130302175E+02  0.75312728180E+02  0.00000000000E+00 0.  1.
</event>
<event>
 7    1  0.6370239E-006  0.1143456E+03  0.7818608E-02  0.1311398E+00
          2   -1    0    0  502    0  0.00000000000E+00  0.00000000000E+00  0.98376731169E+03  0.98376731169E+03  0.00000000000E+00 0. -1.
          1   -1    0    0  501    0 -0.00000000000E+00 -0.00000000000E+00 -0.20122778063E+04  0.20122778063E+04  0.00000000000E+00 0. -1.
         25    2    1    2    0    0 -0.15271144215E+03  0.25728654934E+01  0.10882990323E+03  0.22537955755E+03  0.12499837169E+03 0.  0.
          2    1    1    2  501    0  0.10414671573E+03 -0.46567482105E+02 -0.19510194736E+04  0.19543520807E+04  0.00000000000E+00 0. -1.
          1    1    1    2  502    0  0.48564726421E+02  0.43994616612E+02  0.81367907576E+03  0.81631347978E+03  0.00000000000E+00 0. -1.
         22    1    3    3    0    0 -0.10241956484E+03 -0.44760196418E+02  0.10927574330E+03  0.15631516407E+03  0.00000000000E+00 0.  1.
         22    1    3    3    0    0 -0.50291877312E+02  0.47333061911E+02 -0.44584006838E+00  0.69064393480E+02  0.00000000000E+00 0.  1.
</event>
<event>
 7    1  0.6370239E-006  0.1983673E+03  0.7818608E-02  0.1252447E+00
          2   -1    0    0  502    0  0.00000000000E+00  0.00000000000E+00  0.19569087324E+04  0.19569087324E+04  0.00000000000E+00 0. -1.
          1   -1    0    0  501    0 -0.00000000000E+00 -0.00000000000E+00 -0.69960729327E+03  0.69960729327E+03  0.00000000000E+00 0. -1.
         25    2    1    2    0    0  0.24509960459E+02  0.15566744767E+03  0.30283161500E+03  0.36354523809E+03  0.12500024269E+03 0.  0.
          2    1    1    2  501    0  0.54951696454E+02  0.36729954161E+02 -0.66092373719E+03  0.66422056944E+03  0.00000000000E+00 0. -1.
          1    1    1    2  502    0 -0.79461656913E+02 -0.19239740183E+03  0.16153935614E+04  0.16287502182E+04  0.00000000000E+00 0. -1.
         22    1    3    3    0    0  0.58164443928E+01  0.92344448353E+02  0.27801966057E+03  0.29301238852E+03  0.00000000000E+00 0.  1.
         22    1    3    3    0    0  0.18693516066E+02  0.63322999320E+02  0.24811954432E+02  0.70532849571E+02  0.00000000000E+00 0.  1.
</event>
<event>
 7    1  0.6370239E-006  0.4726308E+02  0.7818608E-02  0.1474433E+00
          2   -1    0    0  502    0  0.00000000000E+00  0.00000000000E+00  0.21458005585E+04  0.21458005585E+04  0.00000000000E+00 0. -1.
          1   -1    0    0  501    0 -0.00000000000E+00 -0.00000000000E+00 -0.97102503909E+03  0.97102503909E+03  0.00000000000E+00 0. -1.
         25    2    1    2    0    0 -0.35991982265E+02 -0.74015358789E+02  0.56125936549E+03  0.58087112553E+03  0.12500197198E+03 0.  0.
          2    1    1    2  501    0  0.19037092193E+01  0.42775127264E+02 -0.96040264599E+03  0.96135663416E+03  0.00000000000E+00 0. -1.
          1    1    1    2  502    0  0.34088273046E+02  0.31240231525E+02  0.15739187999E+04  0.15745978379E+04  0.00000000000E+00 0. -1.
         22    1    3    3    0    0 -0.80853877385E+02 -0.58529093929E+02  0.32881045095E+03  0.34362671168E+03  0.00000000000E+00 0. -1.
         22    1    3    3    0    0  0.44861895119E+02 -0.15486264860E+02  0.23244891454E+03  0.23724441385E+03  0.00000000000E+00 0. -1.
</event>
<event>
 7    1  0.6370239E-006  0.6802403E+02  0.7818608E-02  0.1424749E+00
          2   -1    0    0  502    0  0.00000000000E+00  0.00000000000E+00  0.17205599138E+04  0.17205599138E+04  0.00000000000E+00 0. -1.
          1   -1    0    0  501    0 -0.00000000000E+00 -0.00000000000E+00 -0.11703231432E+03  0.11703231432E+03  0.00000000000E+00 0. -1.
         25    2    1    2    0    0  0.33075654274E+02 -0.80813199987E+02  0.72046081214E+03  0.73641909753E+03  0.12499813273E+03 0.  0.
          2    1    1    2  501    0 -0.40341444633E+02  0.14631367364E+02 -0.10366587553E+03  0.11219680394E+03  0.00000000000E+00 0. -1.
          1    1    1    2  502    0  0.72657903590E+01  0.66181832623E+02  0.98673266285E+03  0.98897632662E+03  0.00000000000E+00 0. -1.
         22    1    3    3    0    0 -0.33139899862E+02 -0.77421506149E+02  0.34358466139E+03  0.35375522911E+03  0.00000000000E+00 0. -1.
         22    1    3    3    0    0  0.66215554137E+02 -0.33916938375E+01  0.37687615075E+03  0.38266386842E+03  0.00000000000E+00 0. -1.
</event>
<event>
 7    1  0.6370239E-006  0.5240943E+02  0.7818608E-02  0.1526557E+00
          2   -1    0    0  502    0  0.00000000000E+00  0.00000000000E+00  0.30047920224E+04  0.30047920224E+04  0.00000000000E+00 0. -1.
          1   -1    0    0  501    0 -0.00000000000E+00 -0.00000000000E+00 -0.12758147956E+02  0.12758147956E+02  0.00000000000E+00 0. -1.
         25    2    1    2    0    0 -0.60490785973E+02 -0.47670984722E+02  0.46625537087E+03  0.48882717531E+03  0.12500511382E+03 0.  0.
          2    1    1    2  501    0  0.15377729116E+02  0.22184047461E+02  0.15193906825E+03  0.15431813560E+03  0.00000000000E+00 0. -1.
          1    1    1    2  502    0  0.45113056857E+02  0.25486937260E+02  0.23738394353E+04  0.23744048595E+04  0.00000000000E+00 0. -1.
         22    1    3    3    0    0 -0.21909384144E+02  0.41488655980E+02  0.11055973671E+03  0.12010322672E+03  0.00000000000E+00 0.  1.
         22    1    3    3    0    0 -0.38581401829E+02 -0.89159640702E+02  0.35569563416E+03  0.36872394858E+03  0.00000000000E+00 0.  1.
</event>
<event>
 7    1  0.6370239E-006  0.7996875E+02  0.7818608E-02  0.1443247E+00
          2   -1    0    0  502    0  0.00000000000E+00  0.00000000000E+00  0.19659125495E+03  0.19659125495E+03  0.00000000000E+00 0. -1.
          1   -1    0    0  501    0 -0.00000000000E+00 -0.00000000000E+00 -0.67600961607E+03  0.67600961607E+03  0.00000000000E+00 0. -1.
         25    2    1    2    0    0 -0.26553713956E+02  0.53474028374E+02 -0.36470264571E+03  0.39012412770E+03  0.12499697514E+03 0.  0.
          2    1    1    2  501    0 -0.31679899530E+02  0.21443100261E+01 -0.28886812618E+03  0.29060799786E+03  0.00000000000E+00 0. -1.
          1    1    1    2  502    0  0.58233613486E+02 -0.55618338400E+02  0.17415241076E+03  0.19186874545E+03  0.00000000000E+00 0. -1.
         22    1    3    3    0    0 -0.46666605016E+02  0.27201046313E+02 -0.49740551413E+02  0.73428818587E+02  0.00000000000E+00 0.  1.
         22    1    3    3    0    0  0.20112891060E+02  0.26272982061E+02 -0.31496209429E+03  0.31669530912E+03  0.00000000000E+00 0.  1.
</event>
<event>
 7    1  0.6370239E-006  0.4343462E+02  0.7818608E-02  0.1502075E+00
          2   -1    0    0  502    0  0.00000000000E+00  0.00000000000E+00  0.44004408263E+03  0.44004408263E+03  0.00000000000E+00 0. -1.
          1   -1    0    0  501    0 -0.00000000000E+00 -0.00000000000E+00 -0.55173756705E+03  0.55173756705E+03  0.00000000000E+00 0. -1.
         25    2    1    2    0    0 -0.18421927738E+02  0.13193447714E+02 -0.10771084246E+03  0.16655254635E+03  0.12499876250E+03 0.  0.
          2    1    1    2  501    0  0.41008583506E+02  0.17876258612E+02 -0.41249554436E+03  0.41491425459E+03  0.00000000000E+00 0. -1.
          1    1    1    2  502    0 -0.22586655768E+02 -0.31069706326E+02  0.40851290240E+03  0.41031484874E+03  0.00000000000E+00 0. -1.
         22    1    3    3    0    0 -0.57162994354E+02  0.29899526114E+02 -0.17311474097E+02  0.66792789437E+02  0.00000000000E+00 0.  1.
         22    1    3    3    0    0  0.38741066616E+02 -0.16706078400E+02 -0.90399368366E+02  0.99759756911E+02  0.00000000000E+00 0.  1.
</event>
<event>
 7    1  0.6370239E-006  0.1229586E+03  0.7818608E-02  0.1362749E+00
          2   -1    0    0  502    0  0.00000000000E+00  0.00000000000E+00  0.11159098071E+04  0.11159098071E+04  0.00000000000E+00 0. -1.
          1   -1    0    0  501    0 -0.00000000000E+00 -0.00000000000E+00 -0.19450902669E+03  0.19450902669E+03  0.00000000000E+00 0. -1.
         25    2    1    2    0    0 -0.97692456234E+02  0.56513908386E+00  0.97746531857E+02  0.18634359786E+03  0.12500166633E+03 0.  0.
          2    1    1    2  501    0 -0.23843703688E+02  0.30828297192E+02 -0.14355670216E+03  0.14875292552E+03  0.00000000000E+00 0. -1.
          1    1    1    2  502    0  0.12153615992E+03 -0.31393436276E+02  0.96721095073E+03  0.97532231043E+03  0.00000000000E+00 0. -1.
         22    1    3    3    0    0 -0.82451946100E+02  0.14062549422E+02  0.12617284355E+03  0.15137920981E+03  0.00000000000E+00 0.  1.
         22    1    3    3    0    0 -0.15240510133E+02 -0.13497410338E+02 -0.28426311697E+02  0.34964388049E+02  0.00000000000E+00 0.  1.
</event>
<event>
 7    1  0.6370239E-006  0.1937192E+03  0.7818608E-02  0.1387063E+00
          2   -1    0    0  502    0  0.00000000000E+00  0.00000000000E+00  0.51546384760E+03  0.51546384760E+03  0.00000000000E+00 0. -1.
          1   -1    0    0  501    0 -0.00000000000E+00 -0.00000000000E+00 -0.99881388529E+02  0.99881388529E+02  0.00000000000E+00 0. -1.
         25    2    1    2    0    0  0.13879735394E+03  0.12190424939E+03  0.25797007830E+03  0.34102593484E+03  0.12499910183E+03 0.  0.
          2    1    1    2  501    0 -0.14087731400E+03 -0.14205411715E+03  0.15654947203E+03  0.25403449961E+03  0.00000000000E+00 0. -1.
          1    1    1    2  502    0  0.20799600663E+01  0.20149867755E+02  0.10629087528E+01  0.20284801686E+02  0.00000000000E+00 0. -1.
         22    1    3    3    0    0  0.35826283068E+02  0.10177412666E+01  0.13641683291E+03  0.14104648403E+03  0.00000000000E+00 0. -1.
         22    1    3    3    0    0  0.10297107087E+03  0.12088650812E+03  0.12155324539E+03  0.19997945081E+03  0.00000000000E+00 0. -1.
</event>
<event>
 7    1  0.6370239E-006  0.5830434E+02  0.7818608E-02  0.1444340E+00
          2   -1    0    0  502    0  0.00000000000E+00  0.00000000000E+00  0.48619208971E+03  0.48619208971E+03  0.00000000000E+00 0. -1.
          1   -1    0    0  501    0 -0.00000000000E+00 -0.00000000000E+00 -0.49257403859E+03  0.49257403859E+03  0.00000000000E+00 0. -1.
         25    2    1    2    0    0  0.67213674183E+02  0.40323473370E+02  0.19497769997E+02  0.14882459826E+03  0.12499975004E+03 0.  0.
          2    1    1    2  501    0 -0.58087269849E+02  0.18998559038E+01 -0.42476567948E+03  0.42872324737E+03  0.00000000000E+00 0. -1.
          1    1    1    2  502    0 -0.91264043344E+01 -0.42223329274E+02  0.39888596059E+03  0.40121828267E+03  0.00000000000E+00 0. -1.
         22    1    3    3    0    0 -0.21434418267E+02 -0.18051132299E+02  0.31320036413E+02  0.42026448156E+02  0.00000000000E+00 0.  1.
         22    1    3    3    0    0  0.88648092450E+02  0.58374605669E+02 -0.11822266415E+02  0.10679815010E+03  0.00000000000E+00 0.  1.
</event>
<event>
 7    1  0.6370239E-006  0.7737861E+02  0.7818608E-02  0.1388617E+00
          2   -1    0    0  502    0  0.00000000000E+00  0.00000000000E+00  0.10361704498E+04  0.10361704498E+04  0.00000000000E+00 0. -1.
          1   -1    0    0  501    0 -0.00000000000E+00 -0.00000000000E+00 -0.22092555332E+03  0.22092555332E+03  0.00000000000E+00 0. -1.
         25    2    1    2    0    0 -0.14092244518E+02 -0.29080412094E+02  0.18066850602E+03  0.22206077943E+03  0.12500247586E+03 0.  0.
          2    1    1    2  501    0 -0.32253727024E+02 -0.38313763681E+02 -0.19505486827E+03  0.20138184881E+03  0.00000000000E+00 0. -1.
          1    1    1    2  502    0  0.46345971542E+02  0.67394175775E+02  0.82963125871E+03  0.83365337487E+03  0.00000000000E+00 0. -1.
         22    1    3    3    0    0  0.51542419885E+02  0.19799409368E+01  0.46231041692E+02  0.69266517377E+02  0.00000000000E+00 0. -1.
         22    1    3    3    0    0 -0.65634664403E+02 -0.31060353031E+02  0.13443746433E+03  0.15279426205E+03  0.00000000000E+00 0. -1.
</event>
<event>
 7    1  0.6370239E-006  0.2714867E+02  0.7818608E-02  0.1657077E+00
          2   -1    0    0  502    0  0.00000000000E+00  0.00000000000E+00  0.37819069289E+03  0.37819069289E+03  0.00000000000E+00 0. -1.
          1   -1    0    0  501    0 -0.00000000000E+00 -0.00000000000E+00 -0.51419107615E+03  0.51419107615E+03  0.00000000000E+00 0. -1.
         25    2    1    2    0    0 -0.47543604197E+01  0.81496918396E+00 -0.65256968738E+02  0.14109498302E+03  0.12500421651E+03 0.  0.
          2    1    1    2  501    0 -0.14338883518E+02  0.18658159760E+02 -0.41013086083E+03  0.41080537181E+03  0.00000000000E+00 0. -1.
          1    1    1    2  502    0  0.19093243938E+02 -0.19473128943E+02  0.33938744630E+03  0.34048141421E+03  0.00000000000E+00 0. -1.
         22    1    3    3    0    0  0.46874325606E+02  0.34593188903E+02 -0.51781700210E+02  0.77943797676E+02  0.00000000000E+00 0. -1.
         22    1    3    3    0    0 -0.51628686026E+02 -0.33778219719E+02 -0.13475268528E+02  0.63151185341E+02  0.00000000000E+00 0. -1.
</event>
<event>
 7    1  0.6370239E-006  0.8201924E+02  0.7818608E-02  0.1339656E+00
          2   -1    0    0  502    0  0.00000000000E+00  0.00000000000E+00  0.15424183017E+04  0.15424183017E+04  0.00000000000E+00 0. -1.
          1   -1    0    0  501    0 -0.00000000000E+00 -0.00000000000E+00 -0.55927128954E+03  0.55927128954E+03  0.00000000000E+00 0. -1.
         25    2    1    2    0    0 -0.39470329045E+02  0.72831185996E+02 -0.24591379075E+02  0.15196397105E+03  0.12500409611E+03 0.  0.
          2    1    1    2  501    0  0.71048782870E+02  0.32822550793E+01 -0.46715180552E+03  0.47253519673E+03  0.00000000000E+00 0. -1.
          1    1    1    2  502    0 -0.31578453825E+02 -0.76113441075E+02  0.14748901967E+04  0.14771904234E+04  0.00000000000E+00 0. -1.
         22    1    3    3    0    0  0.20316780575E+02  0.86274612493E+02 -0.12675172996E+02  0.89536251565E+02  0.00000000000E+00 0. -1.
         22    1    3    3    0    0 -0.59787109620E+02 -0.13443426497E+02 -0.11916206079E+02  0.62427719485E+02  0.00000000000E+00 0. -1.
</event>
<event>
 7    1  0.6370239E-006  0.5543123E+02  0.7818608E-02  0.1500290E+00
          2   -1    0    0  502    0  0.00000000000E+00  0.00000000000E+00  0.21476367583E+04  0.21476367583E+04  0.00000000000E+00 0. -1.
          1   -1    0    0  501    0 -0.00000000000E+00 -0.00000000000E+00 -0.74171245136E+02  0.74171245136E+02  0.00000000000E+00 0. -1.
         25    2    1    2    0    0 -0.52840688444E+01  0.64182072750E+02  0.84033441588E+03  0.85201782720E+03  0.12500075001E+03 0.  0.
          2    1    1    2  501    0  0.30110600356E+02 -0.46517355983E+02 -0.56885783055E+02  0.79413506252E+02  0.00000000000E+00 0. -1.
          1    1    1    2  502    0 -0.24826531511E+02 -0.17664716767E+02  0.12900168803E+04  0.12903766699E+04  0.00000000000E+00 0. -1.
         22    1    3    3    0    0  0.41636075851E+02  0.41097858403E+02  0.69685764941E+03  0.69930907353E+03  0.00000000000E+00 0. -1.
         22    1    3    3    0    0 -0.46920144695E+02  0.23084214347E+02  0.14347676647E+03  0.15270875367E+03  0.00000000000E+00 0. -1.
</event>
<event>
 7    1  0.6370239E-006  0.1704208E+03  0.7818608E-02  0.1214674E+00
          2   -1    0    0  502    0  0.00000000000E+00  0.00000000000E+00  0.13160401278E+04  0.13160401278E+04  0.00000000000E+00 0. -1.
          1   -1    0    0  501    0 -0.00000000000E+00 -0.00000000000E+00 -0.11739922120E+04  0.11739922120E+04  0.00000000000E+00 0. -1.
         25    2    1    2    0    0  0.73006747026E+01  0.15665435624E+03  0.52683445067E+03  0.56371421161E+03  0.12500114709E+03 0.  0.
          2    1    1    2  501    0 -0.11628343353E+03 -0.12538422635E+03 -0.11449983822E+04  0.11576978606E+04  0.00000000000E+00 0. -1.
          1    1    1    2  502    0  0.10898275883E+03 -0.31270129894E+02  0.76021184737E+03  0.76862026751E+03  0.00000000000E+00 0. -1.
         22    1    3    3    0    0  0.48452389505E+02  0.14527871837E+03  0.45575746592E+03  0.48079975853E+03  0.00000000000E+00 0. -1.
         22    1    3    3    0    0 -0.41151714802E+02  0.11375637876E+02  0.71076984748E+02  0.82914453077E+02  0.00000000000E+00 0. -1.
</event>
<event>
 7    1  0.6370239E-006  0.2588446E+02  0.7818608E-02  0.1679457E+00
          2   -1    0    0  502    0  0.00000000000E+00  0.00000000000E+00  0.57350162453E+03  0.57350162453E+03  0.00000000000E+00 0. -1.
          1   -1    0    0  501    0 -0.00000000000E+00 -0.00000000000E+00 -0.31236709379E+03  0.31236709379E+03  0.00000000000E+00 0. -1.
         25    2    1    2    0    0 -0.44626067013E+02 -0.28811142927E+01  0.22426148979E+02  0.13463968644E+03  0.12500050532E+03 0.  0.
          2    1    1    2  501    0  0.19680179078E+02  0.94060493576E+01 -0.25545942454E+03  0.25638896388E+03  0.00000000000E+00 0. -1.
          1    1    1    2  502    0  0.24945887935E+02 -0.65249350649E+01  0.49416780630E+03  0.49484006799E+03  0.00000000000E+00 0. -1.
         22    1    3    3    0    0 -0.82854107834E+02 -0.26949016055E+02  0.20048995607E+02  0.89403662543E+02  0.00000000000E+00 0.  1.
         22    1    3    3    0    0  0.38228040821E+02  0.24067901763E+02  0.23771533721E+01  0.45236023901E+02  0.00000000000E+00 0.  1.
</event>
<event>
 7    1  0.6370239E-006  0.1009204E+03  0.7818608E-02  0.1422706E+00
          2   -1    0    0  502    0  0.00000000000E+00  0.00000000000E+00  0.17713514766E+04  0.17713514766E+04  0.00000000000E+00 0. -1.
          1   -1    0    0  501    0 -0.00000000000E+00 -0.00000000000E+00 -0.18114968925E+02  0.18114968925E+02  0.00000000000E+00 0. -1.
         25    2    1    2    0    0 -0.67823894027E+02  0.98882349965E+02  0.10812553646E+04  0.10950412928E+04  0.12499787915E+03 0.  0.
          2    1    1    2  501    0  0.68193097271E+02 -0.69504309476E+02  0.20961841822E+03  0.23112989597E+03  0.00000000000E+00 0. -1.
          1    1    1    2  502    0 -0.36920324411E+00 -0.29378040490E+02  0.46236272491E+03  0.46329525679E+03  0.00000000000E+00 0. -1.
         22    1    3    3    0    0 -0.31135270701E+02  0.11795946466E+03  0.61686049309E+03  0.62880896012E+03  0.00000000000E+00 0. -1.
         22    1    3    3    0    0 -0.36688623326E+02 -0.19077114691E+02  0.46439487146E+03  0.46623233267E+03  0.00000000000E+00 0. -1.
</event>
<event>
 7    1  0.6370239E-006  0.2445056E+02  0.7818608E-02  0.1669999E+00
          2   -1    0    0  502    0  0.00000000000E+00  0.00000000000E+00  0.40019950827E+03  0.40019950827E+03  0.00000000000E+00 0. -1.
          1   -1    0    0  501    0 -0.00000000000E+00 -0.00000000000E+00 -0.63023464074E+03  0.63023464074E+03  0.00000000000E+00 0. -1.
         25    2    1    2    0    0  0.25725522657E+02  0.24746981906E+02  0.37530494051E+02  0.13530793938E+03  0.12500193937E+03 0.  0.
          2    1    1    2  501    0 -0.12973939571E+01 -0.24284588988E+02 -0.58061538009E+03  0.58112446523E+03  0.00000000000E+00 0. -1.
          1    1    1    2  502    0 -0.24428128699E+02 -0.46239291747E+00  0.31304975356E+03  0.31400174440E+03  0.00000000000E+00 0. -1.
         22    1    3    3    0    0  0.65477913218E+02  0.48465659323E+02  0.35806116610E+02  0.88985140555E+02  0.00000000000E+00 0.  1.
         22    1    3    3    0    0 -0.39752390561E+02 -0.23718677417E+02  0.17243774410E+01  0.46322798828E+02  0.00000000000E+00 0.  1.
</event>
<event>
 7    1  0.6370239E-006  0.1646859E+03  0.7818608E-02  0.1303456E+00
          2   -1    0    0  502    0  0.00000000000E+00  0.00000000000E+00  0.54237868145E+03  0.54237868145E+03  0.00000000000E+00 0. -1.
          1   -1    0    0  501    0 -0.00000000000E+00 -0.00000000000E+00 -0.39297032271E+03  0.39297032271E+03  0.00000000000E+00 0. -1.
         25    2    1    2    0    0  0.15391658723E+03 -0.72765665789E+02  0.13833998466E+03  0.25248321447E+03  0.12499865715E+03 0.  0.
          2    1    1    2  501    0  0.88250760103E+01  0.48110076639E+02 -0.31437945171E+03  0.31816175304E+03  0.00000000000E+00 0. -1.
          1    1    1    2  502    0 -0.16274166324E+03  0.24655589150E+02  0.32544782580E+03  0.36470403665E+03  0.00000000000E+00 0. -1.
         22    1    3    3    0    0  0.25943210035E+02 -0.68279980924E+02  0.14748766463E+02  0.74516656219E+02  0.00000000000E+00 0. -1.
         22    1    3    3    0    0  0.12797337720E+03 -0.44856848652E+01  0.12359121820E+03  0.17796655825E+03  0.00000000000E+00 0. -1.
</event>
<event>
 7    1  0.6370239E-006  0.3859173E+02  0.7818608E-02  0.1539498E+00
          2   -1    0    0  502    0  0.00000000000E+00  0.00000000000E+00  0.17831573548E+03  0.17831573548E+03  0.00000000000E+00 0. -1.
          1   -1    0    0  501    0 -0.00000000000E+00 -0.00000000000E+00 -0.36520065988E+03  0.36520065988E+03  0.00000000000E+00 0. -1.
         25    2    1    2    0    0  0.56685091782E+00  0.68270661291E+02 -0.10102818550E+03  0.17462158042E+03  0.12499919028E+03 0.  0.
          2    1    1    2  501    0 -0.10214335098E+02 -0.36013027623E+02 -0.22379638314E+03  0.22690546910E+03  0.00000000000E+00 0. -1.
          1    1    1    2  502    0  0.96474841803E+01 -0.32257633668E+02  0.13793964423E+03  0.14198934584E+03  0.00000000000E+00 0. -1.
         22    1    3    3    0    0  0.53944080554E+01  0.71340888166E+02  0.18655975205E+01  0.71568864856E+02  0.00000000000E+00 0. -1.
         22    1    3    3    0    0 -0.48275571376E+01 -0.30702268751E+01 -0.10289378302E+03  0.10305271556E+03  0.00000000000E+00 0. -1.
</event>
<event>
 7    1  0.6370239E-006  0.1265640E+03  0.7818608E-02  0.1250839E+00
          2   -1    0    0  502    0  0.00000000000E+00  0.00000000000E+00  0.29962958988E+04  0.29962958988E+04  0.00000000000E+00 0. -1.
          1   -1    0    0  501    0 -0.00000000000E+00 -0.00000000000E+00 -0.22480936511E+04  0.22480936511E+04  0.00000000000E+00 0. -1.
         25    2    1    2    0    0  0.19610276103E+02  0.13055323315E+02  0.23061013260E+03  0.26336509180E+03  0.12500053571E+03 0.  0.
          2    1    1    2  501    0 -0.77972857115E+02 -0.10066459398E+03 -0.22288907973E+04  0.22325248741E+04  0.00000000000E+00 0. -1.
          1    1    1    2  502    0  0.58362581011E+02  0.87609270665E+02  0.27464829125E+04  0.27484995841E+04  0.00000000000E+00 0. -1.
         22    1    3    3    0    0  0.54518190402E+02  0.42000150947E+02  0.19146999330E+03  0.20346253733E+03  0.00000000000E+00 0.  1.
         22    1    3    3    0    0 -0.34907914299E+02 -0.28944827632E+02  0.39140139297E+02  0.59902554466E+02  0.00000000000E+00 0.  1.
</event>
<event>
 7    1  0.6370239E-006  0.1576216E+03  0.7818608E-02  0.1258247E+00
          2   -1    0    0  502    0  0.00000000000E+00  0.00000000000E+00  0.66371101418E+03  0.66371101418E+03  0.00000000000E+00 0. -1.
          1   -1    0    0  501    0 -0.00000000000E+00 -0.00000000000E+00 -0.12958933135E+04  0.12958933135E+04  0.00000000000E+00 0. -1.
         25    2    1    2    0    0 -0.22427234480E+03 -0.44488522901E+02  0.36406430716E+03  0.44771072030E+03  0.12499902406E+03 0.  0.
          2    1    1    2  501    0  0.15673654106E+03  0.43954313337E+01 -0.12430471395E+04  0.12528973837E+04  0.00000000000E+00 0. -1.
          1    1    1    2  502    0  0.67535803732E+02  0.40093091567E+02  0.24680053302E+03  0.25899622367E+03  0.00000000000E+00 0. -1.
         22    1    3    3    0    0 -0.22097048764E+03 -0.40702843395E+02  0.26045164876E+03  0.34397636432E+03  0.00000000000E+00 0. -1.
         22    1    3    3    0    0 -0.33018571532E+01 -0.37856795066E+01  0.10361265840E+03  0.10373435598E+03  0.00000000000E+00 0. -1.
</event>
<event>
 7    1  0.6370239E-006  0.8154352E+02  0.7818608E-02  0.1364494E+00
          2   -1    0    0  502    0  0.00000000000E+00  0.00000000000E+00  0.20118798305E+02  0.20118798305E+02  0.00000000000E+00 0. -1.
          1   -1    0    0  501    0 -0.00000000000E+00 -0.00000000000E+00 -0.22980152071E+04  0.22980152071E+04  0.00000000000E+00 0. -1.
         25    2    1    2    0    0 -0.83316483638E+02 -0.14722665881E+02 -0.12620726435E+04  0.12710665968E+04  0.12499817023E+03 0.  0.
          2    1    1    2  501    0  0.30467515869E+02 -0.49254613404E+02 -0.91345544521E+03  0.91528964643E+03  0.00000000000E+00 0. -1.
          1    1    1    2  502    0  0.52848967769E+02  0.63977279285E+02 -0.10236832003E+03  0.13177776218E+03  0.00000000000E+00 0. -1.
         22    1    3    3    0    0 -0.75176016106E+02 -0.61541301568E+02 -0.65878617311E+03  0.66591139581E+03  0.00000000000E+00 0. -1.
         22    1    3    3    0    0 -0.81404675321E+01  0.46818635687E+02 -0.60328647043E+03  0.60515520097E+03  0.00000000000E+00 0. -1.
</event>
<event>
 7    1  0.6370239E-006  0.1217272E+03  0.7818608E-02  0.1338080E+00
          2   -1    0    0  502    0  0.00000000000E+00  0.00000000000E+00  0.10950184931E+04  0.10950184931E+04  0.00000000000E+00 0. -1.
          1   -1    0    0  501    0 -0.00000000000E+00 -0.00000000000E+00 -0.33919276271E+03  0.33919276271E+03  0.00000000000E+00 0. -1.
         25    2    1    2    0    0 -0.11772013136E+03 -0.46514708528E+02  0.41487788232E+02  0.18267144574E+03  0.12500389226E+03 0.  0.
          2    1    1    2  501    0  0.87898174459E+02  0.84868526200E+02 -0.25406547726E+03  0.28191846791E+03  0.00000000000E+00 0. -1.
          1    1    1    2  502    0  0.29821956899E+02 -0.38353817673E+02  0.96840341942E+03  0.96962134217E+03  0.00000000000E+00 0. -1.
         22    1    3    3    0    0 -0.13697478829E+03 -0.33474648152E+02  0.59710512868E+02  0.15312736543E+03  0.00000000000E+00 0. -1.
         22    1    3    3    0    0  0.19254656936E+02 -0.13040060375E+02 -0.18222724636E+02  0.29544080312E+02  0.00000000000E+00 0. -1.
</event>
<event>
 7    1  0.6370239E-006  0.1423207E+03  0.7818608E-02  0.1289518E+00
          2   -1    0    0  502    0  0.00000000000E+00  0.00000000000E+00  0.54312800277E+03  0.54312800277E+03  0.00000000000E+00 0. -1.
          1   -1    0    0  501    0 -0.00000000000E+00 -0.00000000000E+00 -0.14918246892E+04  0.14918246892E+04  0.00000000000E+00 0. -1.
         25    2    1    2    0    0  0.92054783419E+02 -0.11686170898E+03  0.83146871278E+02  0.21134845484E+03  0.12499609987E+03 0.  0.
          2    1    1    2  501    0 -0.12771090551E+03  0.63227423763E+02 -0.14215180675E+04  0.14286432021E+04  0.00000000000E+00 0. -1.
          1    1    1    2  502    0  0.35656122091E+02  0.53634285221E+02  0.38967450983E+03  0.39496103505E+03  0.00000000000E+00 0. -1.
         22    1    3    3    0    0  0.88706976420E+02 -0.99606659787E+02  0.11424955007E+03  0.17562281751E+03  0.00000000000E+00 0. -1.
         22    1    3    3    0    0  0.33478069986E+01 -0.17255049198E+02 -0.31102678790E+02  0.35725637327E+02  0.00000000000E+00 0. -1.
</event>
<event>
 7    1  0.6370239E-006  0.6033091E+02  0.7818608E-02  0.1433324E+00
          2   -1    0    0  502    0  0.00000000000E+00  0.00000000000E+00  0.38211461432E+03  0.38211461432E+03  0.00000000000E+00 0. -1.
          1   -1    0    0  501    0 -0.00000000000E+00 -0.00000000000E+00 -0.10466096717E+04  0.10466096717E+04  0.00000000000E+00 0. -1.
         25    2    1    2    0    0  0.66713604459E+01 -0.29663447611E+02 -0.47523537466E+03  0.49233961096E+03  0.12500081606E+03 0.  0.
          2    1    1    2  501    0  0.21508310892E+02  0.65176894839E+02 -0.55934136781E+03  0.56353651239E+03  0.00000000000E+00 0. -1.
          1    1    1    2  502    0 -0.28179671338E+02 -0.35513447228E+02  0.37008168506E+03  0.37284816270E+03  0.00000000000E+00 0. -1.
         22    1    3    3    0    0 -0.46268388078E+02 -0.17786007796E+02 -0.85373298579E+02  0.98720341972E+02  0.00000000000E+00 0.  1.
         22    1    3    3    0    0  0.52939748524E+02 -0.11877439815E+02 -0.38986207608E+03  0.39361926899E+03  0.00000000000E+00 0.  1.
</event>
<event>
 7    1  0.6370239E-006  0.7580789E+02  0.7818608E-02  0.1390873E+00
          2   -1    0    0  502    0  0.00000000000E+00  0.00000000000E+00  0.45279724028E+03  0.45279724028E+03  0.00000000000E+00 0. -1.
          1   -1    0    0  501    0 -0.00000000000E+00 -0.00000000000E+00 -0.27127281412E+03  0.27127281412E+03  0.00000000000E+00 0. -1.
         25    2    1    2    0    0  0.11741148458E+02 -0.23946024095E+02 -0.17313287069E+03  0.21520141814E+03  0.12500157127E+03 0.  0.
          2    1    1    2  501    0  0.15376743466E+02 -0.47788617000E+02 -0.65074661548E+02  0.82188245692E+02  0.00000000000E+00 0. -1.
          1    1    1    2  502    0 -0.27117891924E+02  0.71734641094E+02  0.41973195839E+03  0.42668039056E+03  0.00000000000E+00 0. -1.
         22    1    3    3    0    0 -0.53433341743E+02 -0.26392839105E+02 -0.10599382599E+03  0.12159932201E+03  0.00000000000E+00 0.  1.
         22    1    3    3    0    0  0.65174490200E+02  0.24468150107E+01 -0.67139044702E+02  0.93602096130E+02  0.00000000000E+00 0.  1.
</event>
<event>
 7    1  0.6370239E-006  0.8716227E+02  0.7818608E-02  0.1380099E+00
          2   -1    0    0  502    0  0.00000000000E+00  0.00000000000E+00  0.77880008808E+03  0.77880008808E+03  0.00000000000E+00 0. -1.
          1   -1    0    0  501    0 -0.00000000000E+00 -0.00000000000E+00 -0.30737072290E+03  0.30737072290E+03  0.00000000000E+00 0. -1.
         25    2    1    2    0    0 -0.22499156405E+01 -0.15832238868E+02 -0.18015367436E+03  0.21985673207E+03  0.12500365731E+03 0.  0.
          2    1    1    2  501    0 -0.84001203218E+02  0.28402285523E+02 -0.86042560740E+02  0.12355652238E+03  0.00000000000E+00 0. -1.
          1    1    1    2  502    0  0.86251118859E+02 -0.12570046656E+02  0.73762560029E+03  0.74275755653E+03  0.00000000000E+00 0. -1.
         22    1    3    3    0    0 -0.21886631463E+02  0.14182382115E+02 -0.18207928443E+03  0.18393757207E+03  0.00000000000E+00 0.  1.
         22    1    3    3    0    0  0.19636715822E+02 -0.30014620983E+02  0.19256100681E+01  0.35919160000E+02  0.00000000000E+00 0.  1.
</event>
<event>
 7    1  0.6370239E-006  0.7593498E+02  0.7818608E-02  0.1399436E+00
          2   -1    0    0  502    0  0.00000000000E+00  0.00000000000E+00  0.41998300922E+03  0.41998300922E+03  0.00000000000E+00 0. -1.
          1   -1    0    0  501    0 -0.00000000000E+00 -0.00000000000E+00 -0.20411227161E+03  0.20411227161E+03  0.00000000000E+00 0. -1.
         25    2    1    2    0    0 -0.60842787496E+02  0.29501138512E+02  0.27712702889E+03  0.31144283874E+03  0.12500035877E+03 0.  0.
          2    1    1    2  501    0  0.34600026085E+02 -0.68262435439E+02 -0.17426695918E+03  0.19033101418E+03  0.00000000000E+00 0. -1.
          1    1    1    2  502    0  0.26242761412E+02  0.38761296926E+02  0.11301066790E+03  0.12232142790E+03  0.00000000000E+00 0. -1.
         22    1    3    3    0    0 -0.27346554775E+01  0.24099819214E+01  0.23432923078E+03  0.23435757883E+03  0.00000000000E+00 0. -1.
         22    1    3    3    0    0 -0.58108132019E+02  0.27091156591E+02  0.42797798110E+02  0.77085259909E+02  0.00000000000E+00 0. -1.
</event>
<event>
 7    1  0.6370239E-006  0.2797748E+03  0.7818608E-02  0.1160947E+00
          2   -1    0    0  502    0  0.00000000000E+00  0.00000000000E+00  0.16536852194E+04  0.16536852194E+04  0.00000000000E+00 0. -1.
          1   -1    0    0  501    0 -0.00000000000E+00 -0.00000000000E+00 -0.25360557289E+04  0.25360557289E+04  0.00000000000E+00 0. -1.
         25    2    1    2    0    0 -0.20545757919E+03  0.20493818775E+03 -0.26046910265E+02  0.31704161525E+03  0.12499786647E+03 0.  0.
          2    1    1    2  501    0  0.94964997160E+02 -0.26413435969E+03 -0.23535531876E+04  0.23702316169E+04  0.00000000000E+00 0. -1.
          1    1    1    2  502    0  0.11049258203E+03  0.59196171936E+02  0.14972295884E+04  0.15024677161E+04  0.00000000000E+00 0. -1.
         22    1    3    3    0    0  0.76397838025E+01  0.93294268290E+01 -0.25022548350E+02  0.27776472552E+02  0.00000000000E+00 0. -1.
         22    1    3    3    0    0 -0.21309736300E+03  0.19560876092E+03 -0.10243619149E+01  0.28926514270E+03  0.00000000000E+00 0. -1.
</event>
<event>
 7    1  0.6370239E-006  0.5904266E+02  0.7818608E-02  0.1458621E+00
          2   -1    0    0  502    0  0.00000000000E+00  0.00000000000E+00  0.19132930657E+04  0.19132930657E+04  0.00000000000E+00 0. -1.
          1   -1    0    0  501    0 -0.00000000000E+00 -0.00000000000E+00 -0.72635163678E+02  0.72635163678E+02  0.00000000000E+00 0. -1.
         25    2    1    2    0    0  0.56171066807E+02  0.15719774376E+02  0.12109603282E+03  0.18354979249E+03  0.12499590835E+03 0.  0.
          2    1    1    2  501    0 -0.56325795538E+02  0.22686441824E+02 -0.18819892262E+02  0.63572464404E+02  0.00000000000E+00 0. -1.
          1    1    1    2  502    0  0.15472873090E+00 -0.38406216200E+02  0.17383817614E+04  0.17388059725E+04  0.00000000000E+00 0. -1.
         22    1    3    3    0    0  0.43989657807E+02  0.67488625431E+02  0.50188424250E+02  0.94914079489E+02  0.00000000000E+00 0. -1.
         22    1    3    3    0    0  0.12181409000E+02 -0.51768851055E+02  0.70907608574E+02  0.88635712997E+02  0.00000000000E+00 0. -1.
</event>
<event>
 7    1  0.6370239E-006  0.1120806E+03  0.7818608E-02  0.1301338E+00
          2   -1    0    0  502    0  0.00000000000E+00  0.00000000000E+00  0.40805430509E+03  0.40805430509E+03  0.00000000000E+00 0. -1.
          1   -1    0    0  501    0 -0.00000000000E+00 -0.00000000000E+00 -0.73495092126E+03  0.73495092126E+03  0.00000000000E+00 0. -1.
         25    2    1    2    0    0  0.18873484690E+02 -0.16809639878E+03 -0.44315092413E+02  0.21495772741E+03  0.12502155595E+03 0.  0.
          2    1    1    2  501    0 -0.39721425262E+02  0.61582704175E+02 -0.59387321200E+03  0.59837748371E+03  0.00000000000E+00 0. -1.
          1    1    1    2  502    0  0.20847940572E+02  0.10651369461E+03  0.31129168825E+03  0.32967001522E+03  0.00000000000E+00 0. -1.
         22    1    3    3    0    0 -0.62930589167E+01 -0.70194199127E+02 -0.81049335578E+02  0.10740494858E+03  0.00000000000E+00 0. -1.
         22    1    3    3    0    0  0.25166543606E+02 -0.97902199655E+02  0.36734243165E+02  0.10755277884E+03  0.00000000000E+00 0. -1.
</event>
<event>
 7    1  0.6370239E-006  0.8604552E+02  0.7818608E-02  0.1391740E+00
          2   -1    0    0  502    0  0.00000000000E+00  0.00000000000E+00  0.16085401811E+03  0.16085401811E+03  0.00000000000E+00 0. -1.
          1   -1    0    0  501    0 -0.00000000000E+00 -0.00000000000E+00 -0.66861547538E+03  0.66861547538E+03  0.00000000000E+00 0. -1.
         25    2    1    2    0    0 -0.68471225748E+02 -0.46993102755E+02 -0.16884670295E+03  0.22589817932E+03  0.12499647139E+03 0.  0.
          2    1    1    2  501    0  0.38420310919E+02  0.79025702474E+02 -0.46335188398E+03  0.47161016775E+03  0.00000000000E+00 0. -1.
          1    1    1    2  502    0  0.30050914830E+02 -0.32032599719E+02  0.12443712966E+03  0.13196114642E+03  0.00000000000E+00 0. -1.
         22    1    3    3    0    0 -0.37526016921E+02 -0.85020896405E+02 -0.14280885201E+03  0.17038521938E+03  0.00000000000E+00 0.  1.
         22    1    3    3    0    0 -0.30945208827E+02  0.38027793650E+02 -0.26037850945E+02  0.55512959938E+02  0.00000000000E+00 0.  1.
</event>
<event>
 7    1  0.6370239E-006  0.8080899E+02  0.7818608E-02  0.1460425E+00
          2   -1    0    0  502    0  0.00000000000E+00  0.00000000000E+00  0.10264323773E+04  0.10264323773E+04  0.00000000000E+00 0. -1.
          1   -1    0    0  501    0 -0.00000000000E+00 -0.00000000000E+00 -0.24609692627E+02  0.24609692627E+02  0.00000000000E+00 0. -1.
         25    2    1    2    0    0 -0.42821826827E+02 -0.53362276716E+02  0.70238812324E+03  0.71669735088E+03  0.12499910265E+03 0.  0.
          2    1    1    2  501    0 -0.58428054151E+01 -0.27072583086E+02  0.90742090988E+01  0.29144543243E+02  0.00000000000E+00 0. -1.
          1    1    1    2  502    0  0.48664632242E+02  0.80434859802E+02  0.29036035233E+03  0.30520017580E+03  0.00000000000E+00 0. -1.
         22    1    3    3    0    0  0.41004074423E+02 -0.33053685492E+02  0.34808491450E+03  0.35204685476E+03  0.00000000000E+00 0. -1.
         22    1    3    3    0    0 -0.83825901250E+02 -0.20308591224E+02  0.35430320874E+03  0.36465049612E+03  0.00000000000E+00 0. -1.
</event>
<event>
 7    1  0.6370239E-006  0.1164472E+03  0.7818608E-02  0.1371862E+00
          2   -1    0    0  502    0  0.00000000000E+00  0.00000000000E+00  0.15062793715E+04  0.15062793715E+04  0.00000000000E+00 0. -1.
          1   -1    0    0  501    0 -0.00000000000E+00 -0.00000000000E+00 -0.81843525843E+03  0.81843525843E+03  0.00000000000E+00 0. -1.
         25    2    1    2    0    0 -0.16682439435E+02 -0.12325932133E+03  0.63085271218E+03  0.65503532533E+03  0.12499987552E+03 0.  0.
          2    1    1    2  501    0 -0.20476907736E+02  0.11461936551E+03 -0.80171501298E+03  0.81012583266E+03  0.00000000000E+00 0. -1.
          1    1    1    2  502    0  0.37159347171E+02  0.86399558209E+01  0.85870641389E+03  0.85955347197E+03  0.00000000000E+00 0. -1.
         22    1    3    3    0    0  0.49772653119E+02 -0.32846735237E+02  0.29394684408E+03  0.29993494655E+03  0.00000000000E+00 0. -1.
         22    1    3    3    0    0 -0.66455092553E+02 -0.90412586095E+02  0.33690586810E+03  0.35510037878E+03  0.00000000000E+00 0. -1.
</event>
<event>
 7    1  0.6370239E-006  0.6313589E+02  0.7818608E-02  0.1519810E+00
          2   -1    0    0  502    0  0.00000000000E+00  0.00000000000E+00  0.50009453292E+03  0.50009453292E+03  0.00000000000E+00 0. -1.
          1   -1    0    0  501    0 -0.00000000000E+00 -0.00000000000E+00 -0.12161628237E+03  0.12161628237E+03  0.00000000000E+00 0. -1.
         25    2    1    2    0    0 -0.10966358189E+02  0.58162336849E+02  0.94711706112E+02  0.16762695470E+03  0.12500148090E+03 0.  0.
          2    1    1    2  501    0 -0.23044595387E+02 -0.42666800910E+01 -0.80727365384E+02  0.84060486897E+02  0.00000000000E+00 0. -1.
          1    1    1    2  502    0  0.34010953576E+02 -0.53895656758E+02  0.36449390982E+03  0.37002337369E+03  0.00000000000E+00 0. -1.
         22    1    3    3    0    0 -0.47629816125E+02  0.81480827551E+02  0.58286147318E+02  0.11092790276E+03  0.00000000000E+00 0.  1.
         22    1    3    3    0    0  0.36663457936E+02 -0.23318490702E+02  0.36425558794E+02  0.56699051931E+02  0.00000000000E+00 0.  1.
</event>
<event>
 7    1  0.6370239E-006  0.7434045E+02  0.7818608E-02  0.1436110E+00
          2   -1    0    0  502    0  0.00000000000E+00  0.00000000000E+00  0.13327002515E+04  0.13327002515E+04  0.00000000000E+00 0. -1.
          1   -1    0    0  501    0 -0.00000000000E+00 -0.00000000000E+00 -0.34223759524E+03  0.34223759524E+03  0.00000000000E+00 0. -1.
         25    2    1    2    0    0  0.98569547047E+02  0.49110350606E+02 -0.13990309560E+03  0.21754540141E+03  0.12500137349E+03 0.  0.
          2    1    1    2  501    0 -0.32764916752E+02 -0.14983320013E+02 -0.16045239507E+03  0.16444759266E+03  0.00000000000E+00 0. -1.
          1    1    1    2  502    0 -0.65804630296E+02 -0.34127030593E+02  0.12908181470E+04  0.12929448527E+04  0.00000000000E+00 0. -1.
         22    1    3    3    0    0 -0.20051325969E+02 -0.20765956781E+02 -0.26376110417E+02  0.39102171741E+02  0.00000000000E+00 0.  1.
         22    1    3    3    0    0  0.11862087302E+03  0.69876307387E+02 -0.11352698518E+03  0.17844322967E+03  0.00000000000E+00 0.  1.
</event>
<event>
 7    1  0.6370239E-006  0.1042048E+03  0.7818608E-02  0.1303613E+00
          2   -1    0    0  502    0  0.00000000000E+00  0.00000000000E+00  0.33009417403E+04  0.33009417403E+04  0.00000000000E+00 0. -1.
          1   -1    0    0  501    0 -0.00000000000E+00 -0.00000000000E+00 -0.59820606803E+02  0.59820606803E+02  0.00000000000E+00 0. -1.
         25    2    1    2    0    0  0.89293038030E+02  0.10510079828E+03  0.58798242198E+03  0.61674022292E+03  0.12500299824E+03 0.  0.
          2    1    1    2  501    0 -0.12157142510E+02 -0.10219136299E+03  0.14121571877E+02  0.10387631864E+03  0.00000000000E+00 0. -1.
          1    1    1    2  502    0 -0.77135895520E+02 -0.29094352950E+01  0.26390171397E+04  0.26401458056E+04  0.00000000000E+00 0. -1.
         22    1    3    3    0    0  0.67714192501E+02  0.17883195967E+02  0.11011934694E+03  0.13050398896E+03  0.00000000000E+00 0.  1.
         22    1    3    3    0    0  0.21578845529E+02  0.87217602314E+02  0.47786307504E+03  0.48623623396E+03  0.00000000000E+00 0.  1.
</event>
<event>
 7    1  0.6370239E-006  0.8450809E+02  0.7818608E-02  0.1376399E+00
          2   -1    0    0  502    0  0.00000000000E+00  0.00000000000E+00  0.22391152052E+04  0.22391152052E+04  0.00000000000E+00 0. -1.
          1   -1    0    0  501    0 -0.00000000000E+00 -0.00000000000E+00 -0.12146368713E+03  0.12146368713E+03  0.00000000000E+00 0. -1.
         25    2    1    2    0    0  0.66188679382E+02 -0.89118528666E+02  0.12411230061E+04  0.12523313644E+04  0.12499790627E+03 0.  0.
          2    1    1    2  501    0  0.27853144060E+01  0.50566482751E+02 -0.10866693843E+03  0.11988840921E+03  0.00000000000E+00 0. -1.
          1    1    1    2  502    0 -0.68973993788E+02  0.38552045915E+02  0.98519545036E+03  0.98835911868E+03  0.00000000000E+00 0. -1.
         22    1    3    3    0    0  0.88849841315E+02 -0.21368000305E+02  0.83359587528E+03  0.83858986937E+03  0.00000000000E+00 0.  1.
         22    1    3    3    0    0 -0.22661161933E+02 -0.67750528361E+02  0.40752713084E+03  0.41374149504E+03  0.00000000000E+00 0.  1.
</event>
<event>
 7    1  0.6370239E-006  0.1049714E+03  0.7818608E-02  0.1283878E+00
          2   -1    0    0  502    0  0.00000000000E+00  0.00000000000E+00  0.90953514116E+03  0.90953514116E+03  0.00000000000E+00 0. -1.
          1   -1    0    0  501    0 -0.00000000000E+00 -0.00000000000E+00 -0.28166719807E+04  0.28166719807E+04  0.00000000000E+00 0. -1.
         25    2    1    2    0    0 -0.14132692240E+03 -0.92660130812E+02 -0.48698185615E+03  0.53041009533E+03  0.12499736863E+03 0.  0.
          2    1    1    2  501    0  0.10214543142E+03  0.93296953827E+01 -0.23044445160E+04  0.23067260912E+04  0.00000000000E+00 0. -1.
          1    1    1    2  502    0  0.39181490981E+02  0.83330435430E+02  0.88428953258E+03  0.88907093538E+03  0.00000000000E+00 0. -1.
         22    1    3    3    0    0 -0.45756935254E+02 -0.99541659097E+02 -0.31542420009E+03  0.33390816855E+03  0.00000000000E+00 0. -1.
         22    1    3    3    0    0 -0.95569987143E+02  0.68815282844E+01 -0.17155765606E+03  0.19650192678E+03  0.00000000000E+00 0. -1.
</event>
<event>
 7    1  0.6370239E-006  0.3613222E+02  0.7818608E-02  0.1543052E+00
          2   -1    0    0  502    0  0.00000000000E+00  0.00000000000E+00  0.89164180042E+03  0.89164180042E+03  0.00000000000E+00 0. -1.
          1   -1    0    0  501    0 -0.00000000000E+00 -0.00000000000E+00 -0.13521494752E+03  0.13521494752E+03  0.00000000000E+00 0. -1.
         25    2    1    2    0    0  0.69777217664E+02 -0.19064077386E+01  0.14489591293E+03  0.20369421473E+03  0.12499605208E+03 0.  0.
          2    1    1    2  501    0 -0.35258625629E+02 -0.46747114956E+01 -0.10238264115E+03  0.10838463368E+03  0.00000000000E+00 0. -1.
          1    1    1    2  502    0 -0.34518592036E+02  0.65811192342E+01  0.71391358113E+03  0.71477789952E+03  0.00000000000E+00 0. -1.
         22    1    3    3    0    0  0.80083579202E+02 -0.49160186847E+01  0.16355012631E+03  0.18217077348E+03  0.00000000000E+00 0. -1.
         22    1    3    3    0    0 -0.10306361538E+02  0.30096109460E+01 -0.18654213379E+02  0.21523441244E+02  0.00000000000E+00 0. -1.
</event>
<event>
 7    1  0.6370239E-006  0.7374149E+02  0.7818608E-02  0.1350237E+00
          2   -1    0    0  502    0  0.00000000000E+00  0.00000000000E+00  0.14889792518E+04  0.14889792518E+04  0.00000000000E+00 0. -1.
          1   -1    0    0  501    0 -0.00000000000E+00 -0.00000000000E+00 -0.71304324537E+03  0.71304324537E+03  0.00000000000E+00 0. -1.
         25    2    1    2    0    0  0.30782423201E+02 -0.11276961051E+02  0.21123702865E+03  0.24762710600E+03  0.12499349554E+03 0.  0.
          2    1    1    2  501    0 -0.35238037358E+02 -0.64777220862E+02 -0.69173466469E+03  0.69565411948E+03  0.00000000000E+00 0. -1.
          1    1    1    2  502    0  0.44556141569E+01  0.76054181914E+02  0.12564336425E+04  0.12587412717E+04  0.00000000000E+00 0. -1.
         22    1    3    3    0    0 -0.21751391868E+02 -0.38876388744E+02  0.16904019012E+03  0.17481156291E+03  0.00000000000E+00 0.  1.
         22    1    3    3    0    0  0.52533815070E+02  0.27599427693E+02  0.42196838523E+02  0.72815543094E+02  0.00000000000E+00 0.  1.
</event>
<event>
 7    1  0.6370239E-006  0.8431147E+03  0.7818608E-02  0.1129658E+00
          2   -1    0    0  502    0  0.00000000000E+00  0.00000000000E+00  0.17525957488E+04  0.17525957488E+04  0.00000000000E+00 0. -1.
          1   -1    0    0  501    0 -0.00000000000E+00 -0.00000000000E+00 -0.14849318499E+04  0.14849318499E+04  0.00000000000E+00 0. -1.
         25    2    1    2    0    0  0.64353455287E+03 -0.58922982921E+03  0.71024980235E+02  0.88430617404E+03  0.12499739703E+03 0.  0.
          2    1    1    2  501    0 -0.64429643351E+03  0.52878116729E+03 -0.91627689221E+03  0.12386649104E+04  0.00000000000E+00 0. -1.
          1    1    1    2  502    0  0.76188063028E+00  0.60448661918E+02  0.11129158109E+04  0.11145565142E+04  0.00000000000E+00 0. -1.
         22    1    3    3    0    0  0.49882266332E+03 -0.45383171124E+03  0.10722399853E+03  0.68285009879E+03  0.00000000000E+00 0.  1.
         22    1    3    3    0    0  0.14471188956E+03 -0.13539811797E+03 -0.36199018295E+02  0.20145607525E+03  0.00000000000E+00 0.  1.
</event>
<event>
 7    1  0.6370239E-006  0.1090893E+03  0.7818608E-02  0.1389943E+00
          2   -1    0    0  502    0  0.00000000000E+00  0.00000000000E+00  0.85142600044E+03  0.85142600044E+03  0.00000000000E+00 0. -1.
          1   -1    0    0  501    0 -0.00000000000E+00 -0.00000000000E+00 -0.13298615706E+03  0.13298615706E+03  0.00000000000E+00 0. -1.
         25    2    1    2    0    0  0.94866041137E+01 -0.10843271668E+03 -0.10534474854E+02  0.16608164751E+03  0.12499795508E+03 0.  0.
          2    1    1    2  501    0 -0.35082492638E+02  0.21316180297E+01 -0.33202993286E+02  0.48350427592E+02  0.00000000000E+00 0. -1.
          1    1    1    2  502    0  0.25595888525E+02  0.10630109865E+03  0.76217731153E+03  0.76998008240E+03  0.00000000000E+00 0. -1.
         22    1    3    3    0    0  0.40224630164E+02 -0.12463532241E+03 -0.97073287778E+01  0.13132485179E+03  0.00000000000E+00 0.  1.
         22    1    3    3    0    0 -0.30738026050E+02  0.16202605733E+02 -0.82714607664E+00  0.34756795719E+02  0.00000000000E+00 0.  1.
</event>
<event>
 7    1  0.6370239E-006  0.7364388E+02  0.7818608E-02  0.1513524E+00
          2   -1    0    0  502    0  0.00000000000E+00  0.00000000000E+00  0.77544155653E+03  0.77544155653E+03  0.00000000000E+00 0. -1.
          1   -1    0    0  501    0 -0.00000000000E+00 -0.00000000000E+00 -0.36841627694E+02  0.36841627694E+02  0.00000000000E+00 0. -1.
         25    2    1    2    0    0 -0.49301590193E+02  0.49591127749E+02  0.12250239776E+03  0.18847232129E+03  0.12500020675E+03 0.  0.
          2    1    1    2  501    0  0.13884508593E+02  0.15699787888E+02  0.20389657667E+03  0.20497091720E+03  0.00000000000E+00 0. -1.
          1    1    1    2  502    0  0.35417081599E+02 -0.65290915637E+02  0.41220095440E+03  0.41883994573E+03  0.00000000000E+00 0. -1.
         22    1    3    3    0    0 -0.17296758791E+02  0.48427893341E+01 -0.25148793052E+02  0.30904567061E+02  0.00000000000E+00 0. -1.
         22    1    3    3    0    0 -0.32004831402E+02  0.44748338415E+02  0.14765119081E+03  0.15756775423E+03  0.00000000000E+00 0. -1.
</event>
<event>
 7    1  0.6370239E-006  0.4733814E+02  0.7818608E-02  0.1460888E+00
          2   -1    0    0  502    0  0.00000000000E+00  0.00000000000E+00  0.50216964834E+02  0.50216964834E+02  0.00000000000E+00 0. -1.
          1   -1    0    0  501    0 -0.00000000000E+00 -0.00000000000E+00 -0.92292870387E+03  0.92292870387E+03  0.00000000000E+00 0. -1.
         25    2    1    2    0    0 -0.16304493185E+02  0.17148490281E+02 -0.92828376165E+02  0.15748459748E+03  0.12499753520E+03 0.  0.
          2    1    1    2  501    0 -0.43719638545E+02 -0.17574973328E+02 -0.74448606531E+03  0.74597572877E+03  0.00000000000E+00 0. -1.
          1    1    1    2  502    0  0.60024131730E+02  0.42648304758E+00 -0.35397297566E+02  0.69685342453E+02  0.00000000000E+00 0. -1.
         22    1    3    3    0    0  0.52938897030E+02 -0.29640739928E+01 -0.25510961169E+02  0.58839796848E+02  0.00000000000E+00 0.  1.
         22    1    3    3    0    0 -0.69243390214E+02  0.20112564274E+02 -0.67317414996E+02  0.98644800632E+02  0.00000000000E+00 0.  1.
</event>
<event>
 7    1  0.6370239E-006  0.4068881E+02  0.7818608E-02  0.1528375E+00
          2   -1    0    0  502    0  0.00000000000E+00  0.00000000000E+00  0.27114943554E+03  0.27114943554E+03  0.00000000000E+00 0. -1.
          1   -1    0    0  501    0 -0.00000000000E+00 -0.00000000000E+00 -0.40056234385E+03  0.40056234385E+03  0.00000000000E+00 0. -1.
         25    2    1    2    0    0  0.26162883831E+02 -0.49761310667E+02 -0.22858005471E+03  0.26651357297E+03  0.12497983291E+03 0.  0.
          2    1    1    2  501    0 -0.36134434159E+02  0.16888258419E+02 -0.14921389461E+03  0.15445289557E+03  0.00000000000E+00 0. -1.
          1    1    1    2  502    0  0.99715503282E+01  0.32873052247E+02  0.24838104101E+03  0.25074531085E+03  0.00000000000E+00 0. -1.
         22    1    3    3    0    0 -0.14692695945E+02 -0.62078834848E+02 -0.45072853044E+02  0.78110301060E+02  0.00000000000E+00 0. -1.
         22    1    3    3    0    0  0.40855579776E+02  0.12317524181E+02 -0.18350720167E+03  0.18840327191E+03  0.00000000000E+00 0. -1.
</event>
<event>
 7    1  0.6370239E-006  0.7689975E+02  0.7818608E-02  0.1440918E+00
          2   -1    0    0  502    0  0.00000000000E+00  0.00000000000E+00  0.33963362337E+02  0.33963362337E+02  0.00000000000E+00 0. -1.
          1   -1    0    0  501    0 -0.00000000000E+00 -0.00000000000E+00 -0.92593509379E+03  0.92593509379E+03  0.00000000000E+00 0. -1.
         25    2    1    2    0    0 -0.79269437605E+02  0.10984178715E+02 -0.21616072878E+03  0.26221198757E+03  0.12500147934E+03 0.  0.
          2    1    1    2  501    0  0.73986840316E+02  0.22195383832E+02 -0.65187242584E+03  0.65643304851E+03  0.00000000000E+00 0. -1.
          1    1    1    2  502    0  0.52825972891E+01 -0.33179562548E+02 -0.23938576832E+02  0.41253420049E+02  0.00000000000E+00 0. -1.
         22    1    3    3    0    0 -0.54359358619E+02  0.67371445759E+02 -0.13311577155E+03  0.15878809845E+03  0.00000000000E+00 0.  1.
         22    1    3    3    0    0 -0.24910078986E+02 -0.56387267043E+02 -0.83044957222E+02  0.10342388912E+03  0.00000000000E+00 0.  1.
</event>
<event>
 7    1  0.6370239E-006  0.1218535E+03  0.7818608E-02  0.1317706E+00
          2   -1    0    0  502    0  0.00000000000E+00  0.00000000000E+00  0.11430171690E+04  0.11430171690E+04  0.00000000000E+00 0. -1.
          1   -1    0    0  501    0 -0.00000000000E+00 -0.00000000000E+00 -0.73670847035E+02  0.73670847035E+02  0.00000000000E+00 0. -1.
         25    2    1    2    0    0  0.19778604258E+02  0.17003698509E+03  0.16221863653E+03  0.26691004418E+03  0.12498926418E+03 0.  0.
          2    1    1    2  501    0 -0.26044762298E+02 -0.51928871281E+02  0.31279244255E+02  0.65979757781E+02  0.00000000000E+00 0. -1.
          1    1    1    2  502    0  0.62661580397E+01 -0.11810811381E+03  0.87584844119E+03  0.88379821408E+03  0.00000000000E+00 0. -1.
         22    1    3    3    0    0  0.64246339754E+02  0.56171007058E+02  0.93850918774E+02  0.12684939559E+03  0.00000000000E+00 0.  1.
         22    1    3    3    0    0 -0.44467735495E+02  0.11386597803E+03  0.68367717757E+02  0.14006064860E+03  0.00000000000E+00 0.  1.
</event>
<event>
 7    1  0.6370239E-006  0.2553956E+02  0.7818608E-02  0.1679892E+00
          2   -1    0    0  502    0  0.00000000000E+00  0.00000000000E+00  0.10678777375E+03  0.10678777375E+03  0.00000000000E+00 0. -1.
          1   -1    0    0  501    0 -0.00000000000E+00 -0.00000000000E+00 -0.14662398810E+04  0.14662398810E+04  0.00000000000E+00 0. -1.
         25    2    1    2    0    0  0.71176266076E+01  0.28984023451E+01 -0.12492885567E+04  0.12555498867E+04  0.12499823489E+03 0.  0.
          2    1    1    2  501    0 -0.13658291626E+01  0.22012472137E+02 -0.21166249642E+03  0.21280842748E+03  0.00000000000E+00 0. -1.
          1    1    1    2  502    0 -0.57517974450E+01 -0.24910874482E+02  0.10149894587E+03  0.10466934057E+03  0.00000000000E+00 0. -1.
         22    1    3    3    0    0 -0.22851876541E+02  0.53633086667E+02 -0.84263319074E+03  0.84464750659E+03  0.00000000000E+00 0.  1.
         22    1    3    3    0    0  0.29969503148E+02 -0.50734684322E+02 -0.40665536597E+03  0.41090238012E+03  0.00000000000E+00 0.  1.
</event>
<event>
 7    1  0.6370239E-006  0.2936015E+03  0.7818608E-02  0.1252194E+00
          2   -1    0    0  502    0  0.00000000000E+00  0.00000000000E+00  0.26312565707E+04  0.26312565707E+04  0.00000000000E+00 0. -1.
          1   -1    0    0  501    0 -0.00000000000E+00 -0.00000000000E+00 -0.62183525435E+03  0.62183525435E+03  0.00000000000E+00 0. -1.
         25    2    1    2    0    0  0.25725523425E+03 -0.49666442259E+02  0.49297963591E+03  0.57210184008E+03  0.12499833189E+03 0.  0.
          2    1    1    2  501    0  0.35101582410E+02 -0.27789162312E+02 -0.57049643313E+03  0.57225041621E+03  0.00000000000E+00 0. -1.
          1    1    1    2  502    0 -0.29235681666E+03  0.77455604571E+02  0.20869381136E+04  0.21087395688E+04  0.00000000000E+00 0. -1.
         22    1    3    3    0    0  0.19109650234E+03 -0.98650083613E+01  0.23629473117E+03  0.30405655983E+03  0.00000000000E+00 0.  1.
         22    1    3    3    0    0  0.66158731910E+02 -0.39801433898E+02  0.25668490473E+03  0.26804528025E+03  0.00000000000E+00 0.  1.
</event>
<event>
 7    1  0.6370239E-006  0.6694063E+02  0.7818608E-02  0.1435233E+00
          2   -1    0    0  502    0  0.00000000000E+00  0.00000000000E+00  0.61086217972E+03  0.61086217972E+03  0.00000000000E+00 0. -1.
          1   -1    0    0  501    0 -0.00000000000E+00 -0.00000000000E+00 -0.44309535260E+03  0.44309535260E+03  0.00000000000E+00 0. -1.
         25    2    1    2    0    0 -0.76588587131E+02 -0.44300518843E+02 -0.76620606944E+02  0.17124203529E+03  0.12499907837E+03 0.  0.
          2    1    1    2  501    0  0.38823678214E+02 -0.10716661511E+02 -0.31590555044E+03  0.31846262202E+03  0.00000000000E+00 0. -1.
          1    1    1    2  502    0  0.37764908917E+02  0.55017180354E+02  0.56029298450E+03  0.56425287501E+03  0.00000000000E+00 0. -1.
         22    1    3    3    0    0 -0.10499641931E+03 -0.95994641778E+01 -0.38047662494E+02  0.11208935008E+03  0.00000000000E+00 0. -1.
         22    1    3    3    0    0  0.28407832179E+02 -0.34701054666E+02 -0.38572944451E+02  0.59152685210E+02  0.00000000000E+00 0. -1.
</event>
<event>
 7    1  0.6370239E-006  0.1983955E+03  0.7818608E-02  0.1160071E+00
          2   -1    0    0  502    0  0.00000000000E+00  0.00000000000E+00  0.19209049377E+04  0.19209049377E+04  0.00000000000E+00 0. -1.
          1   -1    0    0  501    0 -0.00000000000E+00 -0.00000000000E+00 -0.17111625105E+04  0.17111625105E+04  0.00000000000E+00 0. -1.
         25    2    1    2    0    0  0.25039089217E+03  0.24746968752E+03 -0.46814526816E+03  0.59893420257E+03  0.12500136715E+03 0.  0.
          2    1    1    2  501    0 -0.72172346258E+02 -0.16334349610E+03 -0.11655702783E+04  0.11791709032E+04  0.00000000000E+00 0. -1.
          1    1    1    2  502    0 -0.17821854591E+03 -0.84126191415E+02  0.18434579737E+04  0.18539623423E+04  0.00000000000E+00 0. -1.
         22    1    3    3    0    0  0.19527013930E+03  0.13604891726E+03 -0.23358213422E+03  0.33346716272E+03  0.00000000000E+00 0.  1.
         22    1    3    3    0    0  0.55120752873E+02  0.11142077026E+03 -0.23456313394E+03  0.26546703985E+03  0.00000000000E+00 0.  1.
</event>
<event>
 7    1  0.6370239E-006  0.8300988E+02  0.7818608E-02  0.1442297E+00
          2   -1    0    0  502    0  0.00000000000E+00  0.00000000000E+00  0.76865347090E+03  0.76865347090E+03  0.00000000000E+00 0. -1.
          1   -1    0    0  501    0 -0.00000000000E+00 -0.00000000000E+00 -0.26829166437E+03  0.26829166437E+03  0.00000000000E+00 0. -1.
         25    2    1    2    0    0  0.62690953359E+02 -0.83447618759E+02  0.28362902113E+03  0.32705374836E+03  0.12500028792E+03 0.  0.
          2    1    1    2  501    0 -0.32856658054E+02  0.75771290370E+02 -0.23912936313E+03  0.25298952692E+03  0.00000000000E+00 0. -1.
          1    1    1    2  502    0 -0.29834295305E+02  0.76763283883E+01  0.45586214853E+03  0.45690185999E+03  0.00000000000E+00 0. -1.
         22    1    3    3    0    0 -0.35403923026E+02 -0.45217857432E+02  0.10655376199E+03  0.12104460579E+03  0.00000000000E+00 0.  1.
         22    1    3    3    0    0  0.98094876385E+02 -0.38229761327E+02  0.17707525913E+03  0.20600914257E+03  0.00000000000E+00 0.  1.
</event>
<event>
 7    1  0.6370239E-006  0.7014156E+02  0.7818608E-02  0.1372172E+00
          2   -1    0    0  502    0  0.00000000000E+00  0.00000000000E+00  0.10352827545E+04  0.10352827545E+04  0.00000000000E+00 0. -1.
          1   -1    0    0  501    0 -0.00000000000E+00 -0.00000000000E+00 -0.21827722675E+02  0.21827722675E+02  0.00000000000E+00 0. -1.
         25    2    1    2    0    0 -0.48788822898E+02  0.82792260135E+02  0.62118007164E+03  0.64088255667E+03  0.12502344764E+03 0.  0.
          2    1    1    2  501    0 -0.13698864517E+02 -0.61671751551E+02  0.11494497643E+03  0.13116177582E+03  0.00000000000E+00 0. -1.
          1    1    1    2  502    0  0.62487687416E+02 -0.21120508583E+02  0.27732998380E+03  0.28506614474E+03  0.00000000000E+00 0. -1.
         22    1    3    3    0    0 -0.18843951007E+02  0.89738538076E+02  0.59005201575E+03  0.59713439107E+03  0.00000000000E+00 0. -1.
         22    1    3    3    0    0 -0.29944871891E+02 -0.69462779408E+01  0.31128055890E+02  0.43748165600E+02  0.00000000000E+00 0. -1.
</event>
<event>
 7    1  0.6370239E-006  0.7765450E+02  0.7818608E-02  0.1434717E+00
          2   -1    0    0  502    0  0.00000000000E+00  0.00000000000E+00  0.13199627552E+04  0.13199627552E+04  0.00000000000E+00 0. -1.
          1   -1    0    0  501    0 -0.00000000000E+00 -0.00000000000E+00 -0.77106407805E+03  0.77106407805E+03  0.00000000000E+00 0. -1.
         25    2    1    2    0    0 -0.81219595703E+02 -0.25186522573E+02  0.36056035794E+02  0.15541784559E+03  0.12499474135E+03 0.  0.
          2    1    1    2  501    0  0.58224932200E+02  0.51379044342E+02 -0.70901483344E+03  0.71325450084E+03  0.00000000000E+00 0. -1.
          1    1    1    2  502    0  0.22994663502E+02 -0.26192521769E+02  0.12218574748E+04  0.12223544868E+04  0.00000000000E+00 0. -1.
         22    1    3    3    0    0 -0.97553121938E+02  0.15704772794E+02  0.47918151540E+02  0.10981530283E+03  0.00000000000E+00 0. -1.
         22    1    3    3    0    0  0.16333526235E+02 -0.40891295367E+02 -0.11862115746E+02  0.45602542759E+02  0.00000000000E+00 0. -1.
</event>
<event>
 7    1  0.6370239E-006  0.4392220E+02  0.7818608E-02  0.1540945E+00
          2   -1    0    0  502    0  0.00000000000E+00  0.00000000000E+00  0.11011743074E+04  0.11011743074E+04  0.00000000000E+00 0. -1.
          1   -1    0    0  501    0 -0.00000000000E+00 -0.00000000000E+00 -0.60204467840E+03  0.60204467840E+03  0.00000000000E+00 0. -1.
         25    2    1    2    0    0 -0.75345541491E+00  0.64475729177E+02  0.16583629830E+03  0.21745164583E+03  0.12500341231E+03 0.  0.
          2    1    1    2  501    0 -0.16362165942E+02 -0.40687310318E+02 -0.57516601123E+03  0.57683543421E+03  0.00000000000E+00 0. -1.
          1    1    1    2  502    0  0.17115621357E+02 -0.23788418858E+02  0.90845934189E+03  0.90893190572E+03  0.00000000000E+00 0. -1.
         22    1    3    3    0    0  0.17539126121E+02  0.99450705933E+02  0.12432664771E+03  0.16017234214E+03  0.00000000000E+00 0.  1.
         22    1    3    3    0    0 -0.18292581536E+02 -0.34974976757E+02  0.41509650596E+02  0.57279303688E+02  0.00000000000E+00 0.  1.
</event>
<event>
 7    1  0.6370239E-006  0.2170461E+03  0.7818608E-02  0.1205693E+00
          2   -1    0    0  502    0  0.00000000000E+00  0.00000000000E+00  0.62142932622E+03  0.62142932622E+03  0.00000000000E+00 0. -1.
          1   -1    0    0  501    0 -0.00000000000E+00 -0.00000000000E+00 -0.93367552350E+03  0.93367552350E+03  0.00000000000E+00 0. -1.
         25    2    1    2    0    0  0.10019004644E+03  0.21733121903E+03  0.29461811708E+02  0.27159509236E+03  0.12499996670E+03 0.  0.
          2    1    1    2  501    0  0.62606998241E+02 -0.75370267695E+02 -0.78463110359E+03  0.79072516224E+03  0.00000000000E+00 0. -1.
          1    1    1    2  502    0 -0.16279704468E+03 -0.14196095133E+03  0.44292309460E+03  0.49278459512E+03  0.00000000000E+00 0. -1.
         22    1    3    3    0    0  0.53074128408E+02  0.61445541361E+01  0.98553286103E+01  0.54329974726E+02  0.00000000000E+00 0. -1.
         22    1    3    3    0    0  0.47115918029E+02  0.21118666489E+03  0.19606483098E+02  0.21726511763E+03  0.00000000000E+00 0. -1.
</event>
<event>
 7    1  0.6370239E-006  0.5218032E+02  0.7818608E-02  0.1448220E+00
          2   -1    0    0  502    0  0.00000000000E+00  0.00000000000E+00  0.28102677416E+03  0.28102677416E+03  0.00000000000E+00 0. -1.
          1   -1    0    0  501    0 -0.00000000000E+00 -0.00000000000E+00 -0.64480484008E+03  0.64480484008E+03  0.00000000000E+00 0. -1.
         25    2    1    2    0    0 -0.44876917729E+01 -0.41528612497E+01 -0.13478837032E+03  0.18392866621E+03  0.12499785536E+03 0.  0.
          2    1    1    2  501    0 -0.38042907489E+02 -0.27430813054E+02 -0.48155910944E+03  0.48383766720E+03  0.00000000000E+00 0. -1.
          1    1    1    2  502    0  0.42530599262E+02  0.31583674303E+02  0.25256941385E+03  0.25806528083E+03  0.00000000000E+00 0. -1.
         22    1    3    3    0    0 -0.29199229399E+02 -0.46280287309E+02 -0.12159004764E+03  0.13333641542E+03  0.00000000000E+00 0.  1.
         22    1    3    3    0    0  0.24711537626E+02  0.42127426059E+02 -0.13198322680E+02  0.50592250787E+02  0.00000000000E+00 0.  1.
</event>
<event>
 7    1  0.6370239E-006  0.9335867E+02  0.7818608E-02  0.1352160E+00
          2   -1    0    0  502    0  0.00000000000E+00  0.00000000000E+00  0.17037999758E+04  0.17037999758E+04  0.00000000000E+00 0. -1.
          1   -1    0    0  501    0 -0.00000000000E+00 -0.00000000000E+00 -0.97693680772E+03  0.97693680772E+03  0.00000000000E+00 0. -1.
         25    2    1    2    0    0 -0.69518843357E+02 -0.12628798906E+03  0.50745660981E+03  0.54214276434E+03  0.12500016128E+03 0.  0.
          2    1    1    2  501    0  0.60413229841E+02  0.70905519231E+02 -0.95666221863E+03  0.96118674125E+03  0.00000000000E+00 0. -1.
          1    1    1    2  502    0  0.91056135160E+01  0.55382469829E+02  0.11760687769E+04  0.11774072779E+04  0.00000000000E+00 0. -1.
         22    1    3    3    0    0  0.61766208145E+01 -0.91449700682E+02  0.37185390952E+03  0.38298371822E+03  0.00000000000E+00 0.  1.
         22    1    3    3    0    0 -0.75695464172E+02 -0.34838288378E+02  0.13560270029E+03  0.15915904611E+03  0.00000000000E+00 0.  1.
</event>
<event>
 7    1  0.6370239E-006  0.4665668E+02  0.7818608E-02  0.1563098E+00
          2   -1    0    0  502    0  0.00000000000E+00  0.00000000000E+00  0.20147400784E+04  0.20147400784E+04  0.00000000000E+00 0. -1.
          1   -1    0    0  501    0 -0.00000000000E+00 -0.00000000000E+00 -0.57409021946E+02  0.57409021946E+02  0.00000000000E+00 0. -1.
         25    2    1    2    0    0 -0.27165261958E+02 -0.60444090259E+02  0.18516844939E+04  0.18570816433E+04  0.12500130289E+03 0.  0.
          2    1    1    2  501    0  0.28827228997E+02  0.36563576777E+02 -0.43675188081E+02  0.63839065879E+02  0.00000000000E+00 0. -1.
          1    1    1    2  502    0 -0.16619670390E+01  0.23880513482E+02  0.14932175066E+03  0.15122839111E+03  0.00000000000E+00 0. -1.
         22    1    3    3    0    0 -0.23979876731E+02 -0.23622206492E+02  0.11069117548E+03  0.11569606500E+03  0.00000000000E+00 0.  1.
         22    1    3    3    0    0 -0.31853852266E+01 -0.36821883767E+02  0.17409933184E+04  0.17413855783E+04  0.00000000000E+00 0.  1.
</event>
<event>
 7    1  0.6370239E-006  0.1086397E+03  0.7818608E-02  0.1320914E+00
          2   -1    0    0  502    0  0.00000000000E+00  0.00000000000E+00  0.33852042848E+03  0.33852042848E+03  0.00000000000E+00 0. -1.
          1   -1    0    0  501    0 -0.00000000000E+00 -0.00000000000E+00 -0.24134027785E+03  0.24134027785E+03  0.00000000000E+00 0. -1.
         25    2    1    2    0    0 -0.14129523569E+03 -0.69273612861E+02  0.12469131429E+02  0.20135483424E+03  0.12500045187E+03 0.  0.
          2    1    1    2  501    0  0.40264712939E+02  0.48865330851E+02 -0.12762912887E+03  0.14247196989E+03  0.00000000000E+00 0. -1.
          1    1    1    2  502    0  0.10103052275E+03  0.20408282009E+02  0.21234014808E+03  0.23603390220E+03  0.00000000000E+00 0. -1.
         22    1    3    3    0    0 -0.16412688546E+03 -0.52068908740E+02  0.76080780037E+01  0.17235628401E+03  0.00000000000E+00 0. -1.
         22    1    3    3    0    0  0.22831649768E+02 -0.17204704121E+02  0.48610534257E+01  0.28998550229E+02  0.00000000000E+00 0. -1.
</event>
<event>
 7    1  0.6370239E-006  0.4689583E+02  0.7818608E-02  0.1519739E+00
          2   -1    0    0  502    0  0.00000000000E+00  0.00000000000E+00  0.12854031534E+04  0.12854031534E+04  0.00000000000E+00 0. -1.
          1   -1    0    0  501    0 -0.00000000000E+00 -0.00000000000E+00 -0.17378111671E+04  0.17378111671E+04  0.00000000000E+00 0. -1.
         25    2    1    2    0    0  0.48926425346E+02  0.48810292296E+01  0.36838383778E+02  0.13928029829E+03  0.12499726169E+03 0.  0.
          2    1    1    2  501    0 -0.33777378512E+02 -0.32575740189E+02 -0.16860556385E+04  0.16867085422E+04  0.00000000000E+00 0. -1.
          1    1    1    2  502    0 -0.15149046834E+02  0.27694710960E+02  0.11968092410E+04  0.11972254800E+04  0.00000000000E+00 0. -1.
         22    1    3    3    0    0 -0.41900476185E+02  0.96767082708E+01  0.16644172682E+02  0.46112005722E+02  0.00000000000E+00 0. -1.
         22    1    3    3    0    0  0.90826901530E+02 -0.47956790412E+01  0.20194211095E+02  0.93168292572E+02  0.00000000000E+00 0. -1.
</event>
<event>
 7    1  0.6370239E-006  0.7595006E+02  0.7818608E-02  0.1416383E+00
          2   -1    0    0  502    0  0.00000000000E+00  0.00000000000E+00  0.15804570425E+04  0.15804570425E+04  0.00000000000E+00 0. -1.
          1   -1    0    0  501    0 -0.00000000000E+00 -0.00000000000E+00 -0.20517336030E+04  0.20517336030E+04  0.00000000000E+00 0. -1.
         25    2    1    2    0    0  0.34085374865E+02 -0.10242868501E+03  0.15229842237E+02  0.16585814520E+03  0.12499411162E+03 0.  0.
          2    1    1    2  501    0 -0.30923937879E+02  0.26899868358E+02 -0.19752478386E+04  0.19756730288E+04  0.00000000000E+00 0. -1.
          1    1    1    2  502    0 -0.31614369855E+01  0.75528816654E+02  0.14887414359E+04  0.14906594715E+04  0.00000000000E+00 0. -1.
         22    1    3    3    0    0  0.58813535724E+02 -0.41941437500E+01  0.25092459071E+02  0.64080061863E+02  0.00000000000E+00 0.  1.
         22    1    3    3    0    0 -0.24728160859E+02 -0.98234541261E+02 -0.98626168340E+01  0.10177808333E+03  0.00000000000E+00 0.  1.
</event>
<event>
 7    1  0.6370239E-006  0.1272804E+03  0.7818608E-02  0.1270033E+00
          2   -1    0    0  502    0  0.00000000000E+00  0.00000000000E+00  0.14326469116E+03  0.14326469116E+03  0.00000000000E+00 0. -1.
          1   -1    0    0  501    0 -0.00000000000E+00 -0.00000000000E+00 -0.63673852410E+03  0.63673852410E+03  0.00000000000E+00 0. -1.
         25    2    1    2    0    0  0.51744185091E+02 -0.16012709423E+03 -0.17252481457E+03  0.27148941258E+03  0.12499416988E+03 0.  0.
          2    1    1    2  501    0 -0.90729822112E+02  0.82694883720E+02 -0.38281053542E+03  0.40201274911E+03  0.00000000000E+00 0. -1.
          1    1    1    2  502    0  0.38985637020E+02  0.77432210505E+02  0.61861517056E+02  0.10650105356E+03  0.00000000000E+00 0. -1.
         22    1    3    3    0    0  0.64956539308E+01 -0.14291311682E+03 -0.72540253188E+02  0.16040087534E+03  0.00000000000E+00 0. -1.
         22    1    3    3    0    0  0.45248531160E+02 -0.17213977408E+02 -0.99984561383E+02  0.11108853724E+03  0.00000000000E+00 0. -1.
</event>
<event>
 7    1  0.6370239E-006  0.6826738E+02  0.7818608E-02  0.1462841E+00
          2   -1    0    0  502    0  0.00000000000E+00  0.00000000000E+00  0.48022451837E+03  0.48022451837E+03  0.00000000000E+00 0. -1.
          1   -1    0    0  501    0 -0.00000000000E+00 -0.00000000000E+00 -0.81579241894E+03  0.81579241894E+03  0.00000000000E+00 0. -1.
         25    2    1    2    0    0 -0.12160370198E+02  0.81209496520E+02 -0.50643915836E+03  0.52806100368E+03  0.12499978222E+03 0.  0.
          2    1    1    2  501    0  0.28525161963E+02 -0.14970619988E+02 -0.29518198183E+03  0.29693468428E+03  0.00000000000E+00 0. -1.
          1    1    1    2  502    0 -0.16364791765E+02 -0.66238876532E+02  0.46605323963E+03  0.47102124935E+03  0.00000000000E+00 0. -1.
         22    1    3    3    0    0 -0.49400668278E+02  0.91504634623E+02 -0.28726429420E+03  0.30550662662E+03  0.00000000000E+00 0.  1.
         22    1    3    3    0    0  0.37240298081E+02 -0.10295138103E+02 -0.21917486416E+03  0.22255437706E+03  0.00000000000E+00 0.  1.
</event>
<event>
 7    1  0.6370239E-006  0.7836242E+02  0.7818608E-02  0.1369705E+00
          2   -1    0    0  502    0  0.00000000000E+00  0.00000000000E+00  0.42054754695E+04  0.42054754695E+04  0.00000000000E+00 0. -1.
          1   -1    0    0  501    0 -0.00000000000E+00 -0.00000000000E+00 -0.76064862963E+02  0.76064862963E+02  0.00000000000E+00 0. -1.
         25    2    1    2    0    0 -0.36978393593E+02  0.17900550444E+02  0.22042675530E+03  0.25671202711E+03  0.12500111644E+03 0.  0.
          2    1    1    2  501    0  0.37109732754E+02 -0.75612473809E+02 -0.26978166089E+02  0.88443201583E+02  0.00000000000E+00 0. -1.
          1    1    1    2  502    0 -0.13133916135E+00  0.57711923365E+02  0.39359620173E+04  0.39363851038E+04  0.00000000000E+00 0. -1.
         22    1    3    3    0    0 -0.64321605402E+02  0.22830494801E+01  0.45126038741E+02  0.78605601638E+02  0.00000000000E+00 0.  1.
         22    1    3    3    0    0  0.27343211809E+02  0.15617500964E+02  0.17530071656E+03  0.17810642547E+03  0.00000000000E+00 0.  1.
</event>
<event>
 7    1  0.6370239E-006  0.7168439E+02  0.7818608E-02  0.1500835E+00
          2   -1    0    0  502    0  0.00000000000E+00  0.00000000000E+00  0.24957248680E+03  0.24957248680E+03  0.00000000000E+00 0. -1.
          1   -1    0    0  501    0 -0.00000000000E+00 -0.00000000000E+00 -0.15815970400E+04  0.15815970400E+04  0.00000000000E+00 0. -1.
         25    2    1    2    0    0  0.83445123279E+02 -0.18896936903E+02 -0.39226284335E+03  0.42049347683E+03  0.12499777181E+03 0.  0.
          2    1    1    2  501    0 -0.63509694557E+02  0.31289119839E+02 -0.11735643762E+04  0.11756980205E+04  0.00000000000E+00 0. -1.
          1    1    1    2  502    0 -0.19935428722E+02 -0.12392182936E+02  0.23380266638E+03  0.23497802945E+03  0.00000000000E+00 0. -1.
         22    1    3    3    0    0  0.28763813976E+01  0.64465409080E+01  0.84302783533E+01  0.10995501477E+02  0.00000000000E+00 0.  1.
         22    1    3    3    0    0  0.80568741882E+02 -0.25343477811E+02 -0.40069312170E+03  0.40949797535E+03  0.00000000000E+00 0.  1.
</event>
<event>
 7    1  0.6370239E-006  0.3200221E+03  0.7818608E-02  0.1217766E+00
          2   -1    0    0  502    0  0.00000000000E+00  0.00000000000E+00  0.38466801499E+03  0.38466801499E+03  0.00000000000E+00 0. -1.
          1   -1    0    0  501    0 -0.00000000000E+00 -0.00000000000E+00 -0.11589548114E+04  0.11589548114E+04  0.00000000000E+00 0. -1.
         25    2    1    2    0    0 -0.26318279537E+03  0.12728877492E+03 -0.44357993618E+03  0.54576147835E+03  0.12499926189E+03 0.  0.
          2    1    1    2  501    0  0.29731586759E+03 -0.17472216709E+03 -0.61636921742E+03  0.70628292701E+03  0.00000000000E+00 0. -1.
          1    1    1    2  502    0 -0.34133072220E+02  0.47433392164E+02  0.28566235718E+03  0.29157842104E+03  0.00000000000E+00 0. -1.
         22    1    3    3    0    0 -0.24598096042E+03  0.12298424097E+03 -0.44959530759E+03  0.52703671316E+03  0.00000000000E+00 0.  1.
         22    1    3    3    0    0 -0.17201834954E+02  0.43045339495E+01  0.60153714075E+01  0.18724765192E+02  0.00000000000E+00 0.  1.
</event>
<event>
 7    1  0.6370239E-006  0.5455993E+02  0.7818608E-02  0.1534027E+00
          2   -1    0    0  502    0  0.00000000000E+00  0.00000000000E+00  0.56455933942E+03  0.56455933942E+03  0.00000000000E+00 0. -1.
          1   -1    0    0  501    0 -0.00000000000E+00 -0.00000000000E+00 -0.14337353851E+04  0.14337353851E+04  0.00000000000E+00 0. -1.
         25    2    1    2    0    0 -0.12342278675E+02 -0.48510649832E+02 -0.86827689746E+02  0.16021824655E+03  0.12500089532E+03 0.  0.
          2    1    1    2  501    0 -0.11848164600E+02  0.53414246576E+02 -0.13093522678E+04  0.13104948768E+04  0.00000000000E+00 0. -1.
          1    1    1    2  502    0  0.24190443275E+02 -0.49035967437E+01  0.52700391188E+03  0.52758160122E+03  0.00000000000E+00 0. -1.
         22    1    3    3    0    0 -0.55671468959E+02 -0.22501390388E+02 -0.33945489194E+00  0.60047816405E+02  0.00000000000E+00 0.  1.
         22    1    3    3    0    0  0.43329190284E+02 -0.26009259444E+02 -0.86488234854E+02  0.10017043015E+03  0.00000000000E+00 0.  1.
</event>
<event>
 7    1  0.6370239E-006  0.7226222E+02  0.7818608E-02  0.1406212E+00
          2   -1    0    0  502    0  0.00000000000E+00  0.00000000000E+00  0.73205208017E+03  0.73205208017E+03  0.00000000000E+00 0. -1.
          1   -1    0    0  501    0 -0.00000000000E+00 -0.00000000000E+00 -0.10817956833E+04  0.10817956833E+04  0.00000000000E+00 0. -1.
         25    2    1    2    0    0  0.78671543233E+02 -0.41971202122E+02  0.18570700990E+03  0.24096045410E+03  0.12499621351E+03 0.  0.
          2    1    1    2  501    0 -0.36676323073E+02  0.62236495162E+02 -0.10518797138E+04  0.10543573712E+04  0.00000000000E+00 0. -1.
          1    1    1    2  502    0 -0.41995220160E+02 -0.20265293040E+02  0.51642910077E+03  0.51852993813E+03  0.00000000000E+00 0. -1.
         22    1    3    3    0    0 -0.29906658878E+02  0.11856935442E+02  0.43849277923E+02  0.54385240072E+02  0.00000000000E+00 0.  1.
         22    1    3    3    0    0  0.10857820211E+03 -0.53828137564E+02  0.14185773198E+03  0.18657521402E+03  0.00000000000E+00 0.  1.
</event>
<event>
 7    1  0.6370239E-006  0.5376653E+02  0.7818608E-02  0.1521749E+00
          2   -1    0    0  502    0  0.00000000000E+00  0.00000000000E+00  0.11702956118E+04  0.11702956118E+04  0.00000000000E+00 0. -1.
          1   -1    0    0  501    0 -0.00000000000E+00 -0.00000000000E+00 -0.11787503783E+02  0.11787503783E+02  0.00000000000E+00 0. -1.
         25    2    1    2    0    0  0.41960390422E+02 -0.27778604065E+02  0.48787588172E+03  0.50614231064E+03  0.12499934981E+03 0.  0.
          2    1    1    2  501    0  0.13583526654E+02  0.23526255296E+02  0.28739095981E+03  0.28867206423E+03  0.00000000000E+00 0. -1.
          1    1    1    2  502    0 -0.55543917076E+02  0.42523487684E+01  0.38324126654E+03  0.38726874076E+03  0.00000000000E+00 0. -1.
         22    1    3    3    0    0 -0.20729491618E+02  0.59815969870E+00  0.94443823026E+01  0.22787408252E+02  0.00000000000E+00 0. -1.
         22    1    3    3    0    0  0.62689882040E+02 -0.28376763763E+02  0.47843149941E+03  0.48335490239E+03  0.00000000000E+00 0. -1.
</event>
<event>
 7    1  0.6370239E-006  0.5674684E+02  0.7818608E-02  0.1496807E+00
          2   -1    0    0  502    0  0.00000000000E+00  0.00000000000E+00  0.29331640536E+03  0.29331640536E+03  0.00000000000E+00 0. -1.
          1   -1    0    0  501    0 -0.00000000000E+00 -0.00000000000E+00 -0.43674636054E+03  0.43674636054E+03  0.00000000000E+00 0. -1.
         25    2    1    2    0    0 -0.28301262179E+02  0.25929036246E+02  0.99736779756E+02  0.16445356099E+03  0.12499708846E+03 0.  0.
          2    1    1    2  501    0  0.51747444813E+01  0.30043141441E+02 -0.39809715526E+03  0.39926271220E+03  0.00000000000E+00 0. -1.
          1    1    1    2  502    0  0.23126517698E+02 -0.55972177687E+02  0.15493042032E+03  0.16634649271E+03  0.00000000000E+00 0. -1.
         22    1    3    3    0    0  0.43906827961E+02  0.25680793946E+02  0.14808007582E+02  0.52977257459E+02  0.00000000000E+00 0. -1.
         22    1    3    3    0    0 -0.72208090140E+02  0.24824230003E+00  0.84928772175E+02  0.11147630353E+03  0.00000000000E+00 0. -1.
</event>
<event>
 7    1  0.6370239E-006  0.7796264E+02  0.7818608E-02  0.1405690E+00
          2   -1    0    0  502    0  0.00000000000E+00  0.00000000000E+00  0.17551814838E+03  0.17551814838E+03  0.00000000000E+00 0. -1.
          1   -1    0    0  501    0 -0.00000000000E+00 -0.00000000000E+00 -0.89474719824E+03  0.89474719824E+03  0.00000000000E+00 0. -1.
         25    2    1    2    0    0 -0.11378435053E+03  0.33127868163E+02 -0.11215302078E+03  0.20554285009E+03  0.12500091630E+03 0.  0.
          2    1    1    2  501    0  0.42061699502E+02 -0.10684072269E+02 -0.72423369962E+03  0.72553276124E+03  0.00000000000E+00 0. -1.
          1    1    1    2  502    0  0.71722651032E+02 -0.22443795894E+02  0.11715767054E+03  0.13918973529E+03  0.00000000000E+00 0. -1.
         22    1    3    3    0    0 -0.13855800675E+03  0.23951815378E+02 -0.11091997659E+03  0.17909565014E+03  0.00000000000E+00 0. -1.
         22    1    3    3    0    0  0.24773656212E+02  0.91760527844E+01 -0.12330441898E+01  0.26447199942E+02  0.00000000000E+00 0. -1.
</event>
<event>
 7    1  0.6370239E-006  0.1009877E+03  0.7818608E-02  0.1293408E+00
          2   -1    0    0  502    0  0.00000000000E+00  0.00000000000E+00  0.78436671344E+03  0.78436671344E+03  0.00000000000E+00 0. -1.
          1   -1    0    0  501    0 -0.00000000000E+00 -0.00000000000E+00 -0.62375085784E+03  0.62375085784E+03  0.00000000000E+00 0. -1.
         25    2    1    2    0    0 -0.44575426702E+02 -0.47278822228E+02 -0.31619136337E+03  0.34615674968E+03  0.12500104553E+03 0.  0.
          2    1    1    2  501    0 -0.54933735215E+02  0.68139553818E+02 -0.28256611175E+03  0.29581129385E+03  0.00000000000E+00 0. -1.
          1    1    1    2  502    0  0.99509161918E+02 -0.20860731590E+02  0.75937333073E+03  0.76614952774E+03  0.00000000000E+00 0. -1.
         22    1    3    3    0    0  0.41078652553E+02 -0.31041616272E+02 -0.89109336520E+02  0.10291506931E+03  0.00000000000E+00 0.  1.
         22    1    3    3    0    0 -0.85654079256E+02 -0.16237205956E+02 -0.22708202685E+03  0.24324168037E+03  0.00000000000E+00 0.  1.
</event>
<event>
 7    1  0.6370239E-006  0.1320635E+03  0.7818608E-02  0.1294244E+00
          2   -1    0    0  502    0  0.00000000000E+00  0.00000000000E+00  0.59814535333E+03  0.59814535333E+03  0.00000000000E+00 0. -1.
          1   -1    0    0  501    0 -0.00000000000E+00 -0.00000000000E+00 -0.23498836482E+04  0.23498836482E+04  0.00000000000E+00 0. -1.
         25    2    1    2    0    0 -0.22523353195E+02 -0.84818565801E+02 -0.29167037865E+02  0.15549492582E+03  0.12500586112E+03 0.  0.
          2    1    1    2  501    0  0.86733411590E+02  0.10177349295E+03 -0.22535021011E+04  0.22574658908E+04  0.00000000000E+00 0. -1.
          1    1    1    2  502    0 -0.64210058395E+02 -0.16954927149E+02  0.53093084415E+03  0.53506818484E+03  0.00000000000E+00 0. -1.
         22    1    3    3    0    0 -0.49555573130E+02 -0.59257306694E+02  0.32233189235E+02  0.83702817833E+02  0.00000000000E+00 0. -1.
         22    1    3    3    0    0  0.27032219936E+02 -0.25561259107E+02 -0.61400227100E+02  0.71792107990E+02  0.00000000000E+00 0. -1.
</event>
<event>
 7    1  0.6370239E-006  0.7494003E+02  0.7818608E-02  0.1453529E+00
          2   -1    0    0  502    0  0.00000000000E+00  0.00000000000E+00  0.95029880507E+03  0.95029880507E+03  0.00000000000E+00 0. -1.
          1   -1    0    0  501    0 -0.00000000000E+00 -0.00000000000E+00 -0.53916581880E+03  0.53916581880E+03  0.00000000000E+00 0. -1.
         25    2    1    2    0    0  0.19388442552E+02 -0.48902314511E+02  0.34540884784E+02  0.13995118845E+03  0.12500365738E+03 0.  0.
          2    1    1    2  501    0 -0.49662255010E+02  0.57257521294E+02 -0.48321991326E+03  0.48912804856E+03  0.00000000000E+00 0. -1.
          1    1    1    2  502    0  0.30273812458E+02 -0.83552067836E+01  0.85981201475E+03  0.86038538685E+03  0.00000000000E+00 0. -1.
         22    1    3    3    0    0 -0.16126653274E+02 -0.80908026397E+02  0.27654263971E+01  0.82545897927E+02  0.00000000000E+00 0. -1.
         22    1    3    3    0    0  0.35515095826E+02  0.32005711886E+02  0.31775458387E+02  0.57405290528E+02  0.00000000000E+00 0. -1.
</event>
<event>
 7    1  0.6370239E-006  0.7341887E+02  0.7818608E-02  0.1483880E+00
          2   -1    0    0  502    0  0.00000000000E+00  0.00000000000E+00  0.98113011372E+02  0.98113011372E+02  0.00000000000E+00 0. -1.
          1   -1    0    0  501    0 -0.00000000000E+00 -0.00000000000E+00 -0.14965762542E+04  0.14965762542E+04  0.00000000000E+00 0. -1.
         25    2    1    2    0    0  0.15947158499E+02 -0.63774428123E+02 -0.42225643809E+03  0.44524767759E+03  0.12499402123E+03 0.  0.
          2    1    1    2  501    0 -0.41668620198E+02  0.62004658884E+02 -0.10595608964E+04  0.10621911997E+04  0.00000000000E+00 0. -1.
          1    1    1    2  502    0  0.25721461699E+02  0.17697692386E+01  0.83354091593E+02  0.87250388310E+02  0.00000000000E+00 0. -1.
         22    1    3    3    0    0  0.22936140581E+02 -0.28666025569E+02 -0.40286745442E+03  0.40453676396E+03  0.00000000000E+00 0.  1.
         22    1    3    3    0    0 -0.69889820825E+01 -0.35108402554E+02 -0.19388983669E+02  0.40710913625E+02  0.00000000000E+00 0.  1.
</event>
<event>
 7    1  0.6370239E-006  0.5615112E+02  0.7818608E-02  0.1424351E+00
          2   -1    0    0  502    0  0.00000000000E+00  0.00000000000E+00  0.12948475874E+04  0.12948475874E+04  0.00000000000E+00 0. -1.
          1   -1    0    0  501    0 -0.00000000000E+00 -0.00000000000E+00 -0.29827398991E+03  0.29827398991E+03  0.00000000000E+00 0. -1.
         25    2    1    2    0    0 -0.51223960470E+02 -0.47080675652E+02 -0.22347517616E+03  0.26534256111E+03  0.12500014492E+03 0.  0.
          2    1    1    2  501    0  0.55427727072E+02 -0.48942176216E+01 -0.38809825933E+02  0.67840908627E+02  0.00000000000E+00 0. -1.
          1    1    1    2  502    0 -0.42037666014E+01  0.51974893273E+02  0.12588585996E+04  0.12599381076E+04  0.00000000000E+00 0. -1.
         22    1    3    3    0    0 -0.91898123372E+02 -0.25133309065E+02 -0.13123744313E+03  0.16217340961E+03  0.00000000000E+00 0. -1.
         22    1    3    3    0    0  0.40674162902E+02 -0.21947366586E+02 -0.92237733023E+02  0.10316915150E+03  0.00000000000E+00 0. -1.
</event>
<event>
 7    1  0.6370239E-006  0.1373200E+03  0.7818608E-02  0.1303498E+00
          2   -1    0    0  502    0  0.00000000000E+00  0.00000000000E+00  0.92159602139E+02  0.92159602139E+02  0.00000000000E+00 0. -1.
          1   -1    0    0  501    0 -0.00000000000E+00 -0.00000000000E+00 -0.75085008676E+03  0.75085008676E+03  0.00000000000E+00 0. -1.
         25    2    1    2    0    0 -0.47778836534E+02  0.13360576768E+03 -0.34153497014E+03  0.39038918311E+03  0.12499704028E+03 0.  0.
          2    1    1    2  501    0  0.96223086281E+02 -0.10056712140E+03 -0.35602826384E+03  0.38226790722E+03  0.00000000000E+00 0. -1.
          1    1    1    2  502    0 -0.48444249748E+02 -0.33038646283E+02  0.38872749364E+02  0.70352598566E+02  0.00000000000E+00 0. -1.
         22    1    3    3    0    0 -0.41603334018E+02 -0.11361649173E+02 -0.94863073095E+02  0.10420617597E+03  0.00000000000E+00 0.  1.
         22    1    3    3    0    0 -0.61755025154E+01  0.14496741686E+03 -0.24667189705E+03  0.28618300714E+03  0.00000000000E+00 0.  1.
</event>
<event>
 7    1  0.6370239E-006  0.9653342E+02  0.7818608E-02  0.1437080E+00
          2   -1    0    0  502    0  0.00000000000E+00  0.00000000000E+00  0.19863009420E+04  0.19863009420E+04  0.00000000000E+00 0. -1.
          1   -1    0    0  501    0 -0.00000000000E+00 -0.00000000000E+00 -0.10096431133E+03  0.10096431133E+03  0.00000000000E+00 0. -1.
         25    2    1    2    0    0  0.57286455434E+02  0.94052878868E+02  0.15901070197E+03  0.23029611929E+03  0.12499686883E+03 0.  0.
          2    1    1    2  501    0  0.10206605348E+02 -0.25583113389E+02 -0.61067489912E+02  0.66991856278E+02  0.00000000000E+00 0. -1.
          1    1    1    2  502    0 -0.67493060783E+02 -0.68469765478E+02  0.17873934187E+04  0.17899772778E+04  0.00000000000E+00 0. -1.
         22    1    3    3    0    0  0.92419757496E+02  0.40055814442E+02  0.11143457728E+03  0.15021166685E+03  0.00000000000E+00 0.  1.
         22    1    3    3    0    0 -0.35133302061E+02  0.53997064426E+02  0.47576124694E+02  0.80084452431E+02  0.00000000000E+00 0.  1.
</event>
<event>
 7    1  0.6370239E-006  0.1610739E+03  0.7818608E-02  0.1264185E+00
          2   -1    0    0  502    0  0.00000000000E+00  0.00000000000E+00  0.27675972295E+04  0.27675972295E+04  0.00000000000E+00 0. -1.
          1   -1    0    0  501    0 -0.00000000000E+00 -0.00000000000E+00 -0.34972851162E+03  0.34972851162E+03  0.00000000000E+00 0. -1.
         25    2    1    2    0    0 -0.12563591190E+03 -0.74479741230E+02 -0.20712475454E+03  0.28259031942E+03  0.12500004190E+03 0.  0.
          2    1    1    2  501    0 -0.35348856215E+02  0.63308596308E+02 -0.89648541058E+02  0.11530126155E+03  0.00000000000E+00 0. -1.
          1    1    1    2  502    0  0.16098476812E+03  0.11171144922E+02  0.27146420134E+04  0.27194341601E+04  0.00000000000E+00 0. -1.
         22    1    3    3    0    0 -0.12421716663E+03 -0.95102463654E+02 -0.13205480628E+03  0.20472629274E+03  0.00000000000E+00 0. -1.
         22    1    3    3    0    0 -0.14187452697E+01  0.20622722424E+02 -0.75069948263E+02  0.77864026678E+02  0.00000000000E+00 0. -1.
</event>
<event>
 7    1  0.6370239E-006  0.8551943E+02  0.7818608E-02  0.1369897E+00
          2   -1    0    0  502    0  0.00000000000E+00  0.00000000000E+00  0.87184393747E+03  0.87184393747E+03  0.00000000000E+00 0. -1.
          1   -1    0    0  501    0 -0.00000000000E+00 -0.00000000000E+00 -0.59739962445E+03  0.59739962445E+03  0.00000000000E+00 0. -1.
         25    2    1    2    0    0 -0.55994625641E+02 -0.19801300368E+02  0.56925634211E+03  0.58583726531E+03  0.12500011517E+03 0.  0.
          2    1    1    2  501    0  0.81563149864E+02 -0.26392940327E+02 -0.58358415867E+03  0.58984710304E+03  0.00000000000E+00 0. -1.
          1    1    1    2  502    0 -0.25568524223E+02  0.46194240695E+02  0.28877212958E+03  0.29355919356E+03  0.00000000000E+00 0. -1.
         22    1    3    3    0    0 -0.59174596891E+02 -0.65491509105E+02  0.30006912954E+03  0.31278147833E+03  0.00000000000E+00 0. -1.
         22    1    3    3    0    0  0.31799712504E+01  0.45690208737E+02  0.26918721257E+03  0.27305578698E+03  0.00000000000E+00 0. -1.
</event>
<event>
 7    1  0.6370239E-006  0.8846190E+02  0.7818608E-02  0.1422845E+00
          2   -1    0    0  502    0  0.00000000000E+00  0.00000000000E+00  0.97438644202E+02  0.97438644202E+02  0.00000000000E+00 0. -1.
          1   -1    0    0  501    0 -0.00000000000E+00 -0.00000000000E+00 -0.87274485720E+03  0.87274485720E+03  0.00000000000E+00 0. -1.
         25    2    1    2    0    0 -0.29442716751E+02  0.80571850001E+02 -0.19646301076E+03  0.24815657084E+03  0.12500108988E+03 0.  0.
          2    1    1    2  501    0  0.32282067053E+02  0.88851757708E+01 -0.62183435814E+03  0.62273513404E+03  0.00000000000E+00 0. -1.
          1    1    1    2  502    0 -0.28393503016E+01 -0.89457025772E+02  0.42991155906E+02  0.99291796520E+02  0.00000000000E+00 0. -1.
         22    1    3    3    0    0  0.29320960248E+02  0.80764638197E+02 -0.78570306111E+02  0.11642997250E+03  0.00000000000E+00 0.  1.
         22    1    3    3    0    0 -0.58763676999E+02 -0.19278819604E+00 -0.11789270465E+03  0.13172659834E+03  0.00000000000E+00 0.  1.
</event>
<event>
 7    1  0.6370239E-006  0.1110084E+03  0.7818608E-02  0.1421390E+00
          2   -1    0    0  502    0  0.00000000000E+00  0.00000000000E+00  0.14780735244E+03  0.14780735244E+03  0.00000000000E+00 0. -1.
          1   -1    0    0  501    0 -0.00000000000E+00 -0.00000000000E+00 -0.13199292079E+04  0.13199292079E+04  0.00000000000E+00 0. -1.
         25    2    1    2    0    0  0.22901487458E+01  0.11756675906E+03 -0.64667646797E+03  0.66906214450E+03  0.12500604527E+03 0.  0.
          2    1    1    2  501    0 -0.25394704427E+02 -0.91157538727E+01 -0.63922809916E+03  0.63979727316E+03  0.00000000000E+00 0. -1.
          1    1    1    2  502    0  0.23104555681E+02 -0.10845100518E+03  0.11378271162E+03  0.15887714273E+03  0.00000000000E+00 0. -1.
         22    1    3    3    0    0 -0.50594328585E+02  0.10955628949E+02 -0.16674418531E+03  0.17459506071E+03  0.00000000000E+00 0. -1.
         22    1    3    3    0    0  0.52884477331E+02  0.10661113011E+03 -0.47993228267E+03  0.49446708379E+03  0.00000000000E+00 0. -1.
</event>
<event>
 7    1  0.6370239E-006  0.1874971E+03  0.7818608E-02  0.1339940E+00
          2   -1    0    0  502    0  0.00000000000E+00  0.00000000000E+00  0.19317681186E+04  0.19317681186E+04  0.00000000000E+00 0. -1.
          1   -1    0    0  501    0 -0.00000000000E+00 -0.00000000000E+00 -0.19327642795E+03  0.19327642795E+03  0.00000000000E+00 0. -1.
         25    2    1    2    0    0  0.12049935482E+03 -0.14713887398E+03  0.25196954518E+02  0.22897542905E+03  0.12499967136E+03 0.  0.
          2    1    1    2  501    0 -0.26973510778E+02 -0.15352737471E+02 -0.83726599440E+02  0.89294010355E+02  0.00000000000E+00 0. -1.
          1    1    1    2  502    0 -0.93525844047E+02  0.16249161146E+03  0.17970213356E+04  0.18067751071E+04  0.00000000000E+00 0. -1.
         22    1    3    3    0    0  0.13969575791E+03 -0.15099413775E+03  0.13452301171E+02  0.20614339383E+03  0.00000000000E+00 0. -1.
         22    1    3    3    0    0 -0.19196403082E+02  0.38552637651E+01  0.11744653347E+02  0.22832035219E+02  0.00000000000E+00 0. -1.
</event>
<event>
 7    1  0.6370239E-006  0.9612863E+02  0.7818608E-02  0.1348920E+00
          2   -1    0    0  502    0  0.00000000000E+00  0.00000000000E+00  0.51157526190E+03  0.51157526190E+03  0.00000000000E+00 0. -1.
          1   -1    0    0  501    0 -0.00000000000E+00 -0.00000000000E+00 -0.36259993186E+03  0.36259993186E+03  0.00000000000E+00 0. -1.
         25    2    1    2    0    0 -0.45217711652E+02 -0.56467399255E+02 -0.69747598951E-01  0.14445146583E+03  0.12503204585E+03 0.  0.
          2    1    1    2  501    0 -0.49143444928E+02  0.26922505662E+02 -0.28198454639E+03  0.28749814590E+03  0.00000000000E+00 0. -1.
          1    1    1    2  502    0  0.94361156579E+02  0.29544893593E+02  0.43102962403E+03  0.44222558203E+03  0.00000000000E+00 0. -1.
         22    1    3    3    0    0 -0.68017897520E+01 -0.16602659829E+02  0.60080111478E+02  0.62701933403E+02  0.00000000000E+00 0. -1.
         22    1    3    3    0    0 -0.38415921900E+02 -0.39864739425E+02 -0.60149859077E+02  0.81749532426E+02  0.00000000000E+00 0. -1.
</event>
<event>
 7    1  0.6370239E-006  0.5681313E+02  0.7818608E-02  0.1501263E+00
          2   -1    0    0  502    0  0.00000000000E+00  0.00000000000E+00  0.10767213797E+04  0.10767213797E+04  0.00000000000E+00 0. -1.
          1   -1    0    0  501    0 -0.00000000000E+00 -0.00000000000E+00 -0.62882290533E+03  0.62882290533E+03  0.00000000000E+00 0. -1.
         25    2    1    2    0    0  0.81150630028E+02  0.56736145013E+01 -0.37547454495E+03  0.40400779866E+03  0.12499421113E+03 0.  0.
          2    1    1    2  501    0 -0.51949772456E+02 -0.12729464435E+01 -0.23604983602E+03  0.24170213970E+03  0.00000000000E+00 0. -1.
          1    1    1    2  502    0 -0.29200857573E+02 -0.44006680578E+01  0.10594228554E+04  0.10598343467E+04  0.00000000000E+00 0. -1.
         22    1    3    3    0    0 -0.85952733854E+01  0.13227024615E+01 -0.24743217828E+03  0.24758495736E+03  0.00000000000E+00 0.  1.
         22    1    3    3    0    0  0.89745903414E+02  0.43509120398E+01 -0.12804236667E+03  0.15642284129E+03  0.00000000000E+00 0.  1.
</event>
<event>
 7    1  0.6370239E-006  0.6683161E+02  0.7818608E-02  0.1453788E+00
          2   -1    0    0  502    0  0.00000000000E+00  0.00000000000E+00  0.13647713889E+04  0.13647713889E+04  0.00000000000E+00 0. -1.
          1   -1    0    0  501    0 -0.00000000000E+00 -0.00000000000E+00 -0.12186353843E+03  0.12186353843E+03  0.00000000000E+00 0. -1.
         25    2    1    2    0    0 -0.41006341839E+02 -0.29125988574E+01  0.15385448331E+03  0.20244439192E+03  0.12499010553E+03 0.  0.
          2    1    1    2  501    0  0.61018373142E+02  0.31808691184E+02 -0.85140226693E+02  0.10947096828E+03  0.00000000000E+00 0. -1.
          1    1    1    2  502    0 -0.20012031304E+02 -0.28896092327E+02  0.11741935939E+04  0.11747195672E+04  0.00000000000E+00 0. -1.
         22    1    3    3    0    0 -0.31088879354E+01 -0.74777624656E+01 -0.21504594529E+02  0.22978896874E+02  0.00000000000E+00 0. -1.
         22    1    3    3    0    0 -0.37897453903E+02  0.45651636082E+01  0.17535907784E+03  0.17946549504E+03  0.00000000000E+00 0. -1.
</event>
<event>
 7    1  0.6370239E-006  0.1400421E+03  0.7818608E-02  0.1379471E+00
          2   -1    0    0  502    0  0.00000000000E+00  0.00000000000E+00  0.19756084393E+04  0.19756084393E+04  0.00000000000E+00 0. -1.
          1   -1    0    0  501    0 -0.00000000000E+00 -0.00000000000E+00 -0.66059573818E+03  0.66059573818E+03  0.00000000000E+00 0. -1.
         25    2    1    2    0    0 -0.46979375627E+02  0.11336081190E+03 -0.13026517653E+03  0.21829450707E+03  0.12500296073E+03 0.  0.
          2    1    1    2  501    0  0.74965855983E+02 -0.12360425321E+03 -0.47545478490E+03  0.49694581541E+03  0.00000000000E+00 0. -1.
          1    1    1    2  502    0 -0.27986480356E+02  0.10243441307E+02  0.19207326626E+04  0.19209638550E+04  0.00000000000E+00 0. -1.
         22    1    3    3    0    0  0.27691458851E+02  0.94035869868E+02 -0.71889841064E+02  0.12156360871E+03  0.00000000000E+00 0. -1.
         22    1    3    3    0    0 -0.74670834478E+02  0.19324942033E+02 -0.58375335468E+02  0.96730898359E+02  0.00000000000E+00 0. -1.
</event>
<event>
 7    1  0.6370239E-006  0.5594628E+02  0.7818608E-02  0.1420480E+00
          2   -1    0    0  502    0  0.00000000000E+00  0.00000000000E+00  0.64621327509E+03  0.64621327509E+03  0.00000000000E+00 0. -1.
          1   -1    0    0  501    0 -0.00000000000E+00 -0.00000000000E+00 -0.33570239437E+03  0.33570239437E+03  0.00000000000E+00 0. -1.
         25    2    1    2    0    0  0.28391152924E+02 -0.98316045172E+02  0.42857863480E+02  0.16713541166E+03  0.12500138826E+03 0.  0.
          2    1    1    2  501    0  0.39163152659E+01  0.53769268852E+02 -0.26948805888E+03  0.27482773819E+03  0.00000000000E+00 0. -1.
          1    1    1    2  502    0 -0.32307468190E+02  0.44546776320E+02  0.53714107612E+03  0.53995251961E+03  0.00000000000E+00 0. -1.
         22    1    3    3    0    0  0.31971486540E+02 -0.67793568562E+02  0.86055558394E+02  0.11412143979E+03  0.00000000000E+00 0. -1.
         22    1    3    3    0    0 -0.35803336158E+01 -0.30522476610E+02 -0.43197694914E+02  0.53013971867E+02  0.00000000000E+00 0. -1.
</event>
<event>
 7    1  0.6370239E-006  0.8190170E+02  0.7818608E-02  0.1422672E+00
          2   -1    0    0  502    0  0.00000000000E+00  0.00000000000E+00  0.82277848789E+03  0.82277848789E+03  0.00000000000E+00 0. -1.
          1   -1    0    0  501    0 -0.00000000000E+00 -0.00000000000E+00 -0.63832978955E+03  0.63832978955E+03  0.00000000000E+00 0. -1.
         25    2    1    2    0    0 -0.27837590094E+02 -0.76892330070E+02  0.23305173771E+03  0.27681231123E+03  0.12499832539E+03 0.  0.
          2    1    1    2  501    0  0.35774470687E+02 -0.56129610759E+01 -0.61288758935E+03  0.61395644411E+03  0.00000000000E+00 0. -1.
          1    1    1    2  502    0 -0.79368805931E+01  0.82505291146E+02  0.56428454997E+03  0.57033952210E+03  0.00000000000E+00 0. -1.
         22    1    3    3    0    0 -0.58505992745E+02 -0.31780921437E+02  0.43412269471E+02  0.79483352314E+02  0.00000000000E+00 0. -1.
         22    1    3    3    0    0  0.30668402651E+02 -0.45111408633E+02  0.18963946824E+03  0.19732895891E+03  0.00000000000E+00 0. -1.
</event>
<event>
 7    1  0.6370239E-006  0.7855341E+02  0.7818608E-02  0.1505260E+00
          2   -1    0    0  502    0  0.00000000000E+00  0.00000000000E+00  0.14628349897E+04  0.14628349897E+04  0.00000000000E+00 0. -1.
          1   -1    0    0  501    0 -0.00000000000E+00 -0.00000000000E+00 -0.81847865084E+02  0.81847865084E+02  0.00000000000E+00 0. -1.
         25    2    1    2    0    0 -0.36844037864E+02 -0.46954226261E+02  0.23612379445E+03  0.27375260669E+03  0.12499544341E+03 0.  0.
          2    1    1    2  501    0 -0.79325813649E+01 -0.19208240445E+02 -0.59960936449E+02  0.63460194200E+02  0.00000000000E+00 0. -1.
          1    1    1    2  502    0  0.44776619229E+02  0.66162466706E+02  0.12048242666E+04  0.12074700539E+04  0.00000000000E+00 0. -1.
         22    1    3    3    0    0  0.41151521649E+02  0.62737865887E+01  0.97596183940E+02  0.10610288993E+03  0.00000000000E+00 0.  1.
         22    1    3    3    0    0 -0.77995559513E+02 -0.53228012850E+02  0.13852761052E+03  0.16764971676E+03  0.00000000000E+00 0.  1.
</event>
<event>
 7    1  0.6370239E-006  0.9825350E+02  0.7818608E-02  0.1375465E+00
          2   -1    0    0  502    0  0.00000000000E+00  0.00000000000E+00  0.11655034391E+03  0.11655034391E+03  0.00000000000E+00 0. -1.
          1   -1    0    0  501    0 -0.00000000000E+00 -0.00000000000E+00 -0.17924876129E+04  0.17924876129E+04  0.00000000000E+00 0. -1.
         25    2    1    2    0    0 -0.49819786520E+02 -0.12705808877E+03 -0.11579764626E+03  0.21831119104E+03  0.12499964881E+03 0.  0.
          2    1    1    2  501    0  0.19602232641E+02  0.95222042216E+02 -0.16164271347E+04  0.16193480685E+04  0.00000000000E+00 0. -1.
          1    1    1    2  502    0  0.30217553879E+02  0.31836046550E+02  0.56287512021E+02  0.71378697325E+02  0.00000000000E+00 0. -1.
         22    1    3    3    0    0  0.41521410695E+02 -0.48675808057E+02 -0.31115980389E+02  0.71144684072E+02  0.00000000000E+00 0. -1.
         22    1    3    3    0    0 -0.91341197215E+02 -0.78382280709E+02 -0.84681665872E+02  0.14716650697E+03  0.00000000000E+00 0. -1.
</event>
<event>
 7    1  0.6370239E-006  0.7225693E+02  0.7818608E-02  0.1397497E+00
          2   -1    0    0  502    0  0.00000000000E+00  0.00000000000E+00  0.96031807942E+02  0.96031807942E+02  0.00000000000E+00 0. -1.
          1   -1    0    0  501    0 -0.00000000000E+00 -0.00000000000E+00 -0.28483887821E+03  0.28483887821E+03  0.00000000000E+00 0. -1.
         25    2    1    2    0    0 -0.39194018789E+02 -0.10292389243E+03 -0.11420417453E+03  0.20198468393E+03  0.12500288125E+03 0.  0.
          2    1    1    2  501    0  0.75325056938E+01  0.64284089635E+02 -0.10283295153E+03  0.12150637325E+03  0.00000000000E+00 0. -1.
          1    1    1    2  502    0  0.31661513095E+02  0.38639802793E+02  0.28230055784E+02  0.57379628972E+02  0.00000000000E+00 0. -1.
         22    1    3    3    0    0 -0.16144389070E+02  0.23631466032E+02  0.19229228386E+01  0.28684231165E+02  0.00000000000E+00 0. -1.
         22    1    3    3    0    0 -0.23049629719E+02 -0.12655535846E+03 -0.11612709737E+03  0.17330045276E+03  0.00000000000E+00 0. -1.
</event>
<event>
 7    1  0.6370239E-006  0.3453158E+03  0.7818608E-02  0.1170036E+00
          2   -1    0    0  502    0  0.00000000000E+00  0.00000000000E+00  0.32839474819E+04  0.32839474819E+04  0.00000000000E+00 0. -1.
          1   -1    0    0  501    0 -0.00000000000E+00 -0.00000000000E+00 -0.14152514970E+03  0.14152514970E+03  0.00000000000E+00 0. -1.
         25    2    1    2    0    0  0.28400613964E+03 -0.54090504923E+02  0.55097511386E+03  0.63465321776E+03  0.12500344249E+03 0.  0.
          2    1    1    2  501    0 -0.37100000870E+03  0.82311589951E+02  0.26668689985E+03  0.46426081770E+03  0.00000000000E+00 0. -1.
          1    1    1    2  502    0  0.86993869059E+02 -0.28221085028E+02  0.23247603185E+04  0.23265585961E+04  0.00000000000E+00 0. -1.
         22    1    3    3    0    0  0.26486303476E+03 -0.47377293921E+02  0.39848356383E+03  0.48081824612E+03  0.00000000000E+00 0. -1.
         22    1    3    3    0    0  0.19143104883E+02 -0.67132110018E+01  0.15249155003E+03  0.15383497163E+03  0.00000000000E+00 0. -1.
</event>
<event>
 7    1  0.6370239E-006  0.1428950E+03  0.7818608E-02  0.1360503E+00
          2   -1    0    0  502    0  0.00000000000E+00  0.00000000000E+00  0.19494816380E+04  0.19494816380E+04  0.00000000000E+00 0. -1.
          1   -1    0    0  501    0 -0.00000000000E+00 -0.00000000000E+00 -0.56256983885E+02  0.56256983885E+02  0.00000000000E+00 0. -1.
         25    2    1    2    0    0  0.13579162914E+03  0.96592660404E+02  0.62026249622E+03  0.65430889524E+03  0.12500023030E+03 0.  0.
          2    1    1    2  501    0 -0.10171432291E+03 -0.94037059305E+02  0.84053665277E+02  0.16203021525E+03  0.00000000000E+00 0. -1.
          1    1    1    2  502    0 -0.34077306233E+02 -0.25556010988E+01  0.11889084926E+04  0.11893995114E+04  0.00000000000E+00 0. -1.
         22    1    3    3    0    0  0.14353982349E+03  0.83136068587E+02  0.39373689513E+03  0.42725171669E+03  0.00000000000E+00 0. -1.
         22    1    3    3    0    0 -0.77481943481E+01  0.13456591817E+02  0.22652560109E+03  0.22705717854E+03  0.00000000000E+00 0. -1.
</event>
<event>
 7    1  0.6370239E-006  0.5730203E+02  0.7818608E-02  0.1522886E+00
          2   -1    0    0  502    0  0.00000000000E+00  0.00000000000E+00  0.12465920124E+04  0.12465920124E+04  0.00000000000E+00 0. -1.
          1   -1    0    0  501    0 -0.00000000000E+00 -0.00000000000E+00 -0.60563171471E+02  0.60563171471E+02  0.00000000000E+00 0. -1.
         25    2    1    2    0    0  0.93103977695E+01 -0.34969019990E+02  0.23731965983E+03  0.27065644362E+03  0.12499909466E+03 0.  0.
          2    1    1    2  501    0  0.19829075147E+02 -0.15709030962E+02 -0.39312768459E+02  0.46748899868E+02  0.00000000000E+00 0. -1.
          1    1    1    2  502    0 -0.29139472917E+02  0.50678050953E+02  0.98802194954E+03  0.98974984037E+03  0.00000000000E+00 0. -1.
         22    1    3    3    0    0 -0.17566418608E+02  0.27565738985E+02  0.11260524349E+02  0.34572365223E+02  0.00000000000E+00 0. -1.
         22    1    3    3    0    0  0.26876816377E+02 -0.62534758975E+02  0.22605913548E+03  0.23608407840E+03  0.00000000000E+00 0. -1.
</event>
<event>
 7    1  0.6370239E-006  0.8219925E+02  0.7818608E-02  0.1325141E+00
          2   -1    0    0  502    0  0.00000000000E+00  0.00000000000E+00  0.56984409789E+03  0.56984409789E+03  0.00000000000E+00 0. -1.
          1   -1    0    0  501    0 -0.00000000000E+00 -0.00000000000E+00 -0.40292877209E+03  0.40292877209E+03  0.00000000000E+00 0. -1.
         25    2    1    2    0    0  0.73853116557E+02 -0.48753089034E+02  0.80233594814E+02  0.17289760917E+03  0.12500002802E+03 0.  0.
          2    1    1    2  501    0  0.22741453355E+01  0.82167781814E+02 -0.34786613442E+03  0.35744588903E+03  0.00000000000E+00 0. -1.
          1    1    1    2  502    0 -0.76127261892E+02 -0.33414692781E+02  0.43454786540E+03  0.44242937179E+03  0.00000000000E+00 0. -1.
         22    1    3    3    0    0  0.20823979124E+02  0.29882603805E+02 -0.14166279165E+02  0.39080578068E+02  0.00000000000E+00 0. -1.
         22    1    3    3    0    0  0.53029137433E+02 -0.78635692839E+02  0.94399873979E+02  0.13381703110E+03  0.00000000000E+00 0. -1.
</event>
<event>
 7    1  0.6370239E-006  0.5320725E+02  0.7818608E-02  0.1472272E+00
          2   -1    0    0  502    0  0.00000000000E+00  0.00000000000E+00  0.47470500339E+02  0.47470500339E+02  0.00000000000E+00 0. -1.
          1   -1    0    0  501    0 -0.00000000000E+00 -0.00000000000E+00 -0.54471467084E+03  0.54471467084E+03  0.00000000000E+00 0. -1.
         25    2    1    2    0    0 -0.31730839978E+02 -0.12017073741E+02 -0.28898549656E+03  0.31668416703E+03  0.12499995264E+03 0.  0.
          2    1    1    2  501    0 -0.19438822433E+02  0.33376248314E+02 -0.21607872943E+03  0.21950366530E+03  0.00000000000E+00 0. -1.
          1    1    1    2  502    0  0.51169662411E+02 -0.21359174573E+02  0.78200554914E+01  0.55997338844E+02  0.00000000000E+00 0. -1.
         22    1    3    3    0    0  0.26411200996E+02  0.33824342969E+02 -0.17918825914E+03  0.18425544749E+03  0.00000000000E+00 0.  1.
         22    1    3    3    0    0 -0.58142040974E+02 -0.45841416710E+02 -0.10979723742E+03  0.13242871954E+03  0.00000000000E+00 0.  1.
</event>
<event>
 7    1  0.6370239E-006  0.2840873E+03  0.7818608E-02  0.1201571E+00
          2   -1    0    0  502    0  0.00000000000E+00  0.00000000000E+00  0.15107913776E+04  0.15107913776E+04  0.00000000000E+00 0. -1.
          1   -1    0    0  501    0 -0.00000000000E+00 -0.00000000000E+00 -0.89278679864E+02  0.89278679864E+02  0.00000000000E+00 0. -1.
         25    2    1    2    0    0  0.16153890261E+03 -0.21827352151E+03  0.87758598164E+03  0.92710255203E+03  0.12499535817E+03 0.  0.
          2    1    1    2  501    0 -0.37137147560E+02 -0.68891419864E+02  0.69790935705E+02  0.10486167158E+03  0.00000000000E+00 0. -1.
          1    1    1    2  502    0 -0.12440175505E+03  0.28716494137E+03  0.47413578040E+03  0.56810583387E+03  0.00000000000E+00 0. -1.
         22    1    3    3    0    0  0.18078394247E+03 -0.17576666445E+03  0.73035757648E+03  0.77265706734E+03  0.00000000000E+00 0. -1.
         22    1    3    3    0    0 -0.19245039859E+02 -0.42506857063E+02  0.14722840516E+03  0.15444548469E+03  0.00000000000E+00 0. -1.
</event>
<event>
 7    1  0.6370239E-006  0.1235471E+03  0.7818608E-02  0.1392280E+00
          2   -1    0    0  502    0  0.00000000000E+00  0.00000000000E+00  0.11458405012E+04  0.11458405012E+04  0.00000000000E+00 0. -1.
          1   -1    0    0  501    0 -0.00000000000E+00 -0.00000000000E+00 -0.75320302015E+03  0.75320302015E+03  0.00000000000E+00 0. -1.
         25    2    1    2    0    0  0.14752900969E+03 -0.46853510033E+01  0.88885737163E+02  0.21286748111E+03  0.12500051611E+03 0.  0.
          2    1    1    2  501    0 -0.12212249305E+03 -0.12113095375E+02 -0.68552874244E+03  0.69642679953E+03  0.00000000000E+00 0. -1.
          1    1    1    2  502    0 -0.25406516638E+02  0.16798446378E+02  0.98928048635E+03  0.98974924075E+03  0.00000000000E+00 0. -1.
         22    1    3    3    0    0  0.12279251797E+03  0.11585526403E+02  0.11846541801E+03  0.17101544420E+03  0.00000000000E+00 0.  1.
         22    1    3    3    0    0  0.24736491727E+02 -0.16270877406E+02 -0.29579680847E+02  0.41852036911E+02  0.00000000000E+00 0.  1.
</event>
<event>
 7    1  0.6370239E-006  0.6279167E+03  0.7818608E-02  0.1117363E+00
          2   -1    0    0  502    0  0.00000000000E+00  0.00000000000E+00  0.51244179352E+03  0.51244179352E+03  0.00000000000E+00 0. -1.
          1   -1    0    0  501    0 -0.00000000000E+00 -0.00000000000E+00 -0.35841667940E+04  0.35841667940E+04  0.00000000000E+00 0. -1.
         25    2    1    2    0    0  0.15552999152E+03 -0.56167297993E+03 -0.92772614864E+03  0.11027043881E+04  0.12496017755E+03 0.  0.
          2    1    1    2  501    0  0.90080824635E+02 -0.28787331594E+02 -0.23268497819E+04  0.23287707429E+04  0.00000000000E+00 0. -1.
          1    1    1    2  502    0 -0.24561081616E+03  0.59046031153E+03  0.18285093000E+03  0.66513345661E+03  0.00000000000E+00 0. -1.
         22    1    3    3    0    0 -0.26389247767E+01 -0.21472892931E+03 -0.33085238541E+03  0.39443475752E+03  0.00000000000E+00 0. -1.
         22    1    3    3    0    0  0.15816891630E+03 -0.34694405062E+03 -0.59687376323E+03  0.70826963056E+03  0.00000000000E+00 0. -1.
</event>
<event>
 7    1  0.6370239E-006  0.1313156E+03  0.7818608E-02  0.1244988E+00
          2   -1    0    0  502    0  0.00000000000E+00  0.00000000000E+00  0.22951127919E+04  0.22951127919E+04  0.00000000000E+00 0. -1.
          1   -1    0    0  501    0 -0.00000000000E+00 -0.00000000000E+00 -0.13216959813E+04  0.13216959813E+04  0.00000000000E+00 0. -1.
         25    2    1    2    0    0  0.12285490529E+03 -0.17207656841E+03  0.16339205501E+03  0.29500126980E+03  0.12500044958E+03 0.  0.
          2    1    1    2  501    0 -0.10999692863E+02  0.10702367252E+03 -0.12515550729E+04  0.12561708324E+04  0.00000000000E+00 0. -1.
          1    1    1    2  502    0 -0.11185521242E+03  0.65052895892E+02  0.20615798284E+04  0.20656366710E+04  0.00000000000E+00 0. -1.
         22    1    3    3    0    0  0.59518451743E+02 -0.10464103117E+03  0.16281182175E+03  0.20248427298E+03  0.00000000000E+00 0.  1.
         22    1    3    3    0    0  0.63336453545E+02 -0.67435537239E+02  0.58023325827E+00  0.92516996822E+02  0.00000000000E+00 0.  1.
</event>
<event>
 7    1  0.6370239E-006  0.6983695E+02  0.7818608E-02  0.1382353E+00
          2   -1    0    0  502    0  0.00000000000E+00  0.00000000000E+00  0.23724520743E+04  0.23724520743E+04  0.00000000000E+00 0. -1.
          1   -1    0    0  501    0 -0.00000000000E+00 -0.00000000000E+00 -0.20019776929E+03  0.20019776929E+03  0.00000000000E+00 0. -1.
         25    2    1    2    0    0 -0.27420900357E+02 -0.10004543038E+03 -0.81110516750E+02  0.18156217909E+03  0.12499966013E+03 0.  0.
          2    1    1    2  501    0 -0.24205167229E+02  0.53120368007E+02 -0.55867783169E+02  0.80801440668E+02  0.00000000000E+00 0. -1.
          1    1    1    2  502    0  0.51626067586E+02  0.46925062373E+02  0.23092326050E+04  0.23102862239E+04  0.00000000000E+00 0. -1.
         22    1    3    3    0    0  0.35988400640E+01 -0.44863351562E+02  0.29714721028E+02  0.53931777357E+02  0.00000000000E+00 0. -1.
         22    1    3    3    0    0 -0.31019740421E+02 -0.55182078818E+02 -0.11082523778E+03  0.12763040173E+03  0.00000000000E+00 0. -1.
</event>
<event>
 7    1  0.6370239E-006  0.2710535E+02  0.7818608E-02  0.1643104E+00
          2   -1    0    0  502    0  0.00000000000E+00  0.00000000000E+00  0.66953888957E+03  0.66953888957E+03  0.00000000000E+00 0. -1.
          1   -1    0    0  501    0 -0.00000000000E+00 -0.00000000000E+00 -0.60652592514E+02  0.60652592514E+02  0.00000000000E+00 0. -1.
         25    2    1    2    0    0 -0.10938196172E+02  0.48467171028E+01  0.25906099406E+03  0.28788455647E+03  0.12498713698E+03 0.  0.
          2    1    1    2  501    0  0.10977064578E+02  0.23020555499E+02 -0.42191560897E+02  0.49300808646E+02  0.00000000000E+00 0. -1.
          1    1    1    2  502    0 -0.38868406614E-01 -0.27867272602E+02  0.39201686389E+03  0.39300611696E+03  0.00000000000E+00 0. -1.
         22    1    3    3    0    0 -0.41784896707E+02  0.11181981420E+02  0.25190424016E+03  0.25559100241E+03  0.00000000000E+00 0.  1.
         22    1    3    3    0    0  0.30846700535E+02 -0.63352643173E+01  0.71567538997E+01  0.32293554067E+02  0.00000000000E+00 0.  1.
</event>
<event>
 7    1  0.6370239E-006  0.4695542E+02  0.7818608E-02  0.1482349E+00
          2   -1    0    0  502    0  0.00000000000E+00  0.00000000000E+00  0.24589572646E+03  0.24589572646E+03  0.00000000000E+00 0. -1.
          1   -1    0    0  501    0 -0.00000000000E+00 -0.00000000000E+00 -0.12301996234E+04  0.12301996234E+04  0.00000000000E+00 0. -1.
         25    2    1    2    0    0  0.96145494097E+01  0.18798980774E+02 -0.10417952625E+03  0.16408642064E+03  0.12500055404E+03 0.  0.
          2    1    1    2  501    0  0.37891596135E+02 -0.14990648174E+02 -0.10930528021E+04  0.10938121049E+04  0.00000000000E+00 0. -1.
          1    1    1    2  502    0 -0.47506145544E+02 -0.38083326001E+01  0.21292843140E+03  0.21819682436E+03  0.00000000000E+00 0. -1.
         22    1    3    3    0    0 -0.46058237821E+02 -0.20197484366E+02 -0.16053247043E+02  0.52792105342E+02  0.00000000000E+00 0. -1.
         22    1    3    3    0    0  0.55672787230E+02  0.38996465139E+02 -0.88126279210E+02  0.11129431530E+03  0.00000000000E+00 0. -1.
</event>
<event>
 7    1  0.6370239E-006  0.9125483E+02  0.7818608E-02  0.1401653E+00
          2   -1    0    0  502    0  0.00000000000E+00  0.00000000000E+00  0.84572535981E+03  0.84572535981E+03  0.00000000000E+00 0. -1.
          1   -1    0    0  501    0 -0.00000000000E+00 -0.00000000000E+00 -0.14888257823E+04  0.14888257823E+04  0.00000000000E+00 0. -1.
         25    2    1    2    0    0 -0.57642491576E+02  0.13049420707E+02  0.13350551950E+03  0.19220268267E+03  0.12500081309E+03 0.  0.
          2    1    1    2  501    0 -0.37237159543E+02 -0.88478170947E+01 -0.14559223273E+04  0.14564253201E+04  0.00000000000E+00 0. -1.
          1    1    1    2  502    0  0.94879651120E+02 -0.42016036119E+01  0.67931638533E+03  0.68592313932E+03  0.00000000000E+00 0. -1.
         22    1    3    3    0    0 -0.36434556361E+02  0.49193813248E+02  0.13709551758E+03  0.15014222957E+03  0.00000000000E+00 0.  1.
         22    1    3    3    0    0 -0.21207935215E+02 -0.36144392541E+02 -0.35899980880E+01  0.42060453095E+02  0.00000000000E+00 0.  1.
</event>
<event>
 7    1  0.6370239E-006  0.7082345E+02  0.7818608E-02  0.1403038E+00
          2   -1    0    0  502    0  0.00000000000E+00  0.00000000000E+00  0.42168093412E+02  0.42168093412E+02  0.00000000000E+00 0. -1.
          1   -1    0    0  501    0 -0.00000000000E+00 -0.00000000000E+00 -0.59036652977E+03  0.59036652977E+03  0.00000000000E+00 0. -1.
         25    2    1    2    0    0 -0.10507780112E+02  0.17249530648E+02 -0.33695081711E+03  0.35995650761E+03  0.12499949788E+03 0.  0.
          2    1    1    2  501    0 -0.46803444536E+02 -0.58859438553E+02 -0.18017457221E+03  0.19523798912E+03  0.00000000000E+00 0. -1.
          1    1    1    2  502    0  0.57311224648E+02  0.41609907905E+02 -0.31073047040E+02  0.77340126447E+02  0.00000000000E+00 0. -1.
         22    1    3    3    0    0  0.39768285236E+02  0.23411089417E+02 -0.27984125292E+03  0.28362073700E+03  0.00000000000E+00 0.  1.
         22    1    3    3    0    0 -0.50276065348E+02 -0.61615587692E+01 -0.57109564187E+02  0.76335770612E+02  0.00000000000E+00 0.  1.
</event>
<event>
 7    1  0.6370239E-006  0.8145896E+02  0.7818608E-02  0.1458353E+00
          2   -1    0    0  502    0  0.00000000000E+00  0.00000000000E+00  0.21781410542E+02  0.21781410542E+02  0.00000000000E+00 0. -1.
          1   -1    0    0  501    0 -0.00000000000E+00 -0.00000000000E+00 -0.23474207909E+04  0.23474207909E+04  0.00000000000E+00 0. -1.
         25    2    1    2    0    0  0.51553232578E+02  0.92297143245E+02 -0.88155659756E+03  0.89662815961E+03  0.12499409369E+03 0.  0.
          2    1    1    2  501    0 -0.40800443804E+02 -0.66561337048E+02 -0.14425278034E+04  0.14446389000E+04  0.00000000000E+00 0. -1.
          1    1    1    2  502    0 -0.10752788774E+02 -0.25735806197E+02 -0.15549793679E+01  0.27935141808E+02  0.00000000000E+00 0. -1.
         22    1    3    3    0    0  0.91291848215E+02  0.45419848734E+02 -0.52398868422E+03  0.53381767056E+03  0.00000000000E+00 0. -1.
         22    1    3    3    0    0 -0.39738615637E+02  0.46877294511E+02 -0.35756791334E+03  0.36281048905E+03  0.00000000000E+00 0. -1.
</event>
<event>
 7    1  0.6370239E-006  0.3137826E+02  0.7818608E-02  0.1624384E+00
          2   -1    0    0  502    0  0.00000000000E+00  0.00000000000E+00  0.18373031338E+04  0.18373031338E+04  0.00000000000E+00 0. -1.
          1   -1    0    0  501    0 -0.00000000000E+00 -0.00000000000E+00 -0.45023471510E+02  0.45023471510E+02  0.00000000000E+00 0. -1.
         25    2    1    2    0    0  0.18772660070E+02  0.12485784493E+02  0.75078044863E+02  0.14754672815E+03  0.12500006634E+03 0.  0.
          2    1    1    2  501    0 -0.87707231814E+01 -0.34895728931E+02  0.28502350233E+02  0.45902303336E+02  0.00000000000E+00 0. -1.
          1    1    1    2  502    0 -0.10001936889E+02  0.22409944438E+02  0.16886992672E+04  0.16888775738E+04  0.00000000000E+00 0. -1.
         22    1    3    3    0    0 -0.38274749154E+01 -0.54956924813E+02  0.24636525587E+02  0.60347920777E+02  0.00000000000E+00 0.  1.
         22    1    3    3    0    0  0.22600134985E+02  0.67442709306E+02  0.50441519276E+02  0.87198807370E+02  0.00000000000E+00 0.  1.
</event>
<event>
 7    1  0.6370239E-006  0.1161234E+03  0.7818608E-02  0.1357765E+00
          2   -1    0    0  502    0  0.00000000000E+00  0.00000000000E+00  0.49388294582E+02  0.49388294582E+02  0.00000000000E+00 0. -1.
          1   -1    0    0  501    0 -0.00000000000E+00 -0.00000000000E+00 -0.20089092297E+04  0.20089092297E+04  0.00000000000E+00 0. -1.
         25    2    1    2    0    0 -0.67578514724E+02 -0.40012300719E+02 -0.11425056757E+04  0.11520037792E+04  0.12500259388E+03 0.  0.
          2    1    1    2  501    0 -0.42863831825E+02 -0.37940688181E+01 -0.78094015345E+03  0.78212481504E+03  0.00000000000E+00 0. -1.
          1    1    1    2  502    0  0.11044234655E+03  0.43806369538E+02 -0.36075106043E+02  0.12416893009E+03  0.00000000000E+00 0. -1.
         22    1    3    3    0    0 -0.77443800932E+02 -0.23765776087E+02 -0.34930590127E+03  0.35857630580E+03  0.00000000000E+00 0.  1.
         22    1    3    3    0    0  0.98652862074E+01 -0.16246524633E+02 -0.79319977439E+03  0.79342747339E+03  0.00000000000E+00 0.  1.
</event>
<event>
 7    1  0.6370239E-006  0.6874220E+02  0.7818608E-02  0.1417985E+00
          2   -1    0    0  502    0  0.00000000000E+00  0.00000000000E+00  0.23360845216E+04  0.23360845216E+04  0.00000000000E+00 0. -1.
          1   -1    0    0  501    0 -0.00000000000E+00 -0.00000000000E+00 -0.28983328230E+03  0.28983328230E+03  0.00000000000E+00 0. -1.
         25    2    1    2    0    0  0.11919761609E+02  0.47270329659E+02  0.23063831680E+01  0.13418834656E+03  0.12499851265E+03 0.  0.
          2    1    1    2  501    0 -0.56480015455E+02 -0.43407255634E+02 -0.21799973974E+03  0.22934268794E+03  0.00000000000E+00 0. -1.
          1    1    1    2  502    0  0.44560253847E+02 -0.38630740255E+01  0.22619445959E+04  0.22623867694E+04  0.00000000000E+00 0. -1.
         22    1    3    3    0    0  0.74675499315E-01  0.84685923666E+02 -0.22671491535E+02  0.87668168522E+02  0.00000000000E+00 0.  1.
         22    1    3    3    0    0  0.11845086109E+02 -0.37415594007E+02  0.24977874703E+02  0.46520178036E+02  0.00000000000E+00 0.  1.
</event>
<event>
 7    1  0.6370239E-006  0.8264973E+02  0.7818608E-02  0.1411805E+00
          2   -1    0    0  502    0  0.00000000000E+00  0.00000000000E+00  0.16468407431E+04  0.16468407431E+04  0.00000000000E+00 0. -1.
          1   -1    0    0  501    0 -0.00000000000E+00 -0.00000000000E+00 -0.29969625021E+03  0.29969625021E+03  0.00000000000E+00 0. -1.
         25    2    1    2    0    0  0.53714395116E+02 -0.61516027990E+01 -0.53901900104E+02  0.14646743604E+03  0.12499686606E+03 0.  0.
          2    1    1    2  501    0  0.26067929307E+02  0.29042343988E+02 -0.19651546243E+03  0.20035299263E+03  0.00000000000E+00 0. -1.
          1    1    1    2  502    0 -0.79782324422E+02 -0.22890741189E+02  0.15975618554E+04  0.15997165646E+04  0.00000000000E+00 0. -1.
         22    1    3    3    0    0  0.29094015884E+02  0.96379979829E+01 -0.92839804414E+02  0.97768001151E+02  0.00000000000E+00 0.  1.
         22    1    3    3    0    0  0.24620379232E+02 -0.15789600782E+02  0.38937904310E+02  0.48699434888E+02  0.00000000000E+00 0.  1.
</event>
<event>
 7    1  0.6370239E-006  0.7119582E+02  0.7818608E-02  0.1387630E+00
          2   -1    0    0  502    0  0.00000000000E+00  0.00000000000E+00  0.12354855142E+03  0.12354855142E+03  0.00000000000E+00 0. -1.
          1   -1    0    0  501    0 -0.00000000000E+00 -0.00000000000E+00 -0.47388893806E+03  0.47388893806E+03  0.00000000000E+00 0. -1.
         25    2    1    2    0    0  0.11293166022E+03 -0.58185634340E+01 -0.66720236657E+02  0.18127186384E+03  0.12498193101E+03 0.  0.
          2    1    1    2  501    0 -0.65521189541E+02 -0.21796066023E+02 -0.33437086457E+03  0.34142637544E+03  0.00000000000E+00 0. -1.
          1    1    1    2  502    0 -0.47410470680E+02  0.27614629457E+02  0.50750714587E+02  0.74739250205E+02  0.00000000000E+00 0. -1.
         22    1    3    3    0    0  0.61366631955E+01  0.47094976316E+02 -0.31507982038E+02  0.56994283586E+02  0.00000000000E+00 0.  1.
         22    1    3    3    0    0  0.10679499703E+03 -0.52913539750E+02 -0.35212254619E+02  0.12427758025E+03  0.00000000000E+00 0.  1.
</event>
<event>
 7    1  0.6370239E-006  0.1867369E+03  0.7818608E-02  0.1258999E+00
          2   -1    0    0  502    0  0.00000000000E+00  0.00000000000E+00  0.95643335706E+03  0.95643335706E+03  0.00000000000E+00 0. -1.
          1   -1    0    0  501    0 -0.00000000000E+00 -0.00000000000E+00 -0.83584269811E+03  0.83584269811E+03  0.00000000000E+00 0. -1.
         25    2    1    2    0    0  0.63990051671E+02 -0.21212294094E+03 -0.19932937221E+02  0.25517290116E+03  0.12500007486E+03 0.  0.
          2    1    1    2  501    0 -0.45842102035E+01  0.18381577310E+03 -0.68485317952E+03  0.70910727745E+03  0.00000000000E+00 0. -1.
          1    1    1    2  502    0 -0.59405841467E+02  0.28307167841E+02  0.82537677569E+03  0.82799587656E+03  0.00000000000E+00 0. -1.
         22    1    3    3    0    0  0.18645538878E+02 -0.20434237355E+03 -0.40191191074E+00  0.20519167449E+03  0.00000000000E+00 0.  1.
         22    1    3    3    0    0  0.45344512793E+02 -0.77805673888E+01 -0.19531025310E+02  0.49981226665E+02  0.00000000000E+00 0.  1.
</event>
<event>
 7    1  0.6370239E-006  0.1049428E+03  0.7818608E-02  0.1421624E+00
          2   -1    0    0  502    0  0.00000000000E+00  0.00000000000E+00  0.99634320106E+02  0.99634320106E+02  0.00000000000E+00 0. -1.
          1   -1    0    0  501    0 -0.00000000000E+00 -0.00000000000E+00 -0.18637142973E+04  0.18637142973E+04  0.00000000000E+00 0. -1.
         25    2    1    2    0    0  0.30978182692E+01  0.11255707605E+03 -0.94121120146E+02  0.19277701231E+03  0.12500199747E+03 0.  0.
          2    1    1    2  501    0  0.25113237774E+02 -0.13453063377E+02 -0.16672515470E+04  0.16674949417E+04  0.00000000000E+00 0. -1.
          1    1    1    2  502    0 -0.28211056043E+02 -0.99104012669E+02 -0.27073100517E+01  0.10307666340E+03  0.00000000000E+00 0. -1.
         22    1    3    3    0    0 -0.27155015109E+02  0.10192677204E+03 -0.11378933807E+03  0.15515951522E+03  0.00000000000E+00 0.  1.
         22    1    3    3    0    0  0.30252833379E+02  0.10630304010E+02  0.19668217929E+02  0.37617497089E+02  0.00000000000E+00 0.  1.
</event>
<event>
 7    1  0.6370239E-006  0.6883896E+02  0.7818608E-02  0.1499227E+00
          2   -1    0    0  502    0  0.00000000000E+00  0.00000000000E+00  0.16725848387E+03  0.16725848387E+03  0.00000000000E+00 0. -1.
          1   -1    0    0  501    0 -0.00000000000E+00 -0.00000000000E+00 -0.23464295462E+03  0.23464295462E+03  0.00000000000E+00 0. -1.
         25    2    1    2    0    0 -0.27628309299E+02  0.81695573408E+02 -0.42560100350E+02  0.15770385984E+03  0.12498661960E+03 0.  0.
          2    1    1    2  501    0  0.33243279943E+02 -0.57626778453E+02 -0.12468529204E+03  0.14132368275E+03  0.00000000000E+00 0. -1.
          1    1    1    2  502    0 -0.56149706437E+01 -0.24068794955E+02  0.99860921637E+02  0.10287389589E+03  0.00000000000E+00 0. -1.
         22    1    3    3    0    0 -0.20195817164E+02  0.10341668635E+03 -0.66448363814E+02  0.12457233682E+03  0.00000000000E+00 0.  1.
         22    1    3    3    0    0 -0.74324921349E+01 -0.21721112942E+02  0.23888263464E+02  0.33131523027E+02  0.00000000000E+00 0.  1.
</event>
<event>
 7    1  0.6370239E-006  0.3953310E+02  0.7818608E-02  0.1534416E+00
          2   -1    0    0  502    0  0.00000000000E+00  0.00000000000E+00  0.27230648149E+02  0.27230648149E+02  0.00000000000E+00 0. -1.
          1   -1    0    0  501    0 -0.00000000000E+00 -0.00000000000E+00 -0.92119661364E+03  0.92119661364E+03  0.00000000000E+00 0. -1.
         25    2    1    2    0    0  0.26174367647E+02 -0.47801156969E+02 -0.19258530896E+03  0.23597405324E+03  0.12499841777E+03 0.  0.
          2    1    1    2  501    0 -0.36314366291E+02  0.15371772268E+02 -0.64785377901E+03  0.64905280491E+03  0.00000000000E+00 0. -1.
          1    1    1    2  502    0  0.10139998644E+02  0.32429384701E+02 -0.53526877523E+02  0.63400403642E+02  0.00000000000E+00 0. -1.
         22    1    3    3    0    0  0.44341854965E+02  0.25369762140E+01 -0.17359764470E+03  0.17918922567E+03  0.00000000000E+00 0. -1.
         22    1    3    3    0    0 -0.18167487318E+02 -0.50338133183E+02 -0.18987664252E+02  0.56784827565E+02  0.00000000000E+00 0. -1.
</event>
<event>
 7    1  0.6370239E-006  0.2194068E+03  0.7818608E-02  0.1247565E+00
          2   -1    0    0  502    0  0.00000000000E+00  0.00000000000E+00  0.26647671876E+04  0.26647671876E+04  0.00000000000E+00 0. -1.
          1   -1    0    0  501    0 -0.00000000000E+00 -0.00000000000E+00 -0.20749004065E+04  0.20749004065E+04  0.00000000000E+00 0. -1.
         25    2    1    2    0    0  0.12656158264E+03  0.15099139486E+03  0.33874168753E+03  0.41131946646E+03  0.12498614759E+03 0.  0.
          2    1    1    2  501    0 -0.88843154438E+02 -0.20113419179E+03 -0.20322502525E+04  0.20441108478E+04  0.00000000000E+00 0. -1.
          1    1    1    2  502    0 -0.37718428206E+02  0.50142796929E+02  0.22833753460E+04  0.22842372799E+04  0.00000000000E+00 0. -1.
         22    1    3    3    0    0  0.27712501776E+02  0.36338982439E+02  0.20271166252E+03  0.20779923609E+03  0.00000000000E+00 0.  1.
         22    1    3    3    0    0  0.98849080868E+02  0.11465241242E+03  0.13603002501E+03  0.20352023036E+03  0.00000000000E+00 0.  1.
</event>
<event>
 7    1  0.6370239E-006  0.5878510E+02  0.7818608E-02  0.1517023E+00
          2   -1    0    0  502    0  0.00000000000E+00  0.00000000000E+00  0.15932097289E+04  0.15932097289E+04  0.00000000000E+00 0. -1.
          1   -1    0    0  501    0 -0.00000000000E+00 -0.00000000000E+00 -0.23214472257E+02  0.23214472257E+02  0.00000000000E+00 0. -1.
         25    2    1    2    0    0  0.30203824244E+02 -0.63089337653E+02  0.29823893770E+03  0.33085303475E+03  0.12499892448E+03 0.  0.
          2    1    1    2  501    0  0.12051850461E+02  0.22636949044E+02  0.20191649346E+02  0.32640178689E+02  0.00000000000E+00 0. -1.
          1    1    1    2  502    0 -0.42255674705E+02  0.40452388609E+02  0.12515646696E+04  0.12529309877E+04  0.00000000000E+00 0. -1.
         22    1    3    3    0    0  0.90304083618E+01  0.21108234647E+02  0.30487282035E+01  0.23160323589E+02  0.00000000000E+00 0. -1.
         22    1    3    3    0    0  0.21173415882E+02 -0.84197572300E+02  0.29519020950E+03  0.30769271116E+03  0.00000000000E+00 0. -1.
</event>
<event>
 7    1  0.6370239E-006  0.8687067E+02  0.7818608E-02  0.1359232E+00
          2   -1    0    0  502    0  0.00000000000E+00  0.00000000000E+00  0.31650181247E+04  0.31650181247E+04  0.00000000000E+00 0. -1.
          1   -1    0    0  501    0 -0.00000000000E+00 -0.00000000000E+00 -0.17282886339E+03  0.17282886339E+03  0.00000000000E+00 0. -1.
         25    2    1    2    0    0 -0.12038042652E+03 -0.11022191579E+02  0.51821849820E+02  0.18145543149E+03  0.12501053437E+03 0.  0.
          2    1    1    2  501    0  0.39140078200E+02  0.41182879512E+02 -0.99880396086E+02  0.11490895878E+03  0.00000000000E+00 0. -1.
          1    1    1    2  502    0  0.81240348316E+02 -0.30160687934E+02  0.30402478076E+04  0.30414825979E+04  0.00000000000E+00 0. -1.
         22    1    3    3    0    0 -0.95117540077E+02  0.44670509173E+02  0.64031056702E+01  0.10527963042E+03  0.00000000000E+00 0.  1.
         22    1    3    3    0    0 -0.25262886439E+02 -0.55692700752E+02  0.45418744149E+02  0.76175801068E+02  0.00000000000E+00 0.  1.
</event>
<event>
 7    1  0.6370239E-006  0.9324194E+02  0.7818608E-02  0.1298253E+00
          2   -1    0    0  502    0  0.00000000000E+00  0.00000000000E+00  0.25267202349E+04  0.25267202349E+04  0.00000000000E+00 0. -1.
          1   -1    0    0  501    0 -0.00000000000E+00 -0.00000000000E+00 -0.36956189488E+03  0.36956189488E+03  0.00000000000E+00 0. -1.
         25    2    1    2    0    0  0.12318511564E+02  0.14276054125E+02 -0.34350357506E+02  0.13099591999E+03  0.12499773015E+03 0.  0.
          2    1    1    2  501    0  0.73605085753E+02 -0.52875907463E+02 -0.27881122389E+03  0.29317105725E+03  0.00000000000E+00 0. -1.
          1    1    1    2  502    0 -0.85923597317E+02  0.38599853338E+02  0.24703199215E+04  0.24721151526E+04  0.00000000000E+00 0. -1.
         22    1    3    3    0    0  0.25113565487E+02 -0.24123041893E+02 -0.69275977896E+02  0.77535626876E+02  0.00000000000E+00 0.  1.
         22    1    3    3    0    0 -0.12795053924E+02  0.38399096018E+02  0.34925620389E+02  0.53460293110E+02  0.00000000000E+00 0.  1.
</event>
<event>
 7    1  0.6370239E-006  0.1046175E+03  0.7818608E-02  0.1322537E+00
          2   -1    0    0  502    0  0.00000000000E+00  0.00000000000E+00  0.50518118897E+03  0.50518118897E+03  0.00000000000E+00 0. -1.
          1   -1    0    0  501    0 -0.00000000000E+00 -0.00000000000E+00 -0.16445980876E+03  0.16445980876E+03  0.00000000000E+00 0. -1.
         25    2    1    2    0    0 -0.67956331159E+02 -0.30234437324E+02  0.14262983513E+03  0.20371662138E+03  0.12500003124E+03 0.  0.
          2    1    1    2  501    0  0.10842717911E+03 -0.20382882625E+02 -0.10719980375E+03  0.15383014334E+03  0.00000000000E+00 0. -1.
          1    1    1    2  502    0 -0.40470847949E+02  0.50617319949E+02  0.30529134883E+03  0.31209423302E+03  0.00000000000E+00 0. -1.
         22    1    3    3    0    0 -0.52872555182E+02  0.44528415980E+02  0.70751934162E+02  0.98914726450E+02  0.00000000000E+00 0. -1.
         22    1    3    3    0    0 -0.15083775977E+02 -0.74762853304E+02  0.71877900973E+02  0.10480189493E+03  0.00000000000E+00 0. -1.
</event>
<event>
 7    1  0.6370239E-006  0.8806095E+02  0.7818608E-02  0.1485439E+00
          2   -1    0    0  502    0  0.00000000000E+00  0.00000000000E+00  0.91045131391E+03  0.91045131391E+03  0.00000000000E+00 0. -1.
          1   -1    0    0  501    0 -0.00000000000E+00 -0.00000000000E+00 -0.53790211434E+02  0.53790211434E+02  0.00000000000E+00 0. -1.
         25    2    1    2    0    0 -0.50937651364E+02 -0.47586700180E+02  0.19308753885E+03  0.24035561530E+03  0.12501554219E+03 0.  0.
          2    1    1    2  501    0 -0.18846304615E+02 -0.98420602850E+01 -0.23039341674E+02  0.31350607858E+02  0.00000000000E+00 0. -1.
          1    1    1    2  502    0  0.69783955979E+02  0.57428760465E+02  0.68661290531E+03  0.69253530219E+03  0.00000000000E+00 0. -1.
         22    1    3    3    0    0 -0.52923903315E+02 -0.56289341272E+02  0.39989636007E+02  0.86997703826E+02  0.00000000000E+00 0. -1.
         22    1    3    3    0    0  0.19862519509E+01  0.87026410917E+01  0.15309790284E+03  0.15335791148E+03  0.00000000000E+00 0. -1.
</event>
<event>
 7    1  0.6370239E-006  0.8449415E+02  0.7818608E-02  0.1346016E+00
          2   -1    0    0  502    0  0.00000000000E+00  0.00000000000E+00  0.13586815923E+03  0.13586815923E+03  0.00000000000E+00 0. -1.
          1   -1    0    0  501    0 -0.00000000000E+00 -0.00000000000E+00 -0.27893520144E+03  0.27893520144E+03  0.00000000000E+00 0. -1.
         25    2    1    2    0    0 -0.21807473004E+02 -0.39724350966E+02  0.15716408228E+02  0.13389074920E+03  0.12500454910E+03 0.  0.
          2    1    1    2  501    0 -0.39211272107E+01 -0.84403121667E+02 -0.94364128966E+01  0.85019457033E+02  0.00000000000E+00 0. -1.
          1    1    1    2  502    0  0.25728600214E+02  0.12412747263E+03 -0.14934703755E+03  0.19589315444E+03  0.00000000000E+00 0. -1.
         22    1    3    3    0    0 -0.53678876297E+02  0.19800839588E+02  0.30403884883E+02  0.64791135388E+02  0.00000000000E+00 0. -1.
         22    1    3    3    0    0  0.31871403293E+02 -0.59525190554E+02 -0.14687476654E+02  0.69099613811E+02  0.00000000000E+00 0. -1.
</event>
<event>
 7    1  0.6370239E-006  0.1006804E+03  0.7818608E-02  0.1288493E+00
          2   -1    0    0  502    0  0.00000000000E+00  0.00000000000E+00  0.97589701020E+03  0.97589701020E+03  0.00000000000E+00 0. -1.
          1   -1    0    0  501    0 -0.00000000000E+00 -0.00000000000E+00 -0.90079401883E+02  0.90079401883E+02  0.00000000000E+00 0. -1.
         25    2    1    2    0    0 -0.14922959677E+03 -0.35447598304E+02  0.16358277872E+03  0.25672977048E+03  0.12499937913E+03 0.  0.
          2    1    1    2  501    0  0.62979139639E+02  0.67235711689E+02  0.11786038789E+02  0.92875850824E+02  0.00000000000E+00 0. -1.
          1    1    1    2  502    0  0.86250457132E+02 -0.31788113385E+02  0.71044879081E+03  0.71637079078E+03  0.00000000000E+00 0. -1.
         22    1    3    3    0    0 -0.47734550667E+02  0.61678545163E+01  0.13506973914E+03  0.14338920527E+03  0.00000000000E+00 0.  1.
         22    1    3    3    0    0 -0.10149504610E+03 -0.41615452820E+02  0.28513039574E+02  0.11334056521E+03  0.00000000000E+00 0.  1.
</event>
<event>
 7    1  0.6370239E-006  0.7294272E+02  0.7818608E-02  0.1422481E+00
          2   -1    0    0  502    0  0.00000000000E+00  0.00000000000E+00  0.37867110953E+03  0.37867110953E+03  0.00000000000E+00 0. -1.
          1   -1    0    0  501    0 -0.00000000000E+00 -0.00000000000E+00 -0.50891974958E+02  0.50891974958E+02  0.00000000000E+00 0. -1.
         25    2    1    2    0    0  0.45225484457E+02  0.27833844652E+02  0.15832717515E+03  0.20859704493E+03  0.12500066164E+03 0.  0.
          2    1    1    2  501    0 -0.82149943618E+02 -0.10668386840E+02  0.54869628347E+02  0.99363493443E+02  0.00000000000E+00 0. -1.
          1    1    1    2  502    0  0.36924459161E+02 -0.17165457811E+02  0.11458233108E+03  0.12160254612E+03  0.00000000000E+00 0. -1.
         22    1    3    3    0    0  0.47857093122E+02  0.54212181753E+01 -0.50894842022E+00  0.48165859248E+02  0.00000000000E+00 0.  1.
         22    1    3    3    0    0 -0.26316086653E+01  0.22412626476E+02  0.15883612357E+03  0.16043118568E+03  0.00000000000E+00 0.  1.
</event>
<event>
 7    1  0.6370239E-006  0.7539025E+02  0.7818608E-02  0.1361838E+00
          2   -1    0    0  502    0  0.00000000000E+00  0.00000000000E+00  0.18428715251E+04  0.18428715251E+04  0.00000000000E+00 0. -1.
          1   -1    0    0  501    0 -0.00000000000E+00 -0.00000000000E+00 -0.48631271711E+03  0.48631271711E+03  0.00000000000E+00 0. -1.
         25    2    1    2    0    0  0.23943963596E+02 -0.13367234915E+03  0.37777742751E+03  0.42045497325E+03  0.12499995791E+03 0.  0.
          2    1    1    2  501    0 -0.27869073201E+01  0.63989503030E+02 -0.46184411671E+03  0.46626431505E+03  0.00000000000E+00 0. -1.
          1    1    1    2  502    0 -0.21157056275E+02  0.69682846118E+02  0.14406254972E+04  0.14424649539E+04  0.00000000000E+00 0. -1.
         22    1    3    3    0    0  0.74673611370E+01  0.24383446198E+02  0.58481016872E+02  0.63799241886E+02  0.00000000000E+00 0.  1.
         22    1    3    3    0    0  0.16476602459E+02 -0.15805579535E+03  0.31929641064E+03  0.35665573137E+03  0.00000000000E+00 0.  1.
</event>
<event>
 7    1  0.6370239E-006  0.9973386E+02  0.7818608E-02  0.1448100E+00
          2   -1    0    0  502    0  0.00000000000E+00  0.00000000000E+00  0.11274480141E+03  0.11274480141E+03  0.00000000000E+00 0. -1.
          1   -1    0    0  501    0 -0.00000000000E+00 -0.00000000000E+00 -0.59769404973E+03  0.59769404973E+03  0.00000000000E+00 0. -1.
         25    2    1    2    0    0  0.74369137041E+02  0.24620737272E+02 -0.36130448646E+03  0.39026071645E+03  0.12500218246E+03 0.  0.
          2    1    1    2  501    0  0.18132348389E+02  0.16565495162E+02 -0.19485013425E+03  0.19639188503E+03  0.00000000000E+00 0. -1.
          1    1    1    2  502    0 -0.92501485430E+02 -0.41186232434E+02  0.71205372387E+02  0.12378624966E+03  0.00000000000E+00 0. -1.
         22    1    3    3    0    0  0.10073878903E+03  0.37259379385E+02 -0.20697111749E+03  0.23318149249E+03  0.00000000000E+00 0.  1.
         22    1    3    3    0    0 -0.26369651987E+02 -0.12638642113E+02 -0.15433336897E+03  0.15707922396E+03  0.00000000000E+00 0.  1.
</event>
<event>
 7    1  0.6370239E-006  0.1109426E+03  0.7818608E-02  0.1293737E+00
          2   -1    0    0  502    0  0.00000000000E+00  0.00000000000E+00  0.63222700892E+03  0.63222700892E+03  0.00000000000E+00 0. -1.
          1   -1    0    0  501    0 -0.00000000000E+00 -0.00000000000E+00 -0.41404429458E+03  0.41404429458E+03  0.00000000000E+00 0. -1.
         25    2    1    2    0    0 -0.15545161531E+03  0.82551925258E+02  0.21107123592E+02  0.21691100302E+03  0.12499939000E+03 0.  0.
          2    1    1    2  501    0  0.76478731285E+02 -0.74060601705E+02 -0.30396172283E+03  0.32206629443E+03  0.00000000000E+00 0. -1.
          1    1    1    2  502    0  0.78972884025E+02 -0.84913235530E+01  0.50103731357E+03  0.50729400605E+03  0.00000000000E+00 0. -1.
         22    1    3    3    0    0 -0.10366035134E+03  0.27569482810E+02  0.68937525492E+02  0.12750657725E+03  0.00000000000E+00 0. -1.
         22    1    3    3    0    0 -0.51791263971E+02  0.54982442448E+02 -0.47830401900E+02  0.89404425769E+02  0.00000000000E+00 0. -1.
</event>
<event>
 7    1  0.6370239E-006  0.6283384E+02  0.7818608E-02  0.1444941E+00
          2   -1    0    0  502    0  0.00000000000E+00  0.00000000000E+00  0.48582717244E+03  0.48582717244E+03  0.00000000000E+00 0. -1.
          1   -1    0    0  501    0 -0.00000000000E+00 -0.00000000000E+00 -0.65244240719E+02  0.65244240719E+02  0.00000000000E+00 0. -1.
         25    2    1    2    0    0  0.48758240389E+02 -0.12970091373E+02  0.19363676668E+03  0.23593653327E+03  0.12500104419E+03 0.  0.
          2    1    1    2  501    0 -0.39862851090E+02  0.51871806631E+02 -0.17285309207E+02  0.67664711147E+02  0.00000000000E+00 0. -1.
          1    1    1    2  502    0 -0.88953892986E+01 -0.38901715258E+02  0.24423147425E+03  0.24747016874E+03  0.00000000000E+00 0. -1.
         22    1    3    3    0    0  0.68665941762E+02 -0.15651492226E+02  0.40003135137E+02  0.80995256576E+02  0.00000000000E+00 0.  1.
         22    1    3    3    0    0 -0.19907701373E+02  0.26814008534E+01  0.15363363154E+03  0.15494127670E+03  0.00000000000E+00 0.  1.
</event>
<event>
 7    1  0.6370239E-006  0.4081754E+02  0.7818608E-02  0.1548169E+00
          2   -1    0    0  502    0  0.00000000000E+00  0.00000000000E+00  0.22987991607E+03  0.22987991607E+03  0.00000000000E+00 0. -1.
          1   -1    0    0  501    0 -0.00000000000E+00 -0.00000000000E+00 -0.11318348211E+03  0.11318348211E+03  0.00000000000E+00 0. -1.
         25    2    1    2    0    0 -0.77353592433E+01  0.25930172359E+02  0.10860287187E+03  0.16778965082E+03  0.12500629393E+03 0.  0.
          2    1    1    2  501    0  0.37040740954E+02 -0.19081376601E+02 -0.75606504569E+02  0.86327625686E+02  0.00000000000E+00 0. -1.
          1    1    1    2  502    0 -0.29305381711E+02 -0.68487957575E+01  0.83700066668E+02  0.88946121673E+02  0.00000000000E+00 0. -1.
         22    1    3    3    0    0 -0.10628574019E+02 -0.15850942017E+02  0.12225801427E+03  0.12373859948E+03  0.00000000000E+00 0. -1.
         22    1    3    3    0    0  0.28932147753E+01  0.41781114376E+02 -0.13655142400E+02  0.44051051340E+02  0.00000000000E+00 0. -1.
</event>
<event>
 7    1  0.6370239E-006  0.8735415E+02  0.7818608E-02  0.1458694E+00
          2   -1    0    0  502    0  0.00000000000E+00  0.00000000000E+00  0.15157716273E+04  0.15157716273E+04  0.00000000000E+00 0. -1.
          1   -1    0    0  501    0 -0.00000000000E+00 -0.00000000000E+00 -0.43725522910E+03  0.43725522910E+03  0.00000000000E+00 0. -1.
         25    2    1    2    0    0 -0.84502873248E+02  0.32629387994E+02  0.12380729400E+03  0.19788620311E+03  0.12500116314E+03 0.  0.
          2    1    1    2  501    0  0.87101397419E+02 -0.68147173105E+01 -0.39532153458E+03  0.40486072853E+03  0.00000000000E+00 0. -1.
          1    1    1    2  502    0 -0.25985241712E+01 -0.25814670684E+02  0.13500306388E+04  0.13502799248E+04  0.00000000000E+00 0. -1.
         22    1    3    3    0    0 -0.84021511990E+02  0.24352467677E+02  0.14821675277E+03  0.17210712641E+03  0.00000000000E+00 0.  1.
         22    1    3    3    0    0 -0.48136125787E+00  0.82769203174E+01 -0.24409458767E+02  0.25779076708E+02  0.00000000000E+00 0.  1.
</event>
<event>
 7    1  0.6370239E-006  0.6178709E+02  0.7818608E-02  0.1394304E+00
          2   -1    0    0  502    0  0.00000000000E+00  0.00000000000E+00  0.80553019917E+03  0.80553019917E+03  0.00000000000E+00 0. -1.
          1   -1    0    0  501    0 -0.00000000000E+00 -0.00000000000E+00 -0.61988355302E+02  0.61988355302E+02  0.00000000000E+00 0. -1.
         25    2    1    2    0    0  0.38483687938E+02  0.58318152337E+02  0.38696098102E+03  0.41260923241E+03  0.12500230680E+03 0.  0.
          2    1    1    2  501    0  0.24506057589E+02 -0.56719469026E+02 -0.26101606679E+02  0.67074129860E+02  0.00000000000E+00 0. -1.
          1    1    1    2  502    0 -0.62989745527E+02 -0.15986833111E+01  0.38268246952E+03  0.38783519220E+03  0.00000000000E+00 0. -1.
         22    1    3    3    0    0  0.71957827024E+02  0.27871939331E+02  0.33470263638E+03  0.34348308353E+03  0.00000000000E+00 0. -1.
         22    1    3    3    0    0 -0.33474139086E+02  0.30446213006E+02  0.52258344645E+02  0.69126148880E+02  0.00000000000E+00 0. -1.
</event>
<event>
 7    1  0.6370239E-006  0.1614109E+03  0.7818608E-02  0.1409729E+00
          2   -1    0    0  502    0  0.00000000000E+00  0.00000000000E+00  0.12859321385E+04  0.12859321385E+04  0.00000000000E+00 0. -1.
          1   -1    0    0  501    0 -0.00000000000E+00 -0.00000000000E+00 -0.63803910919E+03  0.63803910919E+03  0.00000000000E+00 0. -1.
         25    2    1    2    0    0  0.99226626315E+02  0.13935241951E+03  0.10942419595E+03  0.23845915045E+03  0.12499636627E+03 0.  0.
          2    1    1    2  501    0  0.71503852363E+01 -0.19008387068E+02 -0.56753893092E+03  0.56790217899E+03  0.00000000000E+00 0. -1.
          1    1    1    2  502    0 -0.10637701155E+03 -0.12034403244E+03  0.11060077643E+04  0.11176099183E+04  0.00000000000E+00 0. -1.
         22    1    3    3    0    0  0.67160107775E+02  0.83764762807E+02 -0.47684729630E+01  0.10746978133E+03  0.00000000000E+00 0. -1.
         22    1    3    3    0    0  0.32066518540E+02  0.55587656704E+02  0.11419266891E+03  0.13098936912E+03  0.00000000000E+00 0. -1.
</event>
<event>
 7    1  0.6370239E-006  0.5854614E+02  0.7818608E-02  0.1442514E+00
          2   -1    0    0  502    0  0.00000000000E+00  0.00000000000E+00  0.83159990085E+02  0.83159990085E+02  0.00000000000E+00 0. -1.
          1   -1    0    0  501    0 -0.00000000000E+00 -0.00000000000E+00 -0.13041037907E+04  0.13041037907E+04  0.00000000000E+00 0. -1.
         25    2    1    2    0    0 -0.86759247511E+02  0.21177259197E+02 -0.23864893119E+03  0.28381748138E+03  0.12499362801E+03 0.  0.
          2    1    1    2  501    0  0.56757460876E+02  0.10470111509E+02 -0.10341119749E+04  0.10357212990E+04  0.00000000000E+00 0. -1.
          1    1    1    2  502    0  0.30001786635E+02 -0.31647370706E+02  0.51817105409E+02  0.67725000457E+02  0.00000000000E+00 0. -1.
         22    1    3    3    0    0 -0.62266587147E+02 -0.48475499228E+02 -0.13836162638E+03  0.15928258397E+03  0.00000000000E+00 0. -1.
         22    1    3    3    0    0 -0.24492660365E+02  0.69652758425E+02 -0.10028730481E+03  0.12453489742E+03  0.00000000000E+00 0. -1.
</event>
<event>
 7    1  0.6370239E-006  0.1297218E+03  0.7818608E-02  0.1238448E+00
          2   -1    0    0  502    0  0.00000000000E+00  0.00000000000E+00  0.14127104929E+04  0.14127104929E+04  0.00000000000E+00 0. -1.
          1   -1    0    0  501    0 -0.00000000000E+00 -0.00000000000E+00 -0.35981860126E+03  0.35981860126E+03  0.00000000000E+00 0. -1.
         25    2    1    2    0    0 -0.16798002991E+02 -0.10919947477E+02 -0.12529637675E+02  0.12721056005E+03  0.12499646640E+03 0.  0.
          2    1    1    2  501    0 -0.11436357846E+03 -0.21494047853E+02 -0.27473815457E+03  0.29836567455E+03  0.00000000000E+00 0. -1.
          1    1    1    2  502    0  0.13116158145E+03  0.32413995330E+02  0.13401596839E+04  0.13469528595E+04  0.00000000000E+00 0. -1.
         22    1    3    3    0    0 -0.20140330170E+01 -0.47868915753E+02  0.39227785964E+02  0.61921794354E+02  0.00000000000E+00 0. -1.
         22    1    3    3    0    0 -0.14783969974E+02  0.36948968276E+02 -0.51757423638E+02  0.65288765699E+02  0.00000000000E+00 0. -1.
</event>
<event>
 7    1  0.6370239E-006  0.9243145E+02  0.7818608E-02  0.1380223E+00
          2   -1    0    0  502    0  0.00000000000E+00  0.00000000000E+00  0.34442479871E+04  0.34442479871E+04  0.00000000000E+00 0. -1.
          1   -1    0    0  501    0 -0.00000000000E+00 -0.00000000000E+00 -0.53087397277E+02  0.53087397277E+02  0.00000000000E+00 0. -1.
         25    2    1    2    0    0  0.96120653104E+00 -0.11663114807E+03  0.40462850132E+03  0.43927252146E+03  0.12502949815E+03 0.  0.
          2    1    1    2  501    0  0.32320001334E+02  0.31134105218E+02 -0.20707672150E+02  0.49423907978E+02  0.00000000000E+00 0. -1.
          1    1    1    2  502    0 -0.33281207865E+02  0.85497042857E+02  0.30072397606E+04  0.30086389549E+04  0.00000000000E+00 0. -1.
         22    1    3    3    0    0  0.25433369824E+02  0.19833396109E+02  0.82134268787E+02  0.88239775674E+02  0.00000000000E+00 0.  1.
         22    1    3    3    0    0 -0.24472163293E+02 -0.13646454418E+03  0.32249423253E+03  0.35103274578E+03  0.00000000000E+00 0.  1.
</event>
<event>
 7    1  0.6370239E-006  0.1665139E+03  0.7818608E-02  0.1384300E+00
          2   -1    0    0  502    0  0.00000000000E+00  0.00000000000E+00  0.14153507539E+04  0.14153507539E+04  0.00000000000E+00 0. -1.
          1   -1    0    0  501    0 -0.00000000000E+00 -0.00000000000E+00 -0.19408476458E+03  0.19408476458E+03  0.00000000000E+00 0. -1.
         25    2    1    2    0    0 -0.65258791896E+02 -0.13690353766E+03  0.27596199382E+03  0.33879754512E+03  0.12500986362E+03 0.  0.
          2    1    1    2  501    0  0.78107290584E+01 -0.22798140241E+02 -0.15523231473E+03  0.15709180190E+03  0.00000000000E+00 0. -1.
          1    1    1    2  502    0  0.57448062838E+02  0.15970167790E+03  0.11005363102E+04  0.11135461715E+04  0.00000000000E+00 0. -1.
         22    1    3    3    0    0 -0.11057798899E+02 -0.76154557226E+00 -0.11605242179E+02  0.16047944236E+02  0.00000000000E+00 0.  1.
         22    1    3    3    0    0 -0.54200992997E+02 -0.13614199209E+03  0.28756723600E+03  0.32274960089E+03  0.00000000000E+00 0.  1.
</event>
<event>
 7    1  0.6370239E-006  0.1290594E+03  0.7818608E-02  0.1288165E+00
          2   -1    0    0  502    0  0.00000000000E+00  0.00000000000E+00  0.27467652589E+03  0.27467652589E+03  0.00000000000E+00 0. -1.
          1   -1    0    0  501    0 -0.00000000000E+00 -0.00000000000E+00 -0.18290016061E+03  0.18290016061E+03  0.00000000000E+00 0. -1.
         25    2    1    2    0    0  0.73374065972E+02 -0.48355205692E+02  0.31061303448E+02  0.15592404419E+03  0.12500209403E+03 0.  0.
          2    1    1    2  501    0  0.30086301789E+02 -0.65335808386E+02 -0.69628793163E+02  0.10011055014E+03  0.00000000000E+00 0. -1.
          1    1    1    2  502    0 -0.10346036776E+03  0.11369101408E+03  0.13034385500E+03  0.20154209217E+03  0.00000000000E+00 0. -1.
         22    1    3    3    0    0  0.15714124364E+02 -0.16298867469E+02 -0.47929310029E+02  0.53007598938E+02  0.00000000000E+00 0. -1.
         22    1    3    3    0    0  0.57659941608E+02 -0.32056338223E+02  0.78990613478E+02  0.10291644526E+03  0.00000000000E+00 0. -1.
</event>
<event>
 7    1  0.6370239E-006  0.1605498E+03  0.7818608E-02  0.1330105E+00
          2   -1    0    0  502    0  0.00000000000E+00  0.00000000000E+00  0.33787947600E+03  0.33787947600E+03  0.00000000000E+00 0. -1.
          1   -1    0    0  501    0 -0.00000000000E+00 -0.00000000000E+00 -0.37185862015E+03  0.37185862015E+03  0.00000000000E+00 0. -1.
         25    2    1    2    0    0 -0.95173966409E+02 -0.84688439124E+02  0.55553400851E+02  0.18692895068E+03  0.12500414654E+03 0.  0.
          2    1    1    2  501    0  0.12261251065E+03  0.11309573995E+03 -0.28128826918E+03  0.32702838491E+03  0.00000000000E+00 0. -1.
          1    1    1    2  502    0 -0.27438544238E+02 -0.28407300823E+02  0.19175572417E+03  0.19578076055E+03  0.00000000000E+00 0. -1.
         22    1    3    3    0    0 -0.46097036393E+02  0.22081951729E+02  0.46451955405E+02  0.69067601068E+02  0.00000000000E+00 0. -1.
         22    1    3    3    0    0 -0.49076930016E+02 -0.10677039085E+03  0.91014454458E+01  0.11786134961E+03  0.00000000000E+00 0. -1.
</event>
<event>
 7    1  0.8437081E-006  0.9639599E+02  0.7818608E-02  0.1426084E+00
          2   -1    0    0  502    0  0.00000000000E+00  0.00000000000E+00  0.16207311782E+04  0.16207311782E+04  0.00000000000E+00 0. -1.
          1   -1    0    0  501    0 -0.00000000000E+00 -0.00000000000E+00 -0.15455265454E+04  0.15455265454E+04  0.00000000000E+00 0. -1.
         25    2    1    2    0    0  0.21993701267E+02  0.11926269757E+03 -0.21886588571E+03  0.27970478250E+03  0.12500070198E+03 0.  0.
          2    1    1    2  501    0 -0.19168638138E+02 -0.23045328064E+02 -0.12946109679E+04  0.12949579460E+04  0.00000000000E+00 0. -1.
          1    1    1    2  502    0 -0.28250631285E+01 -0.96217369506E+02  0.15886814864E+04  0.15915949951E+04  0.00000000000E+00 0. -1.
         22    1    3    3    0    0 -0.31316261143E+02  0.11613444289E+03 -0.16090130718E+03  0.20089088503E+03  0.00000000000E+00 0.  1.
         22    1    3    3    0    0  0.53309962409E+02  0.31282546838E+01 -0.57964578531E+02  0.78813897466E+02  0.00000000000E+00 0.  1.
</event>
<event>
 7    1  0.6370239E-006  0.2048812E+03  0.7818608E-02  0.1376906E+00
          2   -1    0    0  502    0  0.00000000000E+00  0.00000000000E+00  0.25213639246E+04  0.25213639246E+04  0.00000000000E+00 0. -1.
          1   -1    0    0  501    0 -0.00000000000E+00 -0.00000000000E+00 -0.41344352067E+03  0.41344352067E+03  0.00000000000E+00 0. -1.
         25    2    1    2    0    0  0.11381187318E+03  0.14744208133E+03 -0.13990044235E+02  0.22474608347E+03  0.12499108318E+03 0.  0.
          2    1    1    2  501    0  0.18134110074E+02  0.10192690188E+02 -0.28932855102E+03  0.29007541661E+03  0.00000000000E+00 0. -1.
          1    1    1    2  502    0 -0.13194598325E+03 -0.15763477152E+03  0.24112389992E+04  0.24199859452E+04  0.00000000000E+00 0. -1.
         22    1    3    3    0    0  0.11336118482E+03  0.54772545321E+02 -0.32984141654E+02  0.13014892833E+03  0.00000000000E+00 0. -1.
         22    1    3    3    0    0  0.45068836143E+00  0.92669536009E+02  0.18994097418E+02  0.94597155142E+02  0.00000000000E+00 0. -1.
</event>
<event>
 7    1  0.6370239E-006  0.7706822E+02  0.7818608E-02  0.1466423E+00
          2   -1    0    0  502    0  0.00000000000E+00  0.00000000000E+00  0.26295378039E+04  0.26295378039E+04  0.00000000000E+00 0. -1.
          1   -1    0    0  501    0 -0.00000000000E+00 -0.00000000000E+00 -0.11408015393E+02  0.11408015393E+02  0.00000000000E+00 0. -1.
         25    2    1    2    0    0  0.49863680291E+02  0.37519187827E+02  0.70259652067E+03  0.71635190278E+03  0.12499640669E+03 0.  0.
          2    1    1    2  501    0 -0.57663516588E+02 -0.64210844179E+02  0.41867316794E+03  0.42747553756E+03  0.00000000000E+00 0. -1.
          1    1    1    2  502    0  0.77998362964E+01  0.26691656352E+02  0.14968600999E+04  0.14971183790E+04  0.00000000000E+00 0. -1.
         22    1    3    3    0    0  0.61218774436E+02 -0.11662780348E+02  0.58592284302E+03  0.58922774609E+03  0.00000000000E+00 0.  1.
         22    1    3    3    0    0 -0.11355094145E+02  0.49181968175E+02  0.11667367765E+03  0.12712415668E+03  0.00000000000E+00 0.  1.
</event>
<event>
 7    1  0.6370239E-006  0.9497296E+02  0.7818608E-02  0.1397415E+00
          2   -1    0    0  502    0  0.00000000000E+00  0.00000000000E+00  0.13289396419E+04  0.13289396419E+04  0.00000000000E+00 0. -1.
          1   -1    0    0  501    0 -0.00000000000E+00 -0.00000000000E+00 -0.27458290572E+03  0.27458290572E+03  0.00000000000E+00 0. -1.
         25    2    1    2    0    0  0.95294154528E+02  0.84731842092E+02  0.18751002743E+03  0.25893128674E+03  0.12499975966E+03 0.  0.
          2    1    1    2  501    0 -0.59258107837E+02 -0.72575225919E+02 -0.22934217178E+03  0.24774284757E+03  0.00000000000E+00 0. -1.
          1    1    1    2  502    0 -0.36036046691E+02 -0.12156616173E+02  0.10961888805E+04  0.10968484133E+04  0.00000000000E+00 0. -1.
         22    1    3    3    0    0 -0.24462160852E+02 -0.93996524504E+01  0.25714343479E+02  0.36714823168E+02  0.00000000000E+00 0.  1.
         22    1    3    3    0    0  0.11975631538E+03  0.94131494543E+02  0.16179568395E+03  0.22221646358E+03  0.00000000000E+00 0.  1.
</event>
<event>
 7    1  0.6370239E-006  0.4317160E+02  0.7818608E-02  0.1578205E+00
          2   -1    0    0  502    0  0.00000000000E+00  0.00000000000E+00  0.23255489882E+03  0.23255489882E+03  0.00000000000E+00 0. -1.
          1   -1    0    0  501    0 -0.00000000000E+00 -0.00000000000E+00 -0.53795813059E+03  0.53795813059E+03  0.00000000000E+00 0. -1.
         25    2    1    2    0    0  0.39273840012E+02  0.47175349626E+02 -0.10014083921E+03  0.17152618464E+03  0.12500038487E+03 0.  0.
          2    1    1    2  501    0 -0.35292794536E+02 -0.23974612177E+02 -0.40028313749E+03  0.40255056022E+03  0.00000000000E+00 0. -1.
          1    1    1    2  502    0 -0.39810454762E+01 -0.23200737449E+02  0.19502074492E+03  0.19643628456E+03  0.00000000000E+00 0. -1.
         22    1    3    3    0    0 -0.44974384292E+02  0.62517612593E+01 -0.28538239736E+02  0.53630316879E+02  0.00000000000E+00 0.  1.
         22    1    3    3    0    0  0.84248224305E+02  0.40923588366E+02 -0.71602599473E+02  0.11789586776E+03  0.00000000000E+00 0.  1.
</event>
<event>
 7    1  0.7109498E-006  0.8481790E+02  0.7818608E-02  0.1346328E+00
          2   -1    0    0  502    0  0.00000000000E+00  0.00000000000E+00  0.20166409786E+04  0.20166409786E+04  0.00000000000E+00 0. -1.
          1   -1    0    0  501    0 -0.00000000000E+00 -0.00000000000E+00 -0.16430959171E+04  0.16430959171E+04  0.00000000000E+00 0. -1.
         25    2    1    2    0    0  0.44412388420E+02  0.12678572378E+03 -0.17546302113E+03  0.25388768747E+03  0.12499842425E+03 0.  0.
          2    1    1    2  501    0 -0.55184093438E+02 -0.62752562675E+02 -0.14266645427E+04  0.14291098229E+04  0.00000000000E+00 0. -1.
          1    1    1    2  502    0  0.10771705018E+02 -0.64033161105E+02  0.19756726253E+04  0.19767393854E+04  0.00000000000E+00 0. -1.
         22    1    3    3    0    0  0.78877799315E+02  0.37388604181E+02 -0.92006230124E+02  0.12682571241E+03  0.00000000000E+00 0.  1.
         22    1    3    3    0    0 -0.34465410896E+02  0.89397119600E+02 -0.83456791009E+02  0.12706197506E+03  0.00000000000E+00 0.  1.
</event>
<event>
 7    1  0.6370239E-006  0.1645982E+03  0.7818608E-02  0.1234964E+00
          2   -1    0    0  502    0  0.00000000000E+00  0.00000000000E+00  0.15503087209E+03  0.15503087209E+03  0.00000000000E+00 0. -1.
          1   -1    0    0  501    0 -0.00000000000E+00 -0.00000000000E+00 -0.54586143616E+03  0.54586143616E+03  0.00000000000E+00 0. -1.
         25    2    1    2    0    0  0.80908777954E+02 -0.12483564773E+03 -0.35850115222E+03  0.40777217410E+03  0.12499960213E+03 0.  0.
          2    1    1    2  501    0 -0.82865277216E+02 -0.46520095422E+02 -0.69544155591E+02  0.11775891908E+03  0.00000000000E+00 0. -1.
          1    1    1    2  502    0  0.19564992620E+01  0.17135574315E+03  0.37214743738E+02  0.17536121507E+03  0.00000000000E+00 0. -1.
         22    1    3    3    0    0  0.46126225254E+02 -0.88322336812E+02 -0.89026323717E+02  0.13361942280E+03  0.00000000000E+00 0.  1.
         22    1    3    3    0    0  0.34782552700E+02 -0.36513310917E+02 -0.26947482850E+03  0.27415275129E+03  0.00000000000E+00 0.  1.
</event>
<event>
 7    1  0.6370239E-006  0.9038722E+02  0.7818608E-02  0.1387135E+00
          2   -1    0    0  502    0  0.00000000000E+00  0.00000000000E+00  0.11370441752E+04  0.11370441752E+04  0.00000000000E+00 0. -1.
          1   -1    0    0  501    0 -0.00000000000E+00 -0.00000000000E+00 -0.15151765493E+04  0.15151765493E+04  0.00000000000E+00 0. -1.
         25    2    1    2    0    0 -0.69091602455E+02  0.65040795454E+02 -0.20574224509E+03  0.25876387809E+03  0.12499967435E+03 0.  0.
          2    1    1    2  501    0  0.87033285138E+02 -0.25534100000E+02 -0.12808953882E+04  0.12841027133E+04  0.00000000000E+00 0. -1.
          1    1    1    2  502    0 -0.17941682683E+02 -0.39506695454E+02  0.11085052591E+04  0.11093541330E+04  0.00000000000E+00 0. -1.
         22    1    3    3    0    0  0.33320235344E+02  0.11550113769E+02 -0.21536458253E+02  0.41321450187E+02  0.00000000000E+00 0. -1.
         22    1    3    3    0    0 -0.10241183780E+03  0.53490681685E+02 -0.18420578684E+03  0.21744242791E+03  0.00000000000E+00 0. -1.
</event>
<event>
 7    1  0.6370239E-006  0.7999708E+02  0.7818608E-02  0.1487669E+00
          2   -1    0    0  502    0  0.00000000000E+00  0.00000000000E+00  0.93164836966E+03  0.93164836966E+03  0.00000000000E+00 0. -1.
          1   -1    0    0  501    0 -0.00000000000E+00 -0.00000000000E+00 -0.10241864638E+03  0.10241864638E+03  0.00000000000E+00 0. -1.
         25    2    1    2    0    0  0.91151279987E+02  0.23332514060E+02  0.35694057494E+03  0.38972335616E+03  0.12499903296E+03 0.  0.
          2    1    1    2  501    0 -0.20754508906E+02  0.10009499229E+02 -0.81709247618E+02  0.84896059161E+02  0.00000000000E+00 0. -1.
          1    1    1    2  502    0 -0.70396771082E+02 -0.33342013290E+02  0.55399839595E+03  0.55944760072E+03  0.00000000000E+00 0. -1.
         22    1    3    3    0    0  0.83781964109E+02  0.69908909393E+02  0.24048768349E+03  0.26408521169E+03  0.00000000000E+00 0. -1.
         22    1    3    3    0    0  0.73693158780E+01 -0.46576395333E+02  0.11645289145E+03  0.12563814447E+03  0.00000000000E+00 0. -1.
</event>
<event>
 7    1  0.6370239E-006  0.9254504E+02  0.7818608E-02  0.1453980E+00
          2   -1    0    0  502    0  0.00000000000E+00  0.00000000000E+00  0.53743587908E+03  0.53743587908E+03  0.00000000000E+00 0. -1.
          1   -1    0    0  501    0 -0.00000000000E+00 -0.00000000000E+00 -0.35831850479E+03  0.35831850479E+03  0.00000000000E+00 0. -1.
         25    2    1    2    0    0  0.83767087554E+02 -0.42282733153E+02  0.12181010077E+03  0.19815981083E+03  0.12499942199E+03 0.  0.
          2    1    1    2  501    0  0.72726342790E+01  0.24281628975E+02 -0.31392085390E+03  0.31494252052E+03  0.00000000000E+00 0. -1.
          1    1    1    2  502    0 -0.91039721833E+02  0.18001104178E+02  0.37122812743E+03  0.38265205252E+03  0.00000000000E+00 0. -1.
         22    1    3    3    0    0  0.89570481997E+02  0.19998959580E+02  0.87562804101E+02  0.12684665660E+03  0.00000000000E+00 0.  1.
         22    1    3    3    0    0 -0.58033944430E+01 -0.62281692733E+02  0.34247296666E+02  0.71313154226E+02  0.00000000000E+00 0.  1.
</event>
<event>
 7    1  0.6370239E-006  0.7031352E+02  0.7818608E-02  0.1379437E+00
          2   -1    0    0  502    0  0.00000000000E+00  0.00000000000E+00  0.11195123994E+04  0.11195123994E+04  0.00000000000E+00 0. -1.
          1   -1    0    0  501    0 -0.00000000000E+00 -0.00000000000E+00 -0.16378324139E+03  0.16378324139E+03  0.00000000000E+00 0. -1.
         25    2    1    2    0    0 -0.98563371087E+02  0.76946140920E+02  0.14485748211E+03  0.22856885777E+03  0.12499834357E+03 0.  0.
          2    1    1    2  501    0  0.36981497291E+02 -0.46448976697E+02 -0.11334755343E+03  0.12795626771E+03  0.00000000000E+00 0. -1.
          1    1    1    2  502    0  0.61581873796E+02 -0.30497164224E+02  0.92421922931E+03  0.92677051531E+03  0.00000000000E+00 0. -1.
         22    1    3    3    0    0 -0.11695035338E+03  0.79651840909E+02  0.15289217764E+03  0.20832143169E+03  0.00000000000E+00 0.  1.
         22    1    3    3    0    0  0.18386982296E+02 -0.27056999890E+01 -0.80346955374E+01  0.20247426077E+02  0.00000000000E+00 0.  1.
</event>
<event>
 7    1  0.6370239E-006  0.7527431E+02  0.7818608E-02  0.1437981E+00
          2   -1    0    0  502    0  0.00000000000E+00  0.00000000000E+00  0.10975161572E+03  0.10975161572E+03  0.00000000000E+00 0. -1.
          1   -1    0    0  501    0 -0.00000000000E+00 -0.00000000000E+00 -0.11182420136E+04  0.11182420136E+04  0.00000000000E+00 0. -1.
         25    2    1    2    0    0 -0.72710851009E+02  0.75553052284E+02 -0.86453207203E+02  0.18463452994E+03  0.12498248295E+03 0.  0.
          2    1    1    2  501    0  0.28843745436E+02 -0.19975350769E+02 -0.96160792625E+03  0.96224777481E+03  0.00000000000E+00 0. -1.
          1    1    1    2  502    0  0.43867105573E+02 -0.55577701515E+02  0.39570735584E+02  0.81111324558E+02  0.00000000000E+00 0. -1.
         22    1    3    3    0    0 -0.10608736171E+03  0.69449453453E+02 -0.54456756912E+02  0.13799743937E+03  0.00000000000E+00 0.  1.
         22    1    3    3    0    0  0.33376510701E+02  0.61035988308E+01 -0.31996450291E+02  0.46637090566E+02  0.00000000000E+00 0.  1.
</event>
<event>
 7    1  0.6370239E-006  0.1063042E+03  0.7818608E-02  0.1281898E+00
          2   -1    0    0  502    0  0.00000000000E+00  0.00000000000E+00  0.31680527510E+04  0.31680527510E+04  0.00000000000E+00 0. -1.
          1   -1    0    0  501    0 -0.00000000000E+00 -0.00000000000E+00 -0.11309127456E+04  0.11309127456E+04  0.00000000000E+00 0. -1.
         25    2    1    2    0    0  0.17683018813E+03  0.81553430859E+02  0.20275656107E+03  0.30765991521E+03  0.12499809137E+03 0.  0.
          2    1    1    2  501    0 -0.76074044469E+02 -0.52883227743E+02 -0.10755269912E+04  0.10795101689E+04  0.00000000000E+00 0. -1.
          1    1    1    2  502    0 -0.10075614366E+03 -0.28670203117E+02  0.29099104356E+04  0.29117954125E+04  0.00000000000E+00 0. -1.
         22    1    3    3    0    0  0.93548753390E+02  0.10786417562E+03  0.10985761167E+03  0.18015200383E+03  0.00000000000E+00 0.  1.
         22    1    3    3    0    0  0.83281434743E+02 -0.26310744759E+02  0.92898949402E+02  0.12750791137E+03  0.00000000000E+00 0.  1.
</event>
<event>
 7    1  0.6370239E-006  0.7655139E+02  0.7818608E-02  0.1357532E+00
          2   -1    0    0  502    0  0.00000000000E+00  0.00000000000E+00  0.25916512729E+04  0.25916512729E+04  0.00000000000E+00 0. -1.
          1   -1    0    0  501    0 -0.00000000000E+00 -0.00000000000E+00 -0.74641858371E+03  0.74641858371E+03  0.00000000000E+00 0. -1.
         25    2    1    2    0    0  0.94296304694E+02 -0.92390448230E+02 -0.78043915029E+02  0.19782187602E+03  0.12495940924E+03 0.  0.
          2    1    1    2  501    0 -0.60958872914E+02  0.23701202324E+02 -0.60615044480E+03  0.60966883872E+03  0.00000000000E+00 0. -1.
          1    1    1    2  502    0 -0.33337431780E+02  0.68689245906E+02  0.25294270490E+04  0.25305791419E+04  0.00000000000E+00 0. -1.
         22    1    3    3    0    0  0.10883756497E+03 -0.94563431703E+02 -0.29588164311E+02  0.14718463789E+03  0.00000000000E+00 0.  1.
         22    1    3    3    0    0 -0.14541260280E+02  0.21729834725E+01 -0.48455750718E+02  0.50637238129E+02  0.00000000000E+00 0.  1.
</event>
<event>
 7    1  0.6370239E-006  0.1020686E+03  0.7818608E-02  0.1298372E+00
          2   -1    0    0  502    0  0.00000000000E+00  0.00000000000E+00  0.40610233705E+04  0.40610233705E+04  0.00000000000E+00 0. -1.
          1   -1    0    0  501    0 -0.00000000000E+00 -0.00000000000E+00 -0.35100827930E+02  0.35100827930E+02  0.00000000000E+00 0. -1.
         25    2    1    2    0    0 -0.87908209983E+02 -0.15860001641E+03  0.40606112943E+03  0.46194224862E+03  0.12499272634E+03 0.  0.
          2    1    1    2  501    0  0.49397584972E+02  0.66326966695E+02  0.26005853422E+03  0.27289160693E+03  0.00000000000E+00 0. -1.
          1    1    1    2  502    0  0.38510625010E+02  0.92273049716E+02  0.33598028789E+04  0.33612903429E+04  0.00000000000E+00 0. -1.
         22    1    3    3    0    0  0.15474550884E+02 -0.89917769648E+02  0.12557753197E+03  0.15522365657E+03  0.00000000000E+00 0.  1.
         22    1    3    3    0    0 -0.10338276087E+03 -0.68682246763E+02  0.28048359746E+03  0.30671859205E+03  0.00000000000E+00 0.  1.
</event>
<event>
 7    1  0.6370239E-006  0.1232905E+03  0.7818608E-02  0.1257695E+00
          2   -1    0    0  502    0  0.00000000000E+00  0.00000000000E+00  0.34298497881E+03  0.34298497881E+03  0.00000000000E+00 0. -1.
          1   -1    0    0  501    0 -0.00000000000E+00 -0.00000000000E+00 -0.33703253316E+03  0.33703253316E+03  0.00000000000E+00 0. -1.
         25    2    1    2    0    0  0.10753523539E+03 -0.16339711665E+03 -0.13405587550E+03  0.26806508312E+03  0.12500186579E+03 0.  0.
          2    1    1    2  501    0 -0.77218929110E+02  0.67097560973E+02 -0.10522201577E+03  0.14675325653E+03  0.00000000000E+00 0. -1.
          1    1    1    2  502    0 -0.30316306280E+02  0.96299555675E+02  0.24523033692E+03  0.26519917231E+03  0.00000000000E+00 0. -1.
         22    1    3    3    0    0  0.13531969139E+03 -0.14573002078E+03 -0.10977443091E+03  0.22715431653E+03  0.00000000000E+00 0. -1.
         22    1    3    3    0    0 -0.27784456001E+02 -0.17667095866E+02 -0.24281444594E+02  0.40910766592E+02  0.00000000000E+00 0. -1.
</event>
<event>
 7    1  0.6370239E-006  0.1626653E+03  0.7818608E-02  0.1270440E+00
          2   -1    0    0  502    0  0.00000000000E+00  0.00000000000E+00  0.11280677202E+04  0.11280677202E+04  0.00000000000E+00 0. -1.
          1   -1    0    0  501    0 -0.00000000000E+00 -0.00000000000E+00 -0.22745474301E+03  0.22745474301E+03  0.00000000000E+00 0. -1.
         25    2    1    2    0    0 -0.81829579198E+02  0.15955258599E+03  0.41049109478E+03  0.46506055277E+03  0.12500108448E+03 0.  0.
          2    1    1    2  501    0  0.12297545533E+03 -0.10595806650E+03 -0.16523537925E+03  0.23163075146E+03  0.00000000000E+00 0. -1.
          1    1    1    2  502    0 -0.41145876130E+02 -0.53594519495E+02  0.65535726169E+03  0.65883115902E+03  0.00000000000E+00 0. -1.
         22    1    3    3    0    0  0.27241214852E+02  0.34353102131E+02  0.14889378461E+03  0.15521462079E+03  0.00000000000E+00 0.  1.
         22    1    3    3    0    0 -0.10907079405E+03  0.12519948386E+03  0.26159731017E+03  0.30984593198E+03  0.00000000000E+00 0.  1.
</event>
<event>
 7    1  0.6370239E-006  0.2549136E+03  0.7818608E-02  0.1125754E+00
          2   -1    0    0  502    0  0.00000000000E+00  0.00000000000E+00  0.48144976100E+03  0.48144976100E+03  0.00000000000E+00 0. -1.
          1   -1    0    0  501    0 -0.00000000000E+00 -0.00000000000E+00 -0.16929337717E+04  0.16929337717E+04  0.00000000000E+00 0. -1.
         25    2    1    2    0    0 -0.19883866393E+03 -0.11409827751E+03 -0.16017273364E+03  0.30631165089E+03  0.12496516181E+03 0.  0.
          2    1    1    2  501    0  0.25713960342E+03 -0.87445407378E+02 -0.14189872168E+04  0.14447464124E+04  0.00000000000E+00 0. -1.
          1    1    1    2  502    0 -0.58300939496E+02  0.20154368488E+03  0.36767593965E+03  0.42332546942E+03  0.00000000000E+00 0. -1.
         22    1    3    3    0    0 -0.10610202524E+03 -0.11852104010E+03 -0.60750426082E+02  0.17028062419E+03  0.00000000000E+00 0. -1.
         22    1    3    3    0    0 -0.92736638689E+02  0.44227625900E+01 -0.99422307557E+02  0.13603102670E+03  0.00000000000E+00 0. -1.
</event>
<event>
 7    1  0.6370239E-006  0.7195944E+02  0.7818608E-02  0.1416018E+00
          2   -1    0    0  502    0  0.00000000000E+00  0.00000000000E+00  0.85431166213E+03  0.85431166213E+03  0.00000000000E+00 0. -1.
          1   -1    0    0  501    0 -0.00000000000E+00 -0.00000000000E+00 -0.20932196368E+04  0.20932196368E+04  0.00000000000E+00 0. -1.
         25    2    1    2    0    0  0.23471036807E+02 -0.38384781678E+02  0.26655963046E+03  0.29783126781E+03  0.12500058583E+03 0.  0.
          2    1    1    2  501    0  0.43379790175E+02 -0.41313301748E+00 -0.20747454162E+04  0.20751989107E+04  0.00000000000E+00 0. -1.
          1    1    1    2  502    0 -0.66850826983E+02  0.38797914696E+02  0.56927781104E+03  0.57450112045E+03  0.00000000000E+00 0. -1.
         22    1    3    3    0    0  0.57530491825E+01  0.24660611018E+02  0.21290331662E+01  0.25412124919E+02  0.00000000000E+00 0.  1.
         22    1    3    3    0    0  0.17717987625E+02 -0.63045392696E+02  0.26443059730E+03  0.27241914289E+03  0.00000000000E+00 0.  1.
</event>
<event>
 7    1  0.6370239E-006  0.6743559E+02  0.7818608E-02  0.1407097E+00
          2   -1    0    0  502    0  0.00000000000E+00  0.00000000000E+00  0.31902656698E+02  0.31902656698E+02  0.00000000000E+00 0. -1.
          1   -1    0    0  501    0 -0.00000000000E+00 -0.00000000000E+00 -0.12940804785E+04  0.12940804785E+04  0.00000000000E+00 0. -1.
         25    2    1    2    0    0 -0.39428102621E+02  0.61144742202E+02 -0.38774135936E+03  0.41383808595E+03  0.12500137941E+03 0.  0.
          2    1    1    2  501    0  0.65853698001E+02 -0.19145265857E+02 -0.85671306068E+03  0.85945361660E+03  0.00000000000E+00 0. -1.
          1    1    1    2  502    0 -0.26425595380E+02 -0.41999476345E+02 -0.17723401770E+02  0.52691432651E+02  0.00000000000E+00 0. -1.
         22    1    3    3    0    0  0.31062330750E+02  0.25281090967E+02 -0.26372786463E+03  0.26675154833E+03  0.00000000000E+00 0.  1.
         22    1    3    3    0    0 -0.70490433371E+02  0.35863651235E+02 -0.12401349473E+03  0.14708653763E+03  0.00000000000E+00 0.  1.
</event>
<event>
 7    1  0.6370239E-006  0.8710511E+02  0.7818608E-02  0.1413593E+00
          2   -1    0    0  502    0  0.00000000000E+00  0.00000000000E+00  0.25593893143E+03  0.25593893143E+03  0.00000000000E+00 0. -1.
          1   -1    0    0  501    0 -0.00000000000E+00 -0.00000000000E+00 -0.96205366542E+03  0.96205366542E+03  0.00000000000E+00 0. -1.
         25    2    1    2    0    0  0.44471698291E+02 -0.89843546198E+02 -0.18633354294E+03  0.24575561032E+03  0.12500414406E+03 0.  0.
          2    1    1    2  501    0 -0.63540828116E+02  0.58699343711E+02 -0.74200609530E+03  0.74703152226E+03  0.00000000000E+00 0. -1.
          1    1    1    2  502    0  0.19069129825E+02  0.31144202487E+02  0.22222490426E+03  0.22520546427E+03  0.00000000000E+00 0. -1.
         22    1    3    3    0    0  0.28976868632E+02  0.21560088655E+02 -0.92421017654E+02  0.99227722148E+02  0.00000000000E+00 0.  1.
         22    1    3    3    0    0  0.15494829659E+02 -0.11140363485E+03 -0.93912525289E+02  0.14652788817E+03  0.00000000000E+00 0.  1.
</event>
<event>
 7    1  0.6370239E-006  0.9942212E+02  0.7818608E-02  0.1384691E+00
          2   -1    0    0  502    0  0.00000000000E+00  0.00000000000E+00  0.88708156757E+03  0.88708156757E+03  0.00000000000E+00 0. -1.
          1   -1    0    0  501    0 -0.00000000000E+00 -0.00000000000E+00 -0.78219920456E+02  0.78219920456E+02  0.00000000000E+00 0. -1.
         25    2    1    2    0    0  0.62595187515E+02 -0.56930968689E+02  0.21127885000E+03  0.25965874740E+03  0.12499847979E+03 0.  0.
          2    1    1    2  501    0 -0.18211231154E+02 -0.35876545196E+02 -0.41811341107E+02  0.58025543345E+02  0.00000000000E+00 0. -1.
          1    1    1    2  502    0 -0.44383956361E+02  0.92807513885E+02  0.63939413822E+03  0.64761719727E+03  0.00000000000E+00 0. -1.
         22    1    3    3    0    0 -0.13282836986E+02  0.29429615271E+02  0.73088234849E+02  0.79902603755E+02  0.00000000000E+00 0. -1.
         22    1    3    3    0    0  0.75878024501E+02 -0.86360583960E+02  0.13819061515E+03  0.17975614365E+03  0.00000000000E+00 0. -1.
</event>
<event>
 7    1  0.6370239E-006  0.1080978E+03  0.7818608E-02  0.1287572E+00
          2   -1    0    0  502    0  0.00000000000E+00  0.00000000000E+00  0.11042964520E+04  0.11042964520E+04  0.00000000000E+00 0. -1.
          1   -1    0    0  501    0 -0.00000000000E+00 -0.00000000000E+00 -0.12179175737E+04  0.12179175737E+04  0.00000000000E+00 0. -1.
         25    2    1    2    0    0  0.84857829133E+02  0.13012979325E+03  0.18544865471E+03  0.27230703187E+03  0.12500120726E+03 0.  0.
          2    1    1    2  501    0 -0.82968598088E+02 -0.23957980100E+02 -0.11696705149E+04  0.11728541625E+04  0.00000000000E+00 0. -1.
          1    1    1    2  502    0 -0.18892310448E+01 -0.10617181315E+03  0.87060073849E+03  0.87705283134E+03  0.00000000000E+00 0. -1.
         22    1    3    3    0    0  0.18328125795E+02 -0.14239926434E+02 -0.54988059614E+01  0.23852307373E+02  0.00000000000E+00 0.  1.
         22    1    3    3    0    0  0.66529703339E+02  0.14436971968E+03  0.19094746067E+03  0.24845472450E+03  0.00000000000E+00 0.  1.
</event>
<event>
 7    1  0.6370239E-006  0.1094550E+03  0.7818608E-02  0.1293720E+00
          2   -1    0    0  502    0  0.00000000000E+00  0.00000000000E+00  0.19935063380E+04  0.19935063380E+04  0.00000000000E+00 0. -1.
          1   -1    0    0  501    0 -0.00000000000E+00 -0.00000000000E+00 -0.26857825557E+03  0.26857825557E+03  0.00000000000E+00 0. -1.
         25    2    1    2    0    0  0.12898354118E+02 -0.17411650298E+03  0.19450785263E+02  0.21560639900E+03  0.12499944837E+03 0.  0.
          2    1    1    2  501    0  0.18428046170E+02  0.99939922049E+02 -0.15440856032E+03  0.18485016745E+03  0.00000000000E+00 0. -1.
          1    1    1    2  502    0 -0.31326400288E+02  0.74176580927E+02  0.18598858575E+04  0.18616280272E+04  0.00000000000E+00 0. -1.
         22    1    3    3    0    0 -0.16015568252E+02  0.15762636376E+02 -0.71526872528E+00  0.22482676471E+02  0.00000000000E+00 0.  1.
         22    1    3    3    0    0  0.28913922370E+02 -0.18987913935E+03  0.20166053988E+02  0.19312372252E+03  0.00000000000E+00 0.  1.
</event>
<event>
 7    1  0.6370239E-006  0.6920116E+02  0.7818608E-02  0.1444574E+00
          2   -1    0    0  502    0  0.00000000000E+00  0.00000000000E+00  0.17387629499E+03  0.17387629499E+03  0.00000000000E+00 0. -1.
          1   -1    0    0  501    0 -0.00000000000E+00 -0.00000000000E+00 -0.10047309236E+04  0.10047309236E+04  0.00000000000E+00 0. -1.
         25    2    1    2    0    0  0.30779644210E+02 -0.35225098225E+02 -0.20978956745E+03  0.24864994805E+03  0.12500775982E+03 0.  0.
          2    1    1    2  501    0 -0.17953418289E+02  0.69218686152E+02 -0.77169820778E+03  0.77500430685E+03  0.00000000000E+00 0. -1.
          1    1    1    2  502    0 -0.12826225921E+02 -0.33993587927E+02  0.15063314663E+03  0.15495296368E+03  0.00000000000E+00 0. -1.
         22    1    3    3    0    0  0.76868656524E+02 -0.38049830145E+02 -0.15356586581E+03  0.17589501151E+03  0.00000000000E+00 0.  1.
         22    1    3    3    0    0 -0.46089012314E+02  0.28247319199E+01 -0.56223701634E+02  0.72754936547E+02  0.00000000000E+00 0.  1.
</event>
<event>
 7    1  0.6370239E-006  0.8348443E+02  0.7818608E-02  0.1499794E+00
          2   -1    0    0  502    0  0.00000000000E+00  0.00000000000E+00  0.24901448157E+03  0.24901448157E+03  0.00000000000E+00 0. -1.
          1   -1    0    0  501    0 -0.00000000000E+00 -0.00000000000E+00 -0.11856039935E+04  0.11856039935E+04  0.00000000000E+00 0. -1.
         25    2    1    2    0    0 -0.17466005426E+02  0.76390486179E+02 -0.10452257918E+04  0.10555863469E+04  0.12500004933E+03 0.  0.
          2    1    1    2  501    0  0.19006476015E+02  0.71304066651E+01 -0.12721492902E+03  0.12882440373E+03  0.00000000000E+00 0. -1.
          1    1    1    2  502    0 -0.15404705891E+01 -0.83520892844E+02  0.23585120890E+03  0.25020772437E+03  0.00000000000E+00 0. -1.
         22    1    3    3    0    0  0.51301958046E+02  0.45671134163E+02 -0.38505988143E+03  0.39113789855E+03  0.00000000000E+00 0. -1.
         22    1    3    3    0    0 -0.68767963472E+02  0.30719352016E+02 -0.66016591034E+03  0.66444844839E+03  0.00000000000E+00 0. -1.
</event>
<event>
 7    1  0.6370239E-006  0.1423293E+03  0.7818608E-02  0.1410930E+00
          2   -1    0    0  502    0  0.00000000000E+00  0.00000000000E+00  0.90664928687E+02  0.90664928687E+02  0.00000000000E+00 0. -1.
          1   -1    0    0  501    0 -0.00000000000E+00 -0.00000000000E+00 -0.13608631577E+04  0.13608631577E+04  0.00000000000E+00 0. -1.
         25    2    1    2    0    0  0.11696793400E+03  0.40657112872E+02 -0.34650392987E+03  0.38861762338E+03  0.12499674147E+03 0.  0.
          2    1    1    2  501    0  0.19480758631E+02  0.11878787155E+02 -0.91622253037E+03  0.91650659065E+03  0.00000000000E+00 0. -1.
          1    1    1    2  502    0 -0.13644869263E+03 -0.52535900027E+02 -0.74717687748E+01  0.14640387236E+03  0.00000000000E+00 0. -1.
         22    1    3    3    0    0  0.14361404198E+03  0.40816907561E+02 -0.29328728856E+03  0.32910248651E+03  0.00000000000E+00 0.  1.
         22    1    3    3    0    0 -0.26646107979E+02 -0.15979468856E+00 -0.53216641309E+02  0.59515136873E+02  0.00000000000E+00 0.  1.
</event>
<event>
 7    1  0.6370239E-006  0.1556087E+03  0.7818608E-02  0.1346782E+00
          2   -1    0    0  502    0  0.00000000000E+00  0.00000000000E+00  0.91729479682E+03  0.91729479682E+03  0.00000000000E+00 0. -1.
          1   -1    0    0  501    0 -0.00000000000E+00 -0.00000000000E+00 -0.12239974520E+04  0.12239974520E+04  0.00000000000E+00 0. -1.
         25    2    1    2    0    0  0.11763522891E+03  0.13066128194E+03  0.32492568825E+03  0.39001854071E+03  0.12500936579E+03 0.  0.
          2    1    1    2  501    0 -0.82395353591E+02 -0.13171006708E+03 -0.11858239850E+04  0.11959578000E+04  0.00000000000E+00 0. -1.
          1    1    1    2  502    0 -0.35239875315E+02  0.10487851366E+01  0.55419564151E+03  0.55531590814E+03  0.00000000000E+00 0. -1.
         22    1    3    3    0    0  0.92601488165E+02  0.25870242740E+02  0.90589621306E+02  0.13210141770E+03  0.00000000000E+00 0. -1.
         22    1    3    3    0    0  0.25033740741E+02  0.10479103920E+03  0.23433606695E+03  0.25791712301E+03  0.00000000000E+00 0. -1.
</event>
<event>
 7    1  0.6370239E-006  0.1165590E+03  0.7818608E-02  0.1311976E+00
          2   -1    0    0  502    0  0.00000000000E+00  0.00000000000E+00  0.24655356306E+03  0.24655356306E+03  0.00000000000E+00 0. -1.
          1   -1    0    0  501    0 -0.00000000000E+00 -0.00000000000E+00 -0.66161845705E+03  0.66161845705E+03  0.00000000000E+00 0. -1.
         25    2    1    2    0    0  0.57368462605E+02  0.12102565600E+03  0.24257946599E+02  0.18480014587E+03  0.12499718408E+03 0.  0.
          2    1    1    2  501    0  0.35533905138E+02 -0.53168099669E+02 -0.55591176453E+03  0.55957787231E+03  0.00000000000E+00 0. -1.
          1    1    1    2  502    0 -0.92902367743E+02 -0.67857556336E+02  0.11658892394E+03  0.16379400194E+03  0.00000000000E+00 0. -1.
         22    1    3    3    0    0  0.21258773604E+02  0.96537932477E+02  0.70353624306E+02  0.12133070640E+03  0.00000000000E+00 0.  1.
         22    1    3    3    0    0  0.36109689001E+02  0.24487723528E+02 -0.46095677707E+02  0.63469439470E+02  0.00000000000E+00 0.  1.
</event>
<event>
 7    1  0.6370239E-006  0.4742692E+02  0.7818608E-02  0.1473585E+00
          2   -1    0    0  502    0  0.00000000000E+00  0.00000000000E+00  0.11150160099E+04  0.11150160099E+04  0.00000000000E+00 0. -1.
          1   -1    0    0  501    0 -0.00000000000E+00 -0.00000000000E+00 -0.36616915508E+03  0.36616915508E+03  0.00000000000E+00 0. -1.
         25    2    1    2    0    0 -0.69063017039E+01 -0.84271991400E+02  0.21408974783E+03  0.26193746467E+03  0.12500939858E+03 0.  0.
          2    1    1    2  501    0  0.17902940145E+02  0.39016640460E+02 -0.34027749244E+03  0.34297461329E+03  0.00000000000E+00 0. -1.
          1    1    1    2  502    0 -0.10996638441E+02  0.45255350940E+02  0.87503459943E+03  0.87627308702E+03  0.00000000000E+00 0. -1.
         22    1    3    3    0    0  0.24494712077E+02  0.25556064564E+02  0.66192618021E+02  0.75063746484E+02  0.00000000000E+00 0.  1.
         22    1    3    3    0    0 -0.31401013780E+02 -0.10982805596E+03  0.14789712981E+03  0.18687371819E+03  0.00000000000E+00 0.  1.
</event>
<event>
 7    1  0.6370239E-006  0.1821696E+03  0.7818608E-02  0.1299799E+00
          2   -1    0    0  502    0  0.00000000000E+00  0.00000000000E+00  0.34713409172E+03  0.34713409172E+03  0.00000000000E+00 0. -1.
          1   -1    0    0  501    0 -0.00000000000E+00 -0.00000000000E+00 -0.19740394605E+04  0.19740394605E+04  0.00000000000E+00 0. -1.
         25    2    1    2    0    0  0.27434865716E+02  0.17909897720E+03 -0.94378430303E+02  0.23950154603E+03  0.12499834780E+03 0.  0.
          2    1    1    2  501    0  0.18223502166E+02 -0.18166299279E+03 -0.18005463878E+04  0.18097792223E+04  0.00000000000E+00 0. -1.
          1    1    1    2  502    0 -0.45658367882E+02  0.25640155868E+01  0.26801944929E+03  0.27189278389E+03  0.00000000000E+00 0. -1.
         22    1    3    3    0    0  0.78312610100E+01  0.77934568765E+02  0.24603248200E+02  0.82100216075E+02  0.00000000000E+00 0.  1.
         22    1    3    3    0    0  0.19603604706E+02  0.10116440844E+03 -0.11898167850E+03  0.15740132995E+03  0.00000000000E+00 0.  1.
</event>
<event>
 7    1  0.6370239E-006  0.3163040E+02  0.7818608E-02  0.1584728E+00
          2   -1    0    0  502    0  0.00000000000E+00  0.00000000000E+00  0.25205225159E+04  0.25205225159E+04  0.00000000000E+00 0. -1.
          1   -1    0    0  501    0 -0.00000000000E+00 -0.00000000000E+00 -0.12554692053E+02  0.12554692053E+02  0.00000000000E+00 0. -1.
         25    2    1    2    0    0 -0.42956667173E+02 -0.19927811082E+02  0.54103276193E+03  0.55730081796E+03  0.12500143721E+03 0.  0.
          2    1    1    2  501    0  0.12510530096E+02  0.28213554117E+02  0.51207650762E+02  0.59789141955E+02  0.00000000000E+00 0. -1.
          1    1    1    2  502    0  0.30446137076E+02 -0.82857430343E+01  0.19157274111E+04  0.19159872480E+04  0.00000000000E+00 0. -1.
         22    1    3    3    0    0 -0.82920164252E+00 -0.59195069865E+02  0.40889533620E+03  0.41315873443E+03  0.00000000000E+00 0.  1.
         22    1    3    3    0    0 -0.42127465530E+02  0.39267258783E+02  0.13213742573E+03  0.14414208353E+03  0.00000000000E+00 0.  1.
</event>
<event>
 7    1  0.6370239E-006  0.1381152E+03  0.7818608E-02  0.1429605E+00
          2   -1    0    0  502    0  0.00000000000E+00  0.00000000000E+00  0.10022029665E+04  0.10022029665E+04  0.00000000000E+00 0. -1.
          1   -1    0    0  501    0 -0.00000000000E+00 -0.00000000000E+00 -0.52535405951E+02  0.52535405951E+02  0.00000000000E+00 0. -1.
         25    2    1    2    0    0 -0.12289781736E+02  0.12179837719E+03  0.27824598221E+03  0.32868221655E+03  0.12500115774E+03 0.  0.
          2    1    1    2  501    0 -0.41800793589E+01  0.19934842590E+02 -0.14786862825E+02  0.25169869382E+02  0.00000000000E+00 0. -1.
          1    1    1    2  502    0  0.16469861095E+02 -0.14173321978E+03  0.68620844121E+03  0.70088628657E+03  0.00000000000E+00 0. -1.
         22    1    3    3    0    0  0.30315154197E+02  0.11861831326E+03  0.15066156227E+03  0.19413453881E+03  0.00000000000E+00 0. -1.
         22    1    3    3    0    0 -0.42604935934E+02  0.31800639322E+01  0.12758441994E+03  0.13454767773E+03  0.00000000000E+00 0. -1.
</event>
<event>
 7    1  0.6370239E-006  0.2149745E+03  0.7818608E-02  0.1174520E+00
          2   -1    0    0  502    0  0.00000000000E+00  0.00000000000E+00  0.49270172071E+03  0.49270172071E+03  0.00000000000E+00 0. -1.
          1   -1    0    0  501    0 -0.00000000000E+00 -0.00000000000E+00 -0.11844773963E+04  0.11844773963E+04  0.00000000000E+00 0. -1.
         25    2    1    2    0    0  0.10598694912E+03 -0.15155577962E+03 -0.27823505919E+03  0.35670768570E+03  0.12499294840E+03 0.  0.
          2    1    1    2  501    0 -0.12147563946E+03 -0.68773522250E+02 -0.83396080595E+03  0.84556298062E+03  0.00000000000E+00 0. -1.
          1    1    1    2  502    0  0.15488690339E+02  0.22032930187E+03  0.42042018953E+03  0.47490845071E+03  0.00000000000E+00 0. -1.
         22    1    3    3    0    0 -0.13633257464E+02 -0.21712781291E+02 -0.10961971909E+03  0.11257794364E+03  0.00000000000E+00 0.  1.
         22    1    3    3    0    0  0.11962020659E+03 -0.12984299833E+03 -0.16861534010E+03  0.24412974205E+03  0.00000000000E+00 0.  1.
</event>
<event>
 7    1  0.6370239E-006  0.8055192E+02  0.7818608E-02  0.1372763E+00
          2   -1    0    0  502    0  0.00000000000E+00  0.00000000000E+00  0.26023961793E+04  0.26023961793E+04  0.00000000000E+00 0. -1.
          1   -1    0    0  501    0 -0.00000000000E+00 -0.00000000000E+00 -0.69351535812E+02  0.69351535812E+02  0.00000000000E+00 0. -1.
         25    2    1    2    0    0  0.76557639947E+02 -0.35568400790E+02  0.32883103742E+03  0.36177364908E+03  0.12499655447E+03 0.  0.
          2    1    1    2  501    0  0.23241446070E+01  0.54693211647E+02 -0.37778694058E+02  0.66512997025E+02  0.00000000000E+00 0. -1.
          1    1    1    2  502    0 -0.78881784554E+02 -0.19124810857E+02  0.22419923001E+04  0.22434610690E+04  0.00000000000E+00 0. -1.
         22    1    3    3    0    0  0.38402373292E+02 -0.11536648349E+02  0.12149832566E+02  0.41898149851E+02  0.00000000000E+00 0.  1.
         22    1    3    3    0    0  0.38155266655E+02 -0.24031752441E+02  0.31668120485E+03  0.31987549923E+03  0.00000000000E+00 0.  1.
</event>
<event>
 7    1  0.6370239E-006  0.3247243E+02  0.7818608E-02  0.1588299E+00
          2   -1    0    0  502    0  0.00000000000E+00  0.00000000000E+00  0.45487416657E+03  0.45487416657E+03  0.00000000000E+00 0. -1.
          1   -1    0    0  501    0 -0.00000000000E+00 -0.00000000000E+00 -0.20899813009E+03  0.20899813009E+03  0.00000000000E+00 0. -1.
         25    2    1    2    0    0 -0.66938891345E+01  0.13546915570E+01  0.34613474064E+03  0.36807720235E+03  0.12499969949E+03 0.  0.
          2    1    1    2  501    0  0.22857297904E+02  0.23218513177E+02 -0.19442816150E+03  0.19713920311E+03  0.00000000000E+00 0. -1.
          1    1    1    2  502    0 -0.16163408770E+02 -0.24573204734E+02  0.94169457337E+02  0.98655891204E+02  0.00000000000E+00 0. -1.
         22    1    3    3    0    0  0.26590619731E+02 -0.26995909557E+02  0.30721203525E+03  0.30954010208E+03  0.00000000000E+00 0.  1.
         22    1    3    3    0    0 -0.33284508866E+02  0.28350601114E+02  0.38922705389E+02  0.58537100276E+02  0.00000000000E+00 0.  1.
</event>
<event>
 7    1  0.6370239E-006  0.7140509E+02  0.7818608E-02  0.1442362E+00
          2   -1    0    0  502    0  0.00000000000E+00  0.00000000000E+00  0.60164170893E+03  0.60164170893E+03  0.00000000000E+00 0. -1.
          1   -1    0    0  501    0 -0.00000000000E+00 -0.00000000000E+00 -0.61383597646E+03  0.61383597646E+03  0.00000000000E+00 0. -1.
         25    2    1    2    0    0 -0.39580587151E+02 -0.23845550600E+01 -0.17895969547E+02  0.13235167683E+03  0.12499756658E+03 0.  0.
          2    1    1    2  501    0  0.69327690538E+02  0.22295014698E+02 -0.53565723660E+03  0.54058493456E+03  0.00000000000E+00 0. -1.
          1    1    1    2  502    0 -0.29747103387E+02 -0.19910459638E+02  0.54135893861E+03  0.54254107400E+03  0.00000000000E+00 0. -1.
         22    1    3    3    0    0 -0.66084389143E+02  0.42793269053E+02 -0.12082790023E+02  0.79651768213E+02  0.00000000000E+00 0.  1.
         22    1    3    3    0    0  0.26503801992E+02 -0.45177824113E+02 -0.58131795239E+01  0.52699908613E+02  0.00000000000E+00 0.  1.
</event>
<event>
 7    1  0.6370239E-006  0.1176635E+03  0.7818608E-02  0.1426418E+00
          2   -1    0    0  502    0  0.00000000000E+00  0.00000000000E+00  0.17194390623E+04  0.17194390623E+04  0.00000000000E+00 0. -1.
          1   -1    0    0  501    0 -0.00000000000E+00 -0.00000000000E+00 -0.16901776501E+03  0.16901776501E+03  0.00000000000E+00 0. -1.
         25    2    1    2    0    0 -0.28155223263E+02 -0.91526831664E+02  0.46410292723E+02  0.16415397375E+03  0.12499093694E+03 0.  0.
          2    1    1    2  501    0  0.31533693935E+01 -0.24291149843E+02 -0.10658042537E+03  0.10935899950E+03  0.00000000000E+00 0. -1.
          1    1    1    2  502    0  0.25001853870E+02  0.11581798151E+03  0.16105914300E+04  0.16149438541E+04  0.00000000000E+00 0. -1.
         22    1    3    3    0    0  0.19936062753E+01  0.26432047671E+02  0.32001027982E+02  0.41553500479E+02  0.00000000000E+00 0. -1.
         22    1    3    3    0    0 -0.30148829539E+02 -0.11795887934E+03  0.14409264741E+02  0.12260047327E+03  0.00000000000E+00 0. -1.
</event>
<event>
 7    1  0.6370239E-006  0.7341363E+02  0.7818608E-02  0.1355846E+00
          2   -1    0    0  502    0  0.00000000000E+00  0.00000000000E+00  0.22381430513E+04  0.22381430513E+04  0.00000000000E+00 0. -1.
          1   -1    0    0  501    0 -0.00000000000E+00 -0.00000000000E+00 -0.90925005288E+03  0.90925005288E+03  0.00000000000E+00 0. -1.
         25    2    1    2    0    0  0.20323680518E+02  0.62889843466E+02  0.79957074573E+02  0.16243896546E+03  0.12500039729E+03 0.  0.
          2    1    1    2  501    0  0.48489224360E+02 -0.55794365819E+02 -0.86586873266E+03  0.86901834177E+03  0.00000000000E+00 0. -1.
          1    1    1    2  502    0 -0.68812904878E+02 -0.70954776473E+01  0.21148046565E+04  0.21159357969E+04  0.00000000000E+00 0. -1.
         22    1    3    3    0    0  0.36070761402E+02 -0.19599435478E+02  0.65386963282E+02  0.77205522254E+02  0.00000000000E+00 0. -1.
         22    1    3    3    0    0 -0.15747080884E+02  0.82489278945E+02  0.14570111291E+02  0.85233443203E+02  0.00000000000E+00 0. -1.
</event>
<event>
 7    1  0.6370239E-006  0.7553433E+02  0.7818608E-02  0.1391486E+00
          2   -1    0    0  502    0  0.00000000000E+00  0.00000000000E+00  0.95606503698E+03  0.95606503698E+03  0.00000000000E+00 0. -1.
          1   -1    0    0  501    0 -0.00000000000E+00 -0.00000000000E+00 -0.31088975662E+03  0.31088975662E+03  0.00000000000E+00 0. -1.
         25    2    1    2    0    0  0.65034748846E+02  0.10079687241E+03  0.54523450471E+02  0.18162475230E+03  0.12500086381E+03 0.  0.
          2    1    1    2  501    0 -0.51535157033E+02 -0.52512397727E+02 -0.24109585212E+03  0.25207267649E+03  0.00000000000E+00 0. -1.
          1    1    1    2  502    0 -0.13499591814E+02 -0.48284474687E+02  0.83174768200E+03  0.83325736480E+03  0.00000000000E+00 0. -1.
         22    1    3    3    0    0  0.31013520520E+02  0.11347006383E+03  0.18436022321E+01  0.11764647343E+03  0.00000000000E+00 0.  1.
         22    1    3    3    0    0  0.34021228327E+02 -0.12673191417E+02  0.52679848239E+02  0.63978278877E+02  0.00000000000E+00 0.  1.
</event>
<event>
 7    1  0.8318865E-006  0.1436481E+03  0.7818608E-02  0.1248768E+00
          2   -1    0    0  502    0  0.00000000000E+00  0.00000000000E+00  0.14018185646E+04  0.14018185646E+04  0.00000000000E+00 0. -1.
          1   -1    0    0  501    0 -0.00000000000E+00 -0.00000000000E+00 -0.83800804905E+03  0.83800804905E+03  0.00000000000E+00 0. -1.
         25    2    1    2    0    0 -0.40730614456E+02 -0.10318050278E+03 -0.40164359786E+03  0.43502666665E+03  0.12500168753E+03 0.  0.
          2    1    1    2  501    0 -0.87254869472E+02  0.36776367080E+02 -0.41051654596E+03  0.42129532151E+03  0.00000000000E+00 0. -1.
          1    1    1    2  502    0  0.12798548393E+03  0.66404135698E+02  0.13759706594E+04  0.13835046255E+04  0.00000000000E+00 0. -1.
         22    1    3    3    0    0 -0.37963225534E+02  0.12733403994E+02 -0.46136211934E+02  0.61089247186E+02  0.00000000000E+00 0.  1.
         22    1    3    3    0    0 -0.27673889224E+01 -0.11591390677E+03 -0.35550738593E+03  0.37393741946E+03  0.00000000000E+00 0.  1.
</event>
<event>
 7    1  0.6370239E-006  0.6339190E+02  0.7818608E-02  0.1416173E+00
          2   -1    0    0  502    0  0.00000000000E+00  0.00000000000E+00  0.11847336811E+04  0.11847336811E+04  0.00000000000E+00 0. -1.
          1   -1    0    0  501    0 -0.00000000000E+00 -0.00000000000E+00 -0.47911689931E+02  0.47911689931E+02  0.00000000000E+00 0. -1.
         25    2    1    2    0    0  0.87127601106E+02 -0.18965216794E+02  0.13220238394E+03  0.20261680587E+03  0.12500080550E+03 0.  0.
          2    1    1    2  501    0 -0.27897624512E+02  0.40508949559E+02  0.40124018450E+02  0.63475895459E+02  0.00000000000E+00 0. -1.
          1    1    1    2  502    0 -0.59229976594E+02 -0.21543732765E+02  0.96449558877E+03  0.96655266970E+03  0.00000000000E+00 0. -1.
         22    1    3    3    0    0  0.77807050540E+02 -0.65156715573E+02  0.64919481780E+02  0.12047353989E+03  0.00000000000E+00 0.  1.
         22    1    3    3    0    0  0.93205505661E+01  0.46191498779E+02  0.67282902162E+02  0.82143265979E+02  0.00000000000E+00 0.  1.
</event>
<event>
 7    1  0.6370239E-006  0.5170733E+02  0.7818608E-02  0.1479675E+00
          2   -1    0    0  502    0  0.00000000000E+00  0.00000000000E+00  0.27526179068E+04  0.27526179068E+04  0.00000000000E+00 0. -1.
          1   -1    0    0  501    0 -0.00000000000E+00 -0.00000000000E+00 -0.75900899250E+02  0.75900899250E+02  0.00000000000E+00 0. -1.
         25    2    1    2    0    0  0.29279600134E+02  0.81745417415E+02  0.17415296163E+03  0.23128962295E+03  0.12500410947E+03 0.  0.
          2    1    1    2  501    0 -0.21581040490E+02 -0.30922766365E+02 -0.39520827009E+02  0.54624669846E+02  0.00000000000E+00 0. -1.
          1    1    1    2  502    0 -0.76985596441E+01 -0.50822651050E+02  0.25420848729E+04  0.25426045132E+04  0.00000000000E+00 0. -1.
         22    1    3    3    0    0  0.27981905258E+02  0.70072905957E+02  0.19403981024E+03  0.20819377303E+03  0.00000000000E+00 0.  1.
         22    1    3    3    0    0  0.12976948762E+01  0.11672511457E+02 -0.19886848608E+02  0.23095849915E+02  0.00000000000E+00 0.  1.
</event>
<event>
 7    1  0.6370239E-006  0.4779193E+02  0.7818608E-02  0.1522380E+00
          2   -1    0    0  502    0  0.00000000000E+00  0.00000000000E+00  0.17108600857E+04  0.17108600857E+04  0.00000000000E+00 0. -1.
          1   -1    0    0  501    0 -0.00000000000E+00 -0.00000000000E+00 -0.60158102099E+02  0.60158102099E+02  0.00000000000E+00 0. -1.
         25    2    1    2    0    0  0.36090993660E+02 -0.32718857206E+02  0.36721980520E+03  0.39096018490E+03  0.12500558951E+03 0.  0.
          2    1    1    2  501    0 -0.26773727490E+02 -0.14470084028E+02 -0.43013058771E+02  0.52690976840E+02  0.00000000000E+00 0. -1.
          1    1    1    2  502    0 -0.93172661704E+01  0.47188941234E+02  0.13264952372E+04  0.13273670261E+04  0.00000000000E+00 0. -1.
         22    1    3    3    0    0 -0.25683635503E+02 -0.23096195373E+02  0.28789446099E+03  0.28995914202E+03  0.00000000000E+00 0.  1.
         22    1    3    3    0    0  0.61774629163E+02 -0.96226618330E+01  0.79325344210E+02  0.10100104288E+03  0.00000000000E+00 0.  1.
</event>
<event>
 7    1  0.6370239E-006  0.1015916E+03  0.7818608E-02  0.1337988E+00
          2   -1    0    0  502    0  0.00000000000E+00  0.00000000000E+00  0.39535152932E+03  0.39535152932E+03  0.00000000000E+00 0. -1.
          1   -1    0    0  501    0 -0.00000000000E+00 -0.00000000000E+00 -0.12339220615E+04  0.12339220615E+04  0.00000000000E+00 0. -1.
         25    2    1    2    0    0 -0.13703759172E+03 -0.62352475972E+02 -0.85810479844E+02  0.21367263247E+03  0.12500169044E+03 0.  0.
          2    1    1    2  501    0  0.58228937570E+02  0.18876083600E+01 -0.10759318687E+04  0.10775080316E+04  0.00000000000E+00 0. -1.
          1    1    1    2  502    0  0.78808654149E+02  0.60464867612E+02  0.32317181636E+03  0.33809292668E+03  0.00000000000E+00 0. -1.
         22    1    3    3    0    0 -0.57117510019E+02  0.35863296513E+02 -0.16968792920E+02  0.69545135852E+02  0.00000000000E+00 0.  1.
         22    1    3    3    0    0 -0.79920081700E+02 -0.98215772484E+02 -0.68841686924E+02  0.14412749662E+03  0.00000000000E+00 0.  1.
</event>
<event>
 7    1  0.6370239E-006  0.1845468E+03  0.7818608E-02  0.1291525E+00
          2   -1    0    0  502    0  0.00000000000E+00  0.00000000000E+00  0.86740609449E+03  0.86740609449E+03  0.00000000000E+00 0. -1.
          1   -1    0    0  501    0 -0.00000000000E+00 -0.00000000000E+00 -0.15287532821E+04  0.15287532821E+04  0.00000000000E+00 0. -1.
         25    2    1    2    0    0 -0.18265758404E+03 -0.12493619591E+03 -0.59105196737E+03  0.64338145918E+03  0.12499771127E+03 0.  0.
          2    1    1    2  501    0  0.13932744409E+03  0.10260870413E+03 -0.90260547273E+03  0.91904152368E+03  0.00000000000E+00 0. -1.
          1    1    1    2  502    0  0.43330139944E+02  0.22327491782E+02  0.83231025247E+03  0.83373639376E+03  0.00000000000E+00 0. -1.
         22    1    3    3    0    0 -0.14391969128E+03 -0.24638290864E+02 -0.36250931653E+03  0.39081060308E+03  0.00000000000E+00 0.  1.
         22    1    3    3    0    0 -0.38737892758E+02 -0.10029790504E+03 -0.22854265085E+03  0.25257085609E+03  0.00000000000E+00 0.  1.
</event>
<event>
 7    1  0.6370239E-006  0.8028547E+02  0.7818608E-02  0.1453943E+00
          2   -1    0    0  502    0  0.00000000000E+00  0.00000000000E+00  0.91175300125E+03  0.91175300125E+03  0.00000000000E+00 0. -1.
          1   -1    0    0  501    0 -0.00000000000E+00 -0.00000000000E+00 -0.18809467400E+04  0.18809467400E+04  0.00000000000E+00 0. -1.
         25    2    1    2    0    0  0.74062088096E+02  0.53344529947E+02 -0.60832957890E+02  0.16629852927E+03  0.12499488111E+03 0.  0.
          2    1    1    2  501    0 -0.26877119072E+02  0.11479235363E+02 -0.17653888895E+04  0.17656307891E+04  0.00000000000E+00 0. -1.
          1    1    1    2  502    0 -0.47184969024E+02 -0.64823765310E+02  0.85702810863E+03  0.86077042284E+03  0.00000000000E+00 0. -1.
         22    1    3    3    0    0 -0.17929413917E+02  0.42775361099E+02  0.12663783213E+02  0.48078756284E+02  0.00000000000E+00 0.  1.
         22    1    3    3    0    0  0.91991502013E+02  0.10569168849E+02 -0.73496741103E+02  0.11821977299E+03  0.00000000000E+00 0.  1.
</event>
<event>
 7    1  0.6370239E-006  0.6161749E+02  0.7818608E-02  0.1482349E+00
          2   -1    0    0  502    0  0.00000000000E+00  0.00000000000E+00  0.16366938267E+04  0.16366938267E+04  0.00000000000E+00 0. -1.
          1   -1    0    0  501    0 -0.00000000000E+00 -0.00000000000E+00 -0.34409092530E+02  0.34409092530E+02  0.00000000000E+00 0. -1.
         25    2    1    2    0    0  0.30376380849E+02 -0.77337134766E+02  0.60226424644E+03  0.62068631594E+03  0.12500209327E+03 0.  0.
          2    1    1    2  501    0  0.66814608072E+01  0.30325464020E+02 -0.14401596626E+02  0.34229835991E+02  0.00000000000E+00 0. -1.
          1    1    1    2  502    0 -0.37057841656E+02  0.47011670745E+02  0.10144220843E+04  0.10161867673E+04  0.00000000000E+00 0. -1.
         22    1    3    3    0    0 -0.29893179460E+02 -0.80767485796E+02  0.41819801629E+03  0.42697373429E+03  0.00000000000E+00 0. -1.
         22    1    3    3    0    0  0.60269560309E+02  0.34303510304E+01  0.18406623015E+03  0.19371258165E+03  0.00000000000E+00 0. -1.
</event>
<event>
 7    1  0.6370239E-006  0.1590824E+03  0.7818608E-02  0.1355933E+00
          2   -1    0    0  502    0  0.00000000000E+00  0.00000000000E+00  0.16511048089E+03  0.16511048089E+03  0.00000000000E+00 0. -1.
          1   -1    0    0  501    0 -0.00000000000E+00 -0.00000000000E+00 -0.11037786073E+04  0.11037786073E+04  0.00000000000E+00 0. -1.
         25    2    1    2    0    0  0.65705632226E+02  0.13474248965E+03 -0.14107072034E+03  0.24082968534E+03  0.12500088232E+03 0.  0.
          2    1    1    2  501    0 -0.23073788937E+02  0.22028784619E+02 -0.85511802880E+03  0.85571286672E+03  0.00000000000E+00 0. -1.
          1    1    1    2  502    0 -0.42631843288E+02 -0.15677127427E+03  0.57520622684E+02  0.17234653618E+03  0.00000000000E+00 0. -1.
         22    1    3    3    0    0  0.44323926351E+02 -0.12439296899E+02 -0.40251768477E+02  0.61151871762E+02  0.00000000000E+00 0.  1.
         22    1    3    3    0    0  0.21381705875E+02  0.14718178655E+03 -0.10081895186E+03  0.17967781358E+03  0.00000000000E+00 0.  1.
</event>
<event>
 7    1  0.6370239E-006  0.1692374E+03  0.7818608E-02  0.1403863E+00
          2   -1    0    0  502    0  0.00000000000E+00  0.00000000000E+00  0.15016410898E+04  0.15016410898E+04  0.00000000000E+00 0. -1.
          1   -1    0    0  501    0 -0.00000000000E+00 -0.00000000000E+00 -0.92148503180E+02  0.92148503180E+02  0.00000000000E+00 0. -1.
         25    2    1    2    0    0 -0.37898064178E+02  0.17169821966E+03  0.10493998478E+04  0.10713446646E+04  0.12499123170E+03 0.  0.
          2    1    1    2  501    0  0.17993214630E+02 -0.16780987519E+03  0.71533365226E+01  0.16892329681E+03  0.00000000000E+00 0. -1.
          1    1    1    2  502    0  0.19904849547E+02 -0.38883444740E+01  0.35293940235E+03  0.35352163158E+03  0.00000000000E+00 0. -1.
         22    1    3    3    0    0 -0.68018921727E+02  0.37676923397E+02  0.41877401045E+03  0.42593168009E+03  0.00000000000E+00 0. -1.
         22    1    3    3    0    0  0.30120857549E+02  0.13402129626E+03  0.63062583731E+03  0.64541298453E+03  0.00000000000E+00 0. -1.
</event>
<event>
 7    1  0.6370239E-006  0.5070360E+02  0.7818608E-02  0.1552683E+00
          2   -1    0    0  502    0  0.00000000000E+00  0.00000000000E+00  0.30278336329E+03  0.30278336329E+03  0.00000000000E+00 0. -1.
          1   -1    0    0  501    0 -0.00000000000E+00 -0.00000000000E+00 -0.10666515262E+04  0.10666515262E+04  0.00000000000E+00 0. -1.
         25    2    1    2    0    0 -0.48709708163E+02 -0.50386844784E+02 -0.60505268991E+02  0.15555614555E+03  0.12500142818E+03 0.  0.
          2    1    1    2  501    0  0.26355433142E+02  0.43025178977E+02 -0.95741261245E+03  0.95874119832E+03  0.00000000000E+00 0. -1.
          1    1    1    2  502    0  0.22354275021E+02  0.73616658076E+01  0.25404971850E+03  0.25513754566E+03  0.00000000000E+00 0. -1.
         22    1    3    3    0    0 -0.45641486894E+02  0.18972446504E+02 -0.69779994798E+02  0.85512260678E+02  0.00000000000E+00 0.  1.
         22    1    3    3    0    0 -0.30682212693E+01 -0.69359291288E+02  0.92747258072E+01  0.70043884876E+02  0.00000000000E+00 0.  1.
</event>
<event>
 7    1  0.6370239E-006  0.1534237E+03  0.7818608E-02  0.1266195E+00
          2   -1    0    0  502    0  0.00000000000E+00  0.00000000000E+00  0.58098832074E+03  0.58098832074E+03  0.00000000000E+00 0. -1.
          1   -1    0    0  501    0 -0.00000000000E+00 -0.00000000000E+00 -0.27638526068E+03  0.27638526068E+03  0.00000000000E+00 0. -1.
         25    2    1    2    0    0  0.10380277433E+03  0.81852523167E+02 -0.78195440051E+02  0.19802599859E+03  0.12499967106E+03 0.  0.
          2    1    1    2  501    0 -0.90800030417E+02 -0.15535927455E+03 -0.75401699060E+02  0.19510655020E+03  0.00000000000E+00 0. -1.
          1    1    1    2  502    0 -0.13002743914E+02  0.73506751380E+02  0.45820019918E+03  0.46424103263E+03  0.00000000000E+00 0. -1.
         22    1    3    3    0    0  0.14179672054E+02 -0.32848046602E+02 -0.21949908793E+02  0.41974465585E+02  0.00000000000E+00 0.  1.
         22    1    3    3    0    0  0.89623102276E+02  0.11470056977E+03 -0.56245531257E+02  0.15605153301E+03  0.00000000000E+00 0.  1.
</event>
<event>
 7    1  0.6370239E-006  0.3295567E+02  0.7818608E-02  0.1576729E+00
          2   -1    0    0  502    0  0.00000000000E+00  0.00000000000E+00  0.97460438153E+03  0.97460438153E+03  0.00000000000E+00 0. -1.
          1   -1    0    0  501    0 -0.00000000000E+00 -0.00000000000E+00 -0.43037292345E+03  0.43037292345E+03  0.00000000000E+00 0. -1.
         25    2    1    2    0    0 -0.34997620330E+02 -0.20274691938E+02 -0.23029595246E+03  0.26513599600E+03  0.12499989639E+03 0.  0.
          2    1    1    2  501    0  0.37902076352E+01  0.30888480277E+02 -0.18104517724E+03  0.18370035408E+03  0.00000000000E+00 0. -1.
          1    1    1    2  502    0  0.31207412695E+02 -0.10613788339E+02  0.95557258778E+03  0.95614095489E+03  0.00000000000E+00 0. -1.
         22    1    3    3    0    0  0.14386596310E+01 -0.41891890356E+02 -0.13201626808E+02  0.43946366966E+02  0.00000000000E+00 0. -1.
         22    1    3    3    0    0 -0.36436279961E+02  0.21617198417E+02 -0.21709432565E+03  0.22118962904E+03  0.00000000000E+00 0. -1.
</event>
<event>
 7    1  0.6370239E-006  0.1082075E+03  0.7818608E-02  0.1345055E+00
          2   -1    0    0  502    0  0.00000000000E+00  0.00000000000E+00  0.27281515934E+03  0.27281515934E+03  0.00000000000E+00 0. -1.
          1   -1    0    0  501    0 -0.00000000000E+00 -0.00000000000E+00 -0.12029495268E+04  0.12029495268E+04  0.00000000000E+00 0. -1.
         25    2    1    2    0    0 -0.13043585340E+03 -0.85272771128E+02 -0.17826650522E+03  0.26774808144E+03  0.12500052354E+03 0.  0.
          2    1    1    2  501    0  0.83686575358E+02  0.63771693772E+02 -0.97417068885E+03  0.97983611019E+03  0.00000000000E+00 0. -1.
          1    1    1    2  502    0  0.46749278040E+02  0.21501077357E+02  0.22230282664E+03  0.22818049447E+03  0.00000000000E+00 0. -1.
         22    1    3    3    0    0 -0.12278086694E+03 -0.93736248784E+02 -0.90063946189E+02  0.17881034653E+03  0.00000000000E+00 0.  1.
         22    1    3    3    0    0 -0.76549864543E+01  0.84634776558E+01 -0.88202559030E+02  0.88937734911E+02  0.00000000000E+00 0.  1.
</event>
<event>
 7    1  0.6370239E-006  0.9993681E+02  0.7818608E-02  0.1335257E+00
          2   -1    0    0  502    0  0.00000000000E+00  0.00000000000E+00  0.14084585295E+04  0.14084585295E+04  0.00000000000E+00 0. -1.
          1   -1    0    0  501    0 -0.00000000000E+00 -0.00000000000E+00 -0.29778833705E+03  0.29778833705E+03  0.00000000000E+00 0. -1.
         25    2    1    2    0    0 -0.54207183357E+02  0.55607779345E+02  0.71978091703E+03  0.73467075367E+03  0.12500361561E+03 0.  0.
          2    1    1    2  501    0  0.17147432977E+02  0.58174628354E+02 -0.28183740513E+03  0.28828916867E+03  0.00000000000E+00 0. -1.
          1    1    1    2  502    0  0.37059750380E+02 -0.11378240770E+03  0.67272668055E+03  0.68328694421E+03  0.00000000000E+00 0. -1.
         22    1    3    3    0    0  0.37818436223E+02  0.21311109666E+02  0.13823789382E+03  0.14489345327E+03  0.00000000000E+00 0.  1.
         22    1    3    3    0    0 -0.92025619580E+02  0.34296669680E+02  0.58154302322E+03  0.58977730039E+03  0.00000000000E+00 0.  1.
</event>
<event>
 7    1  0.6370239E-006  0.4136338E+02  0.7818608E-02  0.1583969E+00
          2   -1    0    0  502    0  0.00000000000E+00  0.00000000000E+00  0.62648904089E+03  0.62648904089E+03  0.00000000000E+00 0. -1.
          1   -1    0    0  501    0 -0.00000000000E+00 -0.00000000000E+00 -0.99611637117E+03  0.99611637117E+03  0.00000000000E+00 0. -1.
         25    2    1    2    0    0 -0.24833408561E+02 -0.30914441691E+02 -0.24721731250E+03  0.27984252928E+03  0.12499216259E+03 0.  0.
          2    1    1    2  501    0  0.21345296827E+02 -0.10324195269E+02 -0.73169242617E+03  0.73207651050E+03  0.00000000000E+00 0. -1.
          1    1    1    2  502    0  0.34881117331E+01  0.41238636961E+02  0.60928240840E+03  0.61068637228E+03  0.00000000000E+00 0. -1.
         22    1    3    3    0    0  0.36918142482E+02  0.27534281563E+02 -0.83211563741E+02  0.95106520521E+02  0.00000000000E+00 0. -1.
         22    1    3    3    0    0 -0.61751551042E+02 -0.58448723254E+02 -0.16400574876E+03  0.18473600876E+03  0.00000000000E+00 0. -1.
</event>
<event>
 7    1  0.6370239E-006  0.6451831E+02  0.7818608E-02  0.1463329E+00
          2   -1    0    0  502    0  0.00000000000E+00  0.00000000000E+00  0.53860039198E+03  0.53860039198E+03  0.00000000000E+00 0. -1.
          1   -1    0    0  501    0 -0.00000000000E+00 -0.00000000000E+00 -0.29992373383E+03  0.29992373383E+03  0.00000000000E+00 0. -1.
         25    2    1    2    0    0  0.61971687356E+02  0.45959104643E+02 -0.21609173454E+03  0.26128909174E+03  0.12499448944E+03 0.  0.
          2    1    1    2  501    0 -0.32078510364E+02  0.11168003614E+02 -0.54327750637E+02  0.64072299953E+02  0.00000000000E+00 0. -1.
          1    1    1    2  502    0 -0.29893176992E+02 -0.57127108257E+02  0.50909614333E+03  0.51316273412E+03  0.00000000000E+00 0. -1.
         22    1    3    3    0    0  0.52154042884E+02 -0.45899859098E+00 -0.14421653520E+02  0.54113205035E+02  0.00000000000E+00 0. -1.
         22    1    3    3    0    0  0.98176444717E+01  0.46418103234E+02 -0.20167008103E+03  0.20717588670E+03  0.00000000000E+00 0. -1.
</event>
<event>
 7    1  0.6370239E-006  0.6115728E+02  0.7818608E-02  0.1443226E+00
          2   -1    0    0  502    0  0.00000000000E+00  0.00000000000E+00  0.25791946870E+04  0.25791946870E+04  0.00000000000E+00 0. -1.
          1   -1    0    0  501    0 -0.00000000000E+00 -0.00000000000E+00 -0.25011495918E+03  0.25011495918E+03  0.00000000000E+00 0. -1.
         25    2    1    2    0    0  0.79689571605E+02  0.61262969400E+02  0.96692427490E+02  0.18729052189E+03  0.12499893926E+03 0.  0.
          2    1    1    2  501    0 -0.51411985157E+02 -0.30853327560E+02 -0.20024667969E+03  0.20903074598E+03  0.00000000000E+00 0. -1.
          1    1    1    2  502    0 -0.28277586448E+02 -0.30409641840E+02  0.24326339800E+04  0.24329883783E+04  0.00000000000E+00 0. -1.
         22    1    3    3    0    0  0.13525369176E+02  0.37612695529E+02 -0.24730821481E+02  0.47002808506E+02  0.00000000000E+00 0. -1.
         22    1    3    3    0    0  0.66164202429E+02  0.23650273871E+02  0.12142324897E+03  0.14028771339E+03  0.00000000000E+00 0. -1.
</event>
<event>
 7    1  0.6370239E-006  0.5177429E+02  0.7818608E-02  0.1512157E+00
          2   -1    0    0  502    0  0.00000000000E+00  0.00000000000E+00  0.14303434381E+03  0.14303434381E+03  0.00000000000E+00 0. -1.
          1   -1    0    0  501    0 -0.00000000000E+00 -0.00000000000E+00 -0.18066245082E+04  0.18066245082E+04  0.00000000000E+00 0. -1.
         25    2    1    2    0    0 -0.21995442600E+02 -0.62742700285E+01 -0.49802579416E+03  0.51398333552E+03  0.12500404626E+03 0.  0.
          2    1    1    2  501    0 -0.29955969490E+02  0.28170794580E+01 -0.12954206349E+04  0.12957700095E+04  0.00000000000E+00 0. -1.
          1    1    1    2  502    0  0.51951412090E+02  0.34571905704E+01  0.12985626475E+03  0.13990550697E+03  0.00000000000E+00 0. -1.
         22    1    3    3    0    0 -0.52260598577E+02  0.68294962493E+01 -0.87588070291E+02  0.10222270902E+03  0.00000000000E+00 0.  1.
         22    1    3    3    0    0  0.30265155978E+02 -0.13103766278E+02 -0.41043772387E+03  0.41176062650E+03  0.00000000000E+00 0.  1.
</event>
<event>
 7    1  0.6370239E-006  0.1356497E+03  0.7818608E-02  0.1324941E+00
          2   -1    0    0  502    0  0.00000000000E+00  0.00000000000E+00  0.17958727968E+04  0.17958727968E+04  0.00000000000E+00 0. -1.
          1   -1    0    0  501    0 -0.00000000000E+00 -0.00000000000E+00 -0.11407647581E+03  0.11407647581E+03  0.00000000000E+00 0. -1.
         25    2    1    2    0    0 -0.10530214806E+03 -0.28447012922E+01  0.13526457950E+03  0.21216958379E+03  0.12499116412E+03 0.  0.
          2    1    1    2  501    0  0.14742054348E+03 -0.22050642700E+02 -0.14077421234E+01  0.14906719700E+03  0.00000000000E+00 0. -1.
          1    1    1    2  502    0 -0.42118395415E+02  0.24895343992E+02  0.15479394836E+04  0.15487124918E+04  0.00000000000E+00 0. -1.
         22    1    3    3    0    0 -0.56948521357E+02  0.55659307459E+02  0.36468645819E+02  0.87584557540E+02  0.00000000000E+00 0. -1.
         22    1    3    3    0    0 -0.48353626706E+02 -0.58504008751E+02  0.98795933677E+02  0.12458502625E+03  0.00000000000E+00 0. -1.
</event>
<event>
 7    1  0.6370239E-006  0.7939178E+02  0.7818608E-02  0.1391350E+00
          2   -1    0    0  502    0  0.00000000000E+00  0.00000000000E+00  0.82146640858E+02  0.82146640858E+02  0.00000000000E+00 0. -1.
          1   -1    0    0  501    0 -0.00000000000E+00 -0.00000000000E+00 -0.12394795706E+04  0.12394795706E+04  0.00000000000E+00 0. -1.
         25    2    1    2    0    0 -0.17578066383E+02  0.32711039049E+02 -0.25085985266E+03  0.28273084428E+03  0.12500825629E+03 0.  0.
          2    1    1    2  501    0 -0.35334941553E+02  0.32120225066E+02 -0.94539728542E+03  0.94660250065E+03  0.00000000000E+00 0. -1.
          1    1    1    2  502    0  0.52913007936E+02 -0.64831264115E+02  0.38924208342E+02  0.92292866521E+02  0.00000000000E+00 0. -1.
         22    1    3    3    0    0 -0.15632641949E+01 -0.12142343426E+02 -0.23068117832E+03  0.23100581450E+03  0.00000000000E+00 0. -1.
         22    1    3    3    0    0 -0.16014802188E+02  0.44853382476E+02 -0.20178674334E+02  0.51725029787E+02  0.00000000000E+00 0. -1.
</event>
<event>
 7    1  0.6370239E-006  0.1025705E+03  0.7818608E-02  0.1307084E+00
          2   -1    0    0  502    0  0.00000000000E+00  0.00000000000E+00  0.32933122393E+03  0.32933122393E+03  0.00000000000E+00 0. -1.
          1   -1    0    0  501    0 -0.00000000000E+00 -0.00000000000E+00 -0.34180742522E+03  0.34180742522E+03  0.00000000000E+00 0. -1.
         25    2    1    2    0    0 -0.13634388736E+02  0.43959601750E+02 -0.45473671819E+02  0.14071680661E+03  0.12496008040E+03 0.  0.
          2    1    1    2  501    0  0.57679915711E+02 -0.10586042779E+03 -0.22837000631E+03  0.25823683438E+03  0.00000000000E+00 0. -1.
          1    1    1    2  502    0 -0.44045526975E+02  0.61900826039E+02  0.26136747684E+03  0.27218500815E+03  0.00000000000E+00 0. -1.
         22    1    3    3    0    0 -0.62434527323E+02  0.54910668789E+02 -0.29088334344E+02  0.88087359728E+02  0.00000000000E+00 0.  1.
         22    1    3    3    0    0  0.48800138587E+02 -0.10951067039E+02 -0.16385337475E+02  0.52629446887E+02  0.00000000000E+00 0.  1.
</event>
<event>
 7    1  0.6370239E-006  0.6794469E+02  0.7818608E-02  0.1370923E+00
          2   -1    0    0  502    0  0.00000000000E+00  0.00000000000E+00  0.12289376096E+04  0.12289376096E+04  0.00000000000E+00 0. -1.
          1   -1    0    0  501    0 -0.00000000000E+00 -0.00000000000E+00 -0.14697935859E+04  0.14697935859E+04  0.00000000000E+00 0. -1.
         25    2    1    2    0    0 -0.46860056297E+02  0.24438681652E+02  0.21358327867E+03  0.25305810778E+03  0.12500989940E+03 0.  0.
          2    1    1    2  501    0 -0.63158459408E+01 -0.67650510876E+02 -0.14480797631E+04  0.14496728878E+04  0.00000000000E+00 0. -1.
          1    1    1    2  502    0  0.53175902238E+02  0.43211829224E+02  0.99364050809E+03  0.99600019984E+03  0.00000000000E+00 0. -1.
         22    1    3    3    0    0  0.37776458914E+01 -0.42679892481E+02  0.11914855552E+03  0.12661841143E+03  0.00000000000E+00 0.  1.
         22    1    3    3    0    0 -0.50637702189E+02  0.67118574133E+02  0.94434723146E+02  0.12643969635E+03  0.00000000000E+00 0.  1.
</event>
<event>
 7    1  0.6370239E-006  0.1588821E+03  0.7818608E-02  0.1221419E+00
          2   -1    0    0  502    0  0.00000000000E+00  0.00000000000E+00  0.79043588561E+03  0.79043588561E+03  0.00000000000E+00 0. -1.
          1   -1    0    0  501    0 -0.00000000000E+00 -0.00000000000E+00 -0.14187253369E+03  0.14187253369E+03  0.00000000000E+00 0. -1.
         25    2    1    2    0    0  0.10963392697E+03 -0.13561696024E+02  0.21028702407E+03  0.26842003086E+03  0.12500065174E+03 0.  0.
          2    1    1    2  501    0  0.72824959012E+02  0.86762062512E+02 -0.60033631486E+02  0.12819971551E+03  0.00000000000E+00 0. -1.
          1    1    1    2  502    0 -0.18245888598E+03 -0.73200366488E+02  0.49830995934E+03  0.53568867293E+03  0.00000000000E+00 0. -1.
         22    1    3    3    0    0 -0.14636508913E+02 -0.90825722659E+01  0.10225473817E+03  0.10369547720E+03  0.00000000000E+00 0.  1.
         22    1    3    3    0    0  0.12427043589E+03 -0.44791237579E+01  0.10803228589E+03  0.16472455366E+03  0.00000000000E+00 0.  1.
</event>
<event>
 7    1  0.6370239E-006  0.7735645E+02  0.7818608E-02  0.1436808E+00
          2   -1    0    0  502    0  0.00000000000E+00  0.00000000000E+00  0.20360739401E+04  0.20360739401E+04  0.00000000000E+00 0. -1.
          1   -1    0    0  501    0 -0.00000000000E+00 -0.00000000000E+00 -0.72297102198E+03  0.72297102198E+03  0.00000000000E+00 0. -1.
         25    2    1    2    0    0 -0.42374133070E+02  0.62246175924E+02 -0.30819372434E+03  0.34099841721E+03  0.12500558085E+03 0.  0.
          2    1    1    2  501    0  0.68557681680E+02 -0.39869685656E+02 -0.39427923596E+03  0.40217640839E+03  0.00000000000E+00 0. -1.
          1    1    1    2  502    0 -0.26183548610E+02 -0.22376490268E+02  0.20155758784E+04  0.20158701365E+04  0.00000000000E+00 0. -1.
         22    1    3    3    0    0 -0.44885248491E+02  0.96580143177E+02 -0.18909169542E+03  0.21702091804E+03  0.00000000000E+00 0. -1.
         22    1    3    3    0    0  0.25111154204E+01 -0.34333967253E+02 -0.11910202892E+03  0.12397749917E+03  0.00000000000E+00 0. -1.
</event>
<event>
 7    1  0.6370239E-006  0.8015185E+02  0.7818608E-02  0.1474711E+00
          2   -1    0    0  502    0  0.00000000000E+00  0.00000000000E+00  0.45734386919E+03  0.45734386919E+03  0.00000000000E+00 0. -1.
          1   -1    0    0  501    0 -0.00000000000E+00 -0.00000000000E+00 -0.60959181973E+02  0.60959181973E+02  0.00000000000E+00 0. -1.
         25    2    1    2    0    0  0.89474457065E+01 -0.58160535057E+02  0.24686736651E+03  0.28289758042E+03  0.12499935895E+03 0.  0.
          2    1    1    2  501    0 -0.66713452520E+01  0.83255794341E+02 -0.26022589838E+00  0.83523061823E+02  0.00000000000E+00 0. -1.
          1    1    1    2  502    0 -0.22761004544E+01 -0.25095259284E+02  0.14977754660E+03  0.15188240892E+03  0.00000000000E+00 0. -1.
         22    1    3    3    0    0 -0.26613013868E+01 -0.14201748298E+01 -0.14694286700E+02  0.15000716091E+02  0.00000000000E+00 0. -1.
         22    1    3    3    0    0  0.11608747093E+02 -0.56740360227E+02  0.26156165321E+03  0.26789686433E+03  0.00000000000E+00 0. -1.
</event>
<event>
 7    1  0.6370239E-006  0.3083508E+03  0.7818608E-02  0.1240918E+00
          2   -1    0    0  502    0  0.00000000000E+00  0.00000000000E+00  0.27551746192E+04  0.27551746192E+04  0.00000000000E+00 0. -1.
          1   -1    0    0  501    0 -0.00000000000E+00 -0.00000000000E+00 -0.23990274160E+04  0.23990274160E+04  0.00000000000E+00 0. -1.
         25    2    1    2    0    0  0.27126041086E+03  0.17454476234E+03  0.41946916814E+03  0.54371392381E+03  0.12498945300E+03 0.  0.
          2    1    1    2  501    0 -0.28041664286E+03 -0.12768967298E+03 -0.23264958001E+04  0.23468107836E+04  0.00000000000E+00 0. -1.
          1    1    1    2  502    0  0.91562319997E+01 -0.46855089357E+02  0.22631738352E+04  0.22636773278E+04  0.00000000000E+00 0. -1.
         22    1    3    3    0    0  0.92890591498E+01  0.12039065511E+02 -0.76021394085E+01  0.17000536516E+02  0.00000000000E+00 0.  1.
         22    1    3    3    0    0  0.26197135171E+03  0.16250569683E+03  0.42707130755E+03  0.52671338729E+03  0.00000000000E+00 0.  1.
</event>
<event>
 7    1  0.6370239E-006  0.5763335E+02  0.7818608E-02  0.1529015E+00
          2   -1    0    0  502    0  0.00000000000E+00  0.00000000000E+00  0.18807572318E+03  0.18807572318E+03  0.00000000000E+00 0. -1.
          1   -1    0    0  501    0 -0.00000000000E+00 -0.00000000000E+00 -0.65471237256E+02  0.65471237256E+02  0.00000000000E+00 0. -1.
         25    2    1    2    0    0 -0.39936900846E+01 -0.43995264571E+02  0.63425437817E+02  0.14694709740E+03  0.12497651942E+03 0.  0.
          2    1    1    2  501    0  0.14762263993E+02 -0.19112906730E+02  0.21376047958E+02  0.32251559159E+02  0.00000000000E+00 0. -1.
          1    1    1    2  502    0 -0.10768573908E+02  0.63108171301E+02  0.37803000145E+02  0.74348303874E+02  0.00000000000E+00 0. -1.
         22    1    3    3    0    0 -0.12314671247E+01 -0.87874585118E+02  0.35023437190E+02  0.94604970131E+02  0.00000000000E+00 0. -1.
         22    1    3    3    0    0 -0.27622229599E+01  0.43879320547E+02  0.28402000627E+02  0.52342127268E+02  0.00000000000E+00 0. -1.
</event>
<event>
 7    1  0.6370239E-006  0.1161140E+03  0.7818608E-02  0.1404868E+00
          2   -1    0    0  502    0  0.00000000000E+00  0.00000000000E+00  0.12493442233E+03  0.12493442233E+03  0.00000000000E+00 0. -1.
          1   -1    0    0  501    0 -0.00000000000E+00 -0.00000000000E+00 -0.44209991828E+03  0.44209991828E+03  0.00000000000E+00 0. -1.
         25    2    1    2    0    0 -0.84494491356E+02  0.95653619069E+02 -0.85435341570E+02  0.19802298054E+03  0.12499987729E+03 0.  0.
          2    1    1    2  501    0  0.29186827765E+02  0.28645510404E+01 -0.25244840270E+03  0.25414616384E+03  0.00000000000E+00 0. -1.
          1    1    1    2  502    0  0.55307663591E+02 -0.98518170109E+02  0.20718248321E+02  0.11486519624E+03  0.00000000000E+00 0. -1.
         22    1    3    3    0    0 -0.29003369149E+02  0.10540053964E+02  0.30827360011E+02  0.43618967030E+02  0.00000000000E+00 0.  1.
         22    1    3    3    0    0 -0.55491122207E+02  0.85113565105E+02 -0.11626270158E+03  0.15440401351E+03  0.00000000000E+00 0.  1.
</event>
<event>
 7    1  0.6370239E-006  0.6340726E+02  0.7818608E-02  0.1412189E+00
          2   -1    0    0  502    0  0.00000000000E+00  0.00000000000E+00  0.92901402230E+03  0.92901402230E+03  0.00000000000E+00 0. -1.
          1   -1    0    0  501    0 -0.00000000000E+00 -0.00000000000E+00 -0.25029733793E+03  0.25029733793E+03  0.00000000000E+00 0. -1.
         25    2    1    2    0    0  0.43541034509E+02  0.45608193637E+02  0.50956026637E+03  0.52844404066E+03  0.12500204010E+03 0.  0.
          2    1    1    2  501    0  0.24484121411E+02 -0.44415339026E+02 -0.23531262289E+03  0.24071606725E+03  0.00000000000E+00 0. -1.
          1    1    1    2  502    0 -0.68025155920E+02 -0.11928546105E+01  0.40446904089E+03  0.41015125232E+03  0.00000000000E+00 0. -1.
         22    1    3    3    0    0  0.39210438546E+01  0.83947931761E+02  0.33522015368E+03  0.34559395432E+03  0.00000000000E+00 0.  1.
         22    1    3    3    0    0  0.39619990654E+02 -0.38339738125E+02  0.17434011269E+03  0.18285008633E+03  0.00000000000E+00 0.  1.
</event>
<event>
 7    1  0.6370239E-006  0.3570056E+02  0.7818608E-02  0.1595025E+00
          2   -1    0    0  502    0  0.00000000000E+00  0.00000000000E+00  0.88860476551E+01  0.88860476551E+01  0.00000000000E+00 0. -1.
          1   -1    0    0  501    0 -0.00000000000E+00 -0.00000000000E+00 -0.11000936321E+04  0.11000936321E+04  0.00000000000E+00 0. -1.
         25    2    1    2    0    0  0.51535570022E+01 -0.17013663665E+02 -0.65376945034E+03  0.66585015578E+03  0.12500364738E+03 0.  0.
          2    1    1    2  501    0 -0.84242394697E+01 -0.24259658200E+02 -0.24170427063E+03  0.24306471004E+03  0.00000000000E+00 0. -1.
          1    1    1    2  502    0  0.32706824675E+01  0.41273321866E+02 -0.19573386344E+03  0.20006481390E+03  0.00000000000E+00 0. -1.
         22    1    3    3    0    0  0.17690997539E+02  0.38012871395E+02 -0.50496750954E+03  0.50670517609E+03  0.00000000000E+00 0.  1.
         22    1    3    3    0    0 -0.12537440537E+02 -0.55026535060E+02 -0.14880194080E+03  0.15914497969E+03  0.00000000000E+00 0.  1.
</event>
<event>
 7    1  0.6370239E-006  0.1404753E+03  0.7818608E-02  0.1222515E+00
          2   -1    0    0  502    0  0.00000000000E+00  0.00000000000E+00  0.92309343676E+03  0.92309343676E+03  0.00000000000E+00 0. -1.
          1   -1    0    0  501    0 -0.00000000000E+00 -0.00000000000E+00 -0.27025639774E+04  0.27025639774E+04  0.00000000000E+00 0. -1.
         25    2    1    2    0    0 -0.38403768763E+02  0.18015636926E+03 -0.11646427104E+04  0.11857271818E+04  0.12500055972E+03 0.  0.
          2    1    1    2  501    0  0.11405362141E+03 -0.78574001914E+02 -0.15198202256E+04  0.15261178265E+04  0.00000000000E+00 0. -1.
          1    1    1    2  502    0 -0.75649852649E+02 -0.10158236735E+03  0.90499239531E+03  0.91381240588E+03  0.00000000000E+00 0. -1.
         22    1    3    3    0    0 -0.56928301784E+01 -0.34422851455E+00 -0.37552910432E+03  0.37557240979E+03  0.00000000000E+00 0.  1.
         22    1    3    3    0    0 -0.32710938585E+02  0.18050059778E+03 -0.78911360608E+03  0.81015477200E+03  0.00000000000E+00 0.  1.
</event>
<event>
 7    1  0.6370239E-006  0.5964212E+02  0.7818608E-02  0.1478138E+00
          2   -1    0    0  502    0  0.00000000000E+00  0.00000000000E+00  0.88892932001E+03  0.88892932001E+03  0.00000000000E+00 0. -1.
          1   -1    0    0  501    0 -0.00000000000E+00 -0.00000000000E+00 -0.73556201322E+03  0.73556201322E+03  0.00000000000E+00 0. -1.
         25    2    1    2    0    0 -0.86951266253E+02  0.13719614553E+02 -0.99566045766E+02  0.18244899363E+03  0.12500194910E+03 0.  0.
          2    1    1    2  501    0  0.54757333239E+02 -0.21190928263E+02 -0.59278136411E+03  0.59568210198E+03  0.00000000000E+00 0. -1.
          1    1    1    2  502    0  0.32193933014E+02  0.74713137099E+01  0.84571471666E+03  0.84636023762E+03  0.00000000000E+00 0. -1.
         22    1    3    3    0    0 -0.51613012878E+02  0.59102810948E+02 -0.97148281026E+02  0.12487927717E+03  0.00000000000E+00 0. -1.
         22    1    3    3    0    0 -0.35338253375E+02 -0.45383196395E+02 -0.24177647402E+01  0.57569716457E+02  0.00000000000E+00 0. -1.
</event>
<event>
 7    1  0.6370239E-006  0.1124545E+03  0.7818608E-02  0.1337651E+00
          2   -1    0    0  502    0  0.00000000000E+00  0.00000000000E+00  0.18908459059E+04  0.18908459059E+04  0.00000000000E+00 0. -1.
          1   -1    0    0  501    0 -0.00000000000E+00 -0.00000000000E+00 -0.35980514400E+03  0.35980514400E+03  0.00000000000E+00 0. -1.
         25    2    1    2    0    0 -0.94802663030E+02 -0.24809590835E+02  0.90361950812E+03  0.91747274215E+03  0.12499982562E+03 0.  0.
          2    1    1    2  501    0  0.10971062166E+03 -0.25827452755E+02 -0.34314311832E+03  0.36117956403E+03  0.00000000000E+00 0. -1.
          1    1    1    2  502    0 -0.14907958634E+02  0.50637043590E+02  0.97056437211E+03  0.97199874374E+03  0.00000000000E+00 0. -1.
         22    1    3    3    0    0  0.21916652373E+02 -0.14757977024E+02  0.57484337441E+02  0.63265998673E+02  0.00000000000E+00 0.  1.
         22    1    3    3    0    0 -0.11671931540E+03 -0.10051613811E+02  0.84613517068E+03  0.85420674347E+03  0.00000000000E+00 0.  1.
</event>
<event>
 7    1  0.6370239E-006  0.9632023E+02  0.7818608E-02  0.1298478E+00
          2   -1    0    0  502    0  0.00000000000E+00  0.00000000000E+00  0.36426692696E+03  0.36426692696E+03  0.00000000000E+00 0. -1.
          1   -1    0    0  501    0 -0.00000000000E+00 -0.00000000000E+00 -0.73692246222E+03  0.73692246222E+03  0.00000000000E+00 0. -1.
         25    2    1    2    0    0  0.12039217866E+02  0.69983617616E+02  0.14388124159E+02  0.14448265284E+03  0.12500227739E+03 0.  0.
          2    1    1    2  501    0 -0.87524414184E+02  0.21286721003E+01 -0.65931781097E+03  0.66510527752E+03  0.00000000000E+00 0. -1.
          1    1    1    2  502    0  0.75485196318E+02 -0.72112289716E+02  0.27227415154E+03  0.29160145883E+03  0.00000000000E+00 0. -1.
         22    1    3    3    0    0  0.55471160723E+02  0.31160315830E+02  0.45709898201E+02  0.78341622067E+02  0.00000000000E+00 0. -1.
         22    1    3    3    0    0 -0.43431942857E+02  0.38823301786E+02 -0.31321774042E+02  0.66141030768E+02  0.00000000000E+00 0. -1.
</event>
<event>
 7    1  0.6370239E-006  0.9286088E+02  0.7818608E-02  0.1299400E+00
          2   -1    0    0  502    0  0.00000000000E+00  0.00000000000E+00  0.95498294767E+03  0.95498294767E+03  0.00000000000E+00 0. -1.
          1   -1    0    0  501    0 -0.00000000000E+00 -0.00000000000E+00 -0.51701100853E+03  0.51701100853E+03  0.00000000000E+00 0. -1.
         25    2    1    2    0    0  0.27507013322E+02 -0.68881038202E+01  0.28306605419E+03  0.31073646002E+03  0.12500669899E+03 0.  0.
          2    1    1    2  501    0  0.79360335949E+02 -0.42538443476E+02 -0.49380526278E+03  0.50194742717E+03  0.00000000000E+00 0. -1.
          1    1    1    2  502    0 -0.10686734927E+03  0.49426547297E+02  0.64871114773E+03  0.65931006901E+03  0.00000000000E+00 0. -1.
         22    1    3    3    0    0 -0.43849560404E+02  0.16960570524E+02  0.15738080652E+03  0.16425335053E+03  0.00000000000E+00 0.  1.
         22    1    3    3    0    0  0.71356573726E+02 -0.23848674344E+02  0.12568524767E+03  0.14648310949E+03  0.00000000000E+00 0.  1.
</event>
<event>
 7    1  0.6370239E-006  0.1009909E+03  0.7818608E-02  0.1342190E+00
          2   -1    0    0  502    0  0.00000000000E+00  0.00000000000E+00  0.52417392843E+03  0.52417392843E+03  0.00000000000E+00 0. -1.
          1   -1    0    0  501    0 -0.00000000000E+00 -0.00000000000E+00 -0.40323427192E+03  0.40323427192E+03  0.00000000000E+00 0. -1.
         25    2    1    2    0    0  0.41637355108E+02  0.12137803528E+03  0.18105585337E+03  0.25470421303E+03  0.12500686903E+03 0.  0.
          2    1    1    2  501    0  0.10643248721E+02 -0.99924113088E+02 -0.35680265549E+03  0.37068347965E+03  0.00000000000E+00 0. -1.
          1    1    1    2  502    0 -0.52280603830E+02 -0.21453922192E+02  0.29668645864E+03  0.30202050767E+03  0.00000000000E+00 0. -1.
         22    1    3    3    0    0 -0.11068301334E+02  0.12544791876E+02 -0.16229510535E+02  0.23308284146E+02  0.00000000000E+00 0.  1.
         22    1    3    3    0    0  0.52705656443E+02  0.10883324340E+03  0.19728536390E+03  0.23139592888E+03  0.00000000000E+00 0.  1.
</event>
<event>
 7    1  0.6370239E-006  0.9249172E+02  0.7818608E-02  0.1431082E+00
          2   -1    0    0  502    0  0.00000000000E+00  0.00000000000E+00  0.20728614494E+03  0.20728614494E+03  0.00000000000E+00 0. -1.
          1   -1    0    0  501    0 -0.00000000000E+00 -0.00000000000E+00 -0.45939931272E+03  0.45939931272E+03  0.00000000000E+00 0. -1.
         25    2    1    2    0    0  0.88452284120E+02 -0.28775915282E+02  0.66282576281E+02  0.16932003847E+03  0.12499614251E+03 0.  0.
          2    1    1    2  501    0 -0.13078381478E+02 -0.27084648953E+02 -0.38253729182E+03  0.38371786758E+03  0.00000000000E+00 0. -1.
          1    1    1    2  502    0 -0.75373902642E+02  0.55860564235E+02  0.64141547761E+02  0.11364755160E+03  0.00000000000E+00 0. -1.
         22    1    3    3    0    0  0.10494232433E+03  0.12731912141E+02  0.25286332008E+02  0.10869402748E+03  0.00000000000E+00 0.  1.
         22    1    3    3    0    0 -0.16490040215E+02 -0.41507827423E+02  0.40996244273E+02  0.60626010987E+02  0.00000000000E+00 0.  1.
</event>
<event>
 7    1  0.6370239E-006  0.1181077E+03  0.7818608E-02  0.1249152E+00
          2   -1    0    0  502    0  0.00000000000E+00  0.00000000000E+00  0.12605337422E+04  0.12605337422E+04  0.00000000000E+00 0. -1.
          1   -1    0    0  501    0 -0.00000000000E+00 -0.00000000000E+00 -0.42021654429E+03  0.42021654429E+03  0.00000000000E+00 0. -1.
         25    2    1    2    0    0 -0.88174973605E+01  0.23275658929E+02 -0.51712280494E+01  0.12755621238E+03  0.12499736461E+03 0.  0.
          2    1    1    2  501    0  0.93880371698E+02  0.65937445430E+02 -0.34127735495E+03  0.36004375276E+03  0.00000000000E+00 0. -1.
          1    1    1    2  502    0 -0.85062874337E+02 -0.89213104359E+02  0.11867657809E+04  0.11931503213E+04  0.00000000000E+00 0. -1.
         22    1    3    3    0    0 -0.33438994568E+02 -0.38722663621E+02 -0.26372563866E+02  0.57559735584E+02  0.00000000000E+00 0.  1.
         22    1    3    3    0    0  0.24621497207E+02  0.61998322550E+02  0.21201335817E+02  0.69996476798E+02  0.00000000000E+00 0.  1.
</event>
<event>
 7    1  0.6370239E-006  0.2086923E+03  0.7818608E-02  0.1285609E+00
          2   -1    0    0  502    0  0.00000000000E+00  0.00000000000E+00  0.10473759019E+04  0.10473759019E+04  0.00000000000E+00 0. -1.
          1   -1    0    0  501    0 -0.00000000000E+00 -0.00000000000E+00 -0.11229073583E+04  0.11229073583E+04  0.00000000000E+00 0. -1.
         25    2    1    2    0    0 -0.23832817430E+03 -0.77563229958E+01  0.95474303747E+02  0.28565855093E+03  0.12499994332E+03 0.  0.
          2    1    1    2  501    0  0.34411280015E+02  0.29868292178E+02 -0.10150212895E+04  0.10160435371E+04  0.00000000000E+00 0. -1.
          1    1    1    2  502    0  0.20391689429E+03 -0.22111969182E+02  0.84401552934E+03  0.86858117221E+03  0.00000000000E+00 0. -1.
         22    1    3    3    0    0 -0.70787087682E+02 -0.54354495901E+02  0.44088252367E+01  0.89356928926E+02  0.00000000000E+00 0. -1.
         22    1    3    3    0    0 -0.16754108662E+03  0.46598172905E+02  0.91065478511E+02  0.19630162200E+03  0.00000000000E+00 0. -1.
</event>
<event>
 7    1  0.6370239E-006  0.1582544E+03  0.7818608E-02  0.1332080E+00
          2   -1    0    0  502    0  0.00000000000E+00  0.00000000000E+00  0.43250596203E+03  0.43250596203E+03  0.00000000000E+00 0. -1.
          1   -1    0    0  501    0 -0.00000000000E+00 -0.00000000000E+00 -0.45651672817E+03  0.45651672817E+03  0.00000000000E+00 0. -1.
         25    2    1    2    0    0 -0.15835995855E+03  0.43390040638E+02 -0.39590095718E+03  0.44645620606E+03  0.12500001574E+03 0.  0.
          2    1    1    2  501    0  0.11968185838E+03 -0.50786126399E+02  0.90438426120E+02  0.15837325146E+03  0.00000000000E+00 0. -1.
          1    1    1    2  502    0  0.38678100176E+02  0.73960857612E+01  0.28145176492E+03  0.28419323267E+03  0.00000000000E+00 0. -1.
         22    1    3    3    0    0 -0.68695428942E+02 -0.41685151640E+02 -0.19018752055E+03  0.20646550995E+03  0.00000000000E+00 0. -1.
         22    1    3    3    0    0 -0.89664529613E+02  0.85075192278E+02 -0.20571343663E+03  0.23999069612E+03  0.00000000000E+00 0. -1.
</event>
<event>
 7    1  0.6370239E-006  0.1681690E+03  0.7818608E-02  0.1225670E+00
          2   -1    0    0  502    0  0.00000000000E+00  0.00000000000E+00  0.19018610600E+04  0.19018610600E+04  0.00000000000E+00 0. -1.
          1   -1    0    0  501    0 -0.00000000000E+00 -0.00000000000E+00 -0.18206865614E+03  0.18206865614E+03  0.00000000000E+00 0. -1.
         25    2    1    2    0    0 -0.16964393831E+03 -0.15088286024E+03  0.61155777534E+03  0.66420827255E+03  0.12500005370E+03 0.  0.
          2    1    1    2  501    0  0.67269646164E+02  0.15104996108E+03 -0.10909253243E+03  0.19809713947E+03  0.00000000000E+00 0. -1.
          1    1    1    2  502    0  0.10237429214E+03 -0.16710083227E+00  0.12173271609E+04  0.12216243041E+04  0.00000000000E+00 0. -1.
         22    1    3    3    0    0 -0.14506601299E+03 -0.96126589397E+02  0.29913477635E+03  0.34607236778E+03  0.00000000000E+00 0. -1.
         22    1    3    3    0    0 -0.24577925316E+02 -0.54756270847E+02  0.31242299898E+03  0.31813590477E+03  0.00000000000E+00 0. -1.
</event>
<event>
 7    1  0.6370239E-006  0.2177501E+03  0.7818608E-02  0.1250457E+00
          2   -1    0    0  502    0  0.00000000000E+00  0.00000000000E+00  0.11695141559E+04  0.11695141559E+04  0.00000000000E+00 0. -1.
          1   -1    0    0  501    0 -0.00000000000E+00 -0.00000000000E+00 -0.58316029097E+03  0.58316029097E+03  0.00000000000E+00 0. -1.
         25    2    1    2    0    0 -0.85502255850E+02  0.14151535047E+03  0.35305855597E+02  0.21025791783E+03  0.12499863359E+03 0.  0.
          2    1    1    2  501    0 -0.16290208524E+02  0.59219837407E+02 -0.48161269972E+03  0.48551328774E+03  0.00000000000E+00 0. -1.
          1    1    1    2  502    0  0.10179246437E+03 -0.20073518787E+03  0.10326607090E+04  0.10569032413E+04  0.00000000000E+00 0. -1.
         22    1    3    3    0    0 -0.73441475023E+02  0.22985983016E+02 -0.19088777526E+02  0.79286739725E+02  0.00000000000E+00 0. -1.
         22    1    3    3    0    0 -0.12060780827E+02  0.11852936745E+03  0.54394633123E+02  0.13097117811E+03  0.00000000000E+00 0. -1.
</event>
<event>
 7    1  0.6370239E-006  0.5015220E+02  0.7818608E-02  0.1517850E+00
          2   -1    0    0  502    0  0.00000000000E+00  0.00000000000E+00  0.12735702448E+04  0.12735702448E+04  0.00000000000E+00 0. -1.
          1   -1    0    0  501    0 -0.00000000000E+00 -0.00000000000E+00 -0.11279868808E+03  0.11279868808E+03  0.00000000000E+00 0. -1.
         25    2    1    2    0    0 -0.88126716547E+01 -0.28887319092E+02 -0.18707786393E+02  0.12995309880E+03  0.12500274489E+03 0.  0.
          2    1    1    2  501    0 -0.29684546153E+02 -0.35273496099E+01 -0.32058406477E+02  0.43833273907E+02  0.00000000000E+00 0. -1.
          1    1    1    2  502    0  0.38497217808E+02  0.32414668702E+02  0.12115377496E+04  0.12125825602E+04  0.00000000000E+00 0. -1.
         22    1    3    3    0    0  0.55542216032E+02  0.50764156273E+00 -0.20427742624E+02  0.59181822635E+02  0.00000000000E+00 0.  1.
         22    1    3    3    0    0 -0.64354887687E+02 -0.29394960654E+02  0.17199562313E+01  0.70771276168E+02  0.00000000000E+00 0.  1.
</event>
<event>
 7    1  0.6370239E-006  0.1220034E+03  0.7818608E-02  0.1399141E+00
          2   -1    0    0  502    0  0.00000000000E+00  0.00000000000E+00  0.48025010604E+03  0.48025010604E+03  0.00000000000E+00 0. -1.
          1   -1    0    0  501    0 -0.00000000000E+00 -0.00000000000E+00 -0.21865521260E+04  0.21865521260E+04  0.00000000000E+00 0. -1.
         25    2    1    2    0    0 -0.69509141425E+02  0.69233301662E+02 -0.51929460530E+03  0.54306232464E+03  0.12500012218E+03 0.  0.
          2    1    1    2  501    0  0.85989550182E+02 -0.93340880694E+02 -0.16524829327E+04  0.16573492588E+04  0.00000000000E+00 0. -1.
          1    1    1    2  502    0 -0.16480408757E+02  0.24107579032E+02  0.46547551803E+03  0.46639064863E+03  0.00000000000E+00 0. -1.
         22    1    3    3    0    0 -0.51684226325E+02  0.29138435358E+02 -0.70571298589E+02  0.92198784431E+02  0.00000000000E+00 0. -1.
         22    1    3    3    0    0 -0.17824915100E+02  0.40094866304E+02 -0.44872330671E+03  0.45086354021E+03  0.00000000000E+00 0. -1.
</event>
<event>
 7    1  0.6370239E-006  0.4449673E+02  0.7818608E-02  0.1492665E+00
          2   -1    0    0  502    0  0.00000000000E+00  0.00000000000E+00  0.14251898953E+03  0.14251898953E+03  0.00000000000E+00 0. -1.
          1   -1    0    0  501    0 -0.00000000000E+00 -0.00000000000E+00 -0.18668442083E+04  0.18668442083E+04  0.00000000000E+00 0. -1.
         25    2    1    2    0    0  0.12942739896E+02  0.77883022616E+02 -0.66268793678E+03  0.67897932733E+03  0.12499738261E+03 0.  0.
          2    1    1    2  501    0  0.85195834060E+01 -0.39091460795E+02 -0.11920091592E+04  0.11926804103E+04  0.00000000000E+00 0. -1.
          1    1    1    2  502    0 -0.21462323302E+02 -0.38791561821E+02  0.13037187718E+03  0.13770346019E+03  0.00000000000E+00 0. -1.
         22    1    3    3    0    0 -0.10844425539E+01  0.30018686038E+02 -0.24274801374E+02  0.38620765255E+02  0.00000000000E+00 0. -1.
         22    1    3    3    0    0  0.14027182449E+02  0.47864336577E+02 -0.63841313540E+03  0.64035856207E+03  0.00000000000E+00 0. -1.
</event>
<event>
 7    1  0.6370239E-006  0.1620990E+03  0.7818608E-02  0.1381593E+00
          2   -1    0    0  502    0  0.00000000000E+00  0.00000000000E+00  0.58893153179E+03  0.58893153179E+03  0.00000000000E+00 0. -1.
          1   -1    0    0  501    0 -0.00000000000E+00 -0.00000000000E+00 -0.14505255543E+03  0.14505255543E+03  0.00000000000E+00 0. -1.
         25    2    1    2    0    0  0.40964973903E+02 -0.13914285042E+03  0.15456971156E+03  0.24608086310E+03  0.12500053418E+03 0.  0.
          2    1    1    2  501    0  0.15037453749E+02 -0.20353124816E+02 -0.78838760790E+02  0.82800512728E+02  0.00000000000E+00 0. -1.
          1    1    1    2  502    0 -0.56002427652E+02  0.15949597524E+03  0.36814802560E+03  0.40510271139E+03  0.00000000000E+00 0. -1.
         22    1    3    3    0    0 -0.41462356087E+02 -0.67023314628E+02  0.43177850757E+02  0.89864222425E+02  0.00000000000E+00 0.  1.
         22    1    3    3    0    0  0.82427329989E+02 -0.72119535796E+02  0.11139186080E+03  0.15621664068E+03  0.00000000000E+00 0.  1.
</event>
<event>
 7    1  0.6370239E-006  0.8417794E+02  0.7818608E-02  0.1358789E+00
          2   -1    0    0  502    0  0.00000000000E+00  0.00000000000E+00  0.17714998996E+04  0.17714998996E+04  0.00000000000E+00 0. -1.
          1   -1    0    0  501    0 -0.00000000000E+00 -0.00000000000E+00 -0.22546797633E+03  0.22546797633E+03  0.00000000000E+00 0. -1.
         25    2    1    2    0    0  0.67039860731E+02  0.29560680078E+02  0.83266390452E+03  0.84517652074E+03  0.12500398628E+03 0.  0.
          2    1    1    2  501    0 -0.33171151252E+02 -0.77690109521E+02 -0.21010171088E+03  0.22644824422E+03  0.00000000000E+00 0. -1.
          1    1    1    2  502    0 -0.33868709479E+02  0.48129429443E+02  0.92346972964E+03  0.92534311097E+03  0.00000000000E+00 0. -1.
         22    1    3    3    0    0 -0.16468580395E+01  0.55834335888E+01  0.62695143953E+03  0.62697846406E+03  0.00000000000E+00 0.  1.
         22    1    3    3    0    0  0.68686718771E+02  0.23977246490E+02  0.20571246499E+03  0.21819805667E+03  0.00000000000E+00 0.  1.
</event>
<event>
 7    1  0.6370239E-006  0.8451040E+02  0.7818608E-02  0.1351989E+00
          2   -1    0    0  502    0  0.00000000000E+00  0.00000000000E+00  0.30798597402E+03  0.30798597402E+03  0.00000000000E+00 0. -1.
          1   -1    0    0  501    0 -0.00000000000E+00 -0.00000000000E+00 -0.43374484424E+03  0.43374484424E+03  0.00000000000E+00 0. -1.
         25    2    1    2    0    0  0.94394812086E+01 -0.49954270003E+02 -0.50722889559E+02  0.14416836409E+03  0.12500869082E+03 0.  0.
          2    1    1    2  501    0 -0.71255499070E+02  0.55807187421E+02 -0.32636203247E+03  0.33867973744E+03  0.00000000000E+00 0. -1.
          1    1    1    2  502    0  0.61816017861E+02 -0.58529174177E+01  0.25132605180E+03  0.25888271673E+03  0.00000000000E+00 0. -1.
         22    1    3    3    0    0 -0.56800457203E+01  0.14160340442E+01 -0.81963664467E+02  0.82172442855E+02  0.00000000000E+00 0.  1.
         22    1    3    3    0    0  0.15119526929E+02 -0.51370304047E+02  0.31240774908E+02  0.61995921231E+02  0.00000000000E+00 0.  1.
</event>
<event>
 7    1  0.6370239E-006  0.7269129E+02  0.7818608E-02  0.1372210E+00
          2   -1    0    0  502    0  0.00000000000E+00  0.00000000000E+00  0.40966890012E+03  0.40966890012E+03  0.00000000000E+00 0. -1.
          1   -1    0    0  501    0 -0.00000000000E+00 -0.00000000000E+00 -0.43318497544E+03  0.43318497544E+03  0.00000000000E+00 0. -1.
         25    2    1    2    0    0 -0.74438276650E+01  0.12031109260E+02 -0.74136264796E+02  0.14602095823E+03  0.12500310526E+03 0.  0.
          2    1    1    2  501    0 -0.44274400911E+02  0.41873778785E+02 -0.31643684153E+03  0.32225131590E+03  0.00000000000E+00 0. -1.
          1    1    1    2  502    0  0.51718228576E+02 -0.53904888045E+02  0.36705703100E+03  0.37458160143E+03  0.00000000000E+00 0. -1.
         22    1    3    3    0    0  0.43996378100E+02 -0.34642371274E+02 -0.27744229983E+02  0.62494139491E+02  0.00000000000E+00 0. -1.
         22    1    3    3    0    0 -0.51440205765E+02  0.46673480534E+02 -0.46392034813E+02  0.83526818737E+02  0.00000000000E+00 0. -1.
</event>
<event>
 7    1  0.6370239E-006  0.1338406E+03  0.7818608E-02  0.1260053E+00
          2   -1    0    0  502    0  0.00000000000E+00  0.00000000000E+00  0.39448525551E+03  0.39448525551E+03  0.00000000000E+00 0. -1.
          1   -1    0    0  501    0 -0.00000000000E+00 -0.00000000000E+00 -0.89804280188E+03  0.89804280188E+03  0.00000000000E+00 0. -1.
         25    2    1    2    0    0  0.16113251892E+03 -0.62710056831E+02 -0.70193601720E+03  0.73364549354E+03  0.12500119223E+03 0.  0.
          2    1    1    2  501    0 -0.70987845289E+02  0.74139326325E+02 -0.15948608117E+03  0.18966213110E+03  0.00000000000E+00 0. -1.
          1    1    1    2  502    0 -0.90144673631E+02 -0.11429269493E+02  0.35786455200E+03  0.36922043276E+03  0.00000000000E+00 0. -1.
         22    1    3    3    0    0  0.10032506043E+03  0.24209004949E+02 -0.27498392112E+03  0.29371304115E+03  0.00000000000E+00 0. -1.
         22    1    3    3    0    0  0.60807458494E+02 -0.86919061781E+02 -0.42695209609E+03  0.43993245239E+03  0.00000000000E+00 0. -1.
</event>
<event>
 7    1  0.6370239E-006  0.5187305E+02  0.7818608E-02  0.1448019E+00
          2   -1    0    0  502    0  0.00000000000E+00  0.00000000000E+00  0.66223256685E+03  0.66223256685E+03  0.00000000000E+00 0. -1.
          1   -1    0    0  501    0 -0.00000000000E+00 -0.00000000000E+00 -0.19033812311E+03  0.19033812311E+03  0.00000000000E+00 0. -1.
         25    2    1    2    0    0 -0.29569441991E+02 -0.75182460950E+02  0.14936076592E+03  0.21085797951E+03  0.12500277913E+03 0.  0.
          2    1    1    2  501    0 -0.12182819469E+02  0.45651126074E+02 -0.15469599238E+03  0.16175072322E+03  0.00000000000E+00 0. -1.
          1    1    1    2  502    0  0.41752261460E+02  0.29531334876E+02  0.47722967020E+03  0.47996198724E+03  0.00000000000E+00 0. -1.
         22    1    3    3    0    0 -0.63891274577E+02 -0.59109827508E+02  0.41295832340E+02  0.96340087418E+02  0.00000000000E+00 0. -1.
         22    1    3    3    0    0  0.34321832586E+02 -0.16072633443E+02  0.10806493358E+03  0.11451789209E+03  0.00000000000E+00 0. -1.
</event>
<event>
 7    1  0.6370239E-006  0.8895313E+02  0.7818608E-02  0.1363138E+00
          2   -1    0    0  502    0  0.00000000000E+00  0.00000000000E+00  0.17784942938E+04  0.17784942938E+04  0.00000000000E+00 0. -1.
          1   -1    0    0  501    0 -0.00000000000E+00 -0.00000000000E+00 -0.12589488421E+03  0.12589488421E+03  0.00000000000E+00 0. -1.
         25    2    1    2    0    0  0.92179264888E+02 -0.28817023790E+02  0.70964499468E+03  0.72701354629E+03  0.12500096114E+03 0.  0.
          2    1    1    2  501    0 -0.54776225612E+01  0.53416833664E+02 -0.10903115713E+03  0.12153664342E+03  0.00000000000E+00 0. -1.
          1    1    1    2  502    0 -0.86701642327E+02 -0.24599809874E+02  0.10519855720E+04  0.10558389883E+04  0.00000000000E+00 0. -1.
         22    1    3    3    0    0  0.58612506120E+02 -0.53765887255E+02  0.64586407951E+03  0.65074311807E+03  0.00000000000E+00 0.  1.
         22    1    3    3    0    0  0.33566758768E+02  0.24948863465E+02  0.63780915167E+02  0.76270428227E+02  0.00000000000E+00 0.  1.
</event>
<event>
 7    1  0.6370239E-006  0.1136511E+03  0.7818608E-02  0.1366195E+00
          2   -1    0    0  502    0  0.00000000000E+00  0.00000000000E+00  0.28615417892E+03  0.28615417892E+03  0.00000000000E+00 0. -1.
          1   -1    0    0  501    0 -0.00000000000E+00 -0.00000000000E+00 -0.20008772713E+04  0.20008772713E+04  0.00000000000E+00 0. -1.
         25    2    1    2    0    0  0.10006645677E+03 -0.22148130167E+02 -0.13264268524E+03  0.20910311709E+03  0.12500478467E+03 0.  0.
          2    1    1    2  501    0 -0.38102226186E+01 -0.40791918008E+02 -0.18164234761E+04  0.18168854512E+04  0.00000000000E+00 0. -1.
          1    1    1    2  502    0 -0.96256234154E+02  0.62940048175E+02  0.23434306890E+03  0.26104288195E+03  0.00000000000E+00 0. -1.
         22    1    3    3    0    0  0.28194352551E+01 -0.41188408495E+02  0.26871392546E+01  0.41372151586E+02  0.00000000000E+00 0. -1.
         22    1    3    3    0    0  0.97247021517E+02  0.19040278328E+02 -0.13532982449E+03  0.16773096551E+03  0.00000000000E+00 0. -1.
</event>
<event>
 7    1  0.6370239E-006  0.8428057E+02  0.7818608E-02  0.1348827E+00
          2   -1    0    0  502    0  0.00000000000E+00  0.00000000000E+00  0.14205693377E+04  0.14205693377E+04  0.00000000000E+00 0. -1.
          1   -1    0    0  501    0 -0.00000000000E+00 -0.00000000000E+00 -0.74720672260E+02  0.74720672260E+02  0.00000000000E+00 0. -1.
         25    2    1    2    0    0 -0.14015599344E+03 -0.14892816509E+02  0.31659391632E+03  0.36840428158E+03  0.12499803340E+03 0.  0.
          2    1    1    2  501    0  0.59549080687E+02  0.23349119419E+02 -0.25619030053E+02  0.68902896088E+02  0.00000000000E+00 0. -1.
          1    1    1    2  502    0  0.80606912752E+02 -0.84563029100E+01  0.10548737792E+04  0.10579828323E+04  0.00000000000E+00 0. -1.
         22    1    3    3    0    0 -0.78094780547E+02 -0.70376988857E+02  0.17888150762E+03  0.20748568403E+03  0.00000000000E+00 0. -1.
         22    1    3    3    0    0 -0.62061212892E+02  0.55484172348E+02  0.13771240870E+03  0.16091859755E+03  0.00000000000E+00 0. -1.
</event>
<event>
 7    1  0.6370239E-006  0.7675322E+02  0.7818608E-02  0.1380946E+00
          2   -1    0    0  502    0  0.00000000000E+00  0.00000000000E+00  0.58081305947E+03  0.58081305947E+03  0.00000000000E+00 0. -1.
          1   -1    0    0  501    0 -0.00000000000E+00 -0.00000000000E+00 -0.16099189697E+03  0.16099189697E+03  0.00000000000E+00 0. -1.
         25    2    1    2    0    0  0.14689603359E+02  0.46010343156E+02  0.12582603915E+03  0.18381959750E+03  0.12499886469E+03 0.  0.
          2    1    1    2  501    0  0.53721670943E+02 -0.70514316141E+00 -0.12235281282E+03  0.13362906106E+03  0.00000000000E+00 0. -1.
          1    1    1    2  502    0 -0.68411274302E+02 -0.45305199995E+02  0.41634793617E+03  0.42435629788E+03  0.00000000000E+00 0. -1.
         22    1    3    3    0    0 -0.22504627251E+02 -0.36797635762E+02  0.43778360372E+02  0.61457864283E+02  0.00000000000E+00 0. -1.
         22    1    3    3    0    0  0.37194230610E+02  0.82807978918E+02  0.82047678776E+02  0.12236173322E+03  0.00000000000E+00 0. -1.
</event>
<event>
 7    1  0.6588674E-006  0.7444876E+02  0.7818608E-02  0.1400039E+00
          2   -1    0    0  502    0  0.00000000000E+00  0.00000000000E+00  0.86450089971E+03  0.86450089971E+03  0.00000000000E+00 0. -1.
          1   -1    0    0  501    0 -0.00000000000E+00 -0.00000000000E+00 -0.82099809485E+03  0.82099809485E+03  0.00000000000E+00 0. -1.
         25    2    1    2    0    0  0.62186628122E+02  0.98323561158E+02 -0.34847235846E+03  0.38806197518E+03  0.12499765029E+03 0.  0.
          2    1    1    2  501    0 -0.35057562879E+02 -0.59312987375E+02 -0.44943538500E+03  0.45468585691E+03  0.00000000000E+00 0. -1.
          1    1    1    2  502    0 -0.27129065243E+02 -0.39010573782E+02  0.84141054831E+03  0.84275116247E+03  0.00000000000E+00 0. -1.
         22    1    3    3    0    0 -0.32134270337E+02  0.33633320313E+02 -0.49342575957E+02  0.67812250865E+02  0.00000000000E+00 0.  1.
         22    1    3    3    0    0  0.94320898459E+02  0.64690240844E+02 -0.29912978250E+03  0.32024972432E+03  0.00000000000E+00 0.  1.
</event>
<event>
 7    1  0.6370239E-006  0.7694629E+02  0.7818608E-02  0.1467498E+00
          2   -1    0    0  502    0  0.00000000000E+00  0.00000000000E+00  0.34543357906E+02  0.34543357906E+02  0.00000000000E+00 0. -1.
          1   -1    0    0  501    0 -0.00000000000E+00 -0.00000000000E+00 -0.93911508687E+03  0.93911508687E+03  0.00000000000E+00 0. -1.
         25    2    1    2    0    0 -0.60934618685E+02 -0.69880414693E+01 -0.53927243134E+03  0.55695848351E+03  0.12500454659E+03 0.  0.
          2    1    1    2  501    0  0.85670811820E+02 -0.53388724683E+01 -0.37702874596E+03  0.38667643688E+03  0.00000000000E+00 0. -1.
          1    1    1    2  502    0 -0.24736193134E+02  0.12326913938E+02  0.11729448343E+02  0.30023524384E+02  0.00000000000E+00 0. -1.
         22    1    3    3    0    0 -0.33371322168E+02  0.39986356398E+02 -0.44536553401E+03  0.44840050482E+03  0.00000000000E+00 0.  1.
         22    1    3    3    0    0 -0.27563296518E+02 -0.46974397868E+02 -0.93906897340E+02  0.10855797869E+03  0.00000000000E+00 0.  1.
</event>
<event>
 7    1  0.6370239E-006  0.8064653E+02  0.7818608E-02  0.1371849E+00
          2   -1    0    0  502    0  0.00000000000E+00  0.00000000000E+00  0.23341840676E+03  0.23341840676E+03  0.00000000000E+00 0. -1.
          1   -1    0    0  501    0 -0.00000000000E+00 -0.00000000000E+00 -0.10481929153E+04  0.10481929153E+04  0.00000000000E+00 0. -1.
         25    2    1    2    0    0  0.85524719905E+02  0.63123269213E+02 -0.12221753563E+03  0.20460300954E+03  0.12500496256E+03 0.  0.
          2    1    1    2  501    0 -0.31456181503E+02 -0.73694113926E+02 -0.87897518389E+03  0.88261978659E+03  0.00000000000E+00 0. -1.
          1    1    1    2  502    0 -0.54068538401E+02  0.10570844712E+02  0.18641821101E+03  0.19438852590E+03  0.00000000000E+00 0. -1.
         22    1    3    3    0    0 -0.70895534684E+01  0.42730388361E+01 -0.89804983620E+02  0.90185673543E+02  0.00000000000E+00 0.  1.
         22    1    3    3    0    0  0.92614273373E+02  0.58850230377E+02 -0.32412552010E+02  0.11441733599E+03  0.00000000000E+00 0.  1.
</event>
<event>
 7    1  0.6370239E-006  0.1820833E+03  0.7818608E-02  0.1352886E+00
          2   -1    0    0  502    0  0.00000000000E+00  0.00000000000E+00  0.58920411546E+03  0.58920411546E+03  0.00000000000E+00 0. -1.
          1   -1    0    0  501    0 -0.00000000000E+00 -0.00000000000E+00 -0.44966419744E+03  0.44966419744E+03  0.00000000000E+00 0. -1.
         25    2    1    2    0    0  0.91133304348E+02  0.18462927206E+03  0.14666939938E+02  0.24131507123E+03  0.12499838884E+03 0.  0.
          2    1    1    2  501    0 -0.54274552959E+01 -0.28080438342E+02 -0.31840926843E+03  0.31969114862E+03  0.00000000000E+00 0. -1.
          1    1    1    2  502    0 -0.85705849052E+02 -0.15654883372E+03  0.44328224651E+03  0.47786209305E+03  0.00000000000E+00 0. -1.
         22    1    3    3    0    0  0.56971118946E+02  0.17125505894E+03  0.53150721931E+02  0.18814622730E+03  0.00000000000E+00 0.  1.
         22    1    3    3    0    0  0.34162185401E+02  0.13374213118E+02 -0.38483781993E+02  0.53168843926E+02  0.00000000000E+00 0.  1.
</event>
<event>
 7    1  0.6370239E-006  0.7132953E+02  0.7818608E-02  0.1434058E+00
          2   -1    0    0  502    0  0.00000000000E+00  0.00000000000E+00  0.81040380044E+03  0.81040380044E+03  0.00000000000E+00 0. -1.
          1   -1    0    0  501    0 -0.00000000000E+00 -0.00000000000E+00 -0.46268747457E+03  0.46268747457E+03  0.00000000000E+00 0. -1.
         25    2    1    2    0    0 -0.89010226896E+02 -0.11185264158E+02 -0.69127502791E+02  0.16867357857E+03  0.12499693532E+03 0.  0.
          2    1    1    2  501    0  0.67517064719E+02 -0.20313840801E+02 -0.33968661524E+03  0.34692679736E+03  0.00000000000E+00 0. -1.
          1    1    1    2  502    0  0.21493162177E+02  0.31499104958E+02  0.75653044390E+03  0.75749089908E+03  0.00000000000E+00 0. -1.
         22    1    3    3    0    0 -0.10299840083E+03 -0.35434980630E+02 -0.18024125844E+02  0.11040460832E+03  0.00000000000E+00 0.  1.
         22    1    3    3    0    0  0.13988173935E+02  0.24249716472E+02 -0.51103376947E+02  0.58268970253E+02  0.00000000000E+00 0.  1.
</event>
<event>
 7    1  0.6370239E-006  0.6256997E+02  0.7818608E-02  0.1410572E+00
          2   -1    0    0  502    0  0.00000000000E+00  0.00000000000E+00  0.39414343847E+03  0.39414343847E+03  0.00000000000E+00 0. -1.
          1   -1    0    0  501    0 -0.00000000000E+00 -0.00000000000E+00 -0.16001488468E+03  0.16001488468E+03  0.00000000000E+00 0. -1.
         25    2    1    2    0    0 -0.23240085799E+02 -0.18586749070E+02  0.15206668860E+03  0.19907727319E+03  0.12498765575E+03 0.  0.
          2    1    1    2  501    0 -0.49363796793E+02  0.16495751328E+02 -0.12513206084E+03  0.13552463575E+03  0.00000000000E+00 0. -1.
          1    1    1    2  502    0  0.72603882592E+02  0.20909977421E+01  0.20719392603E+03  0.21955641421E+03  0.00000000000E+00 0. -1.
         22    1    3    3    0    0  0.14340711952E+02 -0.46795326178E+02  0.14310153420E+03  0.15123990103E+03  0.00000000000E+00 0.  1.
         22    1    3    3    0    0 -0.37580797750E+02  0.28208577108E+02  0.89651543924E+01  0.47837372162E+02  0.00000000000E+00 0.  1.
</event>
<event>
 7    1  0.6370239E-006  0.1087463E+03  0.7818608E-02  0.1287631E+00
          2   -1    0    0  502    0  0.00000000000E+00  0.00000000000E+00  0.75746103582E+03  0.75746103582E+03  0.00000000000E+00 0. -1.
          1   -1    0    0  501    0 -0.00000000000E+00 -0.00000000000E+00 -0.32557027433E+03  0.32557027433E+03  0.00000000000E+00 0. -1.
         25    2    1    2    0    0 -0.10136630289E+03 -0.16252257897E+03  0.25841595963E+03  0.34509892303E+03  0.12500296976E+03 0.  0.
          2    1    1    2  501    0  0.60027647818E+02  0.87343048406E+02 -0.26800187951E+03  0.28819634631E+03  0.00000000000E+00 0. -1.
          1    1    1    2  502    0  0.41338655071E+02  0.75179530568E+02  0.44147668136E+03  0.44973604081E+03  0.00000000000E+00 0. -1.
         22    1    3    3    0    0 -0.84596991614E+02 -0.13356405556E+03  0.26722813836E+03  0.31049458266E+03  0.00000000000E+00 0.  1.
         22    1    3    3    0    0 -0.16769311275E+02 -0.28958523414E+02 -0.88121787272E+01  0.34604340376E+02  0.00000000000E+00 0.  1.
</event>
<event>
 7    1  0.1057094E-005  0.1188316E+03  0.7818608E-02  0.1320514E+00
          2   -1    0    0  502    0  0.00000000000E+00  0.00000000000E+00  0.16891812438E+04  0.16891812438E+04  0.00000000000E+00 0. -1.
          1   -1    0    0  501    0 -0.00000000000E+00 -0.00000000000E+00 -0.11319501605E+04  0.11319501605E+04  0.00000000000E+00 0. -1.
         25    2    1    2    0    0 -0.42296720964E+02 -0.78239859563E+02 -0.23756380826E+03  0.28279239504E+03  0.12499794985E+03 0.  0.
          2    1    1    2  501    0 -0.56820562671E+02  0.12096097709E+02 -0.86867060865E+03  0.87061100284E+03  0.00000000000E+00 0. -1.
          1    1    1    2  502    0  0.99117283635E+02  0.66143761854E+02  0.16634655002E+04  0.16677280065E+04  0.00000000000E+00 0. -1.
         22    1    3    3    0    0 -0.43008036818E+02 -0.55927366928E+02 -0.34554523032E+02  0.78559383045E+02  0.00000000000E+00 0. -1.
         22    1    3    3    0    0  0.71131585374E+00 -0.22312492634E+02 -0.20300928523E+03  0.20423301199E+03  0.00000000000E+00 0. -1.
</event>
<event>
 7    1  0.6370239E-006  0.5828605E+02  0.7818608E-02  0.1415657E+00
          2   -1    0    0  502    0  0.00000000000E+00  0.00000000000E+00  0.72958468003E+03  0.72958468003E+03  0.00000000000E+00 0. -1.
          1   -1    0    0  501    0 -0.00000000000E+00 -0.00000000000E+00 -0.19831805872E+04  0.19831805872E+04  0.00000000000E+00 0. -1.
         25    2    1    2    0    0 -0.43149672838E+02 -0.66438337573E+02 -0.45996573700E+02  0.15498060251E+03  0.12500942123E+03 0.  0.
          2    1    1    2  501    0  0.52951313617E+02  0.89855932058E+01 -0.18810500539E+04  0.18818166457E+04  0.00000000000E+00 0. -1.
          1    1    1    2  502    0 -0.98016407792E+01  0.57452744367E+02  0.67345072043E+03  0.67596801910E+03  0.00000000000E+00 0. -1.
         22    1    3    3    0    0 -0.69430725248E+02  0.58228860899E+01 -0.32625303062E+02  0.76934660660E+02  0.00000000000E+00 0.  1.
         22    1    3    3    0    0  0.26281052410E+02 -0.72261223663E+02 -0.13371270638E+02  0.78045941851E+02  0.00000000000E+00 0.  1.
</event>
<event>
 7    1  0.6370239E-006  0.9267293E+02  0.7818608E-02  0.1317324E+00
          2   -1    0    0  502    0  0.00000000000E+00  0.00000000000E+00  0.42817128237E+03  0.42817128237E+03  0.00000000000E+00 0. -1.
          1   -1    0    0  501    0 -0.00000000000E+00 -0.00000000000E+00 -0.55281096180E+03  0.55281096180E+03  0.00000000000E+00 0. -1.
         25    2    1    2    0    0  0.91490050760E+02  0.13224872854E+03 -0.26583714667E+03  0.33489546886E+03  0.12500172370E+03 0.  0.
          2    1    1    2  501    0 -0.21126852298E+02 -0.73679474117E+02 -0.24109468304E+03  0.25298548374E+03  0.00000000000E+00 0. -1.
          1    1    1    2  502    0 -0.70363198463E+02 -0.58569254423E+02  0.38229215029E+03  0.39310129157E+03  0.00000000000E+00 0. -1.
         22    1    3    3    0    0  0.10193229169E+03  0.14964504394E+03 -0.22114122612E+03  0.28580985490E+03  0.00000000000E+00 0. -1.
         22    1    3    3    0    0 -0.10442240927E+02 -0.17396315401E+02 -0.44695920546E+02  0.49085613967E+02  0.00000000000E+00 0. -1.
</event>
<event>
 7    1  0.6370239E-006  0.6575587E+02  0.7818608E-02  0.1477867E+00
          2   -1    0    0  502    0  0.00000000000E+00  0.00000000000E+00  0.13208165580E+04  0.13208165580E+04  0.00000000000E+00 0. -1.
          1   -1    0    0  501    0 -0.00000000000E+00 -0.00000000000E+00 -0.56347307207E+03  0.56347307207E+03  0.00000000000E+00 0. -1.
         25    2    1    2    0    0  0.48254011892E+02  0.38419098914E+02  0.28114064426E+02  0.14219632878E+03  0.12499967390E+03 0.  0.
          2    1    1    2  501    0  0.16329201923E+02 -0.25207414070E+02 -0.50510635454E+03  0.50599850391E+03  0.00000000000E+00 0. -1.
          1    1    1    2  502    0 -0.64583213815E+02 -0.13211684845E+02  0.12343357761E+04  0.12360947974E+04  0.00000000000E+00 0. -1.
         22    1    3    3    0    0  0.11822622487E+01  0.72359327990E+02  0.40394582285E+02  0.82879384464E+02  0.00000000000E+00 0.  1.
         22    1    3    3    0    0  0.47071749643E+02 -0.33940229075E+02 -0.12280517859E+02  0.59316944316E+02  0.00000000000E+00 0.  1.
</event>
<event>
 7    1  0.6370239E-006  0.8946931E+02  0.7818608E-02  0.1447385E+00
          2   -1    0    0  502    0  0.00000000000E+00  0.00000000000E+00  0.29887441439E+04  0.29887441439E+04  0.00000000000E+00 0. -1.
          1   -1    0    0  501    0 -0.00000000000E+00 -0.00000000000E+00 -0.45034529692E+03  0.45034529692E+03  0.00000000000E+00 0. -1.
         25    2    1    2    0    0  0.62151444944E+02  0.65388462758E+01 -0.15039853514E+03  0.20530727990E+03  0.12500320472E+03 0.  0.
          2    1    1    2  501    0  0.27353202329E+02 -0.30509731119E+01 -0.27111817463E+03  0.27251159742E+03  0.00000000000E+00 0. -1.
          1    1    1    2  502    0 -0.89504647273E+02 -0.34878731639E+01  0.29599155568E+04  0.29612705635E+04  0.00000000000E+00 0. -1.
         22    1    3    3    0    0  0.52945246842E+02  0.63144973963E+02 -0.88451640387E+02  0.12088912105E+03  0.00000000000E+00 0. -1.
         22    1    3    3    0    0  0.92061981017E+01 -0.56606127687E+02 -0.61946894751E+02  0.84418158855E+02  0.00000000000E+00 0. -1.
</event>
<event>
 7    1  0.6370239E-006  0.1696462E+03  0.7818608E-02  0.1186211E+00
          2   -1    0    0  502    0  0.00000000000E+00  0.00000000000E+00  0.31605242417E+04  0.31605242417E+04  0.00000000000E+00 0. -1.
          1   -1    0    0  501    0 -0.00000000000E+00 -0.00000000000E+00 -0.14915502066E+03  0.14915502066E+03  0.00000000000E+00 0. -1.
         25    2    1    2    0    0  0.84660747320E+02  0.19241639370E+03  0.33147272220E+03  0.41193465211E+03  0.12499792537E+03 0.  0.
          2    1    1    2  501    0 -0.16222235040E+03 -0.58076363870E+02 -0.37157712179E+02  0.17626585201E+03  0.00000000000E+00 0. -1.
          1    1    1    2  502    0  0.77561603084E+02 -0.13434002983E+03  0.27170542111E+04  0.27214787583E+04  0.00000000000E+00 0. -1.
         22    1    3    3    0    0  0.80999519398E+02  0.93491280461E+02  0.96262945502E+02  0.15674213327E+03  0.00000000000E+00 0.  1.
         22    1    3    3    0    0  0.36612279226E+01  0.98925113237E+02  0.23520977670E+03  0.25519251884E+03  0.00000000000E+00 0.  1.
</event>
<event>
 7    1  0.6370239E-006  0.1683711E+03  0.7818608E-02  0.1234562E+00
          2   -1    0    0  502    0  0.00000000000E+00  0.00000000000E+00  0.10463219470E+04  0.10463219470E+04  0.00000000000E+00 0. -1.
          1   -1    0    0  501    0 -0.00000000000E+00 -0.00000000000E+00 -0.36582382715E+03  0.36582382715E+03  0.00000000000E+00 0. -1.
         25    2    1    2    0    0  0.83715706913E+02 -0.27844264391E+02  0.12578200957E+03  0.19806475590E+03  0.12499964381E+03 0.  0.
          2    1    1    2  501    0 -0.17605451641E+03  0.41092683683E+02 -0.30217503578E+03  0.35212718391E+03  0.00000000000E+00 0. -1.
          1    1    1    2  502    0  0.92338809494E+02 -0.13248419292E+02  0.85689114609E+03  0.86195383438E+03  0.00000000000E+00 0. -1.
         22    1    3    3    0    0 -0.33019686268E+02 -0.16840228069E+01  0.32532228364E+02  0.46384065112E+02  0.00000000000E+00 0.  1.
         22    1    3    3    0    0  0.11673539318E+03 -0.26160241584E+02  0.93249781211E+02  0.15168069078E+03  0.00000000000E+00 0.  1.
</event>
<event>
 7    1  0.6370239E-006  0.1512917E+03  0.7818608E-02  0.1245388E+00
          2   -1    0    0  502    0  0.00000000000E+00  0.00000000000E+00  0.62961243178E+03  0.62961243178E+03  0.00000000000E+00 0. -1.
          1   -1    0    0  501    0 -0.00000000000E+00 -0.00000000000E+00 -0.27299415659E+03  0.27299415659E+03  0.00000000000E+00 0. -1.
         25    2    1    2    0    0 -0.84613285410E+02  0.11703623060E+03 -0.69970040939E+02  0.20341434629E+03  0.12499880922E+03 0.  0.
          2    1    1    2  501    0  0.15764266993E+03 -0.59443802803E+02 -0.78317821224E+02  0.18579143736E+03  0.00000000000E+00 0. -1.
          1    1    1    2  502    0 -0.73029384525E+02 -0.57592427794E+02  0.50490613735E+03  0.51340080471E+03  0.00000000000E+00 0. -1.
         22    1    3    3    0    0 -0.29341280137E+02  0.14038102103E+02  0.33943547750E+02  0.47012162943E+02  0.00000000000E+00 0.  1.
         22    1    3    3    0    0 -0.55272005272E+02  0.10299812849E+03 -0.10391358869E+03  0.15640218334E+03  0.00000000000E+00 0.  1.
</event>
<event>
 7    1  0.6370239E-006  0.3309074E+02  0.7818608E-02  0.1571196E+00
          2   -1    0    0  502    0  0.00000000000E+00  0.00000000000E+00  0.13153011136E+03  0.13153011136E+03  0.00000000000E+00 0. -1.
          1   -1    0    0  501    0 -0.00000000000E+00 -0.00000000000E+00 -0.45809459789E+03  0.45809459789E+03  0.00000000000E+00 0. -1.
         25    2    1    2    0    0  0.10489867685E+02 -0.10045271719E+02 -0.19455986605E+03  0.23170956482E+03  0.12499934457E+03 0.  0.
          2    1    1    2  501    0 -0.25045218163E+02 -0.20044684539E+02 -0.24140259495E+03  0.24352467057E+03  0.00000000000E+00 0. -1.
          1    1    1    2  502    0  0.14555350478E+02  0.30089956258E+02  0.10939797446E+03  0.11439047386E+03  0.00000000000E+00 0. -1.
         22    1    3    3    0    0  0.54722478335E+02  0.31865635606E+02 -0.11740877655E+03  0.13339711083E+03  0.00000000000E+00 0.  1.
         22    1    3    3    0    0 -0.44232610650E+02 -0.41910907324E+02 -0.77151089495E+02  0.98312453982E+02  0.00000000000E+00 0.  1.
</event>
<event>
 7    1  0.6370239E-006  0.7511922E+02  0.7818608E-02  0.1376286E+00
          2   -1    0    0  502    0  0.00000000000E+00  0.00000000000E+00  0.36816769513E+03  0.36816769513E+03  0.00000000000E+00 0. -1.
          1   -1    0    0  501    0 -0.00000000000E+00 -0.00000000000E+00 -0.93323984680E+03  0.93323984680E+03  0.00000000000E+00 0. -1.
         25    2    1    2    0    0 -0.10093625556E+02  0.16379047348E+02 -0.78818584719E+03  0.79826834190E+03  0.12500104596E+03 0.  0.
          2    1    1    2  501    0 -0.44645424211E+02  0.35478665509E+02 -0.13005652039E+03  0.14200932400E+03  0.00000000000E+00 0. -1.
          1    1    1    2  502    0  0.54739049767E+02 -0.51857712857E+02  0.35317021591E+03  0.36112987602E+03  0.00000000000E+00 0. -1.
         22    1    3    3    0    0 -0.60345442781E+02  0.82038757199E+01 -0.23566597557E+03  0.24340774040E+03  0.00000000000E+00 0. -1.
         22    1    3    3    0    0  0.50251817225E+02  0.81751716278E+01 -0.55251987162E+03  0.55486060150E+03  0.00000000000E+00 0. -1.
</event>
<event>
 7    1  0.1096146E-005  0.6310545E+02  0.7818608E-02  0.1414707E+00
          2   -1    0    0  502    0  0.00000000000E+00  0.00000000000E+00  0.10313456286E+04  0.10313456286E+04  0.00000000000E+00 0. -1.
          1   -1    0    0  501    0 -0.00000000000E+00 -0.00000000000E+00 -0.16739614878E+04  0.16739614878E+04  0.00000000000E+00 0. -1.
         25    2    1    2    0    0  0.15881393761E+02 -0.11108923235E+03 -0.30958947835E+03  0.35222596537E+03  0.12499779743E+03 0.  0.
          2    1    1    2  501    0 -0.77484098617E+00  0.49966963056E+02 -0.13416069233E+04  0.13425373122E+04  0.00000000000E+00 0. -1.
          1    1    1    2  502    0 -0.15106552774E+02  0.61122269293E+02  0.10085805425E+04  0.10105438389E+04  0.00000000000E+00 0. -1.
         22    1    3    3    0    0  0.54587888301E+02 -0.10034065402E+03 -0.15525445773E+03  0.19274862138E+03  0.00000000000E+00 0.  1.
         22    1    3    3    0    0 -0.38706494541E+02 -0.10748578324E+02 -0.15433502062E+03  0.15947734399E+03  0.00000000000E+00 0.  1.
</event>
<event>
 7    1  0.6370239E-006  0.6207991E+02  0.7818608E-02  0.1517136E+00
          2   -1    0    0  502    0  0.00000000000E+00  0.00000000000E+00  0.24318429434E+03  0.24318429434E+03  0.00000000000E+00 0. -1.
          1   -1    0    0  501    0 -0.00000000000E+00 -0.00000000000E+00 -0.25390627125E+03  0.25390627125E+03  0.00000000000E+00 0. -1.
         25    2    1    2    0    0 -0.11405582424E+02  0.38455143180E+02 -0.21049030863E+02  0.13295334186E+03  0.12499857625E+03 0.  0.
          2    1    1    2  501    0  0.54213240522E+00  0.24259725765E+02 -0.17061238532E+03  0.17232937714E+03  0.00000000000E+00 0. -1.
          1    1    1    2  502    0  0.10863450019E+02 -0.62714868944E+02  0.18093943926E+03  0.19180784659E+03  0.00000000000E+00 0. -1.
         22    1    3    3    0    0  0.53061538216E+01  0.10585933554E+02  0.51825944404E+02  0.53161506478E+02  0.00000000000E+00 0. -1.
         22    1    3    3    0    0 -0.16711736245E+02  0.27869209626E+02 -0.72874975268E+02  0.79791835383E+02  0.00000000000E+00 0. -1.
</event>
<event>
 7    1  0.6370239E-006  0.4902055E+02  0.7818608E-02  0.1491781E+00
          2   -1    0    0  502    0  0.00000000000E+00  0.00000000000E+00  0.33500639504E+02  0.33500639504E+02  0.00000000000E+00 0. -1.
          1   -1    0    0  501    0 -0.00000000000E+00 -0.00000000000E+00 -0.66413934549E+03  0.66413934549E+03  0.00000000000E+00 0. -1.
         25    2    1    2    0    0  0.34499547280E+02  0.75340554381E+02 -0.38636351188E+03  0.41444764048E+03  0.12499466184E+03 0.  0.
          2    1    1    2  501    0 -0.12758650193E+02 -0.34240630185E+02 -0.23233078249E+03  0.23518672667E+03  0.00000000000E+00 0. -1.
          1    1    1    2  502    0 -0.21740897086E+02 -0.41099924196E+02 -0.11944411608E+02  0.48005617835E+02  0.00000000000E+00 0. -1.
         22    1    3    3    0    0  0.40914353893E+01 -0.30202865033E+02 -0.35474532787E+02  0.46769598845E+02  0.00000000000E+00 0. -1.
         22    1    3    3    0    0  0.30408111891E+02  0.10554341941E+03 -0.35088897910E+03  0.36767804164E+03  0.00000000000E+00 0. -1.
</event>
<event>
 7    1  0.6370239E-006  0.7580695E+02  0.7818608E-02  0.1362616E+00
          2   -1    0    0  502    0  0.00000000000E+00  0.00000000000E+00  0.38692273403E+03  0.38692273403E+03  0.00000000000E+00 0. -1.
          1   -1    0    0  501    0 -0.00000000000E+00 -0.00000000000E+00 -0.30641894683E+03  0.30641894683E+03  0.00000000000E+00 0. -1.
         25    2    1    2    0    0  0.77392651910E+02 -0.47021373992E+02  0.21756688421E+02  0.15588010581E+03  0.12499848685E+03 0.  0.
          2    1    1    2  501    0 -0.20019384078E+02  0.73727619134E+02 -0.22974275391E+03  0.24211210324E+03  0.00000000000E+00 0. -1.
          1    1    1    2  502    0 -0.57373267832E+02 -0.26706245142E+02  0.28848985269E+03  0.29534947181E+03  0.00000000000E+00 0. -1.
         22    1    3    3    0    0  0.10291692470E+03 -0.48589905688E+01  0.26444770987E+02  0.10637118544E+03  0.00000000000E+00 0.  1.
         22    1    3    3    0    0 -0.25524272794E+02 -0.42162383423E+02 -0.46880825657E+01  0.49508920365E+02  0.00000000000E+00 0.  1.
</event>
<event>
 7    1  0.6370239E-006  0.3793191E+02  0.7818608E-02  0.1530488E+00
          2   -1    0    0  502    0  0.00000000000E+00  0.00000000000E+00  0.33740984076E+02  0.33740984076E+02  0.00000000000E+00 0. -1.
          1   -1    0    0  501    0 -0.00000000000E+00 -0.00000000000E+00 -0.10445325353E+04  0.10445325353E+04  0.00000000000E+00 0. -1.
         25    2    1    2    0    0 -0.40336230060E+02 -0.37103944402E+02 -0.30716926992E+03  0.33612906746E+03  0.12500430178E+03 0.  0.
          2    1    1    2  501    0  0.26609520067E+01  0.36240928136E+02 -0.70352129757E+03  0.70445915543E+03  0.00000000000E+00 0. -1.
          1    1    1    2  502    0  0.37675278054E+02  0.86301626571E+00 -0.10098373588E+00  0.37685296486E+02  0.00000000000E+00 0. -1.
         22    1    3    3    0    0  0.10108775011E+02  0.22105319677E+02 -0.59446078432E+01  0.25023406096E+02  0.00000000000E+00 0. -1.
         22    1    3    3    0    0 -0.50445005071E+02 -0.59209264079E+02 -0.30122466208E+03  0.31110566137E+03  0.00000000000E+00 0. -1.
</event>
<event>
 7    1  0.6370239E-006  0.7294773E+02  0.7818608E-02  0.1449580E+00
          2   -1    0    0  502    0  0.00000000000E+00  0.00000000000E+00  0.23261997146E+04  0.23261997146E+04  0.00000000000E+00 0. -1.
          1   -1    0    0  501    0 -0.00000000000E+00 -0.00000000000E+00 -0.47912710809E+02  0.47912710809E+02  0.00000000000E+00 0. -1.
         25    2    1    2    0    0  0.96984301354E+02 -0.14527214915E+02  0.44099036211E+03  0.46873827878E+03  0.12500431930E+03 0.  0.
          2    1    1    2  501    0 -0.70834279599E+02 -0.59502897833E+01  0.33876751139E+01  0.71164439557E+02  0.00000000000E+00 0. -1.
          1    1    1    2  502    0 -0.26150021755E+02  0.20477504698E+02  0.18339089666E+04  0.18342097071E+04  0.00000000000E+00 0. -1.
         22    1    3    3    0    0 -0.24237226040E+02 -0.27826156042E+02  0.98634762255E+02  0.10531170121E+03  0.00000000000E+00 0. -1.
         22    1    3    3    0    0  0.12122152739E+03  0.13298941128E+02  0.34235559985E+03  0.36342657758E+03  0.00000000000E+00 0. -1.
</event>
<event>
 7    1  0.6370239E-006  0.5940772E+02  0.7818608E-02  0.1509213E+00
          2   -1    0    0  502    0  0.00000000000E+00  0.00000000000E+00  0.11565117992E+04  0.11565117992E+04  0.00000000000E+00 0. -1.
          1   -1    0    0  501    0 -0.00000000000E+00 -0.00000000000E+00 -0.19390420777E+02  0.19390420777E+02  0.00000000000E+00 0. -1.
         25    2    1    2    0    0 -0.24234924026E+02 -0.51755209077E+02  0.61214957328E+03  0.62739007342E+03  0.12500108382E+03 0.  0.
          2    1    1    2  501    0  0.25083205005E+02 -0.92951203793E+01  0.79623427542E+01  0.27909950526E+02  0.00000000000E+00 0. -1.
          1    1    1    2  502    0 -0.84828097990E+00  0.61050329456E+02  0.51700946244E+03  0.52060219608E+03  0.00000000000E+00 0. -1.
         22    1    3    3    0    0 -0.66469915810E+01 -0.58388081427E+02  0.60408405733E+03  0.60693566288E+03  0.00000000000E+00 0.  1.
         22    1    3    3    0    0 -0.17587932445E+02  0.66328723500E+01  0.80655159451E+01  0.20454410545E+02  0.00000000000E+00 0.  1.
</event>
<event>
 7    1  0.6370239E-006  0.1045983E+03  0.7818608E-02  0.1432767E+00
          2   -1    0    0  502    0  0.00000000000E+00  0.00000000000E+00  0.37703029290E+03  0.37703029290E+03  0.00000000000E+00 0. -1.
          1   -1    0    0  501    0 -0.00000000000E+00 -0.00000000000E+00 -0.10185119954E+03  0.10185119954E+03  0.00000000000E+00 0. -1.
         25    2    1    2    0    0  0.39701567609E+02  0.84599051650E+02  0.92584967653E+02  0.18146794292E+03  0.12500169624E+03 0.  0.
          2    1    1    2  501    0 -0.25266690715E+02 -0.10653471726E+03 -0.34314997732E+01  0.10954372110E+03  0.00000000000E+00 0. -1.
          1    1    1    2  502    0 -0.14434876894E+02  0.21935665610E+02  0.18602562548E+03  0.18786982842E+03  0.00000000000E+00 0. -1.
         22    1    3    3    0    0 -0.40613550944E+02  0.53109627469E+02  0.23233997235E+02  0.70780729564E+02  0.00000000000E+00 0. -1.
         22    1    3    3    0    0  0.80315118552E+02  0.31489424181E+02  0.69350970419E+02  0.11068721336E+03  0.00000000000E+00 0. -1.
</event>
<event>
 7    1  0.6370239E-006  0.1071450E+03  0.7818608E-02  0.1268752E+00
          2   -1    0    0  502    0  0.00000000000E+00  0.00000000000E+00  0.45647276062E+03  0.45647276062E+03  0.00000000000E+00 0. -1.
          1   -1    0    0  501    0 -0.00000000000E+00 -0.00000000000E+00 -0.10661969227E+04  0.10661969227E+04  0.00000000000E+00 0. -1.
         25    2    1    2    0    0  0.43616354367E+01 -0.19984396298E+02 -0.30581245554E+03  0.33100586408E+03  0.12500089651E+03 0.  0.
          2    1    1    2  501    0 -0.97275244342E+02 -0.37543645402E+02 -0.73733751896E+03  0.74467349579E+03  0.00000000000E+00 0. -1.
          1    1    1    2  502    0  0.92913608905E+02  0.57528041700E+02  0.43342581247E+03  0.44699032340E+03  0.00000000000E+00 0. -1.
         22    1    3    3    0    0  0.42801344491E+01 -0.72612051253E+02 -0.15360472009E+03  0.16995658144E+03  0.00000000000E+00 0.  1.
         22    1    3    3    0    0  0.81500987564E-01  0.52627654955E+02 -0.15220773545E+03  0.16104928264E+03  0.00000000000E+00 0.  1.
</event>
<event>
 7    1  0.6370239E-006  0.1017929E+03  0.7818608E-02  0.1427552E+00
          2   -1    0    0  502    0  0.00000000000E+00  0.00000000000E+00  0.34800032809E+03  0.34800032809E+03  0.00000000000E+00 0. -1.
          1   -1    0    0  501    0 -0.00000000000E+00 -0.00000000000E+00 -0.15720317050E+04  0.15720317050E+04  0.00000000000E+00 0. -1.
         25    2    1    2    0    0  0.48021475296E+02 -0.80212218620E+02 -0.12043512201E+03  0.19715301097E+03  0.12499851606E+03 0.  0.
          2    1    1    2  501    0  0.26315774276E+02  0.97694126191E+01 -0.14046255373E+04  0.14049059973E+04  0.00000000000E+00 0. -1.
          1    1    1    2  502    0 -0.74337249573E+02  0.70442806001E+02  0.30102928241E+03  0.31797302473E+03  0.00000000000E+00 0. -1.
         22    1    3    3    0    0  0.50604434021E+02 -0.11257550231E+03 -0.91215300024E+02  0.15347404804E+03  0.00000000000E+00 0. -1.
         22    1    3    3    0    0 -0.25829587246E+01  0.32363283685E+02 -0.29219821982E+02  0.43678962938E+02  0.00000000000E+00 0. -1.
</event>
<event>
 7    1  0.6370239E-006  0.6588732E+02  0.7818608E-02  0.1481007E+00
          2   -1    0    0  502    0  0.00000000000E+00  0.00000000000E+00  0.32820845606E+03  0.32820845606E+03  0.00000000000E+00 0. -1.
          1   -1    0    0  501    0 -0.00000000000E+00 -0.00000000000E+00 -0.76978569394E+02  0.76978569394E+02  0.00000000000E+00 0. -1.
         25    2    1    2    0    0  0.26223374093E+02  0.46157600878E+02  0.98832502945E+02  0.16795946374E+03  0.12499731339E+03 0.  0.
          2    1    1    2  501    0 -0.18936358452E+02  0.22380028235E+02 -0.30179404177E+02  0.42074312493E+02  0.00000000000E+00 0. -1.
          1    1    1    2  502    0 -0.72870156406E+01 -0.68537629113E+02  0.18257678790E+03  0.19515324922E+03  0.00000000000E+00 0. -1.
         22    1    3    3    0    0  0.61061824883E+02  0.40127079087E+02  0.10895124440E+03  0.13118346919E+03  0.00000000000E+00 0.  1.
         22    1    3    3    0    0 -0.34838450790E+02  0.60305217910E+01 -0.10118741451E+02  0.36775994549E+02  0.00000000000E+00 0.  1.
</event>
<event>
 7    1  0.6370239E-006  0.6568389E+02  0.7818608E-02  0.1382630E+00
          2   -1    0    0  502    0  0.00000000000E+00  0.00000000000E+00  0.48564351835E+04  0.48564351835E+04  0.00000000000E+00 0. -1.
          1   -1    0    0  501    0 -0.00000000000E+00 -0.00000000000E+00 -0.10549618219E+04  0.10549618219E+04  0.00000000000E+00 0. -1.
         25    2    1    2    0    0  0.90928328668E+02 -0.34836462945E+02 -0.84390521592E+02  0.17952038197E+03  0.12499706918E+03 0.  0.
          2    1    1    2  501    0 -0.28437563725E+02  0.55010787970E+02 -0.92174320182E+03  0.92382109302E+03  0.00000000000E+00 0. -1.
          1    1    1    2  502    0 -0.62490764943E+02 -0.20174325024E+02  0.48076070850E+04  0.48080555303E+04  0.00000000000E+00 0. -1.
         22    1    3    3    0    0  0.78492911299E+02 -0.44584712431E+02  0.33841342324E+01  0.90334855240E+02  0.00000000000E+00 0.  1.
         22    1    3    3    0    0  0.12435417369E+02  0.97482494851E+01 -0.87774655824E+02  0.89185526731E+02  0.00000000000E+00 0.  1.
</event>
<event>
 7    1  0.6370239E-006  0.1231422E+03  0.7818608E-02  0.1254743E+00
          2   -1    0    0  502    0  0.00000000000E+00  0.00000000000E+00  0.12814471185E+03  0.12814471185E+03  0.00000000000E+00 0. -1.
          1   -1    0    0  501    0 -0.00000000000E+00 -0.00000000000E+00 -0.61590327548E+03  0.61590327548E+03  0.00000000000E+00 0. -1.
         25    2    1    2    0    0 -0.31629039944E+01  0.34330156641E+01 -0.51475015003E+02  0.13526067498E+03  0.12499593380E+03 0.  0.
          2    1    1    2  501    0 -0.71499861886E+02 -0.10135885468E+03 -0.46590368546E+03  0.48213285700E+03  0.00000000000E+00 0. -1.
          1    1    1    2  502    0  0.74662765880E+02  0.97925839019E+02  0.29620136832E+02  0.12665445536E+03  0.00000000000E+00 0. -1.
         22    1    3    3    0    0 -0.13816034380E+02  0.92117799950E+01 -0.91729982740E+02  0.93220863706E+02  0.00000000000E+00 0.  1.
         22    1    3    3    0    0  0.10653130386E+02 -0.57787643308E+01  0.40254967737E+02  0.42039811271E+02  0.00000000000E+00 0.  1.
</event>
<event>
 7    1  0.6370239E-006  0.4655148E+02  0.7818608E-02  0.1489342E+00
          2   -1    0    0  502    0  0.00000000000E+00  0.00000000000E+00  0.69628537767E+03  0.69628537767E+03  0.00000000000E+00 0. -1.
          1   -1    0    0  501    0 -0.00000000000E+00 -0.00000000000E+00 -0.57097712930E+02  0.57097712930E+02  0.00000000000E+00 0. -1.
         25    2    1    2    0    0  0.67487729085E+02  0.17783507799E+02  0.16324417701E+03  0.21712698983E+03  0.12499848662E+03 0.  0.
          2    1    1    2  501    0 -0.35869399394E+02  0.15656730872E+02 -0.15914717909E+02  0.42249559531E+02  0.00000000000E+00 0. -1.
          1    1    1    2  502    0 -0.31618329691E+02 -0.33440238671E+02  0.49185820563E+03  0.49400654124E+03  0.00000000000E+00 0. -1.
         22    1    3    3    0    0  0.97741649663E+02  0.67319329144E+01  0.75595288547E+02  0.12374730967E+03  0.00000000000E+00 0. -1.
         22    1    3    3    0    0 -0.30253920578E+02  0.11051574885E+02  0.87648888464E+02  0.93379680160E+02  0.00000000000E+00 0. -1.
</event>
<event>
 7    1  0.6370239E-006  0.5889030E+02  0.7818608E-02  0.1424711E+00
          2   -1    0    0  502    0  0.00000000000E+00  0.00000000000E+00  0.36456159236E+02  0.36456159236E+02  0.00000000000E+00 0. -1.
          1   -1    0    0  501    0 -0.00000000000E+00 -0.00000000000E+00 -0.86842457705E+03  0.86842457705E+03  0.00000000000E+00 0. -1.
         25    2    1    2    0    0  0.13037158180E+02 -0.98822402025E+01 -0.54080859112E+03  0.55530739579E+03  0.12499898168E+03 0.  0.
          2    1    1    2  501    0  0.46642021268E+01 -0.49362795443E+02 -0.28287530454E+03  0.28718787975E+03  0.00000000000E+00 0. -1.
          1    1    1    2  502    0 -0.17701360307E+02  0.59245035645E+02 -0.82845221484E+01  0.62385460746E+02  0.00000000000E+00 0. -1.
         22    1    3    3    0    0  0.29873470122E+02  0.49717593859E+01 -0.25727581960E+02  0.39737275725E+02  0.00000000000E+00 0. -1.
         22    1    3    3    0    0 -0.16836311942E+02 -0.14853999588E+02 -0.51508100916E+03  0.51557012006E+03  0.00000000000E+00 0. -1.
</event>
<event>
 7    1  0.6370239E-006  0.9968846E+02  0.7818608E-02  0.1336553E+00
          2   -1    0    0  502    0  0.00000000000E+00  0.00000000000E+00  0.15174278111E+04  0.15174278111E+04  0.00000000000E+00 0. -1.
          1   -1    0    0  501    0 -0.00000000000E+00 -0.00000000000E+00 -0.76751801526E+03  0.76751801526E+03  0.00000000000E+00 0. -1.
         25    2    1    2    0    0  0.75964613144E+02  0.12803581272E+03  0.30221380481E+02  0.19672905685E+03  0.12500079273E+03 0.  0.
          2    1    1    2  501    0 -0.25828056754E+02 -0.94863196092E+02 -0.68008408953E+03  0.68715390075E+03  0.00000000000E+00 0. -1.
          1    1    1    2  502    0 -0.50136556390E+02 -0.33172616625E+02  0.13997725049E+04  0.14010628688E+04  0.00000000000E+00 0. -1.
         22    1    3    3    0    0  0.33311740114E+01 -0.34272162603E+01  0.45509054559E+02  0.45759333239E+02  0.00000000000E+00 0.  1.
         22    1    3    3    0    0  0.72633439132E+02  0.13146302898E+03 -0.15287674078E+02  0.15096972361E+03  0.00000000000E+00 0.  1.
</event>
<event>
 7    1  0.6370239E-006  0.1012542E+03  0.7818608E-02  0.1335644E+00
          2   -1    0    0  502    0  0.00000000000E+00  0.00000000000E+00  0.16680876045E+04  0.16680876045E+04  0.00000000000E+00 0. -1.
          1   -1    0    0  501    0 -0.00000000000E+00 -0.00000000000E+00 -0.61269408450E+03  0.61269408450E+03  0.00000000000E+00 0. -1.
         25    2    1    2    0    0 -0.97490611945E+02  0.90113540484E+02 -0.73311986519E+01  0.18249276093E+03  0.12499996690E+03 0.  0.
          2    1    1    2  501    0  0.59560726221E+02  0.34167599733E+01 -0.51444522780E+03  0.51789289121E+03  0.00000000000E+00 0. -1.
          1    1    1    2  502    0  0.37929885725E+02 -0.93530300458E+02  0.15771699464E+04  0.15803960368E+04  0.00000000000E+00 0. -1.
         22    1    3    3    0    0  0.24390469440E+02  0.18103776873E+02 -0.25639635928E+02  0.39749624741E+02  0.00000000000E+00 0. -1.
         22    1    3    3    0    0 -0.12188108138E+03  0.72009763611E+02  0.18308437276E+02  0.14274313619E+03  0.00000000000E+00 0. -1.
</event>
<event>
 7    1  0.6370239E-006  0.7170498E+02  0.7818608E-02  0.1521465E+00
          2   -1    0    0  502    0  0.00000000000E+00  0.00000000000E+00  0.89060736743E+02  0.89060736743E+02  0.00000000000E+00 0. -1.
          1   -1    0    0  501    0 -0.00000000000E+00 -0.00000000000E+00 -0.64459420264E+03  0.64459420264E+03  0.00000000000E+00 0. -1.
         25    2    1    2    0    0  0.69915199844E+02 -0.57966508988E+01 -0.50271587693E+03  0.52275088610E+03  0.12499399854E+03 0.  0.
          2    1    1    2  501    0  0.42899068718E+00  0.20404055946E+02 -0.11444398278E+03  0.11624945044E+03  0.00000000000E+00 0. -1.
          1    1    1    2  502    0 -0.70344190531E+02 -0.14607405047E+02  0.61626393819E+02  0.94654602840E+02  0.00000000000E+00 0. -1.
         22    1    3    3    0    0  0.84128707694E+02  0.30579208341E+02 -0.43888392014E+03  0.44791943784E+03  0.00000000000E+00 0. -1.
         22    1    3    3    0    0 -0.14213507850E+02 -0.36375859240E+02 -0.63831956795E+02  0.74831448263E+02  0.00000000000E+00 0. -1.
</event>
<event>
 7    1  0.6370239E-006  0.1577975E+03  0.7818608E-02  0.1367487E+00
          2   -1    0    0  502    0  0.00000000000E+00  0.00000000000E+00  0.11975888630E+04  0.11975888630E+04  0.00000000000E+00 0. -1.
          1   -1    0    0  501    0 -0.00000000000E+00 -0.00000000000E+00 -0.39275942578E+02  0.39275942578E+02  0.00000000000E+00 0. -1.
         25    2    1    2    0    0  0.13422931917E+03 -0.70650501891E+02  0.60532638520E+03  0.63643889650E+03  0.12500173125E+03 0.  0.
          2    1    1    2  501    0 -0.12736888029E+03  0.99024911349E+02  0.25999655090E+03  0.30598524673E+03  0.00000000000E+00 0. -1.
          1    1    1    2  502    0 -0.68604388852E+01 -0.28374409458E+02  0.29298998432E+03  0.29444066235E+03  0.00000000000E+00 0. -1.
         22    1    3    3    0    0  0.76434406067E+02 -0.86498161420E+02  0.24100985786E+03  0.26722631222E+03  0.00000000000E+00 0.  1.
         22    1    3    3    0    0  0.57794913108E+02  0.15847659529E+02  0.36431652734E+03  0.36921258427E+03  0.00000000000E+00 0.  1.
</event>
<event>
 7    1  0.6370239E-006  0.1958236E+03  0.7818608E-02  0.1223702E+00
          2   -1    0    0  502    0  0.00000000000E+00  0.00000000000E+00  0.86778537928E+03  0.86778537928E+03  0.00000000000E+00 0. -1.
          1   -1    0    0  501    0 -0.00000000000E+00 -0.00000000000E+00 -0.14384543008E+04  0.14384543008E+04  0.00000000000E+00 0. -1.
         25    2    1    2    0    0 -0.14414409105E+03 -0.12093426872E+03  0.34321959009E+03  0.41088623707E+03  0.12500078581E+03 0.  0.
          2    1    1    2  501    0  0.77082010872E+02  0.18056388269E+03 -0.13935793221E+04  0.14073408539E+04  0.00000000000E+00 0. -1.
          1    1    1    2  502    0  0.67062080173E+02 -0.59629613968E+02  0.47969081047E+03  0.48801258909E+03  0.00000000000E+00 0. -1.
         22    1    3    3    0    0 -0.17645032863E+02 -0.88861597238E+02  0.18338137838E+03  0.20453963084E+03  0.00000000000E+00 0.  1.
         22    1    3    3    0    0 -0.12649905818E+03 -0.32072671486E+02  0.15983821172E+03  0.20634660623E+03  0.00000000000E+00 0.  1.
</event>
<event>
 7    1  0.8613071E-006  0.6396782E+02  0.7818608E-02  0.1384455E+00
          2   -1    0    0  502    0  0.00000000000E+00  0.00000000000E+00  0.63717985052E+03  0.63717985052E+03  0.00000000000E+00 0. -1.
          1   -1    0    0  501    0 -0.00000000000E+00 -0.00000000000E+00 -0.16191166294E+04  0.16191166294E+04  0.00000000000E+00 0. -1.
         25    2    1    2    0    0 -0.47286376585E+02  0.90700213281E+02 -0.20759172829E+03  0.26302652258E+03  0.12500438322E+03 0.  0.
          2    1    1    2  501    0 -0.96778932851E+01 -0.61901423596E+02 -0.13814242537E+04  0.13828443212E+04  0.00000000000E+00 0. -1.
          1    1    1    2  502    0  0.56964269870E+02 -0.28798789685E+02  0.60707920317E+03  0.61042563613E+03  0.00000000000E+00 0. -1.
         22    1    3    3    0    0 -0.33993259676E+02  0.80328312724E+02 -0.22345549809E+03  0.23987609125E+03  0.00000000000E+00 0. -1.
         22    1    3    3    0    0 -0.13293116909E+02  0.10371900557E+02  0.15863769797E+02  0.23150431324E+02  0.00000000000E+00 0. -1.
</event>
<event>
 7    1  0.6370239E-006  0.5243124E+02  0.7818608E-02  0.1441094E+00
          2   -1    0    0  502    0  0.00000000000E+00  0.00000000000E+00  0.17746148579E+04  0.17746148579E+04  0.00000000000E+00 0. -1.
          1   -1    0    0  501    0 -0.00000000000E+00 -0.00000000000E+00 -0.13832272789E+03  0.13832272789E+03  0.00000000000E+00 0. -1.
         25    2    1    2    0    0 -0.68749982688E+02  0.64662650668E+02  0.39314467646E+03  0.42319555080E+03  0.12499567624E+03 0.  0.
          2    1    1    2  501    0  0.21794936466E+02 -0.44122756054E+02 -0.11788513734E+03  0.12774483341E+03  0.00000000000E+00 0. -1.
          1    1    1    2  502    0  0.46955046222E+02 -0.20539894614E+02  0.13610325909E+04  0.13619972016E+04  0.00000000000E+00 0. -1.
         22    1    3    3    0    0 -0.67041158936E+02  0.44410470662E+02  0.39470305006E+03  0.40281174836E+03  0.00000000000E+00 0. -1.
         22    1    3    3    0    0 -0.17088237511E+01  0.20252180006E+02 -0.15583735967E+01  0.20383802439E+02  0.00000000000E+00 0. -1.
</event>
<event>
 7    1  0.6370239E-006  0.9000878E+02  0.7818608E-02  0.1308962E+00
          2   -1    0    0  502    0  0.00000000000E+00  0.00000000000E+00  0.56425367928E+03  0.56425367928E+03  0.00000000000E+00 0. -1.
          1   -1    0    0  501    0 -0.00000000000E+00 -0.00000000000E+00 -0.10952054305E+04  0.10952054305E+04  0.00000000000E+00 0. -1.
         25    2    1    2    0    0 -0.15212516535E+02 -0.17340628134E+03  0.97262964535E+02  0.23534359946E+03  0.12500146587E+03 0.  0.
          2    1    1    2  501    0  0.54315935092E+01  0.88863163389E+02 -0.10196528475E+04  0.10235321653E+04  0.00000000000E+00 0. -1.
          1    1    1    2  502    0  0.97809230256E+01  0.84543117948E+02  0.39143813179E+03  0.40058334497E+03  0.00000000000E+00 0. -1.
         22    1    3    3    0    0 -0.54006203203E+02 -0.89863752616E+02  0.49859092618E+01  0.10496200889E+03  0.00000000000E+00 0. -1.
         22    1    3    3    0    0  0.38793686668E+02 -0.83542528721E+02  0.92277055273E+02  0.13038159057E+03  0.00000000000E+00 0. -1.
</event>
<event>
 7    1  0.6370239E-006  0.1004714E+03  0.7818608E-02  0.1396910E+00
          2   -1    0    0  502    0  0.00000000000E+00  0.00000000000E+00  0.13723876722E+04  0.13723876722E+04  0.00000000000E+00 0. -1.
          1   -1    0    0  501    0 -0.00000000000E+00 -0.00000000000E+00 -0.18815923690E+03  0.18815923690E+03  0.00000000000E+00 0. -1.
         25    2    1    2    0    0  0.12003351041E+03 -0.47001369488E+02  0.49112944894E+00  0.17956406890E+03  0.12500336507E+03 0.  0.
          2    1    1    2  501    0 -0.89064757497E+02  0.28460625688E+02 -0.76144504422E+02  0.12058409429E+03  0.00000000000E+00 0. -1.
          1    1    1    2  502    0 -0.30968752909E+02  0.18540743800E+02  0.12598818103E+04  0.12603987459E+04  0.00000000000E+00 0. -1.
         22    1    3    3    0    0  0.87951706973E+02  0.32551925447E+02  0.72370035596E+00  0.93785149954E+02  0.00000000000E+00 0.  1.
         22    1    3    3    0    0  0.32081803433E+02 -0.79553294935E+02 -0.23257090701E+00  0.85778918947E+02  0.00000000000E+00 0.  1.
</event>
<event>
 7    1  0.9726127E-006  0.7077913E+02  0.7818608E-02  0.1458376E+00
          2   -1    0    0  502    0  0.00000000000E+00  0.00000000000E+00  0.18601526039E+04  0.18601526039E+04  0.00000000000E+00 0. -1.
          1   -1    0    0  501    0 -0.00000000000E+00 -0.00000000000E+00 -0.29582782469E+04  0.29582782469E+04  0.00000000000E+00 0. -1.
         25    2    1    2    0    0  0.15282648118E+02  0.48895579004E+02 -0.58131507261E+03  0.59680475595E+03  0.12499746440E+03 0.  0.
          2    1    1    2  501    0  0.31851965975E+02  0.39431887137E+01 -0.23684329322E+04  0.23686503859E+04  0.00000000000E+00 0. -1.
          1    1    1    2  502    0 -0.47134614093E+02 -0.52838767718E+02  0.18516223618E+04  0.18529757089E+04  0.00000000000E+00 0. -1.
         22    1    3    3    0    0 -0.20114359819E+02  0.28702612933E+02 -0.53054982803E+03  0.53170626052E+03  0.00000000000E+00 0.  1.
         22    1    3    3    0    0  0.35397007937E+02  0.20192966071E+02 -0.50765244578E+02  0.65098495426E+02  0.00000000000E+00 0.  1.
</event>
<event>
 7    1  0.6370239E-006  0.5808244E+02  0.7818608E-02  0.1439370E+00
          2   -1    0    0  502    0  0.00000000000E+00  0.00000000000E+00  0.48220252551E+02  0.48220252551E+02  0.00000000000E+00 0. -1.
          1   -1    0    0  501    0 -0.00000000000E+00 -0.00000000000E+00 -0.19874239056E+04  0.19874239056E+04  0.00000000000E+00 0. -1.
         25    2    1    2    0    0  0.61854213109E+02 -0.30341110994E+02 -0.77870455283E+03  0.79167652101E+03  0.12499762644E+03 0.  0.
          2    1    1    2  501    0 -0.54281089597E+01  0.44671194202E+02 -0.11812918079E+04  0.11821486012E+04  0.00000000000E+00 0. -1.
          1    1    1    2  502    0 -0.56426104150E+02 -0.14330083208E+02  0.20792707655E+02  0.61819035951E+02  0.00000000000E+00 0. -1.
         22    1    3    3    0    0  0.84692452089E+02 -0.60757561259E+02 -0.54125630668E+03  0.55120112682E+03  0.00000000000E+00 0.  1.
         22    1    3    3    0    0 -0.22838238980E+02  0.30416450265E+02 -0.23744824615E+03  0.24047539418E+03  0.00000000000E+00 0.  1.
</event>
<event>
 7    1  0.6370239E-006  0.7025861E+02  0.7818608E-02  0.1380450E+00
          2   -1    0    0  502    0  0.00000000000E+00  0.00000000000E+00  0.41474605050E+03  0.41474605050E+03  0.00000000000E+00 0. -1.
          1   -1    0    0  501    0 -0.00000000000E+00 -0.00000000000E+00 -0.71805218560E+03  0.71805218560E+03  0.00000000000E+00 0. -1.
         25    2    1    2    0    0 -0.72124854507E+02  0.66967933564E+02 -0.11285579949E+03  0.19505920031E+03  0.12499984553E+03 0.  0.
          2    1    1    2  501    0  0.69239877821E+02 -0.81083613488E+01 -0.55959476312E+03  0.56392038899E+03  0.00000000000E+00 0. -1.
          1    1    1    2  502    0  0.28849766854E+01 -0.58859572215E+02  0.36914442752E+03  0.37381864680E+03  0.00000000000E+00 0. -1.
         22    1    3    3    0    0 -0.85659524552E+02  0.94736718233E+01 -0.25992291640E+02  0.90016130938E+02  0.00000000000E+00 0. -1.
         22    1    3    3    0    0  0.13534670046E+02  0.57494261741E+02 -0.86863507849E+02  0.10504306937E+03  0.00000000000E+00 0. -1.
</event>
<event>
 7    1  0.6370239E-006  0.8408417E+02  0.7818608E-02  0.1418324E+00
          2   -1    0    0  502    0  0.00000000000E+00  0.00000000000E+00  0.25451117967E+04  0.25451117967E+04  0.00000000000E+00 0. -1.
          1   -1    0    0  501    0 -0.00000000000E+00 -0.00000000000E+00 -0.12171419309E+03  0.12171419309E+03  0.00000000000E+00 0. -1.
         25    2    1    2    0    0  0.86886460857E+02  0.23662672667E+02  0.13143300922E+04  0.13233290204E+04  0.12500770293E+03 0.  0.
          2    1    1    2  501    0 -0.65271003455E+02 -0.53037807497E+02 -0.10181852396E+03  0.13206182165E+03  0.00000000000E+00 0. -1.
          1    1    1    2  502    0 -0.21615457402E+02  0.29375134830E+02  0.12108860354E+04  0.12114351477E+04  0.00000000000E+00 0. -1.
         22    1    3    3    0    0 -0.30775050701E+02  0.13359414534E+02  0.20477102949E+03  0.20750121017E+03  0.00000000000E+00 0. -1.
         22    1    3    3    0    0  0.11766151156E+03  0.10303258133E+02  0.11095590627E+04  0.11158278102E+04  0.00000000000E+00 0. -1.
</event>
<event>
 7    1  0.6370239E-006  0.2592075E+03  0.7818608E-02  0.1289058E+00
          2   -1    0    0  502    0  0.00000000000E+00  0.00000000000E+00  0.43668131171E+03  0.43668131171E+03  0.00000000000E+00 0. -1.
          1   -1    0    0  501    0 -0.00000000000E+00 -0.00000000000E+00 -0.34144753619E+03  0.34144753619E+03  0.00000000000E+00 0. -1.
         25    2    1    2    0    0  0.69433420446E+02  0.22485971117E+03  0.22885814605E+03  0.35126174059E+03  0.12500347918E+03 0.  0.
          2    1    1    2  501    0 -0.57367612008E+02 -0.25826233214E+03 -0.21317032445E+03  0.33975294309E+03  0.00000000000E+00 0. -1.
          1    1    1    2  502    0 -0.12065808438E+02  0.33402620979E+02  0.79545953930E+02  0.87114164223E+02  0.00000000000E+00 0. -1.
         22    1    3    3    0    0  0.75270598721E+02  0.58741277083E+02  0.52683929230E+02  0.10904951657E+03  0.00000000000E+00 0.  1.
         22    1    3    3    0    0 -0.58371782746E+01  0.16611843408E+03  0.17617421682E+03  0.24221222402E+03  0.00000000000E+00 0.  1.
</event>
<event>
 7    1  0.6370239E-006  0.5184917E+02  0.7818608E-02  0.1502961E+00
          2   -1    0    0  502    0  0.00000000000E+00  0.00000000000E+00  0.21298317927E+03  0.21298317927E+03  0.00000000000E+00 0. -1.
          1   -1    0    0  501    0 -0.00000000000E+00 -0.00000000000E+00 -0.59747665718E+03  0.59747665718E+03  0.00000000000E+00 0. -1.
         25    2    1    2    0    0  0.56512573870E+02 -0.11620332895E+02  0.78553330444E+02  0.15850082311E+03  0.12499272803E+03 0.  0.
          2    1    1    2  501    0 -0.36671763751E+02  0.36705969272E+02 -0.55354701430E+03  0.55597341976E+03  0.00000000000E+00 0. -1.
          1    1    1    2  502    0 -0.19840810119E+02 -0.25085636377E+02  0.90500205944E+02  0.95985593578E+02  0.00000000000E+00 0. -1.
         22    1    3    3    0    0  0.61024740469E+01  0.19648640372E+02  0.94790927103E+02  0.96998088224E+02  0.00000000000E+00 0.  1.
         22    1    3    3    0    0  0.50410099823E+02 -0.31268973267E+02 -0.16237596659E+02  0.61502734887E+02  0.00000000000E+00 0.  1.
</event>
<event>
 7    1  0.6370239E-006  0.8815063E+02  0.7818608E-02  0.1310098E+00
          2   -1    0    0  502    0  0.00000000000E+00  0.00000000000E+00  0.14130640776E+04  0.14130640776E+04  0.00000000000E+00 0. -1.
          1   -1    0    0  501    0 -0.00000000000E+00 -0.00000000000E+00 -0.18117875453E+03  0.18117875453E+03  0.00000000000E+00 0. -1.
         25    2    1    2    0    0 -0.41899022922E+02 -0.42587570679E+02  0.20493581329E+03  0.24737091429E+03  0.12499780945E+03 0.  0.
          2    1    1    2  501    0  0.77944439165E+02 -0.41172772145E+02 -0.14591122022E+03  0.17047174824E+03  0.00000000000E+00 0. -1.
          1    1    1    2  502    0 -0.36045416243E+02  0.83760342824E+02  0.11728607300E+04  0.11764001696E+04  0.00000000000E+00 0. -1.
         22    1    3    3    0    0 -0.65843784508E+02  0.10947995511E+02  0.16039108731E+03  0.17372554059E+03  0.00000000000E+00 0.  1.
         22    1    3    3    0    0  0.23944761585E+02 -0.53535566190E+02  0.44544725981E+02  0.73645373700E+02  0.00000000000E+00 0.  1.
</event>
<event>
 7    1  0.6370239E-006  0.2030322E+03  0.7818608E-02  0.1186268E+00
          2   -1    0    0  502    0  0.00000000000E+00  0.00000000000E+00  0.10621314066E+04  0.10621314066E+04  0.00000000000E+00 0. -1.
          1   -1    0    0  501    0 -0.00000000000E+00 -0.00000000000E+00 -0.52274346568E+03  0.52274346568E+03  0.00000000000E+00 0. -1.
         25    2    1    2    0    0  0.12464388700E+02  0.28125978417E+03  0.66506599480E+02  0.31513538886E+03  0.12499903345E+03 0.  0.
          2    1    1    2  501    0 -0.85446181875E+02 -0.97352919599E+02 -0.37621769915E+03  0.39789244540E+03  0.00000000000E+00 0. -1.
          1    1    1    2  502    0  0.72981793175E+02 -0.18390686457E+03  0.84909904055E+03  0.87184703798E+03  0.00000000000E+00 0. -1.
         22    1    3    3    0    0 -0.88463933455E+01  0.94393244113E+02  0.83441676927E+02  0.12629670090E+03  0.00000000000E+00 0. -1.
         22    1    3    3    0    0  0.21310782045E+02  0.18686654006E+03 -0.16935077448E+02  0.18883868796E+03  0.00000000000E+00 0. -1.
</event>
<event>
 7    1  0.6370239E-006  0.4248066E+02  0.7818608E-02  0.1555345E+00
          2   -1    0    0  502    0  0.00000000000E+00  0.00000000000E+00  0.26342351208E+04  0.26342351208E+04  0.00000000000E+00 0. -1.
          1   -1    0    0  501    0 -0.00000000000E+00 -0.00000000000E+00 -0.95283199135E+02  0.95283199135E+02  0.00000000000E+00 0. -1.
         25    2    1    2    0    0  0.14219846855E+02 -0.45376807882E+02  0.64917877097E+03  0.66281157717E+03  0.12499940568E+03 0.  0.
          2    1    1    2  501    0  0.19586874920E+02  0.19469655388E+02 -0.86076320000E+02  0.90398263339E+02  0.00000000000E+00 0. -1.
          1    1    1    2  502    0 -0.33806721775E+02  0.25907152494E+02  0.19758494707E+04  0.19763084794E+04  0.00000000000E+00 0. -1.
         22    1    3    3    0    0  0.20523754126E+02  0.20351463361E+02  0.36372491256E+02  0.46458203414E+02  0.00000000000E+00 0. -1.
         22    1    3    3    0    0 -0.63039072710E+01 -0.65728271243E+02  0.61280627971E+03  0.61635337376E+03  0.00000000000E+00 0. -1.
</event>
<event>
 7    1  0.6370239E-006  0.6900673E+02  0.7818608E-02  0.1407256E+00
          2   -1    0    0  502    0  0.00000000000E+00  0.00000000000E+00  0.27324765004E+04  0.27324765004E+04  0.00000000000E+00 0. -1.
          1   -1    0    0  501    0 -0.00000000000E+00 -0.00000000000E+00 -0.10864300761E+04  0.10864300761E+04  0.00000000000E+00 0. -1.
         25    2    1    2    0    0  0.87115981945E+02  0.78046976804E+02  0.12683121285E+04  0.12798147164E+04  0.12501811120E+03 0.  0.
          2    1    1    2  501    0 -0.54541240591E+02 -0.42207843951E+02 -0.10791757031E+04  0.10813771068E+04  0.00000000000E+00 0. -1.
          1    1    1    2  502    0 -0.32574741353E+02 -0.35839132852E+02  0.14569099989E+04  0.14577147533E+04  0.00000000000E+00 0. -1.
         22    1    3    3    0    0  0.51923454368E+02  0.55342531044E+02  0.26560510339E+03  0.27623343716E+03  0.00000000000E+00 0.  1.
         22    1    3    3    0    0  0.35192527577E+02  0.22704445760E+02  0.10027070251E+04  0.10035812793E+04  0.00000000000E+00 0.  1.
</event>
<event>
 7    1  0.6370239E-006  0.1362954E+03  0.7818608E-02  0.1264079E+00
          2   -1    0    0  502    0  0.00000000000E+00  0.00000000000E+00  0.82462247591E+03  0.82462247591E+03  0.00000000000E+00 0. -1.
          1   -1    0    0  501    0 -0.00000000000E+00 -0.00000000000E+00 -0.84565050164E+03  0.84565050164E+03  0.00000000000E+00 0. -1.
         25    2    1    2    0    0 -0.10026132650E+03 -0.48634517354E+02 -0.24994841387E+03  0.30086018174E+03  0.12499995797E+03 0.  0.
          2    1    1    2  501    0 -0.33713797436E+02  0.78876623997E+02 -0.56106117990E+03  0.56758064585E+03  0.00000000000E+00 0. -1.
          1    1    1    2  502    0  0.13397512394E+03 -0.30242106643E+02  0.78998156804E+03  0.80183214995E+03  0.00000000000E+00 0. -1.
         22    1    3    3    0    0 -0.98880794902E+02 -0.21084888752E+02 -0.80653584066E+02  0.12933284485E+03  0.00000000000E+00 0.  1.
         22    1    3    3    0    0 -0.13805315984E+01 -0.27549628602E+02 -0.16929482980E+03  0.17152733689E+03  0.00000000000E+00 0.  1.
</event>
<event>
 7    1  0.6370239E-006  0.9857834E+02  0.7818608E-02  0.1298450E+00
          2   -1    0    0  502    0  0.00000000000E+00  0.00000000000E+00  0.20580726626E+04  0.20580726626E+04  0.00000000000E+00 0. -1.
          1   -1    0    0  501    0 -0.00000000000E+00 -0.00000000000E+00 -0.11887943426E+04  0.11887943426E+04  0.00000000000E+00 0. -1.
         25    2    1    2    0    0 -0.68152345746E+01  0.15458285864E+02  0.10523523235E+03  0.16426457516E+03  0.12499196175E+03 0.  0.
          2    1    1    2  501    0 -0.43874746403E+02  0.73462648995E+02 -0.11563359891E+04  0.11594975954E+04  0.00000000000E+00 0. -1.
          1    1    1    2  502    0  0.50689980978E+02 -0.88920934859E+02  0.19203790767E+04  0.19231048347E+04  0.00000000000E+00 0. -1.
         22    1    3    3    0    0 -0.47014190710E+01 -0.48067297759E+02  0.92998699025E+01  0.49183900164E+02  0.00000000000E+00 0.  1.
         22    1    3    3    0    0 -0.21138155036E+01  0.63525583622E+02  0.95935362443E+02  0.11508067500E+03  0.00000000000E+00 0.  1.
</event>
<event>
 7    1  0.6370239E-006  0.1061304E+03  0.7818608E-02  0.1312577E+00
          2   -1    0    0  502    0  0.00000000000E+00  0.00000000000E+00  0.19724884484E+04  0.19724884484E+04  0.00000000000E+00 0. -1.
          1   -1    0    0  501    0 -0.00000000000E+00 -0.00000000000E+00 -0.26075398974E+03  0.26075398974E+03  0.00000000000E+00 0. -1.
         25    2    1    2    0    0 -0.15504847610E+03  0.37925529864E+02  0.54237562360E+03  0.57902836542E+03  0.12499662045E+03 0.  0.
          2    1    1    2  501    0  0.88032573922E+02 -0.57629614276E+02 -0.23009862016E+03  0.25301438993E+03  0.00000000000E+00 0. -1.
          1    1    1    2  502    0  0.67015902174E+02  0.19704084412E+02  0.13994574552E+04  0.14011996828E+04  0.00000000000E+00 0. -1.
         22    1    3    3    0    0 -0.16260501055E+03  0.26607770607E+01  0.48205922501E+03  0.50875196865E+03  0.00000000000E+00 0. -1.
         22    1    3    3    0    0  0.75565344516E+01  0.35264752803E+02  0.60316398590E+02  0.70276396763E+02  0.00000000000E+00 0. -1.
</event>
<event>
 7    1  0.6370239E-006  0.1717066E+03  0.7818608E-02  0.1399777E+00
          2   -1    0    0  502    0  0.00000000000E+00  0.00000000000E+00  0.77921494293E+03  0.77921494293E+03  0.00000000000E+00 0. -1.
          1   -1    0    0  501    0 -0.00000000000E+00 -0.00000000000E+00 -0.16221400765E+04  0.16221400765E+04  0.00000000000E+00 0. -1.
         25    2    1    2    0    0  0.94557230522E+02 -0.12200192419E+03 -0.69522282235E+03  0.72303935522E+03  0.12500238853E+03 0.  0.
          2    1    1    2  501    0  0.15373119076E+01 -0.20587638256E+02 -0.90323134351E+03  0.90346725125E+03  0.00000000000E+00 0. -1.
          1    1    1    2  502    0 -0.96094542429E+02  0.14258956245E+03  0.75552903230E+03  0.77484841295E+03  0.00000000000E+00 0. -1.
         22    1    3    3    0    0  0.62334566806E+02 -0.13180197804E+02 -0.42797555626E+03  0.43269202973E+03  0.00000000000E+00 0.  1.
         22    1    3    3    0    0  0.32222663715E+02 -0.10882172639E+03 -0.26724726608E+03  0.29034732549E+03  0.00000000000E+00 0.  1.
</event>
<event>
 7    1  0.6370239E-006  0.6362222E+02  0.7818608E-02  0.1388690E+00
          2   -1    0    0  502    0  0.00000000000E+00  0.00000000000E+00  0.77268671088E+03  0.77268671088E+03  0.00000000000E+00 0. -1.
          1   -1    0    0  501    0 -0.00000000000E+00 -0.00000000000E+00 -0.66183554880E+02  0.66183554880E+02  0.00000000000E+00 0. -1.
         25    2    1    2    0    0 -0.14602360920E+02  0.47485217614E+01  0.29270607380E+03  0.31864991641E+03  0.12500058474E+03 0.  0.
          2    1    1    2  501    0  0.16678119658E+02 -0.65588687143E+02 -0.28732901699E+02  0.73522888929E+02  0.00000000000E+00 0. -1.
          1    1    1    2  502    0 -0.20757587378E+01  0.60840165382E+02  0.44252998390E+03  0.44669746042E+03  0.00000000000E+00 0. -1.
         22    1    3    3    0    0 -0.61144299212E+02  0.34854065732E+02  0.15653820469E+03  0.17163228354E+03  0.00000000000E+00 0.  1.
         22    1    3    3    0    0  0.46541938292E+02 -0.30105543971E+02  0.13616786911E+03  0.14701763287E+03  0.00000000000E+00 0.  1.
</event>
<event>
 7    1  0.6370239E-006  0.1126261E+03  0.7818608E-02  0.1365602E+00
          2   -1    0    0  502    0  0.00000000000E+00  0.00000000000E+00  0.29916247079E+03  0.29916247079E+03  0.00000000000E+00 0. -1.
          1   -1    0    0  501    0 -0.00000000000E+00 -0.00000000000E+00 -0.99921879787E+03  0.99921879787E+03  0.00000000000E+00 0. -1.
         25    2    1    2    0    0  0.75960907285E+01  0.12574198374E+03  0.87573827274E+02  0.19789448993E+03  0.12499722738E+03 0.  0.
          2    1    1    2  501    0 -0.36432785736E+02 -0.19969715189E+02 -0.92432536257E+03  0.92525861968E+03  0.00000000000E+00 0. -1.
          1    1    1    2  502    0  0.28836695007E+02 -0.10577226855E+03  0.13669520821E+03  0.17522815904E+03  0.00000000000E+00 0. -1.
         22    1    3    3    0    0  0.76889808267E+01  0.16757414901E+02 -0.31485027474E+02  0.36486138948E+02  0.00000000000E+00 0. -1.
         22    1    3    3    0    0 -0.92890098237E-01  0.10898456884E+03  0.11905885475E+03  0.16140835098E+03  0.00000000000E+00 0. -1.
</event>
<event>
 7    1  0.6370239E-006  0.1389030E+03  0.7818608E-02  0.1353789E+00
          2   -1    0    0  502    0  0.00000000000E+00  0.00000000000E+00  0.72241135472E+03  0.72241135472E+03  0.00000000000E+00 0. -1.
          1   -1    0    0  501    0 -0.00000000000E+00 -0.00000000000E+00 -0.16820522822E+04  0.16820522822E+04  0.00000000000E+00 0. -1.
         25    2    1    2    0    0  0.14993772486E+03 -0.35373709729E+01  0.15072692477E+03  0.24665695431E+03  0.12500885140E+03 0.  0.
          2    1    1    2  501    0 -0.17340500769E+02 -0.32916637259E+02 -0.16248434307E+04  0.16252693230E+04  0.00000000000E+00 0. -1.
          1    1    1    2  502    0 -0.13259722409E+03  0.36454008231E+02  0.51447557846E+03  0.53253735961E+03  0.00000000000E+00 0. -1.
         22    1    3    3    0    0  0.92046102142E+02  0.20555322287E+02  0.15750865087E+03  0.18358644092E+03  0.00000000000E+00 0. -1.
         22    1    3    3    0    0  0.57891622719E+02 -0.24092693260E+02 -0.67817260972E+01  0.63070513383E+02  0.00000000000E+00 0. -1.
</event>
<event>
 7    1  0.6370239E-006  0.2165901E+03  0.7818608E-02  0.1286999E+00
          2   -1    0    0  502    0  0.00000000000E+00  0.00000000000E+00  0.14567174558E+04  0.14567174558E+04  0.00000000000E+00 0. -1.
          1   -1    0    0  501    0 -0.00000000000E+00 -0.00000000000E+00 -0.43840780100E+03  0.43840780100E+03  0.00000000000E+00 0. -1.
         25    2    1    2    0    0 -0.18248559146E+03 -0.13190012626E+03 -0.21894960542E+03  0.33802883746E+03  0.12500372331E+03 0.  0.
          2    1    1    2  501    0 -0.13965550551E+02  0.41021347009E+02 -0.14841829978E+03  0.15461493855E+03  0.00000000000E+00 0. -1.
          1    1    1    2  502    0  0.19645114201E+03  0.90878779253E+02  0.13856775600E+04  0.14024814808E+04  0.00000000000E+00 0. -1.
         22    1    3    3    0    0 -0.70366703015E+01 -0.16039632628E+01 -0.77216285487E+02  0.77552834709E+02  0.00000000000E+00 0. -1.
         22    1    3    3    0    0 -0.17544892116E+03 -0.13029616300E+03 -0.14173331993E+03  0.26047600275E+03  0.00000000000E+00 0. -1.
</event>
<event>
 7    1  0.6370239E-006  0.5991029E+02  0.7818608E-02  0.1530926E+00
          2   -1    0    0  502    0  0.00000000000E+00  0.00000000000E+00  0.10651077196E+03  0.10651077196E+03  0.00000000000E+00 0. -1.
          1   -1    0    0  501    0 -0.00000000000E+00 -0.00000000000E+00 -0.10667158200E+04  0.10667158200E+04  0.00000000000E+00 0. -1.
         25    2    1    2    0    0 -0.35971261077E+02 -0.17520737766E+02 -0.14415378696E+03  0.19495271232E+03  0.12500135148E+03 0.  0.
          2    1    1    2  501    0 -0.13731959034E+02 -0.18377349553E+02 -0.88540654511E+03  0.88570369978E+03  0.00000000000E+00 0. -1.
          1    1    1    2  502    0  0.49703220110E+02  0.35898087319E+02  0.69355284068E+02  0.92570179813E+02  0.00000000000E+00 0. -1.
         22    1    3    3    0    0 -0.61183346045E+02 -0.57513809580E+02 -0.92441028104E+02  0.12488628348E+03  0.00000000000E+00 0.  1.
         22    1    3    3    0    0  0.25212084968E+02  0.39993071814E+02 -0.51712758858E+02  0.70066428840E+02  0.00000000000E+00 0.  1.
</event>
<event>
 7    1  0.6370239E-006  0.6647048E+02  0.7818608E-02  0.1463204E+00
          2   -1    0    0  502    0  0.00000000000E+00  0.00000000000E+00  0.95148901377E+03  0.95148901377E+03  0.00000000000E+00 0. -1.
          1   -1    0    0  501    0 -0.00000000000E+00 -0.00000000000E+00 -0.39440420773E+02  0.39440420773E+02  0.00000000000E+00 0. -1.
         25    2    1    2    0    0  0.11411012012E+02 -0.71675940351E+02  0.22843825738E+03  0.27032917134E+03  0.12500468719E+03 0.  0.
          2    1    1    2  501    0  0.20501797634E+02  0.63278274259E+02  0.43142018022E+02  0.79282390343E+02  0.00000000000E+00 0. -1.
          1    1    1    2  502    0 -0.31912809646E+02  0.83976660912E+01  0.64046831760E+03  0.64131787287E+03  0.00000000000E+00 0. -1.
         22    1    3    3    0    0 -0.39021901329E+02 -0.84002847294E+02  0.14751632095E+03  0.17418453457E+03  0.00000000000E+00 0. -1.
         22    1    3    3    0    0  0.50432913342E+02  0.12326906943E+02  0.80921936433E+02  0.96144636767E+02  0.00000000000E+00 0. -1.
</event>
<event>
 7    1  0.6370239E-006  0.8969022E+02  0.7818608E-02  0.1455677E+00
          2   -1    0    0  502    0  0.00000000000E+00  0.00000000000E+00  0.12201601631E+03  0.12201601631E+03  0.00000000000E+00 0. -1.
          1   -1    0    0  501    0 -0.00000000000E+00 -0.00000000000E+00 -0.57022040234E+03  0.57022040234E+03  0.00000000000E+00 0. -1.
         25    2    1    2    0    0 -0.55743733508E+01  0.66500342320E+02 -0.30373934002E+03  0.33516699227E+03  0.12500382742E+03 0.  0.
          2    1    1    2  501    0  0.78904633977E+01  0.24596808383E+02 -0.23038254041E+03  0.23182617911E+03  0.00000000000E+00 0. -1.
          1    1    1    2  502    0 -0.23160900469E+01 -0.91097150703E+02  0.85917494407E+02  0.12524324726E+03  0.00000000000E+00 0. -1.
         22    1    3    3    0    0  0.33451460559E+02  0.79057559533E+02 -0.12402116111E+03  0.15083217938E+03  0.00000000000E+00 0.  1.
         22    1    3    3    0    0 -0.39025833910E+02 -0.12557217214E+02 -0.17971817891E+03  0.18433481290E+03  0.00000000000E+00 0.  1.
</event>
<event>
 7    1  0.6370239E-006  0.8070389E+02  0.7818608E-02  0.1453299E+00
          2   -1    0    0  502    0  0.00000000000E+00  0.00000000000E+00  0.12726586188E+04  0.12726586188E+04  0.00000000000E+00 0. -1.
          1   -1    0    0  501    0 -0.00000000000E+00 -0.00000000000E+00 -0.69313281258E+03  0.69313281258E+03  0.00000000000E+00 0. -1.
         25    2    1    2    0    0 -0.53642801731E+02  0.30281093252E+02  0.33771027044E+03  0.36533311859E+03  0.12500226395E+03 0.  0.
          2    1    1    2  501    0  0.54778933739E+02 -0.59471022098E+02 -0.67668245256E+03  0.68149591022E+03  0.00000000000E+00 0. -1.
          1    1    1    2  502    0 -0.11361320086E+01  0.29189928845E+02  0.91849798834E+03  0.91896240257E+03  0.00000000000E+00 0. -1.
         22    1    3    3    0    0 -0.39628460387E+02  0.73559617302E+02  0.27789544978E+03  0.29018496374E+03  0.00000000000E+00 0.  1.
         22    1    3    3    0    0 -0.14014341344E+02 -0.43278524050E+02  0.59814820662E+02  0.75148154855E+02  0.00000000000E+00 0.  1.
</event>
<event>
 7    1  0.6370239E-006  0.3445618E+02  0.7818608E-02  0.1575667E+00
          2   -1    0    0  502    0  0.00000000000E+00  0.00000000000E+00  0.21167551530E+04  0.21167551530E+04  0.00000000000E+00 0. -1.
          1   -1    0    0  501    0 -0.00000000000E+00 -0.00000000000E+00 -0.76746303938E+03  0.76746303938E+03  0.00000000000E+00 0. -1.
         25    2    1    2    0    0  0.26291666077E+01 -0.48786218496E+01 -0.54720253209E+03  0.56132629617E+03  0.12500354467E+03 0.  0.
          2    1    1    2  501    0 -0.53748406356E+01 -0.29475588840E+02 -0.21200445400E+03  0.21411115749E+03  0.00000000000E+00 0. -1.
          1    1    1    2  502    0  0.27456740279E+01  0.34354210690E+02  0.21084990997E+04  0.21087807387E+04  0.00000000000E+00 0. -1.
         22    1    3    3    0    0  0.42205938674E+02  0.10827828227E+02 -0.47863145782E+03  0.48061071101E+03  0.00000000000E+00 0. -1.
         22    1    3    3    0    0 -0.39576772067E+02 -0.15706450076E+02 -0.68571074273E+02  0.80715585163E+02  0.00000000000E+00 0. -1.
</event>
<event>
 7    1  0.6370239E-006  0.7394365E+02  0.7818608E-02  0.1369096E+00
          2   -1    0    0  502    0  0.00000000000E+00  0.00000000000E+00  0.26005948761E+03  0.26005948761E+03  0.00000000000E+00 0. -1.
          1   -1    0    0  501    0 -0.00000000000E+00 -0.00000000000E+00 -0.41627860989E+03  0.41627860989E+03  0.00000000000E+00 0. -1.
         25    2    1    2    0    0 -0.69057928055E+02  0.64411834091E+02  0.83748411360E+02  0.17764204198E+03  0.12500006751E+03 0.  0.
          2    1    1    2  501    0  0.82665696534E+01 -0.73523839384E+02 -0.35802713210E+03  0.36559201092E+03  0.00000000000E+00 0. -1.
          1    1    1    2  502    0  0.60791358401E+02  0.91120052930E+01  0.11805959846E+03  0.13310404459E+03  0.00000000000E+00 0. -1.
         22    1    3    3    0    0 -0.17413157496E+01  0.13285789304E+02  0.91759626094E+02  0.92732806271E+02  0.00000000000E+00 0.  1.
         22    1    3    3    0    0 -0.67316612305E+02  0.51126044787E+02 -0.80112147337E+01  0.84909235713E+02  0.00000000000E+00 0.  1.
</event>
<event>
 7    1  0.6370239E-006  0.9541984E+02  0.7818608E-02  0.1449735E+00
          2   -1    0    0  502    0  0.00000000000E+00  0.00000000000E+00  0.12021112592E+04  0.12021112592E+04  0.00000000000E+00 0. -1.
          1   -1    0    0  501    0 -0.00000000000E+00 -0.00000000000E+00 -0.62300030079E+02  0.62300030079E+02  0.00000000000E+00 0. -1.
         25    2    1    2    0    0 -0.73188601194E+02  0.34880185178E+02  0.52740722163E+03  0.54804802048E+03  0.12500022665E+03 0.  0.
          2    1    1    2  501    0  0.94466226500E+02 -0.21077064495E+02 -0.64369387995E+01  0.97002808093E+02  0.00000000000E+00 0. -1.
          1    1    1    2  502    0 -0.21277625306E+02 -0.13803120683E+02  0.61884094631E+03  0.61936046073E+03  0.00000000000E+00 0. -1.
         22    1    3    3    0    0 -0.59861366119E+02  0.53346248819E+02  0.15113841832E+03  0.17109069790E+03  0.00000000000E+00 0.  1.
         22    1    3    3    0    0 -0.13327235075E+02 -0.18466063641E+02  0.37626880330E+03  0.37695732257E+03  0.00000000000E+00 0.  1.
</event>
<event>
 7    1  0.6370239E-006  0.5683973E+02  0.7818608E-02  0.1550219E+00
          2   -1    0    0  502    0  0.00000000000E+00  0.00000000000E+00  0.80502779464E+03  0.80502779464E+03  0.00000000000E+00 0. -1.
          1   -1    0    0  501    0 -0.00000000000E+00 -0.00000000000E+00 -0.55908483413E+02  0.55908483413E+02  0.00000000000E+00 0. -1.
         25    2    1    2    0    0 -0.49806478907E+02 -0.34637169490E+02  0.37789706466E+03  0.40263049643E+03  0.12499882532E+03 0.  0.
          2    1    1    2  501    0  0.32272600138E+02  0.46781320621E+02 -0.24586051371E+02  0.61923231511E+02  0.00000000000E+00 0. -1.
          1    1    1    2  502    0  0.17533878769E+02 -0.12144151131E+02  0.39580829794E+03  0.39638255011E+03  0.00000000000E+00 0. -1.
         22    1    3    3    0    0  0.35438551247E+01 -0.73062956855E+02  0.20418403325E+03  0.21689138759E+03  0.00000000000E+00 0. -1.
         22    1    3    3    0    0 -0.53350334032E+02  0.38425787365E+02  0.17371303141E+03  0.18573910885E+03  0.00000000000E+00 0. -1.
</event>
<event>
 7    1  0.6370239E-006  0.3728403E+02  0.7818608E-02  0.1581722E+00
          2   -1    0    0  502    0  0.00000000000E+00  0.00000000000E+00  0.18488730147E+04  0.18488730147E+04  0.00000000000E+00 0. -1.
          1   -1    0    0  501    0 -0.00000000000E+00 -0.00000000000E+00 -0.46740486459E+03  0.46740486459E+03  0.00000000000E+00 0. -1.
         25    2    1    2    0    0 -0.57753879254E+02  0.14078404329E+02  0.15543695276E+03  0.20813221698E+03  0.12499864570E+03 0.  0.
          2    1    1    2  501    0  0.31649679314E+02 -0.19549974882E+02 -0.44016589016E+03  0.44173511811E+03  0.00000000000E+00 0. -1.
          1    1    1    2  502    0  0.26104199940E+02  0.54715705533E+01  0.16661970875E+04  0.16664105442E+04  0.00000000000E+00 0. -1.
         22    1    3    3    0    0 -0.22740616357E+02  0.66783336160E+02  0.10820710728E+03  0.12917402095E+03  0.00000000000E+00 0. -1.
         22    1    3    3    0    0 -0.35013262896E+02 -0.52704931830E+02  0.47229845471E+02  0.78958196035E+02  0.00000000000E+00 0. -1.
</event>
<event>
 7    1  0.6370239E-006  0.1668289E+03  0.7818608E-02  0.1255900E+00
          2   -1    0    0  502    0  0.00000000000E+00  0.00000000000E+00  0.15375052216E+04  0.15375052216E+04  0.00000000000E+00 0. -1.
          1   -1    0    0  501    0 -0.00000000000E+00 -0.00000000000E+00 -0.35894935943E+04  0.35894935943E+04  0.00000000000E+00 0. -1.
         25    2    1    2    0    0  0.15487957314E+03 -0.43087957966E+02 -0.14334690215E+04  0.14478615282E+04  0.12500125959E+03 0.  0.
          2    1    1    2  501    0  0.88595779774E+01  0.75427145171E+02 -0.21436030908E+04  0.21449480081E+04  0.00000000000E+00 0. -1.
          1    1    1    2  502    0 -0.16373915112E+03 -0.32339187204E+02  0.15250837396E+04  0.15341892796E+04  0.00000000000E+00 0. -1.
         22    1    3    3    0    0 -0.25703671804E+01  0.42177085925E+01 -0.50008751152E+03  0.50011190251E+03  0.00000000000E+00 0. -1.
         22    1    3    3    0    0  0.15744994032E+03 -0.47305666559E+02 -0.93338150998E+03  0.94774962568E+03  0.00000000000E+00 0. -1.
</event>
<event>
 7    1  0.6370239E-006  0.6994734E+02  0.7818608E-02  0.1375775E+00
          2   -1    0    0  502    0  0.00000000000E+00  0.00000000000E+00  0.67602353109E+03  0.67602353109E+03  0.00000000000E+00 0. -1.
          1   -1    0    0  501    0 -0.00000000000E+00 -0.00000000000E+00 -0.20507977827E+03  0.20507977827E+03  0.00000000000E+00 0. -1.
         25    2    1    2    0    0  0.54438818651E+02 -0.10534781874E+03  0.37957658674E+02  0.17643203304E+03  0.12500292213E+03 0.  0.
          2    1    1    2  501    0 -0.68536993103E+01  0.66388683541E+02 -0.12585485928E+03  0.14245657620E+03  0.00000000000E+00 0. -1.
          1    1    1    2  502    0 -0.47585119340E+02  0.38959135199E+02  0.55884095344E+03  0.56221470012E+03  0.00000000000E+00 0. -1.
         22    1    3    3    0    0  0.13564491051E+02  0.28239553004E+02  0.15445873394E+02  0.34929110728E+02  0.00000000000E+00 0. -1.
         22    1    3    3    0    0  0.40874327599E+02 -0.13358737174E+03  0.22511785280E+02  0.14150292231E+03  0.00000000000E+00 0. -1.
</event>
<event>
 7    1  0.8635574E-006  0.9974137E+02  0.7818608E-02  0.1358233E+00
          2   -1    0    0  502    0  0.00000000000E+00  0.00000000000E+00  0.15131229161E+04  0.15131229161E+04  0.00000000000E+00 0. -1.
          1   -1    0    0  501    0 -0.00000000000E+00 -0.00000000000E+00 -0.73490056236E+03  0.73490056236E+03  0.00000000000E+00 0. -1.
         25    2    1    2    0    0  0.23153710263E+01  0.70927918049E+02 -0.37404184637E+02  0.14852616197E+03  0.12499926903E+03 0.  0.
          2    1    1    2  501    0  0.47094578712E+02  0.16501946958E+02 -0.63923197733E+03  0.64117683554E+03  0.00000000000E+00 0. -1.
          1    1    1    2  502    0 -0.49409949738E+02 -0.87429865008E+02  0.14548585157E+04  0.14583204809E+04  0.00000000000E+00 0. -1.
         22    1    3    3    0    0 -0.25923501349E+02  0.99250426492E+02 -0.18287983544E+02  0.10419753079E+03  0.00000000000E+00 0. -1.
         22    1    3    3    0    0  0.28238872375E+02 -0.28322508443E+02 -0.19116201093E+02  0.44328631174E+02  0.00000000000E+00 0. -1.
</event>
<event>
 7    1  0.6370239E-006  0.3135220E+02  0.7818608E-02  0.1631274E+00
          2   -1    0    0  502    0  0.00000000000E+00  0.00000000000E+00  0.34484530294E+03  0.34484530294E+03  0.00000000000E+00 0. -1.
          1   -1    0    0  501    0 -0.00000000000E+00 -0.00000000000E+00 -0.27297378095E+03  0.27297378095E+03  0.00000000000E+00 0. -1.
         25    2    1    2    0    0 -0.16813294904E+02 -0.84556214142E+01 -0.73376122700E+02  0.14616041674E+03  0.12499851047E+03 0.  0.
          2    1    1    2  501    0  0.86456956510E+01 -0.21956975599E+02 -0.16154232204E+03  0.16325678742E+03  0.00000000000E+00 0. -1.
          1    1    1    2  502    0  0.81675992534E+01  0.30412597013E+02  0.30678996673E+03  0.30840187973E+03  0.00000000000E+00 0. -1.
         22    1    3    3    0    0  0.37698629336E+02 -0.37141481903E+01 -0.82412328890E+02  0.90701562851E+02  0.00000000000E+00 0. -1.
         22    1    3    3    0    0 -0.54511924240E+02 -0.47414732239E+01  0.90362061898E+01  0.55458853892E+02  0.00000000000E+00 0. -1.
</event>
<event>
 7    1  0.6370239E-006  0.4152771E+02  0.7818608E-02  0.1513911E+00
          2   -1    0    0  502    0  0.00000000000E+00  0.00000000000E+00  0.42705670157E+03  0.42705670157E+03  0.00000000000E+00 0. -1.
          1   -1    0    0  501    0 -0.00000000000E+00 -0.00000000000E+00 -0.99557425638E+02  0.99557425638E+02  0.00000000000E+00 0. -1.
         25    2    1    2    0    0  0.87823070387E+01 -0.17266300705E+02  0.17018768775E+03  0.21204948273E+03  0.12500351999E+03 0.  0.
          2    1    1    2  501    0 -0.29741175668E+02 -0.22129035117E+02 -0.71983243398E+02  0.80968012544E+02  0.00000000000E+00 0. -1.
          1    1    1    2  502    0  0.20958868629E+02  0.39395335822E+02  0.22929483158E+03  0.23359663193E+03  0.00000000000E+00 0. -1.
         22    1    3    3    0    0 -0.56328771589E+02 -0.19260559397E+02  0.63454613233E+02  0.87007974333E+02  0.00000000000E+00 0. -1.
         22    1    3    3    0    0  0.65111078627E+02  0.19942586921E+01  0.10673307452E+03  0.12504150840E+03  0.00000000000E+00 0. -1.
</event>
<event>
 7    1  0.6370239E-006  0.9208722E+02  0.7818608E-02  0.1382474E+00
          2   -1    0    0  502    0  0.00000000000E+00  0.00000000000E+00  0.97336268498E+03  0.97336268498E+03  0.00000000000E+00 0. -1.
          1   -1    0    0  501    0 -0.00000000000E+00 -0.00000000000E+00 -0.10680387067E+04  0.10680387067E+04  0.00000000000E+00 0. -1.
         25    2    1    2    0    0  0.73278244294E+02  0.26928409735E+02  0.66047757398E+03  0.67672015426E+03  0.12499880443E+03 0.  0.
          2    1    1    2  501    0 -0.91160434067E+02  0.13521860402E+02 -0.10562959703E+04  0.10603085599E+04  0.00000000000E+00 0. -1.
          1    1    1    2  502    0  0.17882189773E+02 -0.40450270138E+02  0.30114237455E+03  0.30437267751E+03  0.00000000000E+00 0. -1.
         22    1    3    3    0    0 -0.12546131536E+02  0.17894134141E+01  0.27853402091E+01  0.12975574630E+02  0.00000000000E+00 0. -1.
         22    1    3    3    0    0  0.85824375830E+02  0.25138996321E+02  0.65769223377E+03  0.66374457963E+03  0.00000000000E+00 0. -1.
</event>
<event>
 7    1  0.6370239E-006  0.1565083E+03  0.7818608E-02  0.1246051E+00
          2   -1    0    0  502    0  0.00000000000E+00  0.00000000000E+00  0.76993221220E+03  0.76993221220E+03  0.00000000000E+00 0. -1.
          1   -1    0    0  501    0 -0.00000000000E+00 -0.00000000000E+00 -0.43295298559E+03  0.43295298559E+03  0.00000000000E+00 0. -1.
         25    2    1    2    0    0 -0.19406970395E+02  0.90061617560E+02 -0.14356198845E+03  0.21147727597E+03  0.12499947307E+03 0.  0.
          2    1    1    2  501    0  0.61853593106E+02  0.64422691841E+02 -0.23853221277E+03  0.25470329156E+03  0.00000000000E+00 0. -1.
          1    1    1    2  502    0 -0.42446622711E+02 -0.15448430940E+03  0.71907342784E+03  0.73670463026E+03  0.00000000000E+00 0. -1.
         22    1    3    3    0    0  0.66851957838E+01  0.10148618137E+03 -0.49336779832E+02  0.11304094257E+03  0.00000000000E+00 0. -1.
         22    1    3    3    0    0 -0.26092166179E+02 -0.11424563815E+02 -0.94225208621E+02  0.98436333404E+02  0.00000000000E+00 0. -1.
</event>
<event>
 7    1  0.6370239E-006  0.5710862E+02  0.7818608E-02  0.1445277E+00
          2   -1    0    0  502    0  0.00000000000E+00  0.00000000000E+00  0.27124886451E+04  0.27124886451E+04  0.00000000000E+00 0. -1.
          1   -1    0    0  501    0 -0.00000000000E+00 -0.00000000000E+00 -0.18094820304E+03  0.18094820304E+03  0.00000000000E+00 0. -1.
         25    2    1    2    0    0 -0.26198861206E+02  0.96429344022E+02  0.40584605267E+03  0.43625795747E+03  0.12499995308E+03 0.  0.
          2    1    1    2  501    0  0.10748568160E+02 -0.42457867278E+02 -0.16249859218E+03  0.16829734006E+03  0.00000000000E+00 0. -1.
          1    1    1    2  502    0  0.15450293046E+02 -0.53971476744E+02  0.22881929816E+04  0.22888815507E+04  0.00000000000E+00 0. -1.
         22    1    3    3    0    0 -0.17203375850E+02  0.12267094248E+03  0.37422455152E+03  0.39419301267E+03  0.00000000000E+00 0.  1.
         22    1    3    3    0    0 -0.89954853566E+01 -0.26241598462E+02  0.31621501141E+02  0.42064944800E+02  0.00000000000E+00 0.  1.
</event>
<event>
 7    1  0.6370239E-006  0.5666566E+02  0.7818608E-02  0.1434091E+00
          2   -1    0    0  502    0  0.00000000000E+00  0.00000000000E+00  0.34285844401E+04  0.34285844401E+04  0.00000000000E+00 0. -1.
          1   -1    0    0  501    0 -0.00000000000E+00 -0.00000000000E+00 -0.67990617960E+02  0.67990617960E+02  0.00000000000E+00 0. -1.
         25    2    1    2    0    0 -0.66127900333E+02 -0.28548377456E+02  0.99517761816E+02  0.17527130324E+03  0.12501334234E+03 0.  0.
          2    1    1    2  501    0  0.12322405728E+02  0.46380450854E+02 -0.10592190063E+02  0.49144505234E+02  0.00000000000E+00 0. -1.
          1    1    1    2  502    0  0.53805494605E+02 -0.17832073398E+02  0.32716682504E+04  0.32721592496E+04  0.00000000000E+00 0. -1.
         22    1    3    3    0    0 -0.14306635951E+02 -0.32967770329E+02  0.11541961845E+03  0.12088524326E+03  0.00000000000E+00 0.  1.
         22    1    3    3    0    0 -0.51821264383E+02  0.44193928731E+01 -0.15901856638E+02  0.54386059980E+02  0.00000000000E+00 0.  1.
</event>
<event>
 7    1  0.6370239E-006  0.6661986E+02  0.7818608E-02  0.1476995E+00
          2   -1    0    0  502    0  0.00000000000E+00  0.00000000000E+00  0.31361179486E+03  0.31361179486E+03  0.00000000000E+00 0. -1.
          1   -1    0    0  501    0 -0.00000000000E+00 -0.00000000000E+00 -0.32245157984E+03  0.32245157984E+03  0.00000000000E+00 0. -1.
         25    2    1    2    0    0 -0.31413936595E+02 -0.58444834790E+02 -0.13093957602E+03  0.19280001610E+03  0.12499615800E+03 0.  0.
          2    1    1    2  501    0  0.28655182581E+02 -0.82839972835E+01 -0.15519693688E+03  0.15803744277E+03  0.00000000000E+00 0. -1.
          1    1    1    2  502    0  0.27587540143E+01  0.66728832073E+02  0.27729672792E+03  0.28522591584E+03  0.00000000000E+00 0. -1.
         22    1    3    3    0    0 -0.74787653316E+01 -0.92356929297E+02 -0.59318200947E+02  0.11001992221E+03  0.00000000000E+00 0. -1.
         22    1    3    3    0    0 -0.23935171264E+02  0.33912094507E+02 -0.71621375068E+02  0.82780093887E+02  0.00000000000E+00 0. -1.
</event>
<event>
 7    1  0.9850062E-006  0.6814456E+02  0.7818608E-02  0.1428255E+00
          2   -1    0    0  502    0  0.00000000000E+00  0.00000000000E+00  0.29696972774E+04  0.29696972774E+04  0.00000000000E+00 0. -1.
          1   -1    0    0  501    0 -0.00000000000E+00 -0.00000000000E+00 -0.49070111157E+03  0.49070111157E+03  0.00000000000E+00 0. -1.
         25    2    1    2    0    0 -0.84228310493E+02  0.42826701492E+02 -0.22462346569E+03  0.27387828488E+03  0.12500031576E+03 0.  0.
          2    1    1    2  501    0  0.16256724251E+02 -0.38409029059E+02 -0.23925206961E+03  0.24286022196E+03  0.00000000000E+00 0. -1.
          1    1    1    2  502    0  0.67971586242E+02 -0.44176724323E+01  0.29428717012E+04  0.29436598822E+04  0.00000000000E+00 0. -1.
         22    1    3    3    0    0 -0.79093549124E+02  0.83803609857E+02 -0.15971517832E+03  0.19694611629E+03  0.00000000000E+00 0. -1.
         22    1    3    3    0    0 -0.51347613692E+01 -0.40976908365E+02 -0.64908287377E+02  0.76932168588E+02  0.00000000000E+00 0. -1.
</event>
<event>
 7    1  0.6370239E-006  0.1727471E+03  0.7818608E-02  0.1313593E+00
          2   -1    0    0  502    0  0.00000000000E+00  0.00000000000E+00  0.22660410904E+04  0.22660410904E+04  0.00000000000E+00 0. -1.
          1   -1    0    0  501    0 -0.00000000000E+00 -0.00000000000E+00 -0.85519226227E+03  0.85519226227E+03  0.00000000000E+00 0. -1.
         25    2    1    2    0    0  0.11388442157E+03  0.16779856690E+03 -0.14402474633E+03  0.27837692982E+03  0.12499826788E+03 0.  0.
          2    1    1    2  501    0 -0.75093927177E+02 -0.15037730254E+03 -0.63281358501E+03  0.65475603425E+03  0.00000000000E+00 0. -1.
          1    1    1    2  502    0 -0.38790494389E+02 -0.17421264364E+02  0.21876871595E+04  0.21881003886E+04  0.00000000000E+00 0. -1.
         22    1    3    3    0    0  0.12241644343E+03  0.13728272183E+03 -0.68155611772E+02  0.19615687281E+03  0.00000000000E+00 0.  1.
         22    1    3    3    0    0 -0.85320218626E+01  0.30515845079E+02 -0.75869134554E+02  0.82220057017E+02  0.00000000000E+00 0.  1.
</event>
<event>
 7    1  0.6370239E-006  0.9440097E+02  0.7818608E-02  0.1410907E+00
          2   -1    0    0  502    0  0.00000000000E+00  0.00000000000E+00  0.76805767017E+03  0.76805767017E+03  0.00000000000E+00 0. -1.
          1   -1    0    0  501    0 -0.00000000000E+00 -0.00000000000E+00 -0.15496323241E+04  0.15496323241E+04  0.00000000000E+00 0. -1.
         25    2    1    2    0    0 -0.71392881320E+02  0.10337714998E+03 -0.10869930184E+04  0.11013458298E+04  0.12500014483E+03 0.  0.
          2    1    1    2  501    0  0.28399206934E+02 -0.19425561638E+02 -0.45188333561E+03  0.45319136841E+03  0.00000000000E+00 0. -1.
          1    1    1    2  502    0  0.42993674386E+02 -0.83951588346E+02  0.75730170005E+03  0.76315279605E+03  0.00000000000E+00 0. -1.
         22    1    3    3    0    0 -0.41759593008E+02  0.57947369331E+02 -0.19440371808E+03  0.20711003554E+03  0.00000000000E+00 0.  1.
         22    1    3    3    0    0 -0.29633288313E+02  0.45429780654E+02 -0.89258930028E+03  0.89423579425E+03  0.00000000000E+00 0.  1.
</event>
<event>
 7    1  0.6370239E-006  0.9100586E+02  0.7818608E-02  0.1373484E+00
          2   -1    0    0  502    0  0.00000000000E+00  0.00000000000E+00  0.13323812177E+03  0.13323812177E+03  0.00000000000E+00 0. -1.
          1   -1    0    0  501    0 -0.00000000000E+00 -0.00000000000E+00 -0.12042594325E+04  0.12042594325E+04  0.00000000000E+00 0. -1.
         25    2    1    2    0    0 -0.96598808072E+02 -0.84803958430E+02 -0.70790513562E+03  0.73025860386E+03  0.12499962552E+03 0.  0.
          2    1    1    2  501    0  0.47271605686E+02  0.92464974441E+01 -0.46709188021E+03  0.46956887352E+03  0.00000000000E+00 0. -1.
          1    1    1    2  502    0  0.49327202386E+02  0.75557460986E+02  0.10397570513E+03  0.13767007686E+03  0.00000000000E+00 0. -1.
         22    1    3    3    0    0 -0.66770994509E+02 -0.11033638996E+03 -0.41074772218E+03  0.43051849662E+03  0.00000000000E+00 0. -1.
         22    1    3    3    0    0 -0.29827813563E+02  0.25532431530E+02 -0.29715741344E+03  0.29974010723E+03  0.00000000000E+00 0. -1.
</event>
<event>
 7    1  0.6370239E-006  0.1504182E+03  0.7818608E-02  0.1307666E+00
          2   -1    0    0  502    0  0.00000000000E+00  0.00000000000E+00  0.10089501852E+03  0.10089501852E+03  0.00000000000E+00 0. -1.
          1   -1    0    0  501    0 -0.00000000000E+00 -0.00000000000E+00 -0.61476917602E+03  0.61476917602E+03  0.00000000000E+00 0. -1.
         25    2    1    2    0    0  0.17725418570E+03  0.58776503013E+02 -0.27796968578E+03  0.35744502839E+03  0.12500431373E+03 0.  0.
          2    1    1    2  501    0 -0.38356358495E+02 -0.34413273540E+02 -0.20822920203E+03  0.21451080209E+03  0.00000000000E+00 0. -1.
          1    1    1    2  502    0 -0.13889782720E+03 -0.24363229473E+02 -0.27675269683E+02  0.14370836407E+03  0.00000000000E+00 0. -1.
         22    1    3    3    0    0 -0.11551457631E+02 -0.16742194684E+02 -0.36249958909E+02  0.41566774919E+02  0.00000000000E+00 0.  1.
         22    1    3    3    0    0  0.18880564333E+03  0.75518697697E+02 -0.24171972687E+03  0.31587825347E+03  0.00000000000E+00 0.  1.
</event>
<event>
 7    1  0.6370239E-006  0.9146327E+02  0.7818608E-02  0.1372784E+00
          2   -1    0    0  502    0  0.00000000000E+00  0.00000000000E+00  0.96464112170E+03  0.96464112170E+03  0.00000000000E+00 0. -1.
          1   -1    0    0  501    0 -0.00000000000E+00 -0.00000000000E+00 -0.22620571807E+04  0.22620571807E+04  0.00000000000E+00 0. -1.
         25    2    1    2    0    0 -0.76508382604E+02 -0.85682834867E+02  0.53458939078E+01  0.16985245275E+03  0.12500478520E+03 0.  0.
          2    1    1    2  501    0  0.48195997969E+02 -0.86220297072E+00 -0.21771728783E+04  0.21777064402E+04  0.00000000000E+00 0. -1.
          1    1    1    2  502    0  0.28312384636E+02  0.86545037838E+02  0.87441092543E+03  0.87913940942E+03  0.00000000000E+00 0. -1.
         22    1    3    3    0    0  0.42157767569E+01 -0.44347571634E+02 -0.47310329367E+02  0.64982668061E+02  0.00000000000E+00 0.  1.
         22    1    3    3    0    0 -0.80724159361E+02 -0.41335263232E+02  0.52656223275E+02  0.10486978469E+03  0.00000000000E+00 0.  1.
</event>
<event>
 7    1  0.6370239E-006  0.2213113E+03  0.7818608E-02  0.1228484E+00
          2   -1    0    0  502    0  0.00000000000E+00  0.00000000000E+00  0.95550169259E+03  0.95550169259E+03  0.00000000000E+00 0. -1.
          1   -1    0    0  501    0 -0.00000000000E+00 -0.00000000000E+00 -0.20682359134E+04  0.20682359134E+04  0.00000000000E+00 0. -1.
         25    2    1    2    0    0 -0.17272976393E+03  0.39236193870E+02  0.28763494069E+03  0.36018623106E+03  0.12500084673E+03 0.  0.
          2    1    1    2  501    0  0.19181945780E+03 -0.11233899182E+03 -0.20235922119E+04  0.20357652599E+04  0.00000000000E+00 0. -1.
          1    1    1    2  502    0 -0.19089693878E+02  0.73102797945E+02  0.62322305046E+03  0.62778611494E+03  0.00000000000E+00 0. -1.
         22    1    3    3    0    0 -0.13661159146E+03  0.64746856529E+02  0.27562897888E+03  0.31436637280E+03  0.00000000000E+00 0. -1.
         22    1    3    3    0    0 -0.36118172471E+02 -0.25510662658E+02  0.12005961814E+02  0.45819858260E+02  0.00000000000E+00 0. -1.
</event>
<event>
 7    1  0.6370239E-006  0.9742032E+02  0.7818608E-02  0.1304701E+00
          2   -1    0    0  502    0  0.00000000000E+00  0.00000000000E+00  0.65204761379E+03  0.65204761379E+03  0.00000000000E+00 0. -1.
          1   -1    0    0  501    0 -0.00000000000E+00 -0.00000000000E+00 -0.12050791217E+03  0.12050791217E+03  0.00000000000E+00 0. -1.
         25    2    1    2    0    0 -0.68405706120E+01 -0.44648698931E+02  0.55839829197E+02  0.14416417642E+03  0.12499969406E+03 0.  0.
          2    1    1    2  501    0  0.37617328609E+02  0.12038160809E+03 -0.18503754646E+02  0.12747228685E+03  0.00000000000E+00 0. -1.
          1    1    1    2  502    0 -0.30776757996E+02 -0.75732909161E+02  0.49420362707E+03  0.50091906269E+03  0.00000000000E+00 0. -1.
         22    1    3    3    0    0 -0.50088893901E+02 -0.46344359150E+02 -0.61974342934E+01  0.68520837043E+02  0.00000000000E+00 0.  1.
         22    1    3    3    0    0  0.43248323289E+02  0.16956602188E+01  0.62037263490E+02  0.75643339378E+02  0.00000000000E+00 0.  1.
</event>
<event>
 7    1  0.6370239E-006  0.7923158E+02  0.7818608E-02  0.1336894E+00
          2   -1    0    0  502    0  0.00000000000E+00  0.00000000000E+00  0.19210861114E+03  0.19210861114E+03  0.00000000000E+00 0. -1.
          1   -1    0    0  501    0 -0.00000000000E+00 -0.00000000000E+00 -0.18074257345E+04  0.18074257345E+04  0.00000000000E+00 0. -1.
         25    2    1    2    0    0  0.73374873768E+02  0.11658571683E+03  0.57374398130E+00  0.18601322742E+03  0.12499796048E+03 0.  0.
          2    1    1    2  501    0 -0.83725190818E+01 -0.78347937356E+02 -0.16992698243E+04  0.17010956570E+04  0.00000000000E+00 0. -1.
          1    1    1    2  502    0 -0.65002354686E+02 -0.38237779473E+02  0.83378956908E+02  0.11242546130E+03  0.00000000000E+00 0. -1.
         22    1    3    3    0    0 -0.25835911620E+02 -0.74453935497E+01  0.37839074716E+01  0.27152277438E+02  0.00000000000E+00 0.  1.
         22    1    3    3    0    0  0.99210785388E+02  0.12403111038E+03 -0.32101634903E+01  0.15886094998E+03  0.00000000000E+00 0.  1.
</event>
<event>
 7    1  0.6370239E-006  0.1055600E+03  0.7818608E-02  0.1437064E+00
          2   -1    0    0  502    0  0.00000000000E+00  0.00000000000E+00  0.51828909668E+03  0.51828909668E+03  0.00000000000E+00 0. -1.
          1   -1    0    0  501    0 -0.00000000000E+00 -0.00000000000E+00 -0.56894984841E+02  0.56894984841E+02  0.00000000000E+00 0. -1.
         25    2    1    2    0    0  0.30568991096E+02 -0.11987646735E+03  0.24356566729E+03  0.30042377965E+03  0.12500152981E+03 0.  0.
          2    1    1    2  501    0 -0.10383308322E+02  0.22952375905E+02 -0.94095331012E+01  0.26891708101E+02  0.00000000000E+00 0. -1.
          1    1    1    2  502    0 -0.20185682774E+02  0.96924091445E+02  0.22723797765E+03  0.24786859377E+03  0.00000000000E+00 0. -1.
         22    1    3    3    0    0 -0.24005388332E+02 -0.59238974391E+02  0.27709229698E+02  0.69665746004E+02  0.00000000000E+00 0. -1.
         22    1    3    3    0    0  0.54574379427E+02 -0.60637492959E+02  0.21585643759E+03  0.23075803365E+03  0.00000000000E+00 0. -1.
</event>
<event>
 7    1  0.6370239E-006  0.1044990E+03  0.7818608E-02  0.1315521E+00
          2   -1    0    0  502    0  0.00000000000E+00  0.00000000000E+00  0.14849324356E+03  0.14849324356E+03  0.00000000000E+00 0. -1.
          1   -1    0    0  501    0 -0.00000000000E+00 -0.00000000000E+00 -0.23014944059E+04  0.23014944059E+04  0.00000000000E+00 0. -1.
         25    2    1    2    0    0  0.13281045682E+02  0.75696062026E+02 -0.71378944477E+02  0.16317477537E+03  0.12499909449E+03 0.  0.
          2    1    1    2  501    0  0.68854095452E+02  0.56350853316E+01 -0.21509286544E+04  0.21520378056E+04  0.00000000000E+00 0. -1.
          1    1    1    2  502    0 -0.82135141134E+02 -0.81331147357E+02  0.69306436502E+02  0.13477506847E+03  0.00000000000E+00 0. -1.
         22    1    3    3    0    0  0.36224824055E+02  0.10365291244E+03 -0.60715112829E+02  0.12546907611E+03  0.00000000000E+00 0.  1.
         22    1    3    3    0    0 -0.22943778373E+02 -0.27956850415E+02 -0.10663831648E+02  0.37705699259E+02  0.00000000000E+00 0.  1.
</event>
<event>
 7    1  0.6370239E-006  0.3566125E+02  0.7818608E-02  0.1556117E+00
          2   -1    0    0  502    0  0.00000000000E+00  0.00000000000E+00  0.85485787744E+03  0.85485787744E+03  0.00000000000E+00 0. -1.
          1   -1    0    0  501    0 -0.00000000000E+00 -0.00000000000E+00 -0.79624697145E+03  0.79624697145E+03  0.00000000000E+00 0. -1.
         25    2    1    2    0    0  0.49705221451E+02  0.45244766760E+02 -0.73643871987E+02  0.15989507876E+03  0.12500127348E+03 0.  0.
          2    1    1    2  501    0 -0.19719797631E+02 -0.26131099176E+02 -0.67869333644E+03  0.67948241308E+03  0.00000000000E+00 0. -1.
          1    1    1    2  502    0 -0.29985423820E+02 -0.19113667583E+02  0.81094811441E+03  0.81172735705E+03  0.00000000000E+00 0. -1.
         22    1    3    3    0    0 -0.12854149751E+02  0.77715699046E+01  0.29776041525E+02  0.33350249077E+02  0.00000000000E+00 0. -1.
         22    1    3    3    0    0  0.62559371202E+02  0.37473196855E+02 -0.10341991351E+03  0.12654482968E+03  0.00000000000E+00 0. -1.
</event>
<event>
 7    1  0.6370239E-006  0.4403122E+02  0.7818608E-02  0.1513299E+00
          2   -1    0    0  502    0  0.00000000000E+00  0.00000000000E+00  0.12854215675E+04  0.12854215675E+04  0.00000000000E+00 0. -1.
          1   -1    0    0  501    0 -0.00000000000E+00 -0.00000000000E+00 -0.28570282084E+03  0.28570282084E+03  0.00000000000E+00 0. -1.
         25    2    1    2    0    0  0.38616549589E+02 -0.23559896394E+01  0.55383302577E+03  0.56908231736E+03  0.12500749940E+03 0.  0.
          2    1    1    2  501    0 -0.30532065534E+02 -0.31808009556E+02 -0.27590116582E+03  0.27940187866E+03  0.00000000000E+00 0. -1.
          1    1    1    2  502    0 -0.80844840553E+01  0.34163999195E+02  0.72178688671E+03  0.72264019232E+03  0.00000000000E+00 0. -1.
         22    1    3    3    0    0 -0.59614451499E+01  0.52851307847E+02  0.15210649803E+03  0.16113716615E+03  0.00000000000E+00 0.  1.
         22    1    3    3    0    0  0.44577994739E+02 -0.55207297486E+02  0.40172652773E+03  0.40794515121E+03  0.00000000000E+00 0.  1.
</event>
<event>
 7    1  0.6370239E-006  0.8875904E+02  0.7818608E-02  0.1387783E+00
          2   -1    0    0  502    0  0.00000000000E+00  0.00000000000E+00  0.14149628284E+04  0.14149628284E+04  0.00000000000E+00 0. -1.
          1   -1    0    0  501    0 -0.00000000000E+00 -0.00000000000E+00 -0.61932464005E+03  0.61932464005E+03  0.00000000000E+00 0. -1.
         25    2    1    2    0    0  0.14366224998E+02 -0.70918644225E+02 -0.25249691883E+03  0.29088707554E+03  0.12499901671E+03 0.  0.
          2    1    1    2  501    0  0.23299856307E+02  0.93575474444E+02 -0.34059066403E+03  0.35397917050E+03  0.00000000000E+00 0. -1.
          1    1    1    2  502    0 -0.37666081305E+02 -0.22656830219E+02  0.13887257712E+04  0.13894212224E+04  0.00000000000E+00 0. -1.
         22    1    3    3    0    0  0.60077370946E+02 -0.75313031571E+02 -0.19319571540E+03  0.21588406072E+03  0.00000000000E+00 0.  1.
         22    1    3    3    0    0 -0.45711145948E+02  0.43943873461E+01 -0.59301203437E+02  0.75003014827E+02  0.00000000000E+00 0.  1.
</event>
<event>
 7    1  0.6370239E-006  0.3288881E+02  0.7818608E-02  0.1587318E+00
          2   -1    0    0  502    0  0.00000000000E+00  0.00000000000E+00  0.63641212691E+03  0.63641212691E+03  0.00000000000E+00 0. -1.
          1   -1    0    0  501    0 -0.00000000000E+00 -0.00000000000E+00 -0.23538326273E+03  0.23538326273E+03  0.00000000000E+00 0. -1.
         25    2    1    2    0    0 -0.31992945347E+02 -0.22252047068E+02  0.21613834070E+03  0.25270382341E+03  0.12499895159E+03 0.  0.
          2    1    1    2  501    0  0.27257061973E+02 -0.10514733734E+02 -0.21543123073E+03  0.21740313298E+03  0.00000000000E+00 0. -1.
          1    1    1    2  502    0  0.47358833743E+01  0.32766780803E+02  0.40032175422E+03  0.40168843326E+03  0.00000000000E+00 0. -1.
         22    1    3    3    0    0 -0.79614421523E+02 -0.55656082320E+01  0.11978504283E+03  0.14393709944E+03  0.00000000000E+00 0.  1.
         22    1    3    3    0    0  0.47621476176E+02 -0.16686438836E+02  0.96353297867E+02  0.10876672397E+03  0.00000000000E+00 0.  1.
</event>
<event>
 7    1  0.7999287E-006  0.1265708E+03  0.7818608E-02  0.1236303E+00
          2   -1    0    0  502    0  0.00000000000E+00  0.00000000000E+00  0.19366496661E+04  0.19366496661E+04  0.00000000000E+00 0. -1.
          1   -1    0    0  501    0 -0.00000000000E+00 -0.00000000000E+00 -0.13231785739E+04  0.13231785739E+04  0.00000000000E+00 0. -1.
         25    2    1    2    0    0 -0.11209961850E+03 -0.18112487984E+03 -0.38721807923E+03  0.45927680866E+03  0.12499919810E+03 0.  0.
          2    1    1    2  501    0  0.56407326658E+00  0.12189964815E+03 -0.89369112669E+03  0.90196655832E+03  0.00000000000E+00 0. -1.
          1    1    1    2  502    0  0.11153554523E+03  0.59225231691E+02  0.18943802982E+04  0.18985848730E+04  0.00000000000E+00 0. -1.
         22    1    3    3    0    0 -0.70805166351E+02 -0.19109504647E+03 -0.33282763159E+03  0.39026263044E+03  0.00000000000E+00 0. -1.
         22    1    3    3    0    0 -0.41294452146E+02  0.99701666352E+01 -0.54390447641E+02  0.69014178220E+02  0.00000000000E+00 0. -1.
</event>
<event>
 7    1  0.6370239E-006  0.4060647E+02  0.7818608E-02  0.1555923E+00
          2   -1    0    0  502    0  0.00000000000E+00  0.00000000000E+00  0.14085946785E+04  0.14085946785E+04  0.00000000000E+00 0. -1.
          1   -1    0    0  501    0 -0.00000000000E+00 -0.00000000000E+00 -0.29726032603E+02  0.29726032603E+02  0.00000000000E+00 0. -1.
         25    2    1    2    0    0 -0.23647579397E+02  0.59969411089E+02  0.58056415909E+03  0.59735665713E+03  0.12499877888E+03 0.  0.
          2    1    1    2  501    0  0.24900546804E+02 -0.31211068914E+02 -0.21568996374E+01  0.39985250655E+02  0.00000000000E+00 0. -1.
          1    1    1    2  502    0 -0.12529674075E+01 -0.28758342175E+02  0.80046138641E+03  0.80097880329E+03  0.00000000000E+00 0. -1.
         22    1    3    3    0    0 -0.33364305306E+02 -0.16246130820E+02  0.39182113918E+03  0.39357454026E+03  0.00000000000E+00 0. -1.
         22    1    3    3    0    0  0.97167259091E+01  0.76215541909E+02  0.18874301991E+03  0.20378211687E+03  0.00000000000E+00 0. -1.
</event>
<event>
 7    1  0.8524466E-006  0.7366561E+02  0.7818608E-02  0.1362147E+00
          2   -1    0    0  502    0  0.00000000000E+00  0.00000000000E+00  0.89695314067E+03  0.89695314067E+03  0.00000000000E+00 0. -1.
          1   -1    0    0  501    0 -0.00000000000E+00 -0.00000000000E+00 -0.33696000460E+04  0.33696000460E+04  0.00000000000E+00 0. -1.
         25    2    1    2    0    0 -0.88810412172E+02 -0.37620523536E+01 -0.14180328291E+04  0.14263045770E+04  0.12500479867E+03 0.  0.
          2    1    1    2  501    0  0.35667136632E+02  0.54794737830E+02 -0.19453611691E+04  0.19464595259E+04  0.00000000000E+00 0. -1.
          1    1    1    2  502    0  0.53143275540E+02 -0.51032685476E+02  0.89074709285E+03  0.89378908370E+03  0.00000000000E+00 0. -1.
         22    1    3    3    0    0 -0.11142797417E+03  0.27526955643E+02 -0.10581176918E+04  0.10643246574E+04  0.00000000000E+00 0. -1.
         22    1    3    3    0    0  0.22617561997E+02 -0.31289007997E+02 -0.35991513727E+03  0.36197991957E+03  0.00000000000E+00 0. -1.
</event>
<event>
 7    1  0.6370239E-006  0.7175241E+02  0.7818608E-02  0.1447543E+00
          2   -1    0    0  502    0  0.00000000000E+00  0.00000000000E+00  0.11646304322E+04  0.11646304322E+04  0.00000000000E+00 0. -1.
          1   -1    0    0  501    0 -0.00000000000E+00 -0.00000000000E+00 -0.90039929677E+02  0.90039929677E+02  0.00000000000E+00 0. -1.
         25    2    1    2    0    0 -0.34156507631E+02 -0.64759178970E+02  0.15146209165E+03  0.20958733583E+03  0.12500267141E+03 0.  0.
          2    1    1    2  501    0 -0.24923509851E+02  0.23533808172E+02 -0.54727759996E+02  0.64576692270E+02  0.00000000000E+00 0. -1.
          1    1    1    2  502    0  0.59080017483E+02  0.41225370798E+02  0.97785617089E+03  0.98050633380E+03  0.00000000000E+00 0. -1.
         22    1    3    3    0    0  0.21712846286E+02 -0.44075813299E+02  0.14072055712E+03  0.14905166959E+03  0.00000000000E+00 0.  1.
         22    1    3    3    0    0 -0.55869353918E+02 -0.20683365672E+02  0.10741534523E+02  0.60535666236E+02  0.00000000000E+00 0.  1.
</event>
<event>
 7    1  0.6370239E-006  0.1645972E+03  0.7818608E-02  0.1241961E+00
          2   -1    0    0  502    0  0.00000000000E+00  0.00000000000E+00  0.16455136272E+04  0.16455136272E+04  0.00000000000E+00 0. -1.
          1   -1    0    0  501    0 -0.00000000000E+00 -0.00000000000E+00 -0.30916612841E+03  0.30916612841E+03  0.00000000000E+00 0. -1.
         25    2    1    2    0    0  0.13328424633E+02 -0.18564058573E+03  0.89392387651E+03  0.92160939126E+03  0.12499559624E+03 0.  0.
          2    1    1    2  501    0  0.67692169978E+02  0.15004097996E+03 -0.26943236974E+03  0.31573458380E+03  0.00000000000E+00 0. -1.
          1    1    1    2  502    0 -0.81020594611E+02  0.35599605765E+02  0.71185599203E+03  0.71733578056E+03  0.00000000000E+00 0. -1.
         22    1    3    3    0    0 -0.52474777565E+02 -0.70462677470E+02  0.44071911050E+03  0.44939061579E+03  0.00000000000E+00 0.  1.
         22    1    3    3    0    0  0.65803202197E+02 -0.11517790826E+03  0.45320476601E+03  0.47221877547E+03  0.00000000000E+00 0.  1.
</event>
<event>
 7    1  0.6370239E-006  0.1006065E+03  0.7818608E-02  0.1352593E+00
          2   -1    0    0  502    0  0.00000000000E+00  0.00000000000E+00  0.77070251802E+03  0.77070251802E+03  0.00000000000E+00 0. -1.
          1   -1    0    0  501    0 -0.00000000000E+00 -0.00000000000E+00 -0.11518025164E+04  0.11518025164E+04  0.00000000000E+00 0. -1.
         25    2    1    2    0    0  0.14246407968E+03 -0.17768577512E+02 -0.58334833063E+02  0.19909601451E+03  0.12499813559E+03 0.  0.
          2    1    1    2  501    0 -0.93211743996E+02  0.34106069872E+02 -0.10197129284E+04  0.10245321418E+04  0.00000000000E+00 0. -1.
          1    1    1    2  502    0 -0.49252335682E+02 -0.16337492360E+02  0.69694776311E+03  0.69887687809E+03  0.00000000000E+00 0. -1.
         22    1    3    3    0    0  0.69054934519E+02 -0.91879218480E+01  0.36672094815E+02  0.78726389651E+02  0.00000000000E+00 0.  1.
         22    1    3    3    0    0  0.73409145158E+02 -0.85806556641E+01 -0.95006927878E+02  0.12036962486E+03  0.00000000000E+00 0.  1.
</event>
<event>
 7    1  0.6370239E-006  0.1022776E+03  0.7818608E-02  0.1285399E+00
          2   -1    0    0  502    0  0.00000000000E+00  0.00000000000E+00  0.99718556096E+03  0.99718556096E+03  0.00000000000E+00 0. -1.
          1   -1    0    0  501    0 -0.00000000000E+00 -0.00000000000E+00 -0.16319598986E+03  0.16319598986E+03  0.00000000000E+00 0. -1.
         25    2    1    2    0    0 -0.11716614650E+02 -0.59729444283E+02  0.43577080936E+03  0.45741252234E+03  0.12500052694E+03 0.  0.
          2    1    1    2  501    0 -0.76563227463E+02 -0.53072815332E+02 -0.12760029469E+03  0.15798888167E+03  0.00000000000E+00 0. -1.
          1    1    1    2  502    0  0.88279842113E+02  0.11280225961E+03  0.52581905643E+03  0.54498014680E+03  0.00000000000E+00 0. -1.
         22    1    3    3    0    0 -0.21915449685E+01 -0.64844962679E+02  0.44075658467E+03  0.44550649713E+03  0.00000000000E+00 0. -1.
         22    1    3    3    0    0 -0.95250696814E+01  0.51155183964E+01 -0.49857753133E+01  0.11906025213E+02  0.00000000000E+00 0. -1.
</event>
<event>
 7    1  0.6370239E-006  0.4965561E+02  0.7818608E-02  0.1537880E+00
          2   -1    0    0  502    0  0.00000000000E+00  0.00000000000E+00  0.42999340492E+03  0.42999340492E+03  0.00000000000E+00 0. -1.
          1   -1    0    0  501    0 -0.00000000000E+00 -0.00000000000E+00 -0.15721817904E+04  0.15721817904E+04  0.00000000000E+00 0. -1.
         25    2    1    2    0    0 -0.41019384556E+01  0.30532997774E+02 -0.13423789862E+04  0.13485383040E+04  0.12500049921E+03 0.  0.
          2    1    1    2  501    0  0.20880835251E+02  0.16227370367E+02 -0.22449912756E+03  0.22605131078E+03  0.00000000000E+00 0. -1.
          1    1    1    2  502    0 -0.16778896795E+02 -0.46760368141E+02  0.42468972828E+03  0.42758558058E+03  0.00000000000E+00 0. -1.
         22    1    3    3    0    0  0.11548549607E+02 -0.37204573062E+02 -0.88964612823E+03  0.89049861467E+03  0.00000000000E+00 0. -1.
         22    1    3    3    0    0 -0.15650488062E+02  0.67737570836E+02 -0.45273285800E+03  0.45803968932E+03  0.00000000000E+00 0. -1.
</event>
<event>
 7    1  0.6370239E-006  0.5592992E+02  0.7818608E-02  0.1424376E+00
          2   -1    0    0  502    0  0.00000000000E+00  0.00000000000E+00  0.49394739564E+03  0.49394739564E+03  0.00000000000E+00 0. -1.
          1   -1    0    0  501    0 -0.00000000000E+00 -0.00000000000E+00 -0.13072708394E+03  0.13072708394E+03  0.00000000000E+00 0. -1.
         25    2    1    2    0    0  0.45368494235E+01  0.10346968777E+02  0.17523709482E+03  0.21554924692E+03  0.12500318268E+03 0.  0.
          2    1    1    2  501    0 -0.44753747611E+02  0.33544857651E+02 -0.10025657629E+03  0.11480216239E+03  0.00000000000E+00 0. -1.
          1    1    1    2  502    0  0.40216898187E+02 -0.43891826428E+02  0.28823979317E+03  0.29432307027E+03  0.00000000000E+00 0. -1.
         22    1    3    3    0    0  0.10863887968E+02 -0.45452948954E+02  0.14377394058E+03  0.15117850581E+03  0.00000000000E+00 0. -1.
         22    1    3    3    0    0 -0.63270385444E+01  0.55799917731E+02  0.31463154240E+02  0.64370741104E+02  0.00000000000E+00 0. -1.
</event>
<event>
 7    1  0.6370239E-006  0.1623717E+03  0.7818608E-02  0.1285562E+00
          2   -1    0    0  502    0  0.00000000000E+00  0.00000000000E+00  0.34725450358E+03  0.34725450358E+03  0.00000000000E+00 0. -1.
          1   -1    0    0  501    0 -0.00000000000E+00 -0.00000000000E+00 -0.25161186759E+04  0.25161186759E+04  0.00000000000E+00 0. -1.
         25    2    1    2    0    0  0.75165455139E+02 -0.75692962257E+02 -0.11422433390E+04  0.11540034661E+04  0.12499953590E+03 0.  0.
          2    1    1    2  501    0  0.52269057544E+02 -0.26473661086E+02 -0.13477854263E+04  0.13490583622E+04  0.00000000000E+00 0. -1.
          1    1    1    2  502    0 -0.12743451268E+03  0.10216662334E+03  0.32116459308E+03  0.36031135119E+03  0.00000000000E+00 0. -1.
         22    1    3    3    0    0  0.85722706655E+02 -0.85492722549E+02 -0.62828352764E+03  0.63984183917E+03  0.00000000000E+00 0. -1.
         22    1    3    3    0    0 -0.10557251516E+02  0.97997602927E+01 -0.51395981140E+03  0.51416162692E+03  0.00000000000E+00 0. -1.
</event>
<event>
 7    1  0.6370239E-006  0.7341273E+02  0.7818608E-02  0.1355585E+00
          2   -1    0    0  502    0  0.00000000000E+00  0.00000000000E+00  0.95426159585E+03  0.95426159585E+03  0.00000000000E+00 0. -1.
          1   -1    0    0  501    0 -0.00000000000E+00 -0.00000000000E+00 -0.81437963504E+03  0.81437963504E+03  0.00000000000E+00 0. -1.
         25    2    1    2    0    0 -0.29183414564E+02 -0.14512678885E+02  0.21020840709E+03  0.24672753639E+03  0.12499845306E+03 0.  0.
          2    1    1    2  501    0  0.22819567807E+02 -0.65468575414E+02 -0.79238434447E+03  0.79541172760E+03  0.00000000000E+00 0. -1.
          1    1    1    2  502    0  0.63638467562E+01  0.79981254299E+02  0.72205789819E+03  0.72650196691E+03  0.00000000000E+00 0. -1.
         22    1    3    3    0    0  0.37289942620E+02  0.30887016103E+02  0.86632996275E+02  0.99246277652E+02  0.00000000000E+00 0.  1.
         22    1    3    3    0    0 -0.66473357183E+02 -0.45399694988E+02  0.12357541081E+03  0.14748125873E+03  0.00000000000E+00 0.  1.
</event>
<event>
 7    1  0.6370239E-006  0.1828046E+03  0.7818608E-02  0.1319635E+00
          2   -1    0    0  502    0  0.00000000000E+00  0.00000000000E+00  0.15798531477E+04  0.15798531477E+04  0.00000000000E+00 0. -1.
          1   -1    0    0  501    0 -0.00000000000E+00 -0.00000000000E+00 -0.36550559351E+03  0.36550559351E+03  0.00000000000E+00 0. -1.
         25    2    1    2    0    0 -0.11517311339E+03  0.11231778119E+03  0.59702639527E+03  0.63082942278E+03  0.12500045589E+03 0.  0.
          2    1    1    2  501    0 -0.13210894885E+02  0.35695134617E+02 -0.33758750268E+03  0.33972634920E+03  0.00000000000E+00 0. -1.
          1    1    1    2  502    0  0.12838400828E+03 -0.14801291581E+03  0.95490866156E+03  0.97480296920E+03  0.00000000000E+00 0. -1.
         22    1    3    3    0    0 -0.55470285137E+02  0.95679306809E+02  0.19606785129E+03  0.22510905045E+03  0.00000000000E+00 0. -1.
         22    1    3    3    0    0 -0.59702828256E+02  0.16638474381E+02  0.40095854398E+03  0.40572037233E+03  0.00000000000E+00 0. -1.
</event>
<event>
 7    1  0.6370239E-006  0.6897958E+02  0.7818608E-02  0.1366002E+00
          2   -1    0    0  502    0  0.00000000000E+00  0.00000000000E+00  0.18783551416E+04  0.18783551416E+04  0.00000000000E+00 0. -1.
          1   -1    0    0  501    0 -0.00000000000E+00 -0.00000000000E+00 -0.37429474632E+03  0.37429474632E+03  0.00000000000E+00 0. -1.
         25    2    1    2    0    0 -0.61061487854E+01 -0.11655290053E+02  0.51897540074E+03  0.53397912963E+03  0.12500045385E+03 0.  0.
          2    1    1    2  501    0 -0.52483106986E+02  0.45395359857E+02 -0.36265592573E+03  0.36923506832E+03  0.00000000000E+00 0. -1.
          1    1    1    2  502    0  0.58589255771E+02 -0.33740069804E+02  0.13477409202E+04  0.13494356899E+04  0.00000000000E+00 0. -1.
         22    1    3    3    0    0  0.14149389759E+02 -0.53761421606E+02  0.11970502126E+03  0.13198404372E+03  0.00000000000E+00 0. -1.
         22    1    3    3    0    0 -0.20255538545E+02  0.42106131553E+02  0.39927037949E+03  0.40199508591E+03  0.00000000000E+00 0. -1.
</event>
<event>
 7    1  0.6370239E-006  0.1370928E+03  0.7818608E-02  0.1400117E+00
          2   -1    0    0  502    0  0.00000000000E+00  0.00000000000E+00  0.94279131736E+03  0.94279131736E+03  0.00000000000E+00 0. -1.
          1   -1    0    0  501    0 -0.00000000000E+00 -0.00000000000E+00 -0.12416134411E+03  0.12416134411E+03  0.00000000000E+00 0. -1.
         25    2    1    2    0    0 -0.51079105238E+02  0.10097524932E+03  0.16373171454E+01  0.16861836894E+03  0.12499759025E+03 0.  0.
          2    1    1    2  501    0 -0.14944047541E+02  0.21016669060E+02 -0.30285063365E+02  0.39777003385E+02  0.00000000000E+00 0. -1.
          1    1    1    2  502    0  0.66023152779E+02 -0.12199191838E+03  0.84727771947E+03  0.85855728915E+03  0.00000000000E+00 0. -1.
         22    1    3    3    0    0  0.64897663981E+01  0.56304150050E+02 -0.52957161876E+02  0.77567618080E+02  0.00000000000E+00 0.  1.
         22    1    3    3    0    0 -0.57568871636E+02  0.44671099272E+02  0.54594479021E+02  0.91050750855E+02  0.00000000000E+00 0.  1.
</event>
<event>
 7    1  0.6370239E-006  0.3429315E+03  0.7818608E-02  0.1219117E+00
          2   -1    0    0  502    0  0.00000000000E+00  0.00000000000E+00  0.24082697047E+04  0.24082697047E+04  0.00000000000E+00 0. -1.
          1   -1    0    0  501    0 -0.00000000000E+00 -0.00000000000E+00 -0.22278906844E+03  0.22278906844E+03  0.00000000000E+00 0. -1.
         25    2    1    2    0    0  0.32773666045E+03 -0.46718848899E+02  0.14530373045E+04  0.14955055610E+04  0.12500202153E+03 0.  0.
          2    1    1    2  501    0 -0.34445533534E+03 -0.43796690486E+01 -0.52769870115E+02  0.34850153334E+03  0.00000000000E+00 0. -1.
          1    1    1    2  502    0  0.16718674898E+02  0.51098517948E+02  0.78521320194E+03  0.78705167882E+03  0.00000000000E+00 0. -1.
         22    1    3    3    0    0  0.22845815232E+02 -0.41373983519E+02  0.15033594069E+03  0.15759007853E+03  0.00000000000E+00 0.  1.
         22    1    3    3    0    0  0.30489084521E+03 -0.53448653798E+01  0.13027013638E+04  0.13379154825E+04  0.00000000000E+00 0.  1.
</event>
<event>
 7    1  0.6370239E-006  0.3531423E+02  0.7818608E-02  0.1612098E+00
          2   -1    0    0  502    0  0.00000000000E+00  0.00000000000E+00  0.31126687222E+03  0.31126687222E+03  0.00000000000E+00 0. -1.
          1   -1    0    0  501    0 -0.00000000000E+00 -0.00000000000E+00 -0.11510803492E+04  0.11510803492E+04  0.00000000000E+00 0. -1.
         25    2    1    2    0    0 -0.28740997680E+02 -0.35910614103E+02 -0.16723433107E+02  0.13423685239E+03  0.12499696865E+03 0.  0.
          2    1    1    2  501    0  0.53250489280E+01  0.34887708039E+02 -0.10747660518E+04  0.10753453280E+04  0.00000000000E+00 0. -1.
          1    1    1    2  502    0  0.23415948752E+02  0.10229060644E+01  0.25167600794E+03  0.25276504102E+03  0.00000000000E+00 0. -1.
         22    1    3    3    0    0  0.28364375677E+02 -0.44421596748E+01 -0.52519893714E+02  0.59854906448E+02  0.00000000000E+00 0. -1.
         22    1    3    3    0    0 -0.57105373357E+02 -0.31468454429E+02  0.35796460608E+02  0.74381945944E+02  0.00000000000E+00 0. -1.
</event>
<event>
 7    1  0.6370239E-006  0.1339386E+03  0.7818608E-02  0.1275145E+00
          2   -1    0    0  502    0  0.00000000000E+00  0.00000000000E+00  0.20002649649E+04  0.20002649649E+04  0.00000000000E+00 0. -1.
          1   -1    0    0  501    0 -0.00000000000E+00 -0.00000000000E+00 -0.69925269776E+03  0.69925269776E+03  0.00000000000E+00 0. -1.
         25    2    1    2    0    0 -0.31306000455E+02  0.19232056898E+03  0.14854465214E+04  0.15033774584E+04  0.12500059081E+03 0.  0.
          2    1    1    2  501    0  0.60181210133E+02 -0.11940369785E+03 -0.68070366874E+03  0.69371212022E+03  0.00000000000E+00 0. -1.
          1    1    1    2  502    0 -0.28875209678E+02 -0.72916871127E+02  0.49626941451E+03  0.50242808401E+03  0.00000000000E+00 0. -1.
         22    1    3    3    0    0  0.33062108181E+02  0.12477349343E+03  0.64662908027E+03  0.65938660519E+03  0.00000000000E+00 0.  1.
         22    1    3    3    0    0 -0.64368108636E+02  0.67547075550E+02  0.83881744111E+03  0.84399085323E+03  0.00000000000E+00 0.  1.
</event>
<event>
 7    1  0.6370239E-006  0.4198063E+02  0.7818608E-02  0.1608229E+00
          2   -1    0    0  502    0  0.00000000000E+00  0.00000000000E+00  0.75757197347E+03  0.75757197347E+03  0.00000000000E+00 0. -1.
          1   -1    0    0  501    0 -0.00000000000E+00 -0.00000000000E+00 -0.25073244219E+02  0.25073244219E+02  0.00000000000E+00 0. -1.
         25    2    1    2    0    0  0.24785830634E+02  0.34199072508E+02  0.16355226908E+03  0.21014007926E+03  0.12500237688E+03 0.  0.
          2    1    1    2  501    0  0.12984358569E+02 -0.15440922473E+02  0.13266654044E+03  0.13419175313E+03  0.00000000000E+00 0. -1.
          1    1    1    2  502    0 -0.37770189203E+02 -0.18758150035E+02  0.43627991972E+03  0.43831338530E+03  0.00000000000E+00 0. -1.
         22    1    3    3    0    0 -0.15875729226E+01 -0.92052141490E+01 -0.18721610484E+02  0.20922596742E+02  0.00000000000E+00 0.  1.
         22    1    3    3    0    0  0.26373403556E+02  0.43404286657E+02  0.18227387957E+03  0.18921748251E+03  0.00000000000E+00 0.  1.
</event>
<event>
 7    1  0.6370239E-006  0.2191714E+03  0.7818608E-02  0.1226803E+00
          2   -1    0    0  502    0  0.00000000000E+00  0.00000000000E+00  0.39566485673E+04  0.39566485673E+04  0.00000000000E+00 0. -1.
          1   -1    0    0  501    0 -0.00000000000E+00 -0.00000000000E+00 -0.31250902680E+03  0.31250902680E+03  0.00000000000E+00 0. -1.
         25    2    1    2    0    0  0.20625487005E+03 -0.15332579289E+03  0.45633553529E+02  0.28940768279E+03  0.12499806185E+03 0.  0.
          2    1    1    2  501    0 -0.19376881242E+03  0.76704344842E+02 -0.13313919377E+03  0.24729729902E+03  0.00000000000E+00 0. -1.
          1    1    1    2  502    0 -0.12486057623E+02  0.76621448053E+02  0.37316451807E+04  0.37324526123E+04  0.00000000000E+00 0. -1.
         22    1    3    3    0    0  0.66848327462E+02 -0.56340977056E+00 -0.24243992663E+02  0.71111092631E+02  0.00000000000E+00 0.  1.
         22    1    3    3    0    0  0.13940654258E+03 -0.15276238312E+03  0.69877546192E+02  0.21829659016E+03  0.00000000000E+00 0.  1.
</event>
<event>
 7    1  0.6370239E-006  0.4297987E+03  0.7818608E-02  0.1193559E+00
          2   -1    0    0  502    0  0.00000000000E+00  0.00000000000E+00  0.38000468085E+04  0.38000468085E+04  0.00000000000E+00 0. -1.
          1   -1    0    0  501    0 -0.00000000000E+00 -0.00000000000E+00 -0.12325802163E+04  0.12325802163E+04  0.00000000000E+00 0. -1.
         25    2    1    2    0    0 -0.98722743532E+01  0.38529895766E+03  0.15963342743E+04  0.16469559058E+04  0.12501156701E+03 0.  0.
          2    1    1    2  501    0 -0.24356956325E+02 -0.43019227746E+03 -0.11684392238E+04  0.12453549199E+04  0.00000000000E+00 0. -1.
          1    1    1    2  502    0  0.34229230678E+02  0.44893319799E+02  0.21395715416E+04  0.21403161991E+04  0.00000000000E+00 0. -1.
         22    1    3    3    0    0 -0.10295524071E+02  0.56023258069E+02  0.47116416462E+03  0.47459485172E+03  0.00000000000E+00 0.  1.
         22    1    3    3    0    0  0.42324971751E+00  0.32927569959E+03  0.11251701097E+04  0.11723610541E+04  0.00000000000E+00 0.  1.
</event>
<event>
 7    1  0.6370239E-006  0.3495172E+02  0.7818608E-02  0.1604902E+00
          2   -1    0    0  502    0  0.00000000000E+00  0.00000000000E+00  0.23557447197E+03  0.23557447197E+03  0.00000000000E+00 0. -1.
          1   -1    0    0  501    0 -0.00000000000E+00 -0.00000000000E+00 -0.74679569217E+03  0.74679569217E+03  0.00000000000E+00 0. -1.
         25    2    1    2    0    0 -0.16473284941E+02 -0.77676159361E+01 -0.45812708029E+02  0.13437063623E+03  0.12499983476E+03 0.  0.
          2    1    1    2  501    0  0.23165065311E+01 -0.24608758751E+02 -0.65483703774E+03  0.65530336730E+03  0.00000000000E+00 0. -1.
          1    1    1    2  502    0  0.14156778409E+02  0.32376374687E+02  0.18942852557E+03  0.19269616060E+03  0.00000000000E+00 0. -1.
         22    1    3    3    0    0  0.49185665015E+02 -0.18624009374E+02  0.16658834360E+01  0.52619944277E+02  0.00000000000E+00 0. -1.
         22    1    3    3    0    0 -0.65658949956E+02  0.10856393438E+02 -0.47478591465E+02  0.81750691956E+02  0.00000000000E+00 0. -1.
</event>
<event>
 7    1  0.6370239E-006  0.2489055E+03  0.7818608E-02  0.1209137E+00
          2   -1    0    0  502    0  0.00000000000E+00  0.00000000000E+00  0.11573687388E+04  0.11573687388E+04  0.00000000000E+00 0. -1.
          1   -1    0    0  501    0 -0.00000000000E+00 -0.00000000000E+00 -0.37233770619E+03  0.37233770619E+03  0.00000000000E+00 0. -1.
         25    2    1    2    0    0  0.19028903971E+03  0.91257258526E+02  0.63587083531E+03  0.68153781411E+03  0.12499706795E+03 0.  0.
          2    1    1    2  501    0 -0.18324999156E+03 -0.17329757147E+03 -0.29976486093E+03  0.39175448884E+03  0.00000000000E+00 0. -1.
          1    1    1    2  502    0 -0.70390481571E+01  0.82040312945E+02  0.44892505822E+03  0.45641414203E+03  0.00000000000E+00 0. -1.
         22    1    3    3    0    0  0.14311627688E+02  0.61013242695E+02  0.22457287511E+03  0.23315320007E+03  0.00000000000E+00 0. -1.
         22    1    3    3    0    0  0.17597741203E+03  0.30244015830E+02  0.41129796021E+03  0.44838461404E+03  0.00000000000E+00 0. -1.
</event>
<event>
 7    1  0.6370239E-006  0.1063511E+03  0.7818608E-02  0.1365442E+00
          2   -1    0    0  502    0  0.00000000000E+00  0.00000000000E+00  0.31055639809E+03  0.31055639809E+03  0.00000000000E+00 0. -1.
          1   -1    0    0  501    0 -0.00000000000E+00 -0.00000000000E+00 -0.26451231109E+04  0.26451231109E+04  0.00000000000E+00 0. -1.
         25    2    1    2    0    0  0.69970432022E+02 -0.12421547681E+02  0.22040885378E+02  0.14546772298E+03  0.12499960638E+03 0.  0.
          2    1    1    2  501    0  0.44056512597E+02  0.18503362113E+00 -0.25687116285E+04  0.25690894187E+04  0.00000000000E+00 0. -1.
          1    1    1    2  502    0 -0.11402694462E+03  0.12236514060E+02  0.21210403031E+03  0.24112236738E+03  0.00000000000E+00 0. -1.
         22    1    3    3    0    0  0.42221973691E+02  0.33572895241E+02 -0.37179491694E+02  0.65514494273E+02  0.00000000000E+00 0.  1.
         22    1    3    3    0    0  0.27748458331E+02 -0.45994442923E+02  0.59220377072E+02  0.79953228703E+02  0.00000000000E+00 0.  1.
</event>
<event>
 7    1  0.6370239E-006  0.7415104E+02  0.7818608E-02  0.1489354E+00
          2   -1    0    0  502    0  0.00000000000E+00  0.00000000000E+00  0.28634031646E+04  0.28634031646E+04  0.00000000000E+00 0. -1.
          1   -1    0    0  501    0 -0.00000000000E+00 -0.00000000000E+00 -0.40113173841E+02  0.40113173841E+02  0.00000000000E+00 0. -1.
         25    2    1    2    0    0  0.12806701921E+02 -0.68400925760E+02  0.27570876277E+03  0.31062757937E+03  0.12502588908E+03 0.  0.
          2    1    1    2  501    0  0.24259629595E+02  0.38807779158E+01 -0.15290100224E+02  0.28937471040E+02  0.00000000000E+00 0. -1.
          1    1    1    2  502    0 -0.37066331516E+02  0.64520147844E+02  0.25628713282E+04  0.25639512880E+04  0.00000000000E+00 0. -1.
         22    1    3    3    0    0 -0.65160928126E+01 -0.94174283087E+02  0.12570275362E+03  0.15720189988E+03  0.00000000000E+00 0.  1.
         22    1    3    3    0    0  0.19322794734E+02  0.25773357327E+02  0.15000600915E+03  0.15342567948E+03  0.00000000000E+00 0.  1.
</event>
<event>
 7    1  0.6370239E-006  0.5684611E+02  0.7818608E-02  0.1441236E+00
          2   -1    0    0  502    0  0.00000000000E+00  0.00000000000E+00  0.14732332988E+04  0.14732332988E+04  0.00000000000E+00 0. -1.
          1   -1    0    0  501    0 -0.00000000000E+00 -0.00000000000E+00 -0.33650069202E+03  0.33650069202E+03  0.00000000000E+00 0. -1.
         25    2    1    2    0    0  0.54999954493E+01  0.14092464621E+02  0.30362343660E+02  0.12952410562E+03  0.12500309802E+03 0.  0.
          2    1    1    2  501    0 -0.16593118336E+02  0.42196688942E+02 -0.28453339892E+03  0.28812349303E+03  0.00000000000E+00 0. -1.
          1    1    1    2  502    0  0.11093122886E+02 -0.56289153563E+02  0.13909036620E+04  0.13920863921E+04  0.00000000000E+00 0. -1.
         22    1    3    3    0    0  0.46715032854E+02 -0.15735367277E+02  0.54266017465E+02  0.73312323176E+02  0.00000000000E+00 0.  1.
         22    1    3    3    0    0 -0.41215037405E+02  0.29827831897E+02 -0.23903673805E+02  0.56211782442E+02  0.00000000000E+00 0.  1.
</event>
<event>
 7    1  0.6370239E-006  0.1186192E+03  0.7818608E-02  0.1357331E+00
          2   -1    0    0  502    0  0.00000000000E+00  0.00000000000E+00  0.58572758879E+02  0.58572758879E+02  0.00000000000E+00 0. -1.
          1   -1    0    0  501    0 -0.00000000000E+00 -0.00000000000E+00 -0.15750166753E+04  0.15750166753E+04  0.00000000000E+00 0. -1.
         25    2    1    2    0    0  0.14585945606E+02  0.10893407719E+03 -0.91819469308E+03  0.93315914091E+03  0.12500041953E+03 0.  0.
          2    1    1    2  501    0  0.23752312736E+02 -0.12676159136E+03 -0.63281220996E+03  0.64582038252E+03  0.00000000000E+00 0. -1.
          1    1    1    2  502    0 -0.38338258341E+02  0.17827514165E+02  0.34562986585E+02  0.54609910782E+02  0.00000000000E+00 0. -1.
         22    1    3    3    0    0 -0.40893125791E+02  0.36216400137E+02 -0.58796039985E+03  0.59049242770E+03  0.00000000000E+00 0.  1.
         22    1    3    3    0    0  0.55479071397E+02  0.72717677056E+02 -0.33023429323E+03  0.34266671321E+03  0.00000000000E+00 0.  1.
</event>
<event>
 7    1  0.6370239E-006  0.3473892E+02  0.7818608E-02  0.1557583E+00
          2   -1    0    0  502    0  0.00000000000E+00  0.00000000000E+00  0.18632620219E+04  0.18632620219E+04  0.00000000000E+00 0. -1.
          1   -1    0    0  501    0 -0.00000000000E+00 -0.00000000000E+00 -0.20996468167E+02  0.20996468167E+02  0.00000000000E+00 0. -1.
         25    2    1    2    0    0  0.49255737269E+01  0.19195818909E+02  0.68344798108E+03  0.69506741330E+03  0.12499930175E+03 0.  0.
          2    1    1    2  501    0  0.30582088566E+02 -0.13161535136E+02  0.36851802340E+01  0.33497323796E+02  0.00000000000E+00 0. -1.
          1    1    1    2  502    0 -0.35507662292E+02 -0.60342837734E+01  0.11551323924E+04  0.11556937530E+04  0.00000000000E+00 0. -1.
         22    1    3    3    0    0 -0.50269684020E+02 -0.24022941857E+02  0.26574329708E+03  0.27152098042E+03  0.00000000000E+00 0. -1.
         22    1    3    3    0    0  0.55195257747E+02  0.43218760766E+02  0.41770468400E+03  0.42354643287E+03  0.00000000000E+00 0. -1.
</event>
<event>
 7    1  0.6370239E-006  0.1757287E+03  0.7818608E-02  0.1200604E+00
          2   -1    0    0  502    0  0.00000000000E+00  0.00000000000E+00  0.45853122733E+03  0.45853122733E+03  0.00000000000E+00 0. -1.
          1   -1    0    0  501    0 -0.00000000000E+00 -0.00000000000E+00 -0.45549027630E+03  0.45549027630E+03  0.00000000000E+00 0. -1.
         25    2    1    2    0    0  0.72056551788E+02  0.51253732538E+02 -0.13926609675E+02  0.15374514248E+03  0.12499810649E+03 0.  0.
          2    1    1    2  501    0 -0.17752308797E+03 -0.12353241530E+03 -0.32771325976E+03  0.39264575003E+03  0.00000000000E+00 0. -1.
          1    1    1    2  502    0  0.10546653618E+03  0.72278682764E+02  0.34468082046E+03  0.36763061112E+03  0.00000000000E+00 0. -1.
         22    1    3    3    0    0  0.59196994556E+02 -0.27760654101E+02 -0.30253601283E+02  0.72043170885E+02  0.00000000000E+00 0.  1.
         22    1    3    3    0    0  0.12859557232E+02  0.79014386639E+02  0.16326991608E+02  0.81701971599E+02  0.00000000000E+00 0.  1.
</event>
<event>
 7    1  0.6370239E-006  0.9746284E+02  0.7818608E-02  0.1420318E+00
          2   -1    0    0  502    0  0.00000000000E+00  0.00000000000E+00  0.21953557823E+03  0.21953557823E+03  0.00000000000E+00 0. -1.
          1   -1    0    0  501    0 -0.00000000000E+00 -0.00000000000E+00 -0.18718115758E+04  0.18718115758E+04  0.00000000000E+00 0. -1.
         25    2    1    2    0    0 -0.65825553846E+02 -0.14566947983E+02  0.40805879993E+02  0.14775081948E+03  0.12497993960E+03 0.  0.
          2    1    1    2  501    0  0.96810636565E+02  0.14465256903E+02 -0.18150837358E+04  0.18177212413E+04  0.00000000000E+00 0. -1.
          1    1    1    2  502    0 -0.30985082719E+02  0.10169107906E+00  0.12200185825E+03  0.12587509328E+03  0.00000000000E+00 0. -1.
         22    1    3    3    0    0 -0.17046365250E+02 -0.65921670188E+02  0.47047118518E+01  0.68252322174E+02  0.00000000000E+00 0. -1.
         22    1    3    3    0    0 -0.48779188596E+02  0.51354722205E+02  0.36101168141E+02  0.79498497306E+02  0.00000000000E+00 0. -1.
</event>
<event>
 7    1  0.6370239E-006  0.4554037E+02  0.7818608E-02  0.1494554E+00
          2   -1    0    0  502    0  0.00000000000E+00  0.00000000000E+00  0.62772080735E+02  0.62772080735E+02  0.00000000000E+00 0. -1.
          1   -1    0    0  501    0 -0.00000000000E+00 -0.00000000000E+00 -0.13907344253E+04  0.13907344253E+04  0.00000000000E+00 0. -1.
         25    2    1    2    0    0 -0.51293832759E+02 -0.12439812092E+02 -0.19200756633E+03  0.23511127499E+03  0.12499839957E+03 0.  0.
          2    1    1    2  501    0  0.27584889042E+02 -0.26977269604E+02 -0.11639226217E+04  0.11645619642E+04  0.00000000000E+00 0. -1.
          1    1    1    2  502    0  0.23708943717E+02  0.39417081696E+02  0.27967843516E+02  0.53833266783E+02  0.00000000000E+00 0. -1.
         22    1    3    3    0    0 -0.60007094103E+02 -0.17084673929E+02 -0.20753478090E+03  0.21671045824E+03  0.00000000000E+00 0. -1.
         22    1    3    3    0    0  0.87132613438E+01  0.46448618371E+01  0.15527214573E+02  0.18400816751E+02  0.00000000000E+00 0. -1.
</event>
<event>
 7    1  0.6370239E-006  0.1160876E+03  0.7818608E-02  0.1320543E+00
          2   -1    0    0  502    0  0.00000000000E+00  0.00000000000E+00  0.15584508228E+04  0.15584508228E+04  0.00000000000E+00 0. -1.
          1   -1    0    0  501    0 -0.00000000000E+00 -0.00000000000E+00 -0.39957914783E+03  0.39957914783E+03  0.00000000000E+00 0. -1.
         25    2    1    2    0    0  0.22571998211E+02  0.96247420010E+02 -0.70701839636E+02  0.17434409606E+03  0.12499621091E+03 0.  0.
          2    1    1    2  501    0  0.58210066858E+02 -0.12086336615E+02 -0.27157760013E+03  0.27800878459E+03  0.00000000000E+00 0. -1.
          1    1    1    2  502    0 -0.80782065070E+02 -0.84161083395E+02  0.15011511147E+04  0.15056770900E+04  0.00000000000E+00 0. -1.
         22    1    3    3    0    0  0.84365060272E+01  0.10782627869E+03 -0.94992003206E+02  0.14394846885E+03  0.00000000000E+00 0.  1.
         22    1    3    3    0    0  0.14135492184E+02 -0.11578858680E+02  0.24290163569E+02  0.30395627216E+02  0.00000000000E+00 0.  1.
</event>
<event>
 7    1  0.6370239E-006  0.9092823E+02  0.7818608E-02  0.1312161E+00
          2   -1    0    0  502    0  0.00000000000E+00  0.00000000000E+00  0.74881255132E+03  0.74881255132E+03  0.00000000000E+00 0. -1.
          1   -1    0    0  501    0 -0.00000000000E+00 -0.00000000000E+00 -0.10849306708E+04  0.10849306708E+04  0.00000000000E+00 0. -1.
         25    2    1    2    0    0  0.65698079964E+02  0.90106372537E+01 -0.54293518052E+03  0.56107188441E+03  0.12500247971E+03 0.  0.
          2    1    1    2  501    0 -0.75585765129E+02 -0.90248925018E+02 -0.52411465676E+03  0.53717245814E+03  0.00000000000E+00 0. -1.
          1    1    1    2  502    0  0.98876851647E+01  0.81238287765E+02  0.73093171781E+03  0.73549887955E+03  0.00000000000E+00 0. -1.
         22    1    3    3    0    0 -0.37230623796E+02  0.99030751654E+01 -0.14164046078E+03  0.14678627448E+03  0.00000000000E+00 0. -1.
         22    1    3    3    0    0  0.10292870376E+03 -0.89243791165E+00 -0.40129471974E+03  0.41428560993E+03  0.00000000000E+00 0. -1.
</event>
<event>
 7    1  0.6370239E-006  0.5840986E+02  0.7818608E-02  0.1423368E+00
          2   -1    0    0  502    0  0.00000000000E+00  0.00000000000E+00  0.12542145383E+04  0.12542145383E+04  0.00000000000E+00 0. -1.
          1   -1    0    0  501    0 -0.00000000000E+00 -0.00000000000E+00 -0.82410615413E+02  0.82410615413E+02  0.00000000000E+00 0. -1.
         25    2    1    2    0    0 -0.14161658817E+02  0.26086977436E+01 -0.53748145001E+01  0.12593807728E+03  0.12499661113E+03 0.  0.
          2    1    1    2  501    0 -0.32510727846E+02 -0.38651709524E+02  0.23854767666E+02  0.55856530635E+02  0.00000000000E+00 0. -1.
          1    1    1    2  502    0  0.46672386663E+02  0.36043011781E+02  0.11533239697E+04  0.11548305458E+04  0.00000000000E+00 0. -1.
         22    1    3    3    0    0 -0.22405199890E+02  0.47390558875E+02  0.36660530688E+02  0.63967589942E+02  0.00000000000E+00 0. -1.
         22    1    3    3    0    0  0.82435410732E+01 -0.44781861131E+02 -0.42035345188E+02  0.61970487338E+02  0.00000000000E+00 0. -1.
</event>
<event>
 7    1  0.6370239E-006  0.1083405E+03  0.7818608E-02  0.1314027E+00
          2   -1    0    0  502    0  0.00000000000E+00  0.00000000000E+00  0.72968447477E+03  0.72968447477E+03  0.00000000000E+00 0. -1.
          1   -1    0    0  501    0 -0.00000000000E+00 -0.00000000000E+00 -0.70974137839E+03  0.70974137839E+03  0.00000000000E+00 0. -1.
         25    2    1    2    0    0  0.16833431637E+03 -0.37184555080E+01  0.15205389823E+03  0.25902587764E+03  0.12499499328E+03 0.  0.
          2    1    1    2  501    0 -0.66629413486E+02 -0.11036444493E+02 -0.64944986009E+03  0.65295206763E+03  0.00000000000E+00 0. -1.
          1    1    1    2  502    0 -0.10170490288E+03  0.14754900001E+02  0.51733905825E+03  0.52744790788E+03  0.00000000000E+00 0. -1.
         22    1    3    3    0    0  0.22902259879E+02 -0.21023477767E+02  0.98161871691E+02  0.10296724323E+03  0.00000000000E+00 0. -1.
         22    1    3    3    0    0  0.14543205649E+03  0.17305022258E+02  0.53892026537E+02  0.15605863441E+03  0.00000000000E+00 0. -1.
</event>
<event>
 7    1  0.6370239E-006  0.7971178E+02  0.7818608E-02  0.1395775E+00
          2   -1    0    0  502    0  0.00000000000E+00  0.00000000000E+00  0.44045801834E+03  0.44045801834E+03  0.00000000000E+00 0. -1.
          1   -1    0    0  501    0 -0.00000000000E+00 -0.00000000000E+00 -0.12417316687E+04  0.12417316687E+04  0.00000000000E+00 0. -1.
         25    2    1    2    0    0  0.19382711007E+02  0.54043402016E+02  0.33071526753E+02  0.14147822821E+03  0.12500393750E+03 0.  0.
          2    1    1    2  501    0  0.45772638284E+02 -0.35205514330E+01 -0.11822649600E+04  0.11831559340E+04  0.00000000000E+00 0. -1.
          1    1    1    2  502    0 -0.65155349291E+02 -0.50522850583E+02  0.34791978287E+03  0.35755552476E+03  0.00000000000E+00 0. -1.
         22    1    3    3    0    0  0.31128672477E+02 -0.29523219169E+02  0.37489816652E+02  0.56974565140E+02  0.00000000000E+00 0. -1.
         22    1    3    3    0    0 -0.11745961470E+02  0.83566621185E+02 -0.44182898994E+01  0.84503663073E+02  0.00000000000E+00 0. -1.
</event>
<event>
 7    1  0.6370239E-006  0.2883181E+02  0.7818608E-02  0.1669431E+00
          2   -1    0    0  502    0  0.00000000000E+00  0.00000000000E+00  0.34676109515E+03  0.34676109515E+03  0.00000000000E+00 0. -1.
          1   -1    0    0  501    0 -0.00000000000E+00 -0.00000000000E+00 -0.60438452229E+02  0.60438452229E+02  0.00000000000E+00 0. -1.
         25    2    1    2    0    0  0.13787826825E+02 -0.28764970125E+02  0.22468166473E+03  0.25908232374E+03  0.12499708931E+03 0.  0.
          2    1    1    2  501    0  0.68891877940E+01  0.28081848620E+02 -0.37210524103E+02  0.47124030328E+02  0.00000000000E+00 0. -1.
          1    1    1    2  502    0 -0.20677014619E+02  0.68312150480E+00  0.98851502299E+02  0.10099319331E+03  0.00000000000E+00 0. -1.
         22    1    3    3    0    0  0.53851065138E+02 -0.17762077861E+02  0.20575854411E+03  0.21342916179E+03  0.00000000000E+00 0. -1.
         22    1    3    3    0    0 -0.40063238313E+02 -0.11002892263E+02  0.18923120611E+02  0.45653161949E+02  0.00000000000E+00 0. -1.
</event>
<event>
 7    1  0.6370239E-006  0.1086585E+03  0.7818608E-02  0.1335675E+00
          2   -1    0    0  502    0  0.00000000000E+00  0.00000000000E+00  0.12639762019E+04  0.12639762019E+04  0.00000000000E+00 0. -1.
          1   -1    0    0  501    0 -0.00000000000E+00 -0.00000000000E+00 -0.11338769269E+03  0.11338769269E+03  0.00000000000E+00 0. -1.
         25    2    1    2    0    0  0.53761254291E+02  0.60245217965E+02  0.29744473185E+02  0.15177219409E+03  0.12502122405E+03 0.  0.
          2    1    1    2  501    0 -0.91556944789E+02 -0.10099318813E+03  0.38263262379E+02  0.14158522323E+03  0.00000000000E+00 0. -1.
          1    1    1    2  502    0  0.37795690498E+02  0.40747970166E+02  0.10825807737E+04  0.10840064773E+04  0.00000000000E+00 0. -1.
         22    1    3    3    0    0  0.84839025341E+02  0.41471787650E+02  0.53354094172E+02  0.10846302945E+03  0.00000000000E+00 0.  1.
         22    1    3    3    0    0 -0.31077771050E+02  0.18773430314E+02 -0.23609620986E+02  0.43309164646E+02  0.00000000000E+00 0.  1.
</event>
<event>
 7    1  0.6370239E-006  0.3957530E+02  0.7818608E-02  0.1549926E+00
          2   -1    0    0  502    0  0.00000000000E+00  0.00000000000E+00  0.34999254276E+03  0.34999254276E+03  0.00000000000E+00 0. -1.
          1   -1    0    0  501    0 -0.00000000000E+00 -0.00000000000E+00 -0.67402366977E+03  0.67402366977E+03  0.00000000000E+00 0. -1.
         25    2    1    2    0    0 -0.37489989627E+02 -0.53056321100E+02 -0.37582807079E+03  0.40136586321E+03  0.12500937895E+03 0.  0.
          2    1    1    2  501    0  0.52319156378E+01  0.30241840023E+02 -0.28343815010E+03  0.28509494341E+03  0.00000000000E+00 0. -1.
          1    1    1    2  502    0  0.32258073989E+02  0.22814481077E+02  0.33523509389E+03  0.33755540591E+03  0.00000000000E+00 0. -1.
         22    1    3    3    0    0 -0.15845292254E+01 -0.43781873217E+02 -0.35718076321E+03  0.35985755621E+03  0.00000000000E+00 0.  1.
         22    1    3    3    0    0 -0.35905460402E+02 -0.92744478834E+01 -0.18647307587E+02  0.41508307006E+02  0.00000000000E+00 0.  1.
</event>
<event>
 7    1  0.6370239E-006  0.9161906E+02  0.7818608E-02  0.1349877E+00
          2   -1    0    0  502    0  0.00000000000E+00  0.00000000000E+00  0.25974296646E+03  0.25974296646E+03  0.00000000000E+00 0. -1.
          1   -1    0    0  501    0 -0.00000000000E+00 -0.00000000000E+00 -0.13794797549E+04  0.13794797549E+04  0.00000000000E+00 0. -1.
         25    2    1    2    0    0  0.83868188300E+02 -0.11999952642E+03 -0.16053375775E+03  0.25065816130E+03  0.12499866839E+03 0.  0.
          2    1    1    2  501    0 -0.42618574810E+02  0.78779751824E+02 -0.11681774625E+04  0.11716062377E+04  0.00000000000E+00 0. -1.
          1    1    1    2  502    0 -0.41249613490E+02  0.41219774594E+02  0.20897443190E+03  0.21695832231E+03  0.00000000000E+00 0. -1.
         22    1    3    3    0    0 -0.38141336170E+01 -0.60639007915E+02 -0.12497335572E+03  0.13896034160E+03  0.00000000000E+00 0. -1.
         22    1    3    3    0    0  0.87682321917E+02 -0.59360518503E+02 -0.35560402031E+02  0.11169781970E+03  0.00000000000E+00 0. -1.
</event>
<event>
 7    1  0.6370239E-006  0.9730561E+02  0.7818608E-02  0.1293233E+00
          2   -1    0    0  502    0  0.00000000000E+00  0.00000000000E+00  0.42251091297E+02  0.42251091297E+02  0.00000000000E+00 0. -1.
          1   -1    0    0  501    0 -0.00000000000E+00 -0.00000000000E+00 -0.23827974909E+04  0.23827974909E+04  0.00000000000E+00 0. -1.
         25    2    1    2    0    0  0.59604649680E+02 -0.37945800511E+02 -0.80008258815E+03  0.81286496234E+03  0.12499880433E+03 0.  0.
          2    1    1    2  501    0 -0.63652845427E+02 -0.65013220447E+02 -0.14979633791E+04  0.15007240548E+04  0.00000000000E+00 0. -1.
          1    1    1    2  502    0  0.40481957478E+01  0.10295902096E+03 -0.42500432305E+02  0.11145956501E+03  0.00000000000E+00 0. -1.
         22    1    3    3    0    0  0.25380970105E+02 -0.28834558374E+02 -0.55822116071E+02  0.67762334986E+02  0.00000000000E+00 0.  1.
         22    1    3    3    0    0  0.34223679575E+02 -0.91112421372E+01 -0.74426047208E+03  0.74510262735E+03  0.00000000000E+00 0.  1.
</event>
<event>
 7    1  0.6370239E-006  0.6902455E+02  0.7818608E-02  0.1406497E+00
          2   -1    0    0  502    0  0.00000000000E+00  0.00000000000E+00  0.10523384847E+04  0.10523384847E+04  0.00000000000E+00 0. -1.
          1   -1    0    0  501    0 -0.00000000000E+00 -0.00000000000E+00 -0.11419126421E+03  0.11419126421E+03  0.00000000000E+00 0. -1.
         25    2    1    2    0    0 -0.86590468370E+02  0.18845739296E+02  0.24260110643E+03  0.28693401062E+03  0.12499103371E+03 0.  0.
          2    1    1    2  501    0  0.64242099346E+02  0.24432126544E+02 -0.78318045650E+02  0.10420025149E+03  0.00000000000E+00 0. -1.
          1    1    1    2  502    0  0.22348369024E+02 -0.43277865840E+02  0.77386415973E+03  0.77539548682E+03  0.00000000000E+00 0. -1.
         22    1    3    3    0    0  0.15525028226E+02 -0.14330273708E+02  0.12862741569E+03  0.13035104646E+03  0.00000000000E+00 0.  1.
         22    1    3    3    0    0 -0.10211549660E+03  0.33176013004E+02  0.11397369073E+03  0.15658296415E+03  0.00000000000E+00 0.  1.
</event>
<event>
 7    1  0.6370239E-006  0.1015144E+03  0.7818608E-02  0.1302898E+00
          2   -1    0    0  502    0  0.00000000000E+00  0.00000000000E+00  0.23686870670E+04  0.23686870670E+04  0.00000000000E+00 0. -1.
          1   -1    0    0  501    0 -0.00000000000E+00 -0.00000000000E+00 -0.37230926983E+02  0.37230926983E+02  0.00000000000E+00 0. -1.
         25    2    1    2    0    0 -0.70023078259E+02  0.51928285858E+02  0.11082712891E+04  0.11187005483E+04  0.12500355223E+03 0.  0.
          2    1    1    2  501    0 -0.48263299120E+02 -0.63497692104E+02  0.25623181723E+02  0.83772611193E+02  0.00000000000E+00 0. -1.
          1    1    1    2  502    0  0.11828637738E+03  0.11569406246E+02  0.11975616692E+04  0.12034448345E+04  0.00000000000E+00 0. -1.
         22    1    3    3    0    0  0.22367852151E+02  0.42990166107E+02  0.20397132522E+03  0.20964917530E+03  0.00000000000E+00 0. -1.
         22    1    3    3    0    0 -0.92390930410E+02  0.89381197512E+01  0.90429996390E+03  0.90905137298E+03  0.00000000000E+00 0. -1.
</event>
<event>
 7    1  0.6370239E-006  0.1087172E+03  0.7818608E-02  0.1282184E+00
          2   -1    0    0  502    0  0.00000000000E+00  0.00000000000E+00  0.30055622653E+04  0.30055622653E+04  0.00000000000E+00 0. -1.
          1   -1    0    0  501    0 -0.00000000000E+00 -0.00000000000E+00 -0.27007732541E+04  0.27007732541E+04  0.00000000000E+00 0. -1.
         25    2    1    2    0    0  0.18860126246E+03 -0.40477010772E+02  0.51763339343E+03  0.56637327137E+03  0.12500211169E+03 0.  0.
          2    1    1    2  501    0 -0.10854691329E+03 -0.14029538457E+01 -0.26744734982E+04  0.26766757168E+04  0.00000000000E+00 0. -1.
          1    1    1    2  502    0 -0.80054349171E+02  0.41879964618E+02  0.24616291159E+04  0.24632865311E+04  0.00000000000E+00 0. -1.
         22    1    3    3    0    0  0.12361625526E+03  0.18656390318E+02  0.19214933357E+03  0.22923875296E+03  0.00000000000E+00 0. -1.
         22    1    3    3    0    0  0.64985007202E+02 -0.59133401090E+02  0.32548405986E+03  0.33713451842E+03  0.00000000000E+00 0. -1.
</event>
<event>
 7    1  0.6370239E-006  0.2914624E+03  0.7818608E-02  0.1230757E+00
          2   -1    0    0  502    0  0.00000000000E+00  0.00000000000E+00  0.13107135575E+04  0.13107135575E+04  0.00000000000E+00 0. -1.
          1   -1    0    0  501    0 -0.00000000000E+00 -0.00000000000E+00 -0.14849413600E+04  0.14849413600E+04  0.00000000000E+00 0. -1.
         25    2    1    2    0    0  0.71041086406E+02  0.26431643423E+03  0.20305880133E+03  0.36298994430E+03  0.12497523558E+03 0.  0.
          2    1    1    2  501    0 -0.46130407156E+02  0.31815318342E+02 -0.13829126973E+04  0.13840475993E+04  0.00000000000E+00 0. -1.
          1    1    1    2  502    0 -0.24910679250E+02 -0.29613175257E+03  0.10056260935E+04  0.10486173739E+04  0.00000000000E+00 0. -1.
         22    1    3    3    0    0  0.36892465601E+02  0.17959205504E+03  0.59355421705E+02  0.19271073228E+03  0.00000000000E+00 0.  1.
         22    1    3    3    0    0  0.34148620805E+02  0.84724379190E+02  0.14370337962E+03  0.17027921202E+03  0.00000000000E+00 0.  1.
</event>
<event>
 7    1  0.6370239E-006  0.1694681E+03  0.7818608E-02  0.1236426E+00
          2   -1    0    0  502    0  0.00000000000E+00  0.00000000000E+00  0.69662251430E+03  0.69662251430E+03  0.00000000000E+00 0. -1.
          1   -1    0    0  501    0 -0.00000000000E+00 -0.00000000000E+00 -0.10435972497E+04  0.10435972497E+04  0.00000000000E+00 0. -1.
         25    2    1    2    0    0 -0.49393499149E+02 -0.76615341421E+02 -0.43516720058E+02  0.16071181259E+03  0.12499981393E+03 0.  0.
          2    1    1    2  501    0  0.82935115412E+02  0.16113252685E+03 -0.92944683720E+03  0.94694949588E+03  0.00000000000E+00 0. -1.
          1    1    1    2  502    0 -0.33541616263E+02 -0.84517185426E+02  0.62598882182E+03  0.63255845556E+03  0.00000000000E+00 0. -1.
         22    1    3    3    0    0 -0.56381193067E+02  0.14862651204E+02 -0.36300877484E+02  0.68683994049E+02  0.00000000000E+00 0. -1.
         22    1    3    3    0    0  0.69876939182E+01 -0.91477992625E+02 -0.72158425745E+01  0.92027818539E+02  0.00000000000E+00 0. -1.
</event>
<event>
 7    1  0.6370239E-006  0.8880249E+02  0.7818608E-02  0.1374273E+00
          2   -1    0    0  502    0  0.00000000000E+00  0.00000000000E+00  0.66878936267E+02  0.66878936267E+02  0.00000000000E+00 0. -1.
          1   -1    0    0  501    0 -0.00000000000E+00 -0.00000000000E+00 -0.25583161234E+04  0.25583161234E+04  0.00000000000E+00 0. -1.
         25    2    1    2    0    0 -0.35517396352E+02  0.59867560702E+02 -0.18234207370E+03  0.23177576895E+03  0.12500305982E+03 0.  0.
          2    1    1    2  501    0  0.33305761472E+02  0.35998874024E+02 -0.22961313296E+04  0.22966550188E+04  0.00000000000E+00 0. -1.
          1    1    1    2  502    0  0.22116348797E+01 -0.95866434726E+02 -0.12963783896E+02  0.96764271964E+02  0.00000000000E+00 0. -1.
         22    1    3    3    0    0 -0.77082490990E+02  0.25461059051E+02 -0.14493040589E+03  0.16611682183E+03  0.00000000000E+00 0.  1.
         22    1    3    3    0    0  0.41565094638E+02  0.34406501651E+02 -0.37411667815E+02  0.65658947120E+02  0.00000000000E+00 0.  1.
</event>
<event>
 7    1  0.7034382E-006  0.1266863E+03  0.7818608E-02  0.1329247E+00
          2   -1    0    0  502    0  0.00000000000E+00  0.00000000000E+00  0.36684185983E+04  0.36684185983E+04  0.00000000000E+00 0. -1.
          1   -1    0    0  501    0 -0.00000000000E+00 -0.00000000000E+00 -0.92902278778E+03  0.92902278778E+03  0.00000000000E+00 0. -1.
         25    2    1    2    0    0  0.68640278313E+02  0.36818382932E+02 -0.35140612294E+03  0.38102337263E+03  0.12500186447E+03 0.  0.
          2    1    1    2  501    0  0.34972427407E+02  0.36335399306E+02 -0.56057496783E+03  0.56283889922E+03  0.00000000000E+00 0. -1.
          1    1    1    2  502    0 -0.10361270572E+03 -0.73153782238E+02  0.36513769013E+04  0.36535791143E+04  0.00000000000E+00 0. -1.
         22    1    3    3    0    0  0.30986173913E+02  0.67773477044E+02 -0.98777809659E+02  0.12373537427E+03  0.00000000000E+00 0. -1.
         22    1    3    3    0    0  0.37654104399E+02 -0.30955094112E+02 -0.25262831328E+03  0.25728799836E+03  0.00000000000E+00 0. -1.
</event>
<event>
 7    1  0.6370239E-006  0.1054826E+03  0.7818608E-02  0.1277707E+00
          2   -1    0    0  502    0  0.00000000000E+00  0.00000000000E+00  0.20136002354E+04  0.20136002354E+04  0.00000000000E+00 0. -1.
          1   -1    0    0  501    0 -0.00000000000E+00 -0.00000000000E+00 -0.12356011968E+04  0.12356011968E+04  0.00000000000E+00 0. -1.
         25    2    1    2    0    0  0.46851687014E+02  0.18594501235E+03  0.15031974201E+03  0.27383316865E+03  0.12497180170E+03 0.  0.
          2    1    1    2  501    0  0.61961624753E+01 -0.96972877839E+02 -0.11703402854E+04  0.11743672829E+04  0.00000000000E+00 0. -1.
          1    1    1    2  502    0 -0.53047849489E+02 -0.88972134511E+02  0.17980195820E+04  0.18010009807E+04  0.00000000000E+00 0. -1.
         22    1    3    3    0    0 -0.95598595685E+01  0.14217135905E+03  0.50650867921E+02  0.15122697071E+03  0.00000000000E+00 0.  1.
         22    1    3    3    0    0  0.56411546583E+02  0.43773653303E+02  0.99668874093E+02  0.12260619794E+03  0.00000000000E+00 0.  1.
</event>
<event>
 7    1  0.6370239E-006  0.8573984E+02  0.7818608E-02  0.1386421E+00
          2   -1    0    0  502    0  0.00000000000E+00  0.00000000000E+00  0.58733608301E+03  0.58733608301E+03  0.00000000000E+00 0. -1.
          1   -1    0    0  501    0 -0.00000000000E+00 -0.00000000000E+00 -0.34458325466E+03  0.34458325466E+03  0.00000000000E+00 0. -1.
         25    2    1    2    0    0 -0.96314742220E+02 -0.84973257119E+02  0.10376438860E+03  0.20707562823E+03  0.12496512901E+03 0.  0.
          2    1    1    2  501    0  0.35477047963E+02  0.29290533094E+02 -0.28714279020E+03  0.29080498315E+03  0.00000000000E+00 0. -1.
          1    1    1    2  502    0  0.60837694257E+02  0.55682724025E+02  0.42613122994E+03  0.43403872630E+03  0.00000000000E+00 0. -1.
         22    1    3    3    0    0 -0.89841322900E+02 -0.10215696728E+03  0.12086934683E+03  0.18198051618E+03  0.00000000000E+00 0.  1.
         22    1    3    3    0    0 -0.64734193200E+01  0.17183710162E+02 -0.17104958229E+02  0.25095112047E+02  0.00000000000E+00 0.  1.
</event>
<event>
 7    1  0.6370239E-006  0.5255312E+02  0.7818608E-02  0.1442789E+00
          2   -1    0    0  502    0  0.00000000000E+00  0.00000000000E+00  0.13497219637E+03  0.13497219637E+03  0.00000000000E+00 0. -1.
          1   -1    0    0  501    0 -0.00000000000E+00 -0.00000000000E+00 -0.33682717634E+03  0.33682717634E+03  0.00000000000E+00 0. -1.
         25    2    1    2    0    0  0.24919878280E+02 -0.27876144133E+02 -0.19077755360E+03  0.23112672865E+03  0.12500163996E+03 0.  0.
          2    1    1    2  501    0 -0.42866372354E+02 -0.22648421715E+02 -0.11440969232E+03  0.12425801617E+03  0.00000000000E+00 0. -1.
          1    1    1    2  502    0  0.17946494074E+02  0.50524565848E+02  0.10333226595E+03  0.11641462790E+03  0.00000000000E+00 0. -1.
         22    1    3    3    0    0  0.16487446690E+02 -0.12288300562E+02  0.14451856342E+02  0.25133531005E+02  0.00000000000E+00 0.  1.
         22    1    3    3    0    0  0.84324315904E+01 -0.15587843571E+02 -0.20522940994E+03  0.20599319764E+03  0.00000000000E+00 0.  1.
</event>
<event>
 7    1  0.6370239E-006  0.8835776E+02  0.7818608E-02  0.1469729E+00
          2   -1    0    0  502    0  0.00000000000E+00  0.00000000000E+00  0.58613132088E+03  0.58613132088E+03  0.00000000000E+00 0. -1.
          1   -1    0    0  501    0 -0.00000000000E+00 -0.00000000000E+00 -0.35918401834E+03  0.35918401834E+03  0.00000000000E+00 0. -1.
         25    2    1    2    0    0 -0.21132925656E+02 -0.65072613665E+02  0.13437033503E+03  0.19586065664E+03  0.12499985715E+03 0.  0.
          2    1    1    2  501    0 -0.18255131077E+01 -0.23615368032E+02 -0.32301652886E+03  0.32388376930E+03  0.00000000000E+00 0. -1.
          1    1    1    2  502    0  0.22958438764E+02  0.88687981697E+02  0.41559349636E+03  0.42557091327E+03  0.00000000000E+00 0. -1.
         22    1    3    3    0    0  0.36143261715E+02 -0.70402654676E+02  0.10437936970E+03  0.13098825127E+03  0.00000000000E+00 0. -1.
         22    1    3    3    0    0 -0.57276187371E+02  0.53300410112E+01  0.29990965335E+02  0.64872405372E+02  0.00000000000E+00 0. -1.
</event>
<event>
 7    1  0.6370239E-006  0.3198994E+02  0.7818608E-02  0.1636497E+00
          2   -1    0    0  502    0  0.00000000000E+00  0.00000000000E+00  0.17893489434E+04  0.17893489434E+04  0.00000000000E+00 0. -1.
          1   -1    0    0  501    0 -0.00000000000E+00 -0.00000000000E+00 -0.13354449977E+02  0.13354449977E+02  0.00000000000E+00 0. -1.
         25    2    1    2    0    0 -0.35645882098E+01  0.11045984137E+02  0.59250699860E+03  0.60566045110E+03  0.12500127430E+03 0.  0.
          2    1    1    2  501    0  0.16306902180E+01 -0.33404316592E+02  0.35267071541E+02  0.48603228830E+02  0.00000000000E+00 0. -1.
          1    1    1    2  502    0  0.19338979919E+01  0.22358332456E+02  0.11482204233E+04  0.11484397135E+04  0.00000000000E+00 0. -1.
         22    1    3    3    0    0  0.52278784957E+02 -0.25793389642E+02  0.29833318656E+03  0.30397542747E+03  0.00000000000E+00 0.  1.
         22    1    3    3    0    0 -0.55843373167E+02  0.36839373779E+02  0.29417381205E+03  0.30168502363E+03  0.00000000000E+00 0.  1.
</event>
<event>
 7    1  0.6370239E-006  0.6406002E+02  0.7818608E-02  0.1537298E+00
          2   -1    0    0  502    0  0.00000000000E+00  0.00000000000E+00  0.87484471853E+02  0.87484471853E+02  0.00000000000E+00 0. -1.
          1   -1    0    0  501    0 -0.00000000000E+00 -0.00000000000E+00 -0.45407241721E+03  0.45407241721E+03  0.00000000000E+00 0. -1.
         25    2    1    2    0    0 -0.16589656778E+02 -0.60052179403E+02 -0.12488436304E+03  0.18735667558E+03  0.12499975516E+03 0.  0.
          2    1    1    2  501    0  0.36111909741E+02  0.53550071023E+02 -0.29242026218E+03  0.29946834535E+03  0.00000000000E+00 0. -1.
          1    1    1    2  502    0 -0.19522252962E+02  0.65021083799E+01  0.50716679857E+02  0.54731868138E+02  0.00000000000E+00 0. -1.
         22    1    3    3    0    0  0.28856543718E+01 -0.96971475723E+02 -0.77189131266E+02  0.12397562700E+03  0.00000000000E+00 0. -1.
         22    1    3    3    0    0 -0.19475311150E+02  0.36919296320E+02 -0.47695231770E+02  0.63381048577E+02  0.00000000000E+00 0. -1.
</event>
<event>
 7    1  0.6370239E-006  0.6314960E+02  0.7818608E-02  0.1397225E+00
          2   -1    0    0  502    0  0.00000000000E+00  0.00000000000E+00  0.48821239942E+03  0.48821239942E+03  0.00000000000E+00 0. -1.
          1   -1    0    0  501    0 -0.00000000000E+00 -0.00000000000E+00 -0.47301285508E+03  0.47301285508E+03  0.00000000000E+00 0. -1.
         25    2    1    2    0    0 -0.11661439545E+03 -0.11979111013E+02  0.26180982626E+03  0.31290891753E+03  0.12500075687E+03 0.  0.
          2    1    1    2  501    0  0.59775174560E+02  0.19094125112E+02 -0.44111293880E+03  0.44555390457E+03  0.00000000000E+00 0. -1.
          1    1    1    2  502    0  0.56839220891E+02 -0.71150140988E+01  0.19450265687E+03  0.20276243239E+03  0.00000000000E+00 0. -1.
         22    1    3    3    0    0 -0.12440686631E+03 -0.48231567983E+02  0.19118709729E+03  0.23314342947E+03  0.00000000000E+00 0. -1.
         22    1    3    3    0    0  0.77924708574E+01  0.36252456970E+02  0.70622728974E+02  0.79765488065E+02  0.00000000000E+00 0. -1.
</event>
<event>
 7    1  0.6370239E-006  0.6142017E+02  0.7818608E-02  0.1481968E+00
          2   -1    0    0  502    0  0.00000000000E+00  0.00000000000E+00  0.14373325794E+04  0.14373325794E+04  0.00000000000E+00 0. -1.
          1   -1    0    0  501    0 -0.00000000000E+00 -0.00000000000E+00 -0.13598674121E+04  0.13598674121E+04  0.00000000000E+00 0. -1.
         25    2    1    2    0    0 -0.61139542851E+02 -0.22228104805E+02  0.14702924680E+03  0.20364841618E+03  0.12499178235E+03 0.  0.
          2    1    1    2  501    0  0.60773338014E+02 -0.90060321780E+01 -0.13306556656E+04  0.13320731991E+04  0.00000000000E+00 0. -1.
          1    1    1    2  502    0  0.36620483662E+00  0.31234136983E+02  0.12610915861E+04  0.12614783763E+04  0.00000000000E+00 0. -1.
         22    1    3    3    0    0  0.23460222636E+02  0.31845322134E+02  0.31336499611E+02  0.50462687165E+02  0.00000000000E+00 0. -1.
         22    1    3    3    0    0 -0.84599765487E+02 -0.54073426940E+02  0.11569274718E+03  0.15318572901E+03  0.00000000000E+00 0. -1.
</event>
<event>
 7    1  0.6370239E-006  0.6767334E+02  0.7818608E-02  0.1417352E+00
          2   -1    0    0  502    0  0.00000000000E+00  0.00000000000E+00  0.19798660906E+03  0.19798660906E+03  0.00000000000E+00 0. -1.
          1   -1    0    0  501    0 -0.00000000000E+00 -0.00000000000E+00 -0.20564569823E+04  0.20564569823E+04  0.00000000000E+00 0. -1.
         25    2    1    2    0    0 -0.18680286088E+02  0.37384980136E+02 -0.26951168689E+03  0.30001360489E+03  0.12500009567E+03 0.  0.
          2    1    1    2  501    0 -0.15688561600E+02 -0.67439591081E+02 -0.17681543307E+04  0.17695095271E+04  0.00000000000E+00 0. -1.
          1    1    1    2  502    0  0.34368847688E+02  0.30054610944E+02  0.17919564435E+03  0.18492045935E+03  0.00000000000E+00 0. -1.
         22    1    3    3    0    0 -0.34668256857E+02 -0.38054827228E+02 -0.14144538593E+03  0.15052194228E+03  0.00000000000E+00 0. -1.
         22    1    3    3    0    0  0.15987970769E+02  0.75439807365E+02 -0.12806630097E+03  0.14949166260E+03  0.00000000000E+00 0. -1.
</event>
<event>
 7    1  0.6370239E-006  0.5593422E+02  0.7818608E-02  0.1432379E+00
          2   -1    0    0  502    0  0.00000000000E+00  0.00000000000E+00  0.47614605610E+03  0.47614605610E+03  0.00000000000E+00 0. -1.
          1   -1    0    0  501    0 -0.00000000000E+00 -0.00000000000E+00 -0.12187356462E+04  0.12187356462E+04  0.00000000000E+00 0. -1.
         25    2    1    2    0    0  0.95280942374E+01  0.15337132277E+02  0.17741781665E+03  0.21777602910E+03  0.12499321974E+03 0.  0.
          2    1    1    2  501    0 -0.11781990826E+02  0.47819262479E+02 -0.11944580817E+04  0.11954729633E+04  0.00000000000E+00 0. -1.
          1    1    1    2  502    0  0.22538965886E+01 -0.63156394756E+02  0.27445067498E+03  0.28163270983E+03  0.00000000000E+00 0. -1.
         22    1    3    3    0    0 -0.19930393565E+02 -0.39425248980E+02  0.19944957637E+02  0.48470322672E+02  0.00000000000E+00 0.  1.
         22    1    3    3    0    0  0.29458487802E+02  0.54762381257E+02  0.15747285901E+03  0.16930570643E+03  0.00000000000E+00 0.  1.
</event>
<event>
 7    1  0.6370239E-006  0.7269661E+02  0.7818608E-02  0.1418340E+00
          2   -1    0    0  502    0  0.00000000000E+00  0.00000000000E+00  0.12922570813E+04  0.12922570813E+04  0.00000000000E+00 0. -1.
          1   -1    0    0  501    0 -0.00000000000E+00 -0.00000000000E+00 -0.14519702076E+03  0.14519702076E+03  0.00000000000E+00 0. -1.
         25    2    1    2    0    0  0.34366782683E+02 -0.32236941992E+02  0.78538016851E+02  0.15496562529E+03  0.12500331496E+03 0.  0.
          2    1    1    2  501    0 -0.22922969953E+02  0.72833570922E+02 -0.92927400697E+02  0.12027341105E+03  0.00000000000E+00 0. -1.
          1    1    1    2  502    0 -0.11443812730E+02 -0.40596628930E+02  0.11614494444E+04  0.11622150657E+04  0.00000000000E+00 0. -1.
         22    1    3    3    0    0 -0.24078593215E+02 -0.54481767100E+02  0.70432814524E+01  0.59980408562E+02  0.00000000000E+00 0.  1.
         22    1    3    3    0    0  0.58445375898E+02  0.22244825108E+02  0.71494735399E+02  0.94985216732E+02  0.00000000000E+00 0.  1.
</event>
<event>
 7    1  0.6370239E-006  0.1634626E+03  0.7818608E-02  0.1349537E+00
          2   -1    0    0  502    0  0.00000000000E+00  0.00000000000E+00  0.74233872518E+03  0.74233872518E+03  0.00000000000E+00 0. -1.
          1   -1    0    0  501    0 -0.00000000000E+00 -0.00000000000E+00 -0.19290320892E+04  0.19290320892E+04  0.00000000000E+00 0. -1.
         25    2    1    2    0    0 -0.97006500387E+02  0.14468355267E+03  0.46939506014E+02  0.21948071789E+03  0.12499950708E+03 0.  0.
          2    1    1    2  501    0 -0.16394085617E+02 -0.28385492861E+02 -0.18317832747E+04  0.18320765453E+04  0.00000000000E+00 0. -1.
          1    1    1    2  502    0  0.11340058600E+03 -0.11629805981E+03  0.59815040468E+03  0.61981355119E+03  0.00000000000E+00 0. -1.
         22    1    3    3    0    0 -0.97371599369E+02  0.98837120900E+02  0.82534694018E+02  0.16143723408E+03  0.00000000000E+00 0. -1.
         22    1    3    3    0    0  0.36509898229E+00  0.45846431775E+02 -0.35595188004E+02  0.58043483810E+02  0.00000000000E+00 0. -1.
</event>
<event>
 7    1  0.6370239E-006  0.5163103E+02  0.7818608E-02  0.1572278E+00
          2   -1    0    0  502    0  0.00000000000E+00  0.00000000000E+00  0.80881989184E+03  0.80881989184E+03  0.00000000000E+00 0. -1.
          1   -1    0    0  501    0 -0.00000000000E+00 -0.00000000000E+00 -0.14193481148E+03  0.14193481148E+03  0.00000000000E+00 0. -1.
         25    2    1    2    0    0 -0.98101704002E+01 -0.64463714399E+02  0.16360603684E+03  0.21597190125E+03  0.12500046768E+03 0.  0.
          2    1    1    2  501    0  0.20450237163E+02  0.47033430017E+02 -0.10989252170E+03  0.12127127469E+03  0.00000000000E+00 0. -1.
          1    1    1    2  502    0 -0.10640066763E+02  0.17430284382E+02  0.61317156522E+03  0.61351152738E+03  0.00000000000E+00 0. -1.
         22    1    3    3    0    0  0.32638750715E+02  0.13305434296E+02  0.68446871948E+01  0.35905046620E+02  0.00000000000E+00 0.  1.
         22    1    3    3    0    0 -0.42448921115E+02 -0.77769148695E+02  0.15676134965E+03  0.18006685463E+03  0.00000000000E+00 0.  1.
</event>
<event>
 7    1  0.6370239E-006  0.3301240E+02  0.7818608E-02  0.1606779E+00
          2   -1    0    0  502    0  0.00000000000E+00  0.00000000000E+00  0.20186244980E+04  0.20186244980E+04  0.00000000000E+00 0. -1.
          1   -1    0    0  501    0 -0.00000000000E+00 -0.00000000000E+00 -0.25976779167E+03  0.25976779167E+03  0.00000000000E+00 0. -1.
         25    2    1    2    0    0  0.33571432914E+02 -0.40377353907E+02  0.21674389137E+03  0.25566159805E+03  0.12501026540E+03 0.  0.
          2    1    1    2  501    0 -0.24332996197E+02  0.88076850356E+01 -0.23946000360E+03  0.24085423672E+03  0.00000000000E+00 0. -1.
          1    1    1    2  502    0 -0.92384367171E+01  0.31569668872E+02  0.17815728185E+04  0.17818764549E+04  0.00000000000E+00 0. -1.
         22    1    3    3    0    0  0.72644003182E+02  0.64805429138E+01  0.97993734751E+02  0.12215531378E+03  0.00000000000E+00 0.  1.
         22    1    3    3    0    0 -0.39072570268E+02 -0.46857896821E+02  0.11875015662E+03  0.13350628426E+03  0.00000000000E+00 0.  1.
</event>
<event>
 7    1  0.8391849E-006  0.7419280E+02  0.7818608E-02  0.1368869E+00
          2   -1    0    0  502    0  0.00000000000E+00  0.00000000000E+00  0.65563939370E+03  0.65563939370E+03  0.00000000000E+00 0. -1.
          1   -1    0    0  501    0 -0.00000000000E+00 -0.00000000000E+00 -0.26041851200E+04  0.26041851200E+04  0.00000000000E+00 0. -1.
         25    2    1    2    0    0 -0.42509637730E+02 -0.44592139404E+02 -0.26431973324E+03  0.29880861270E+03  0.12500454970E+03 0.  0.
          2    1    1    2  501    0 -0.11002136104E+02  0.74657296035E+02 -0.23205308215E+04  0.23217575352E+04  0.00000000000E+00 0. -1.
          1    1    1    2  502    0  0.53511773834E+02 -0.30065156631E+02  0.63630482842E+03  0.63925836580E+03  0.00000000000E+00 0. -1.
         22    1    3    3    0    0 -0.18042277790E+02 -0.44993927247E+02 -0.18677048214E+02  0.51950066477E+02  0.00000000000E+00 0.  1.
         22    1    3    3    0    0 -0.24467359940E+02  0.40178784226E+00 -0.24564268503E+03  0.24685854623E+03  0.00000000000E+00 0.  1.
</event>
<event>
 7    1  0.6370239E-006  0.1550472E+03  0.7818608E-02  0.1311065E+00
          2   -1    0    0  502    0  0.00000000000E+00  0.00000000000E+00  0.10268105475E+04  0.10268105475E+04  0.00000000000E+00 0. -1.
          1   -1    0    0  501    0 -0.00000000000E+00 -0.00000000000E+00 -0.40949095381E+03  0.40949095381E+03  0.00000000000E+00 0. -1.
         25    2    1    2    0    0  0.42060813848E+02  0.12954355248E+03  0.61267085438E+03  0.63995154579E+03  0.12498704373E+03 0.  0.
          2    1    1    2  501    0  0.11286601612E+02  0.47140538122E+02 -0.37293555667E+03  0.37607252909E+03  0.00000000000E+00 0. -1.
          1    1    1    2  502    0 -0.53347415460E+02 -0.17668409060E+03  0.37758429602E+03  0.42027742648E+03  0.00000000000E+00 0. -1.
         22    1    3    3    0    0 -0.34774302907E+02  0.10654723332E+02  0.20994057638E+03  0.21306764391E+03  0.00000000000E+00 0.  1.
         22    1    3    3    0    0  0.76835116755E+02  0.11888882915E+03  0.40273027800E+03  0.42688390188E+03  0.00000000000E+00 0.  1.
</event>
<event>
 7    1  0.6370239E-006  0.5858874E+02  0.7818608E-02  0.1540910E+00
          2   -1    0    0  502    0  0.00000000000E+00  0.00000000000E+00  0.12674609027E+04  0.12674609027E+04  0.00000000000E+00 0. -1.
          1   -1    0    0  501    0 -0.00000000000E+00 -0.00000000000E+00 -0.18003423351E+03  0.18003423351E+03  0.00000000000E+00 0. -1.
         25    2    1    2    0    0 -0.33455888745E+02 -0.65064206082E+02  0.20750955590E+03  0.25304770877E+03  0.12498111745E+03 0.  0.
          2    1    1    2  501    0  0.38589754443E+02  0.43697476646E+02 -0.15174140865E+03  0.16255489446E+03  0.00000000000E+00 0. -1.
          1    1    1    2  502    0 -0.51338656981E+01  0.21366729436E+02  0.10316585220E+04  0.10318925330E+04  0.00000000000E+00 0. -1.
         22    1    3    3    0    0 -0.22456039928E+02  0.15148008336E+01 -0.10497989150E+02  0.24834977894E+02  0.00000000000E+00 0.  1.
         22    1    3    3    0    0 -0.10999848817E+02 -0.66579006916E+02  0.21800754505E+03  0.22821273088E+03  0.00000000000E+00 0.  1.
</event>
<event>
 7    1  0.6370239E-006  0.3910665E+02  0.7818608E-02  0.1533697E+00
          2   -1    0    0  502    0  0.00000000000E+00  0.00000000000E+00  0.15503687484E+04  0.15503687484E+04  0.00000000000E+00 0. -1.
          1   -1    0    0  501    0 -0.00000000000E+00 -0.00000000000E+00 -0.16065680790E+04  0.16065680790E+04  0.00000000000E+00 0. -1.
         25    2    1    2    0    0 -0.51287117631E+02  0.11941217167E+02 -0.19034093800E+02  0.13696479149E+03  0.12499638507E+03 0.  0.
          2    1    1    2  501    0  0.16706041609E+02 -0.30197532637E+02 -0.15281174566E+04  0.15285070965E+04  0.00000000000E+00 0. -1.
          1    1    1    2  502    0  0.34581076022E+02  0.18256315470E+02  0.14909522198E+04  0.14914649395E+04  0.00000000000E+00 0. -1.
         22    1    3    3    0    0  0.30198875231E+02 -0.26149658026E+02 -0.24479013171E+02  0.46850813930E+02  0.00000000000E+00 0. -1.
         22    1    3    3    0    0 -0.81485992862E+02  0.38090875192E+02  0.54449193707E+01  0.90113977565E+02  0.00000000000E+00 0. -1.
</event>
<event>
 7    1  0.6370239E-006  0.8491699E+02  0.7818608E-02  0.1442658E+00
          2   -1    0    0  502    0  0.00000000000E+00  0.00000000000E+00  0.26451454040E+04  0.26451454040E+04  0.00000000000E+00 0. -1.
          1   -1    0    0  501    0 -0.00000000000E+00 -0.00000000000E+00 -0.13380130815E+03  0.13380130815E+03  0.00000000000E+00 0. -1.
         25    2    1    2    0    0 -0.58232977426E+02 -0.83915671005E+02  0.56322065423E+03  0.58589673497E+03  0.12499823679E+03 0.  0.
          2    1    1    2  501    0 -0.55818770172E+01  0.29510238269E+02 -0.11975917784E+03  0.12346769695E+03  0.00000000000E+00 0. -1.
          1    1    1    2  502    0  0.63814854443E+02  0.54405432736E+02  0.20678826194E+04  0.20695822802E+04  0.00000000000E+00 0. -1.
         22    1    3    3    0    0  0.62740346413E+00 -0.18720879230E+02  0.31669517164E+01  0.18997224466E+02  0.00000000000E+00 0.  1.
         22    1    3    3    0    0 -0.58860380890E+02 -0.65194791774E+02  0.56005370251E+03  0.56689951050E+03  0.00000000000E+00 0.  1.
</event>
<event>
 7    1  0.6370239E-006  0.1425473E+03  0.7818608E-02  0.1265191E+00
          2   -1    0    0  502    0  0.00000000000E+00  0.00000000000E+00  0.56361773181E+03  0.56361773181E+03  0.00000000000E+00 0. -1.
          1   -1    0    0  501    0 -0.00000000000E+00 -0.00000000000E+00 -0.89498713230E+03  0.89498713230E+03  0.00000000000E+00 0. -1.
         25    2    1    2    0    0 -0.89403161499E+02 -0.19196275563E+03 -0.14455154629E+03  0.28524237459E+03  0.12500175155E+03 0.  0.
          2    1    1    2  501    0  0.35427749450E+02  0.13138912864E+03 -0.66986580649E+03  0.68354840886E+03  0.00000000000E+00 0. -1.
          1    1    1    2  502    0  0.53975412049E+02  0.60573626995E+02  0.48304795229E+03  0.48981408065E+03  0.00000000000E+00 0. -1.
         22    1    3    3    0    0 -0.49318726674E+02 -0.19902794011E+03 -0.12428926955E+03  0.23977547888E+03  0.00000000000E+00 0.  1.
         22    1    3    3    0    0 -0.40084434825E+02  0.70651844789E+01 -0.20262276739E+02  0.45466895711E+02  0.00000000000E+00 0.  1.
</event>
<event>
 7    1  0.6370239E-006  0.3610789E+02  0.7818608E-02  0.1631053E+00
          2   -1    0    0  502    0  0.00000000000E+00  0.00000000000E+00  0.15004209382E+04  0.15004209382E+04  0.00000000000E+00 0. -1.
          1   -1    0    0  501    0 -0.00000000000E+00 -0.00000000000E+00 -0.42385158046E+02  0.42385158046E+02  0.00000000000E+00 0. -1.
         25    2    1    2    0    0 -0.16637654984E+02  0.10676551422E+02  0.18775639264E+03  0.22642485767E+03  0.12499981153E+03 0.  0.
          2    1    1    2  501    0  0.21524443120E+02 -0.30602155169E+02 -0.77326421543E+01  0.38204545637E+02  0.00000000000E+00 0. -1.
          1    1    1    2  502    0 -0.48867881363E+01  0.19925603747E+02  0.12780120297E+04  0.12781766930E+04  0.00000000000E+00 0. -1.
         22    1    3    3    0    0  0.75502360044E+01 -0.44718196310E+02  0.14620027106E+03  0.15307267034E+03  0.00000000000E+00 0. -1.
         22    1    3    3    0    0 -0.24187890988E+02  0.55394747732E+02  0.41556121576E+02  0.73352187338E+02  0.00000000000E+00 0. -1.
</event>
<event>
 7    1  0.6370239E-006  0.7409322E+02  0.7818608E-02  0.1488571E+00
          2   -1    0    0  502    0  0.00000000000E+00  0.00000000000E+00  0.68669355915E+03  0.68669355915E+03  0.00000000000E+00 0. -1.
          1   -1    0    0  501    0 -0.00000000000E+00 -0.00000000000E+00 -0.18989824354E+03  0.18989824354E+03  0.00000000000E+00 0. -1.
         25    2    1    2    0    0  0.46514009271E+02 -0.58705736068E+02 -0.45141004627E+02  0.15254736108E+03  0.12499228203E+03 0.  0.
          2    1    1    2  501    0 -0.62998951608E+02  0.40282371415E+02 -0.75412587792E+02  0.10620073327E+03  0.00000000000E+00 0. -1.
          1    1    1    2  502    0  0.16484942337E+02  0.18423364653E+02  0.61734890803E+03  0.61784370834E+03  0.00000000000E+00 0. -1.
         22    1    3    3    0    0  0.39106173068E+00 -0.54065524676E+02  0.31796780547E+02  0.62723752606E+02  0.00000000000E+00 0.  1.
         22    1    3    3    0    0  0.46122947541E+02 -0.46402113915E+01 -0.76937785174E+02  0.89823608473E+02  0.00000000000E+00 0.  1.
</event>
<event>
 7    1  0.6370239E-006  0.1398869E+03  0.7818608E-02  0.1331210E+00
          2   -1    0    0  502    0  0.00000000000E+00  0.00000000000E+00  0.48216439197E+03  0.48216439197E+03  0.00000000000E+00 0. -1.
          1   -1    0    0  501    0 -0.00000000000E+00 -0.00000000000E+00 -0.10116928850E+04  0.10116928850E+04  0.00000000000E+00 0. -1.
         25    2    1    2    0    0  0.93850381443E+02  0.15189079218E+03 -0.17678221030E+02  0.21866835995E+03  0.12499850118E+03 0.  0.
          2    1    1    2  501    0 -0.57728277909E+02 -0.12523782290E+03 -0.88685210730E+03  0.89750973620E+03  0.00000000000E+00 0. -1.
          1    1    1    2  502    0 -0.36122103533E+02 -0.26652969283E+02  0.37500183531E+03  0.37767918082E+03  0.00000000000E+00 0. -1.
         22    1    3    3    0    0  0.11650446065E+03  0.80240039512E+02 -0.23055787282E+02  0.14332941994E+03  0.00000000000E+00 0.  1.
         22    1    3    3    0    0 -0.22654079210E+02  0.71650752669E+02  0.53775662521E+01  0.75338940009E+02  0.00000000000E+00 0.  1.
</event>
<event>
 7    1  0.6370239E-006  0.4750633E+02  0.7818608E-02  0.1527345E+00
          2   -1    0    0  502    0  0.00000000000E+00  0.00000000000E+00  0.41292356471E+03  0.41292356471E+03  0.00000000000E+00 0. -1.
          1   -1    0    0  501    0 -0.00000000000E+00 -0.00000000000E+00 -0.15560377582E+03  0.15560377582E+03  0.00000000000E+00 0. -1.
         25    2    1    2    0    0  0.28977523201E+02 -0.70488403774E+02  0.11750244180E+03  0.18772465196E+03  0.12500163682E+03 0.  0.
          2    1    1    2  501    0 -0.19127908572E+02  0.42550355857E+02 -0.11508686688E+03  0.12418291589E+03  0.00000000000E+00 0. -1.
          1    1    1    2  502    0 -0.98496146289E+01  0.27938047917E+02  0.25490421398E+03  0.25661977268E+03  0.00000000000E+00 0. -1.
         22    1    3    3    0    0  0.70910303978E+02 -0.76114693436E+02  0.86074068938E+02  0.13502023223E+03  0.00000000000E+00 0. -1.
         22    1    3    3    0    0 -0.41932780777E+02  0.56262896620E+01  0.31428372858E+02  0.52704419735E+02  0.00000000000E+00 0. -1.
</event>
<event>
 7    1  0.6370239E-006  0.1244185E+03  0.7818608E-02  0.1342736E+00
          2   -1    0    0  502    0  0.00000000000E+00  0.00000000000E+00  0.23621048040E+02  0.23621048040E+02  0.00000000000E+00 0. -1.
          1   -1    0    0  501    0 -0.00000000000E+00 -0.00000000000E+00 -0.21123196732E+04  0.21123196732E+04  0.00000000000E+00 0. -1.
         25    2    1    2    0    0  0.16876730395E+02  0.83883019833E+02 -0.31366967739E+03  0.34832898597E+03  0.12499292345E+03 0.  0.
          2    1    1    2  501    0 -0.36838041007E+02 -0.12494289870E+03 -0.16381259520E+04  0.16432968094E+04  0.00000000000E+00 0. -1.
          1    1    1    2  502    0  0.19961310612E+02  0.41059878864E+02 -0.13690299577E+03  0.14431492585E+03  0.00000000000E+00 0. -1.
         22    1    3    3    0    0  0.47791453901E+02  0.83656605856E+01 -0.40399598143E+02  0.63135844598E+02  0.00000000000E+00 0.  1.
         22    1    3    3    0    0 -0.30914723506E+02  0.75517359247E+02 -0.27327007924E+03  0.28519314138E+03  0.00000000000E+00 0.  1.
</event>
<event>
 7    1  0.6370239E-006  0.5248342E+02  0.7818608E-02  0.1550080E+00
          2   -1    0    0  502    0  0.00000000000E+00  0.00000000000E+00  0.17654864626E+04  0.17654864626E+04  0.00000000000E+00 0. -1.
          1   -1    0    0  501    0 -0.00000000000E+00 -0.00000000000E+00 -0.17498306698E+04  0.17498306698E+04  0.00000000000E+00 0. -1.
         25    2    1    2    0    0 -0.28601414344E+02 -0.34950505729E+02 -0.51206391610E+01  0.13300521680E+03  0.12499835198E+03 0.  0.
          2    1    1    2  501    0  0.47741830128E+02  0.21982605839E+02 -0.16802782677E+04  0.16811001084E+04  0.00000000000E+00 0. -1.
          1    1    1    2  502    0 -0.19140415784E+02  0.12967899890E+02  0.17010546997E+04  0.17012118073E+04  0.00000000000E+00 0. -1.
         22    1    3    3    0    0  0.81728002538E+01 -0.71384029610E+02 -0.27066283334E+02  0.76779281325E+02  0.00000000000E+00 0. -1.
         22    1    3    3    0    0 -0.36774214598E+02  0.36433523881E+02  0.21945644173E+02  0.56225935473E+02  0.00000000000E+00 0. -1.
</event>
<event>
 7    1  0.6370239E-006  0.7246448E+02  0.7818608E-02  0.1359689E+00
          2   -1    0    0  502    0  0.00000000000E+00  0.00000000000E+00  0.15179035274E+04  0.15179035274E+04  0.00000000000E+00 0. -1.
          1   -1    0    0  501    0 -0.00000000000E+00 -0.00000000000E+00 -0.32257400455E+03  0.32257400455E+03  0.00000000000E+00 0. -1.
         25    2    1    2    0    0  0.37012452200E+01 -0.57377586403E+02 -0.54964549226E+02  0.14815613860E+03  0.12499301218E+03 0.  0.
          2    1    1    2  501    0 -0.68786756457E+02  0.25518887978E+02 -0.21400410358E+03  0.22623127073E+03  0.00000000000E+00 0. -1.
          1    1    1    2  502    0  0.65085511237E+02  0.31858698425E+02  0.14642981756E+04  0.14660901226E+04  0.00000000000E+00 0. -1.
         22    1    3    3    0    0  0.48208377605E+02 -0.59292583382E+02 -0.67411372457E+02  0.10190167443E+03  0.00000000000E+00 0.  1.
         22    1    3    3    0    0 -0.44507132385E+02  0.19149969789E+01  0.12446823231E+02  0.46254464164E+02  0.00000000000E+00 0.  1.
</event>
<event>
 7    1  0.6370239E-006  0.1072404E+03  0.7818608E-02  0.1332705E+00
          2   -1    0    0  502    0  0.00000000000E+00  0.00000000000E+00  0.14263279736E+04  0.14263279736E+04  0.00000000000E+00 0. -1.
          1   -1    0    0  501    0 -0.00000000000E+00 -0.00000000000E+00 -0.32423755032E+03  0.32423755032E+03  0.00000000000E+00 0. -1.
         25    2    1    2    0    0 -0.34927224063E+02  0.83998947839E+02  0.10240821541E+03  0.18542117679E+03  0.12497134072E+03 0.  0.
          2    1    1    2  501    0  0.52841558114E+02  0.23407592527E+02 -0.27743634246E+03  0.28339207781E+03  0.00000000000E+00 0. -1.
          1    1    1    2  502    0 -0.17914334051E+02 -0.10740654037E+03  0.12771185504E+04  0.12817522693E+04  0.00000000000E+00 0. -1.
         22    1    3    3    0    0 -0.69475889509E+02  0.23211740645E+02  0.87169777538E+02  0.11386067909E+03  0.00000000000E+00 0.  1.
         22    1    3    3    0    0  0.34548665446E+02  0.60787207193E+02  0.15238437870E+02  0.71560497701E+02  0.00000000000E+00 0.  1.
</event>
<event>
 7    1  0.6370239E-006  0.4371036E+02  0.7818608E-02  0.1516920E+00
          2   -1    0    0  502    0  0.00000000000E+00  0.00000000000E+00  0.56983240161E+02  0.56983240161E+02  0.00000000000E+00 0. -1.
          1   -1    0    0  501    0 -0.00000000000E+00 -0.00000000000E+00 -0.20492077361E+04  0.20492077361E+04  0.00000000000E+00 0. -1.
         25    2    1    2    0    0 -0.18057261518E+02 -0.65940105225E+02 -0.27468167611E+03  0.30943519835E+03  0.12500382641E+03 0.  0.
          2    1    1    2  501    0 -0.75233686715E+01  0.42770643328E+02 -0.17493093811E+04  0.17498483477E+04  0.00000000000E+00 0. -1.
          1    1    1    2  502    0  0.25580630190E+02  0.23169461897E+02  0.31766561219E+02  0.46907430298E+02  0.00000000000E+00 0. -1.
         22    1    3    3    0    0 -0.46127176519E+02 -0.87074676098E+02 -0.14672981670E+03  0.17674658339E+03  0.00000000000E+00 0.  1.
         22    1    3    3    0    0  0.28069915001E+02  0.21134570874E+02 -0.12795185941E+03  0.13268861497E+03  0.00000000000E+00 0.  1.
</event>
<event>
 7    1  0.6370239E-006  0.5448590E+02  0.7818608E-02  0.1502894E+00
          2   -1    0    0  502    0  0.00000000000E+00  0.00000000000E+00  0.26809406978E+03  0.26809406978E+03  0.00000000000E+00 0. -1.
          1   -1    0    0  501    0 -0.00000000000E+00 -0.00000000000E+00 -0.86565180794E+03  0.86565180794E+03  0.00000000000E+00 0. -1.
         25    2    1    2    0    0  0.65026007594E+02  0.92908759741E+01 -0.15094898555E+03  0.20670091240E+03  0.12499987564E+03 0.  0.
          2    1    1    2  501    0 -0.20724115236E+02  0.22309075319E+02 -0.68340169424E+03  0.68407971720E+03  0.00000000000E+00 0. -1.
          1    1    1    2  502    0 -0.44301892358E+02 -0.31599951293E+02  0.23679294163E+03  0.24296524812E+03  0.00000000000E+00 0. -1.
         22    1    3    3    0    0  0.83563803726E+02 -0.18978231636E+02 -0.15015531852E+03  0.17288638538E+03  0.00000000000E+00 0.  1.
         22    1    3    3    0    0 -0.18537796132E+02  0.28269107610E+02 -0.79366702573E+00  0.33814527024E+02  0.00000000000E+00 0.  1.
</event>
<event>
 7    1  0.6370239E-006  0.4577815E+02  0.7818608E-02  0.1533060E+00
          2   -1    0    0  502    0  0.00000000000E+00  0.00000000000E+00  0.17533462220E+03  0.17533462220E+03  0.00000000000E+00 0. -1.
          1   -1    0    0  501    0 -0.00000000000E+00 -0.00000000000E+00 -0.78036512934E+03  0.78036512934E+03  0.00000000000E+00 0. -1.
         25    2    1    2    0    0 -0.30496644972E+02  0.38733329801E+02  0.13150441718E+03  0.18801209743E+03  0.12499928339E+03 0.  0.
          2    1    1    2  501    0  0.28574665236E+02  0.77415744755E+01 -0.71638447247E+03  0.71699592458E+03  0.00000000000E+00 0. -1.
          1    1    1    2  502    0  0.19219797363E+01 -0.46474904277E+02 -0.20150451850E+02  0.50691729536E+02  0.00000000000E+00 0. -1.
         22    1    3    3    0    0 -0.70692375752E+01 -0.14727704089E+02 -0.19899740079E+02  0.25746437478E+02  0.00000000000E+00 0. -1.
         22    1    3    3    0    0 -0.23427407397E+02  0.53461033890E+02  0.15140415726E+03  0.16226565995E+03  0.00000000000E+00 0. -1.
</event>
<event>
 7    1  0.6370239E-006  0.9898086E+02  0.7818608E-02  0.1292761E+00
          2   -1    0    0  502    0  0.00000000000E+00  0.00000000000E+00  0.49326004260E+03  0.49326004260E+03  0.00000000000E+00 0. -1.
          1   -1    0    0  501    0 -0.00000000000E+00 -0.00000000000E+00 -0.15830317997E+03  0.15830317997E+03  0.00000000000E+00 0. -1.
         25    2    1    2    0    0  0.12978435443E+02  0.12093910587E+03  0.12369349562E+03  0.21382145307E+03  0.12499930327E+03 0.  0.
          2    1    1    2  501    0  0.67012804483E+02 -0.59836950537E+02 -0.85713937272E+02  0.12416946346E+03  0.00000000000E+00 0. -1.
          1    1    1    2  502    0 -0.79991239926E+02 -0.61102155336E+02  0.29697730429E+03  0.31357230604E+03  0.00000000000E+00 0. -1.
         22    1    3    3    0    0  0.63455759066E+02  0.49235241114E+02  0.88012082007E+02  0.11915061437E+03  0.00000000000E+00 0.  1.
         22    1    3    3    0    0 -0.50477323623E+02  0.71703864759E+02  0.35681413614E+02  0.94670838694E+02  0.00000000000E+00 0.  1.
</event>
<event>
 7    1  0.6370239E-006  0.5124400E+02  0.7818608E-02  0.1550670E+00
          2   -1    0    0  502    0  0.00000000000E+00  0.00000000000E+00  0.38373768305E+03  0.38373768305E+03  0.00000000000E+00 0. -1.
          1   -1    0    0  501    0 -0.00000000000E+00 -0.00000000000E+00 -0.10397335314E+03  0.10397335314E+03  0.00000000000E+00 0. -1.
         25    2    1    2    0    0 -0.12901011798E+02 -0.64155351214E+02  0.67242311746E+02  0.15629534833E+03  0.12499744888E+03 0.  0.
          2    1    1    2  501    0 -0.58340816954E+01  0.49821639423E+02 -0.48236934013E+02  0.69591910931E+02  0.00000000000E+00 0. -1.
          1    1    1    2  502    0  0.18735093493E+02  0.14333711791E+02  0.26075895218E+03  0.26182377692E+03  0.00000000000E+00 0. -1.
         22    1    3    3    0    0  0.58877930449E+01  0.21365716580E+02  0.65034372251E+02  0.68706837549E+02  0.00000000000E+00 0. -1.
         22    1    3    3    0    0 -0.18788804843E+02 -0.85521067793E+02  0.22079394944E+01  0.87588510780E+02  0.00000000000E+00 0. -1.
</event>
<event>
 7    1  0.6370239E-006  0.1505173E+03  0.7818608E-02  0.1262477E+00
          2   -1    0    0  502    0  0.00000000000E+00  0.00000000000E+00  0.17648782981E+04  0.17648782981E+04  0.00000000000E+00 0. -1.
          1   -1    0    0  501    0 -0.00000000000E+00 -0.00000000000E+00 -0.94224293585E+02  0.94224293585E+02  0.00000000000E+00 0. -1.
         25    2    1    2    0    0 -0.12353142579E+03 -0.21683716250E+02  0.17271035644E+03  0.24735649754E+03  0.12500469169E+03 0.  0.
          2    1    1    2  501    0  0.16538900797E+03 -0.45198823943E+02  0.75878867907E+02  0.18749416055E+03  0.00000000000E+00 0. -1.
          1    1    1    2  502    0 -0.41857582183E+02  0.66882540193E+02  0.14220647802E+04  0.14242519336E+04  0.00000000000E+00 0. -1.
         22    1    3    3    0    0 -0.12155893780E+03  0.12272446142E+02  0.73741674666E+02  0.14270607162E+03  0.00000000000E+00 0. -1.
         22    1    3    3    0    0 -0.19724879904E+01 -0.33956162392E+02  0.98968681777E+02  0.10465042592E+03  0.00000000000E+00 0. -1.
</event>
<event>
 7    1  0.6370239E-006  0.3459683E+03  0.7818608E-02  0.1265864E+00
          2   -1    0    0  502    0  0.00000000000E+00  0.00000000000E+00  0.70794589917E+03  0.70794589917E+03  0.00000000000E+00 0. -1.
          1   -1    0    0  501    0 -0.00000000000E+00 -0.00000000000E+00 -0.48410348421E+03  0.48410348421E+03  0.00000000000E+00 0. -1.
         25    2    1    2    0    0 -0.36121462506E+03 -0.65609277097E+02  0.46401180901E+03  0.60474100440E+03  0.12499656361E+03 0.  0.
          2    1    1    2  501    0  0.33300287708E+03  0.83130999101E+02 -0.33938386506E+03  0.48268321601E+03  0.00000000000E+00 0. -1.
          1    1    1    2  502    0  0.28211747976E+02 -0.17521722005E+02  0.99214471012E+02  0.10462516296E+03  0.00000000000E+00 0. -1.
         22    1    3    3    0    0 -0.30610143438E+03 -0.74085141282E+02  0.44630308181E+03  0.54623542280E+03  0.00000000000E+00 0.  1.
         22    1    3    3    0    0 -0.55113190674E+02  0.84758641857E+01  0.17708727201E+02  0.58505581606E+02  0.00000000000E+00 0.  1.
</event>
<event>
 7    1  0.6370239E-006  0.1801770E+03  0.7818608E-02  0.1272924E+00
          2   -1    0    0  502    0  0.00000000000E+00  0.00000000000E+00  0.36803476284E+03  0.36803476284E+03  0.00000000000E+00 0. -1.
          1   -1    0    0  501    0 -0.00000000000E+00 -0.00000000000E+00 -0.32623416479E+03  0.32623416479E+03  0.00000000000E+00 0. -1.
         25    2    1    2    0    0  0.19645331378E+03  0.92939449966E+02 -0.94843440382E+02  0.26805349663E+03  0.12500301202E+03 0.  0.
          2    1    1    2  501    0 -0.25814099364E+02 -0.53671918215E+02 -0.10920245241E+03  0.12438737132E+03  0.00000000000E+00 0. -1.
          1    1    1    2  502    0 -0.17063921442E+03 -0.39267531752E+02  0.24584649085E+03  0.30182805968E+03  0.00000000000E+00 0. -1.
         22    1    3    3    0    0  0.18105222885E+03  0.94474734001E+02 -0.36200711547E+02  0.20740269152E+03  0.00000000000E+00 0.  1.
         22    1    3    3    0    0  0.15401084935E+02 -0.15352840349E+01 -0.58642728836E+02  0.60650805102E+02  0.00000000000E+00 0.  1.
</event>
<event>
 7    1  0.6370239E-006  0.1090322E+03  0.7818608E-02  0.1389483E+00
          2   -1    0    0  502    0  0.00000000000E+00  0.00000000000E+00  0.13182639671E+04  0.13182639671E+04  0.00000000000E+00 0. -1.
          1   -1    0    0  501    0 -0.00000000000E+00 -0.00000000000E+00 -0.14951133495E+04  0.14951133495E+04  0.00000000000E+00 0. -1.
         25    2    1    2    0    0 -0.24325137320E+02 -0.71030265328E+02  0.37347890137E+02  0.15055407316E+03  0.12503860663E+03 0.  0.
          2    1    1    2  501    0  0.42786047719E+02  0.10111360286E+03 -0.14361600796E+04  0.14403507840E+04  0.00000000000E+00 0. -1.
          1    1    1    2  502    0 -0.18460910399E+02 -0.30083337527E+02  0.12219628071E+04  0.12224724595E+04  0.00000000000E+00 0. -1.
         22    1    3    3    0    0 -0.48484384340E+02 -0.97897628193E+02  0.22779714690E+02  0.11159568330E+03  0.00000000000E+00 0. -1.
         22    1    3    3    0    0  0.24159247020E+02  0.26867362865E+02  0.14568175448E+02  0.38958389851E+02  0.00000000000E+00 0. -1.
</event>
<event>
 7    1  0.6370239E-006  0.3917493E+02  0.7818608E-02  0.1522709E+00
          2   -1    0    0  502    0  0.00000000000E+00  0.00000000000E+00  0.25339785057E+04  0.25339785057E+04  0.00000000000E+00 0. -1.
          1   -1    0    0  501    0 -0.00000000000E+00 -0.00000000000E+00 -0.78600496081E+01  0.78600496081E+01  0.00000000000E+00 0. -1.
         25    2    1    2    0    0 -0.25757110332E+01  0.13498270246E+02  0.73664270645E+03  0.74729906620E+03  0.12499831915E+03 0.  0.
          2    1    1    2  501    0  0.41180459390E+02 -0.20157735243E+02  0.22758260224E+03  0.23215513211E+03  0.00000000000E+00 0. -1.
          1    1    1    2  502    0 -0.38604748357E+02  0.66594649970E+01  0.15618931474E+04  0.15623843570E+04  0.00000000000E+00 0. -1.
         22    1    3    3    0    0  0.37363913616E+01  0.48919087744E+01  0.73660030105E+03  0.73662602106E+03  0.00000000000E+00 0. -1.
         22    1    3    3    0    0 -0.63121023949E+01  0.86063614720E+01  0.42405401236E-01  0.10673045144E+02  0.00000000000E+00 0. -1.
</event>
<event>
 7    1  0.6370239E-006  0.5793500E+02  0.7818608E-02  0.1428522E+00
          2   -1    0    0  502    0  0.00000000000E+00  0.00000000000E+00  0.13737161370E+04  0.13737161370E+04  0.00000000000E+00 0. -1.
          1   -1    0    0  501    0 -0.00000000000E+00 -0.00000000000E+00 -0.29157350911E+03  0.29157350911E+03  0.00000000000E+00 0. -1.
         25    2    1    2    0    0 -0.34796111713E+02 -0.38324263002E+02  0.44411842994E+03  0.46427876571E+03  0.12503629055E+03 0.  0.
          2    1    1    2  501    0  0.57907861712E+02 -0.48355347447E+01 -0.27783362423E+03  0.28384542554E+03  0.00000000000E+00 0. -1.
          1    1    1    2  502    0 -0.23111750000E+02  0.43159797747E+02  0.91585782215E+03  0.91716545482E+03  0.00000000000E+00 0. -1.
         22    1    3    3    0    0 -0.59620128665E+01  0.20615273794E+02  0.34341805507E+03  0.34408791851E+03  0.00000000000E+00 0. -1.
         22    1    3    3    0    0 -0.28834098846E+02 -0.58939536796E+02  0.10070037487E+03  0.12019084721E+03  0.00000000000E+00 0. -1.
</event>
<event>
 7    1  0.6370239E-006  0.1065835E+03  0.7818608E-02  0.1305003E+00
          2   -1    0    0  502    0  0.00000000000E+00  0.00000000000E+00  0.56626695713E+03  0.56626695713E+03  0.00000000000E+00 0. -1.
          1   -1    0    0  501    0 -0.00000000000E+00 -0.00000000000E+00 -0.42500606099E+03  0.42500606099E+03  0.00000000000E+00 0. -1.
         25    2    1    2    0    0  0.91288622240E+02 -0.12447641680E+03  0.17034108473E+03  0.26166614224E+03  0.12500037585E+03 0.  0.
          2    1    1    2  501    0 -0.92837196600E+02  0.49979069846E+02 -0.36788974982E+03  0.38270030118E+03  0.00000000000E+00 0. -1.
          1    1    1    2  502    0  0.15485743604E+01  0.74497346951E+02  0.33880956124E+03  0.34690657470E+03  0.00000000000E+00 0. -1.
         22    1    3    3    0    0  0.23251474525E+02 -0.38953860376E+02 -0.13903608897E+02  0.47448336601E+02  0.00000000000E+00 0.  1.
         22    1    3    3    0    0  0.68037147715E+02 -0.85522556420E+02  0.18424469362E+03  0.21421780564E+03  0.00000000000E+00 0.  1.
</event>
<event>
 7    1  0.6370239E-006  0.1000855E+03  0.7818608E-02  0.1424371E+00
          2   -1    0    0  502    0  0.00000000000E+00  0.00000000000E+00  0.34322972885E+03  0.34322972885E+03  0.00000000000E+00 0. -1.
          1   -1    0    0  501    0 -0.00000000000E+00 -0.00000000000E+00 -0.52636351852E+03  0.52636351852E+03  0.00000000000E+00 0. -1.
         25    2    1    2    0    0 -0.93597915494E+02  0.29794646127E+02  0.11909662944E+03  0.19864057985E+03  0.12500312835E+03 0.  0.
          2    1    1    2  501    0  0.95108594762E+01  0.27660977024E+02 -0.47203973349E+03  0.47294513010E+03  0.00000000000E+00 0. -1.
          1    1    1    2  502    0  0.84087056018E+02 -0.57455623151E+02  0.16980931439E+03  0.19800753742E+03  0.00000000000E+00 0. -1.
         22    1    3    3    0    0 -0.11669043495E+03  0.51102060024E+02  0.91819226999E+02  0.15703136181E+03  0.00000000000E+00 0. -1.
         22    1    3    3    0    0  0.23092519451E+02 -0.21307413897E+02  0.27277402440E+02  0.41609218035E+02  0.00000000000E+00 0. -1.
</event>
<event>
 7    1  0.6370239E-006  0.1379993E+03  0.7818608E-02  0.1349738E+00
          2   -1    0    0  502    0  0.00000000000E+00  0.00000000000E+00  0.46238445018E+03  0.46238445018E+03  0.00000000000E+00 0. -1.
          1   -1    0    0  501    0 -0.00000000000E+00 -0.00000000000E+00 -0.14916609380E+03  0.14916609380E+03  0.00000000000E+00 0. -1.
         25    2    1    2    0    0  0.12180016558E+03  0.18937868145E+01  0.15914581621E+03  0.23620517312E+03  0.12500650474E+03 0.  0.
          2    1    1    2  501    0 -0.13759487385E+03 -0.37291296458E+02 -0.62264669925E+02  0.15556310367E+03  0.00000000000E+00 0. -1.
          1    1    1    2  502    0  0.15794708275E+02  0.35397509644E+02  0.21633721010E+03  0.21978226719E+03  0.00000000000E+00 0. -1.
         22    1    3    3    0    0  0.12931256227E+02 -0.32636747227E+02  0.10323520732E+03  0.10904073866E+03  0.00000000000E+00 0. -1.
         22    1    3    3    0    0  0.10886890935E+03  0.34530534041E+02  0.55910608889E+02  0.12716443446E+03  0.00000000000E+00 0. -1.
</event>
<event>
 7    1  0.6370239E-006  0.1361172E+03  0.7818608E-02  0.1360935E+00
          2   -1    0    0  502    0  0.00000000000E+00  0.00000000000E+00  0.11031084998E+03  0.11031084998E+03  0.00000000000E+00 0. -1.
          1   -1    0    0  501    0 -0.00000000000E+00 -0.00000000000E+00 -0.16999806316E+04  0.16999806316E+04  0.00000000000E+00 0. -1.
         25    2    1    2    0    0 -0.10140102614E+03  0.12419062957E+03 -0.17396670787E+03  0.26757232874E+03  0.12500022034E+03 0.  0.
          2    1    1    2  501    0  0.10154915145E+03 -0.88446207588E+02 -0.14708495232E+04  0.14770014495E+04  0.00000000000E+00 0. -1.
          1    1    1    2  502    0 -0.14812531220E+00 -0.35744421978E+02  0.55146449480E+02  0.65717703352E+02  0.00000000000E+00 0. -1.
         22    1    3    3    0    0 -0.55560694518E+02  0.13846378673E+03 -0.10078276850E+03  0.18004548714E+03  0.00000000000E+00 0.  1.
         22    1    3    3    0    0 -0.45840331619E+02 -0.14273157169E+02 -0.73183939373E+02  0.87526841602E+02  0.00000000000E+00 0.  1.
</event>
<event>
 7    1  0.6370239E-006  0.7015726E+02  0.7818608E-02  0.1494219E+00
          2   -1    0    0  502    0  0.00000000000E+00  0.00000000000E+00  0.13731940270E+03  0.13731940270E+03  0.00000000000E+00 0. -1.
          1   -1    0    0  501    0 -0.00000000000E+00 -0.00000000000E+00 -0.86916533802E+03  0.86916533802E+03  0.00000000000E+00 0. -1.
         25    2    1    2    0    0 -0.16918119407E+02  0.43376992662E+02 -0.18517734113E+02  0.13466817797E+03  0.12499930170E+03 0.  0.
          2    1    1    2  501    0  0.33009945035E+02 -0.62644486472E+02 -0.78895806993E+03  0.79212929769E+03  0.00000000000E+00 0. -1.
          1    1    1    2  502    0 -0.16091825629E+02  0.19267493810E+02  0.75629868717E+02  0.79687265055E+02  0.00000000000E+00 0. -1.
         22    1    3    3    0    0  0.35499757425E+02  0.21639887956E+02  0.36724981925E+02  0.55472892708E+02  0.00000000000E+00 0.  1.
         22    1    3    3    0    0 -0.52417876831E+02  0.21737104705E+02 -0.55242716038E+02  0.79195285262E+02  0.00000000000E+00 0.  1.
</event>
<event>
 7    1  0.6370239E-006  0.1122153E+03  0.7818608E-02  0.1407857E+00
          2   -1    0    0  502    0  0.00000000000E+00  0.00000000000E+00  0.84442707182E+03  0.84442707182E+03  0.00000000000E+00 0. -1.
          1   -1    0    0  501    0 -0.00000000000E+00 -0.00000000000E+00 -0.13342811842E+03  0.13342811842E+03  0.00000000000E+00 0. -1.
         25    2    1    2    0    0 -0.70306631597E+02 -0.10623568360E+03  0.76644813733E+02  0.19423898520E+03  0.12500125193E+03 0.  0.
          2    1    1    2  501    0  0.29519014328E+02  0.27061109387E+01 -0.67118362919E+02  0.73372814340E+02  0.00000000000E+00 0. -1.
          1    1    1    2  502    0  0.40787617269E+02  0.10352957266E+03  0.70147250259E+03  0.71024339069E+03  0.00000000000E+00 0. -1.
         22    1    3    3    0    0 -0.53118888017E+02 -0.31470324891E+02 -0.25240280329E+02  0.66701344544E+02  0.00000000000E+00 0. -1.
         22    1    3    3    0    0 -0.17187743580E+02 -0.74765358709E+02  0.10188509406E+03  0.12753764066E+03  0.00000000000E+00 0. -1.
</event>
<event>
 7    1  0.6370239E-006  0.3361025E+02  0.7818608E-02  0.1614930E+00
          2   -1    0    0  502    0  0.00000000000E+00  0.00000000000E+00  0.36531618745E+03  0.36531618745E+03  0.00000000000E+00 0. -1.
          1   -1    0    0  501    0 -0.00000000000E+00 -0.00000000000E+00 -0.23295079618E+04  0.23295079618E+04  0.00000000000E+00 0. -1.
         25    2    1    2    0    0  0.28667175312E+01  0.95615023157E+01 -0.72200886810E+03  0.73281730214E+03  0.12499900923E+03 0.  0.
          2    1    1    2  501    0 -0.26339277815E+01  0.24073914165E+02 -0.16012172289E+04  0.16014003576E+04  0.00000000000E+00 0. -1.
          1    1    1    2  502    0 -0.23278974965E+00 -0.33635416480E+02  0.35903432270E+03  0.36060648955E+03  0.00000000000E+00 0. -1.
         22    1    3    3    0    0 -0.22231191479E+02 -0.26550893069E+02 -0.62881979463E+03  0.62977258587E+03  0.00000000000E+00 0.  1.
         22    1    3    3    0    0  0.25097909010E+02  0.36112395384E+02 -0.93189073469E+02  0.10304471627E+03  0.00000000000E+00 0.  1.
</event>
<event>
 7    1  0.1290037E-005  0.1096915E+03  0.7818608E-02  0.1319038E+00
          2   -1    0    0  502    0  0.00000000000E+00  0.00000000000E+00  0.15342855559E+04  0.15342855559E+04  0.00000000000E+00 0. -1.
          1   -1    0    0  501    0 -0.00000000000E+00 -0.00000000000E+00 -0.15561207587E+04  0.15561207587E+04  0.00000000000E+00 0. -1.
         25    2    1    2    0    0  0.16989454287E+03 -0.45691659568E+01 -0.67276497324E+03  0.70506903126E+03  0.12499838656E+03 0.  0.
          2    1    1    2  501    0 -0.62067563952E+02 -0.14636368425E+02 -0.86405184360E+03  0.86640186646E+03  0.00000000000E+00 0. -1.
          1    1    1    2  502    0 -0.10782697892E+03  0.19205534382E+02  0.15149816141E+04  0.15189354169E+04  0.00000000000E+00 0. -1.
         22    1    3    3    0    0  0.14372177154E+03  0.92102977184E+01 -0.65482580264E+03  0.67047565877E+03  0.00000000000E+00 0. -1.
         22    1    3    3    0    0  0.26172771329E+02 -0.13779463675E+02 -0.17939170602E+02  0.34593372488E+02  0.00000000000E+00 0. -1.
</event>
<event>
 7    1  0.6370239E-006  0.1142750E+03  0.7818608E-02  0.1382530E+00
          2   -1    0    0  502    0  0.00000000000E+00  0.00000000000E+00  0.30733842661E+03  0.30733842661E+03  0.00000000000E+00 0. -1.
          1   -1    0    0  501    0 -0.00000000000E+00 -0.00000000000E+00 -0.48384276361E+03  0.48384276361E+03  0.00000000000E+00 0. -1.
         25    2    1    2    0    0 -0.13245076572E+03 -0.48402830599E+02  0.12851325866E+03  0.22809306736E+03  0.12499900150E+03 0.  0.
          2    1    1    2  501    0  0.11154582472E+03  0.19558124766E+02 -0.42401247242E+03  0.43887534451E+03  0.00000000000E+00 0. -1.
          1    1    1    2  502    0  0.20904940995E+02  0.28844705833E+02  0.11899487674E+03  0.12421277834E+03  0.00000000000E+00 0. -1.
         22    1    3    3    0    0 -0.12635739058E+03  0.43359297825E+01  0.56139449551E+02  0.13833520245E+03  0.00000000000E+00 0. -1.
         22    1    3    3    0    0 -0.60933751341E+01 -0.52738760381E+02  0.72373809113E+02  0.89757864907E+02  0.00000000000E+00 0. -1.
</event>
<event>
 7    1  0.6370239E-006  0.7916592E+02  0.7818608E-02  0.1396714E+00
          2   -1    0    0  502    0  0.00000000000E+00  0.00000000000E+00  0.50477468069E+03  0.50477468069E+03  0.00000000000E+00 0. -1.
          1   -1    0    0  501    0 -0.00000000000E+00 -0.00000000000E+00 -0.13291878724E+03  0.13291878724E+03  0.00000000000E+00 0. -1.
         25    2    1    2    0    0  0.49977755587E+02 -0.63725881818E+02  0.95358652190E+02  0.17685368927E+03  0.12500076317E+03 0.  0.
          2    1    1    2  501    0 -0.71336336115E+01  0.80138349276E+02 -0.72823655298E+02  0.10851879341E+03  0.00000000000E+00 0. -1.
          1    1    1    2  502    0 -0.42844121976E+02 -0.16412467457E+02  0.34932089655E+03  0.35232098524E+03  0.00000000000E+00 0. -1.
         22    1    3    3    0    0  0.36498600553E+02  0.32445141348E+02  0.15839372497E+02  0.51339271133E+02  0.00000000000E+00 0. -1.
         22    1    3    3    0    0  0.13479155034E+02 -0.96171023166E+02  0.79519279693E+02  0.12551441814E+03  0.00000000000E+00 0. -1.
</event>
<event>
 7    1  0.6370239E-006  0.4370945E+03  0.7818608E-02  0.1189274E+00
          2   -1    0    0  502    0  0.00000000000E+00  0.00000000000E+00  0.20759864703E+04  0.20759864703E+04  0.00000000000E+00 0. -1.
          1   -1    0    0  501    0 -0.00000000000E+00 -0.00000000000E+00 -0.38452381192E+03  0.38452381192E+03  0.00000000000E+00 0. -1.
         25    2    1    2    0    0  0.37593134844E+03 -0.99250949958E+02  0.93152767756E+03  0.10171250881E+04  0.12499800356E+03 0.  0.
          2    1    1    2  501    0 -0.42444092011E+03  0.13140039763E+03 -0.19603914740E+03  0.48564133522E+03  0.00000000000E+00 0. -1.
          1    1    1    2  502    0  0.48509571672E+02 -0.32149447668E+02  0.95597412823E+03  0.95774385896E+03  0.00000000000E+00 0. -1.
         22    1    3    3    0    0  0.44690909398E+02 -0.57470120051E+02  0.13320337540E+03  0.15179997134E+03  0.00000000000E+00 0. -1.
         22    1    3    3    0    0  0.33124043904E+03 -0.41780829907E+02  0.79832430216E+03  0.86532511672E+03  0.00000000000E+00 0. -1.
</event>
<event>
 7    1  0.6370239E-006  0.8035458E+02  0.7818608E-02  0.1379227E+00
          2   -1    0    0  502    0  0.00000000000E+00  0.00000000000E+00  0.31478763838E+03  0.31478763838E+03  0.00000000000E+00 0. -1.
          1   -1    0    0  501    0 -0.00000000000E+00 -0.00000000000E+00 -0.21021411980E+04  0.21021411980E+04  0.00000000000E+00 0. -1.
         25    2    1    2    0    0  0.99507244035E+02 -0.59743070392E+02 -0.11349897251E+03  0.20488041167E+03  0.12499216076E+03 0.  0.
          2    1    1    2  501    0 -0.78970758441E+02  0.11923746748E+02 -0.19396057739E+04  0.19412493695E+04  0.00000000000E+00 0. -1.
          1    1    1    2  502    0 -0.20536485593E+02  0.47819323644E+02  0.26575118685E+03  0.27079905515E+03  0.00000000000E+00 0. -1.
         22    1    3    3    0    0  0.25707111629E+02 -0.80198896661E+02 -0.93279962713E+02  0.12567366493E+03  0.00000000000E+00 0. -1.
         22    1    3    3    0    0  0.73800132405E+02  0.20455826269E+02 -0.20219009793E+02  0.79206746735E+02  0.00000000000E+00 0. -1.
</event>
<event>
 7    1  0.6370239E-006  0.7136118E+02  0.7818608E-02  0.1497051E+00
          2   -1    0    0  502    0  0.00000000000E+00  0.00000000000E+00  0.34534639075E+04  0.34534639075E+04  0.00000000000E+00 0. -1.
          1   -1    0    0  501    0 -0.00000000000E+00 -0.00000000000E+00 -0.15209695029E+03  0.15209695029E+03  0.00000000000E+00 0. -1.
         25    2    1    2    0    0  0.76038436636E+02  0.88995653487E+01  0.33563928001E+03  0.36625224741E+03  0.12500374529E+03 0.  0.
          2    1    1    2  501    0 -0.11436892531E+02  0.21328720684E+02 -0.13530672479E+03  0.13745408910E+03  0.00000000000E+00 0. -1.
          1    1    1    2  502    0 -0.64601544105E+02 -0.30228286033E+02  0.31010344020E+04  0.31018545213E+04  0.00000000000E+00 0. -1.
         22    1    3    3    0    0  0.96719472939E+02 -0.26987884753E+02  0.19084008646E+03  0.21564540563E+03  0.00000000000E+00 0.  1.
         22    1    3    3    0    0 -0.20681036303E+02  0.35887450102E+02  0.14479919355E+03  0.15060684178E+03  0.00000000000E+00 0.  1.
</event>
<event>
 7    1  0.6370239E-006  0.6492692E+02  0.7818608E-02  0.1490846E+00
          2   -1    0    0  502    0  0.00000000000E+00  0.00000000000E+00  0.12853127326E+04  0.12853127326E+04  0.00000000000E+00 0. -1.
          1   -1    0    0  501    0 -0.00000000000E+00 -0.00000000000E+00 -0.35008153179E+03  0.35008153179E+03  0.00000000000E+00 0. -1.
         25    2    1    2    0    0  0.91202307963E+02  0.11207638857E+02  0.11701668427E+03  0.19432294201E+03  0.12500011699E+03 0.  0.
          2    1    1    2  501    0 -0.63436507107E+02 -0.10821528963E+02 -0.30793098554E+03  0.31458351479E+03  0.00000000000E+00 0. -1.
          1    1    1    2  502    0 -0.27765800856E+02 -0.38610989344E+00  0.11261455021E+04  0.11264878076E+04  0.00000000000E+00 0. -1.
         22    1    3    3    0    0  0.51695336434E+01  0.94241880461E+01 -0.25595248605E+02  0.27760694328E+02  0.00000000000E+00 0.  1.
         22    1    3    3    0    0  0.86032774319E+02  0.17834508106E+01  0.14261193287E+03  0.16656224768E+03  0.00000000000E+00 0.  1.
</event>
<event>
 7    1  0.6370239E-006  0.3734061E+02  0.7818608E-02  0.1606527E+00
          2   -1    0    0  502    0  0.00000000000E+00  0.00000000000E+00  0.99490416209E+03  0.99490416209E+03  0.00000000000E+00 0. -1.
          1   -1    0    0  501    0 -0.00000000000E+00 -0.00000000000E+00 -0.94212162957E+02  0.94212162957E+02  0.00000000000E+00 0. -1.
         25    2    1    2    0    0 -0.20722442390E+02 -0.53398443377E+02  0.73952444893E+02  0.15612383010E+03  0.12499949138E+03 0.  0.
          2    1    1    2  501    0  0.15840083998E+02  0.16555612807E+02 -0.50243959767E+02  0.55221844134E+02  0.00000000000E+00 0. -1.
          1    1    1    2  502    0  0.48823583921E+01  0.36842830570E+02  0.87698351401E+03  0.87777065081E+03  0.00000000000E+00 0. -1.
         22    1    3    3    0    0 -0.37784897920E+02 -0.74288463478E+02  0.66413880484E+01  0.83609702499E+02  0.00000000000E+00 0.  1.
         22    1    3    3    0    0  0.17062455529E+02  0.20890020101E+02  0.67311056844E+02  0.72514127603E+02  0.00000000000E+00 0.  1.
</event>
<event>
 7    1  0.6370239E-006  0.5271297E+02  0.7818608E-02  0.1541980E+00
          2   -1    0    0  502    0  0.00000000000E+00  0.00000000000E+00  0.32361496639E+04  0.32361496639E+04  0.00000000000E+00 0. -1.
          1   -1    0    0  501    0 -0.00000000000E+00 -0.00000000000E+00 -0.16309711159E+03  0.16309711159E+03  0.00000000000E+00 0. -1.
         25    2    1    2    0    0  0.18369411282E+02 -0.27918009801E+02 -0.10698291182E+03  0.16786721481E+03  0.12496882749E+03 0.  0.
          2    1    1    2  501    0  0.24001719364E+02 -0.34969873606E+01 -0.19676655250E+02  0.31232710655E+02  0.00000000000E+00 0. -1.
          1    1    1    2  502    0 -0.42371130646E+02  0.31414997162E+02  0.31997121194E+04  0.32001468500E+04  0.00000000000E+00 0. -1.
         22    1    3    3    0    0 -0.51146189645E+02 -0.12173028858E+02 -0.22108906103E+02  0.57034367498E+02  0.00000000000E+00 0. -1.
         22    1    3    3    0    0  0.69515600928E+02 -0.15744980943E+02 -0.84874005716E+02  0.11083284731E+03  0.00000000000E+00 0. -1.
</event>
<event>
 7    1  0.6370239E-006  0.8824358E+02  0.7818608E-02  0.1420886E+00
          2   -1    0    0  502    0  0.00000000000E+00  0.00000000000E+00  0.41163782561E+03  0.41163782561E+03  0.00000000000E+00 0. -1.
          1   -1    0    0  501    0 -0.00000000000E+00 -0.00000000000E+00 -0.29632160366E+03  0.29632160366E+03  0.00000000000E+00 0. -1.
         25    2    1    2    0    0 -0.97632571934E+02  0.41549680593E+02  0.89325336313E+01  0.16421893807E+03  0.12501829628E+03 0.  0.
          2    1    1    2  501    0  0.86353204991E+02 -0.93972364901E+01 -0.20909881777E+03  0.22642327543E+03  0.00000000000E+00 0. -1.
          1    1    1    2  502    0  0.11279366943E+02 -0.32152444103E+02  0.31548250608E+03  0.31731721577E+03  0.00000000000E+00 0. -1.
         22    1    3    3    0    0  0.14301798541E+02  0.19872964877E+02  0.39234081727E+02  0.46247046862E+02  0.00000000000E+00 0. -1.
         22    1    3    3    0    0 -0.11193437047E+03  0.21676715716E+02 -0.30301548096E+02  0.11797189121E+03  0.00000000000E+00 0. -1.
</event>
<event>
 7    1  0.6370239E-006  0.4051418E+03  0.7818608E-02  0.1145134E+00
          2   -1    0    0  502    0  0.00000000000E+00  0.00000000000E+00  0.10663296346E+04  0.10663296346E+04  0.00000000000E+00 0. -1.
          1   -1    0    0  501    0 -0.00000000000E+00 -0.00000000000E+00 -0.31690244840E+03  0.31690244840E+03  0.00000000000E+00 0. -1.
         25    2    1    2    0    0 -0.22010845499E+03 -0.28990939864E+03  0.21783393840E+03  0.44223419460E+03  0.12499706707E+03 0.  0.
          2    1    1    2  501    0 -0.10418352104E+03  0.47641190348E+01 -0.12019884705E+03  0.15913725434E+03  0.00000000000E+00 0. -1.
          1    1    1    2  502    0  0.32429197603E+03  0.28514527961E+03  0.65179209485E+03  0.78186063407E+03  0.00000000000E+00 0. -1.
         22    1    3    3    0    0 -0.14733823899E+03 -0.92686202639E+02  0.86662481865E+02  0.19444709972E+03  0.00000000000E+00 0. -1.
         22    1    3    3    0    0 -0.72770216004E+02 -0.19722319600E+03  0.13117145654E+03  0.24778709488E+03  0.00000000000E+00 0. -1.
</event>
<event>
 7    1  0.6370239E-006  0.7695458E+02  0.7818608E-02  0.1456290E+00
          2   -1    0    0  502    0  0.00000000000E+00  0.00000000000E+00  0.10109725958E+04  0.10109725958E+04  0.00000000000E+00 0. -1.
          1   -1    0    0  501    0 -0.00000000000E+00 -0.00000000000E+00 -0.59023624426E+02  0.59023624426E+02  0.00000000000E+00 0. -1.
         25    2    1    2    0    0 -0.44948159124E+02 -0.28862572853E+02  0.33529462986E+03  0.36180215041E+03  0.12499968843E+03 0.  0.
          2    1    1    2  501    0 -0.15977681008E+02 -0.25358091409E+02 -0.38045766797E+02  0.48433453949E+02  0.00000000000E+00 0. -1.
          1    1    1    2  502    0  0.60925840132E+02  0.54220664262E+02  0.65470010827E+03  0.65976061583E+03  0.00000000000E+00 0. -1.
         22    1    3    3    0    0 -0.52683310870E+02  0.21877589903E+02  0.28237873858E+03  0.28808316887E+03  0.00000000000E+00 0.  1.
         22    1    3    3    0    0  0.77351517461E+01 -0.50740162755E+02  0.52915891279E+02  0.73718981537E+02  0.00000000000E+00 0.  1.
</event>
<event>
 7    1  0.6370239E-006  0.3896615E+02  0.7818608E-02  0.1523539E+00
          2   -1    0    0  502    0  0.00000000000E+00  0.00000000000E+00  0.65913613241E+03  0.65913613241E+03  0.00000000000E+00 0. -1.
          1   -1    0    0  501    0 -0.00000000000E+00 -0.00000000000E+00 -0.29642090077E+02  0.29642090077E+02  0.00000000000E+00 0. -1.
         25    2    1    2    0    0 -0.85438722678E+01 -0.57938291333E+01  0.26857710274E+03  0.29642034556E+03  0.12499917975E+03 0.  0.
          2    1    1    2  501    0 -0.12980309503E+02  0.38275672077E+02  0.13278077795E+02  0.42542012854E+02  0.00000000000E+00 0. -1.
          1    1    1    2  502    0  0.21524181771E+02 -0.32481842944E+02  0.34763886180E+03  0.34981586407E+03  0.00000000000E+00 0. -1.
         22    1    3    3    0    0  0.51936175867E+02 -0.26126621726E+02  0.93748519992E+02  0.11031206519E+03  0.00000000000E+00 0.  1.
         22    1    3    3    0    0 -0.60480048135E+02  0.20332792593E+02  0.17482858274E+03  0.18610828037E+03  0.00000000000E+00 0.  1.
</event>
<event>
 7    1  0.6370239E-006  0.1310957E+03  0.7818608E-02  0.1328125E+00
          2   -1    0    0  502    0  0.00000000000E+00  0.00000000000E+00  0.26137626107E+04  0.26137626107E+04  0.00000000000E+00 0. -1.
          1   -1    0    0  501    0 -0.00000000000E+00 -0.00000000000E+00 -0.41456082378E+03  0.41456082378E+03  0.00000000000E+00 0. -1.
         25    2    1    2    0    0 -0.94520180850E+02 -0.45956315938E+02 -0.82605115354E+02  0.18301473159E+03  0.12499895734E+03 0.  0.
          2    1    1    2  501    0  0.36272728679E+01 -0.49085814234E+02 -0.27790037471E+03  0.28222542857E+03  0.00000000000E+00 0. -1.
          1    1    1    2  502    0  0.90892907983E+02  0.95042130172E+02  0.25597072770E+04  0.25630832744E+04  0.00000000000E+00 0. -1.
         22    1    3    3    0    0 -0.62047039408E+02 -0.38828722076E+02 -0.11518016438E+03  0.13646968537E+03  0.00000000000E+00 0.  1.
         22    1    3    3    0    0 -0.32473141443E+02 -0.71275938627E+01  0.32575049026E+02  0.46545046229E+02  0.00000000000E+00 0.  1.
</event>
<event>
 7    1  0.6370239E-006  0.1838599E+03  0.7818608E-02  0.1321250E+00
          2   -1    0    0  502    0  0.00000000000E+00  0.00000000000E+00  0.10103669097E+04  0.10103669097E+04  0.00000000000E+00 0. -1.
          1   -1    0    0  501    0 -0.00000000000E+00 -0.00000000000E+00 -0.22126708707E+03  0.22126708707E+03  0.00000000000E+00 0. -1.
         25    2    1    2    0    0 -0.18175816129E+03 -0.76233089085E+02  0.11943413420E+03  0.26217735988E+03  0.12499977020E+03 0.  0.
          2    1    1    2  501    0  0.29026717752E+02 -0.23427145587E+02 -0.13722957209E+03  0.14220877944E+03  0.00000000000E+00 0. -1.
          1    1    1    2  502    0  0.15273144354E+03  0.99660234672E+02  0.80689526052E+03  0.82724785746E+03  0.00000000000E+00 0. -1.
         22    1    3    3    0    0 -0.18626126586E+03 -0.32293768319E+02  0.92676821259E+02  0.21053536479E+03  0.00000000000E+00 0. -1.
         22    1    3    3    0    0  0.45031045637E+01 -0.43939320765E+02  0.26757312944E+02  0.51641995082E+02  0.00000000000E+00 0. -1.
</event>
<event>
 7    1  0.6370239E-006  0.5168831E+02  0.7818608E-02  0.1540851E+00
          2   -1    0    0  502    0  0.00000000000E+00  0.00000000000E+00  0.28699199566E+04  0.28699199566E+04  0.00000000000E+00 0. -1.
          1   -1    0    0  501    0 -0.00000000000E+00 -0.00000000000E+00 -0.54401548043E+02  0.54401548043E+02  0.00000000000E+00 0. -1.
         25    2    1    2    0    0 -0.24136252045E+02  0.13001109027E+02  0.16851973705E+04  0.16900493796E+04  0.12500056088E+03 0.  0.
          2    1    1    2  501    0  0.42219375140E+02 -0.30144802255E+02 -0.38865172138E+02  0.64820416116E+02  0.00000000000E+00 0. -1.
          1    1    1    2  502    0 -0.18083123095E+02  0.17143693227E+02  0.11691862102E+04  0.11694517090E+04  0.00000000000E+00 0. -1.
         22    1    3    3    0    0 -0.61190193442E+02  0.25518395143E+02  0.14582678403E+04  0.14597741341E+04  0.00000000000E+00 0. -1.
         22    1    3    3    0    0  0.37053941397E+02 -0.12517286115E+02  0.22692953018E+03  0.23027524550E+03  0.00000000000E+00 0. -1.
</event>
<event>
 7    1  0.6370239E-006  0.5873346E+02  0.7818608E-02  0.1453016E+00
          2   -1    0    0  502    0  0.00000000000E+00  0.00000000000E+00  0.94301487434E+02  0.94301487434E+02  0.00000000000E+00 0. -1.
          1   -1    0    0  501    0 -0.00000000000E+00 -0.00000000000E+00 -0.87760769587E+03  0.87760769587E+03  0.00000000000E+00 0. -1.
         25    2    1    2    0    0  0.79557951296E+02  0.44915839668E+02 -0.69963928157E+02  0.16988748235E+03  0.12497961893E+03 0.  0.
          2    1    1    2  501    0 -0.39366925852E+02 -0.82528907588E+01 -0.74024150331E+03  0.74133349330E+03  0.00000000000E+00 0. -1.
          1    1    1    2  502    0 -0.40191025444E+02 -0.36662948909E+02  0.26899223032E+02  0.60688207658E+02  0.00000000000E+00 0. -1.
         22    1    3    3    0    0  0.47160825145E+01 -0.40382058847E+02 -0.25610225857E+02  0.48050346299E+02  0.00000000000E+00 0.  1.
         22    1    3    3    0    0  0.74841868782E+02  0.85297898515E+02 -0.44353702299E+02  0.12183713605E+03  0.00000000000E+00 0.  1.
</event>
<event>
 7    1  0.6370239E-006  0.1002966E+03  0.7818608E-02  0.1344475E+00
          2   -1    0    0  502    0  0.00000000000E+00  0.00000000000E+00  0.59925163784E+03  0.59925163784E+03  0.00000000000E+00 0. -1.
          1   -1    0    0  501    0 -0.00000000000E+00 -0.00000000000E+00 -0.19062082855E+03  0.19062082855E+03  0.00000000000E+00 0. -1.
         25    2    1    2    0    0  0.13989807485E+03 -0.37175194238E+02  0.23749792653E+02  0.19272339431E+03  0.12499915059E+03 0.  0.
          2    1    1    2  501    0 -0.84108842088E+02  0.37810857938E+02 -0.84132432250E+02  0.12482878054E+03  0.00000000000E+00 0. -1.
          1    1    1    2  502    0 -0.55789232766E+02 -0.63566370027E+00  0.46901344889E+03  0.47232029154E+03  0.00000000000E+00 0. -1.
         22    1    3    3    0    0  0.12020022690E+03 -0.33103039383E+02 -0.35926603744E+02  0.12974832030E+03  0.00000000000E+00 0.  1.
         22    1    3    3    0    0  0.19697847950E+02 -0.40721548545E+01  0.59676396398E+02  0.62975074006E+02  0.00000000000E+00 0.  1.
</event>
<event>
 7    1  0.6370239E-006  0.2569714E+03  0.7818608E-02  0.1268055E+00
          2   -1    0    0  502    0  0.00000000000E+00  0.00000000000E+00  0.12353193338E+04  0.12353193338E+04  0.00000000000E+00 0. -1.
          1   -1    0    0  501    0 -0.00000000000E+00 -0.00000000000E+00 -0.65191818557E+03  0.65191818557E+03  0.00000000000E+00 0. -1.
         25    2    1    2    0    0 -0.29221976990E+03  0.32525997499E+02  0.92530982061E+02  0.33262438542E+03  0.12500665861E+03 0.  0.
          2    1    1    2  501    0  0.24885182802E+03 -0.38443837471E+02 -0.50155920350E+03  0.56121902637E+03  0.00000000000E+00 0. -1.
          1    1    1    2  502    0  0.43367941885E+02  0.59178399719E+01  0.99242936962E+03  0.99339410754E+03  0.00000000000E+00 0. -1.
         22    1    3    3    0    0 -0.11429540833E+03  0.33642018505E+02 -0.21811446823E+02  0.12112375897E+03  0.00000000000E+00 0.  1.
         22    1    3    3    0    0 -0.17792436157E+03 -0.11160210051E+01  0.11434242888E+03  0.21150062645E+03  0.00000000000E+00 0.  1.
</event>
<event>
 7    1  0.6370239E-006  0.1561061E+03  0.7818608E-02  0.1300081E+00
          2   -1    0    0  502    0  0.00000000000E+00  0.00000000000E+00  0.41618898077E+03  0.41618898077E+03  0.00000000000E+00 0. -1.
          1   -1    0    0  501    0 -0.00000000000E+00 -0.00000000000E+00 -0.74791997228E+03  0.74791997228E+03  0.00000000000E+00 0. -1.
         25    2    1    2    0    0  0.78553165284E+02 -0.75884521965E+02 -0.45145681650E+03  0.48100690908E+03  0.12500131586E+03 0.  0.
          2    1    1    2  501    0  0.15065688797E+02 -0.51050391304E+02 -0.26342956174E+03  0.26875314218E+03  0.00000000000E+00 0. -1.
          1    1    1    2  502    0 -0.93618854081E+02  0.12693491327E+03  0.38315538673E+03  0.41434890180E+03  0.00000000000E+00 0. -1.
         22    1    3    3    0    0  0.88653147575E+02 -0.68592744123E+02 -0.20021717134E+03  0.22945862551E+03  0.00000000000E+00 0.  1.
         22    1    3    3    0    0 -0.10099982291E+02 -0.72917778429E+01 -0.25123964515E+03  0.25154828356E+03  0.00000000000E+00 0.  1.
</event>
<event>
 7    1  0.6370239E-006  0.5618211E+02  0.7818608E-02  0.1431422E+00
          2   -1    0    0  502    0  0.00000000000E+00  0.00000000000E+00  0.12122954364E+04  0.12122954364E+04  0.00000000000E+00 0. -1.
          1   -1    0    0  501    0 -0.00000000000E+00 -0.00000000000E+00 -0.15930691491E+03  0.15930691491E+03  0.00000000000E+00 0. -1.
         25    2    1    2    0    0 -0.64739112803E+01 -0.14742200551E+01 -0.18402233084E+02  0.12652254456E+03  0.12500090899E+03 0.  0.
          2    1    1    2  501    0  0.29755801345E+02 -0.49656814644E+02 -0.76433379375E+02  0.95881533347E+02  0.00000000000E+00 0. -1.
          1    1    1    2  502    0 -0.23281890065E+02  0.51131034699E+02  0.11478241339E+04  0.11491982734E+04  0.00000000000E+00 0. -1.
         22    1    3    3    0    0 -0.57424976650E+02  0.25066523543E+02 -0.27375417207E+02  0.68376692031E+02  0.00000000000E+00 0. -1.
         22    1    3    3    0    0  0.50951065369E+02 -0.26540743598E+02  0.89731841232E+01  0.58145852529E+02  0.00000000000E+00 0. -1.
</event>
<event>
 7    1  0.6370239E-006  0.4770445E+02  0.7818608E-02  0.1477942E+00
          2   -1    0    0  502    0  0.00000000000E+00  0.00000000000E+00  0.30121397424E+02  0.30121397424E+02  0.00000000000E+00 0. -1.
          1   -1    0    0  501    0 -0.00000000000E+00 -0.00000000000E+00 -0.13179213554E+04  0.13179213554E+04  0.00000000000E+00 0. -1.
         25    2    1    2    0    0  0.10401188900E+02  0.62752508664E+02 -0.62512583148E+03  0.64066437846E+03  0.12498991385E+03 0.  0.
          2    1    1    2  501    0 -0.36334257153E+02 -0.30510329482E+02 -0.66427778523E+03  0.66596999512E+03  0.00000000000E+00 0. -1.
          1    1    1    2  502    0  0.25933068254E+02 -0.32242179182E+02  0.16036587737E+01  0.41408379212E+02  0.00000000000E+00 0. -1.
         22    1    3    3    0    0 -0.98946149371E+01  0.22902655376E+02 -0.15438441977E+02  0.29339061312E+02  0.00000000000E+00 0.  1.
         22    1    3    3    0    0  0.20295803837E+02  0.39849853288E+02 -0.60968738951E+03  0.61132531715E+03  0.00000000000E+00 0.  1.
</event>
<event>
 7    1  0.6370239E-006  0.1046440E+03  0.7818608E-02  0.1455528E+00
          2   -1    0    0  502    0  0.00000000000E+00  0.00000000000E+00  0.30657275683E+03  0.30657275683E+03  0.00000000000E+00 0. -1.
          1   -1    0    0  501    0 -0.00000000000E+00 -0.00000000000E+00 -0.37641209110E+03  0.37641209110E+03  0.00000000000E+00 0. -1.
         25    2    1    2    0    0  0.12062907924E+03  0.79444271679E+01  0.86898186666E+02  0.19439797049E+03  0.12499914962E+03 0.  0.
          2    1    1    2  501    0 -0.21428042295E+02  0.56652190029E+01 -0.30712002704E+03  0.30791876642E+03  0.00000000000E+00 0. -1.
          1    1    1    2  502    0 -0.99201036942E+02 -0.13609646171E+02  0.15038250610E+03  0.18066811102E+03  0.00000000000E+00 0. -1.
         22    1    3    3    0    0  0.65439807034E+02 -0.29739875510E+02 -0.14140640287E+02  0.73258352751E+02  0.00000000000E+00 0.  1.
         22    1    3    3    0    0  0.55189272204E+02  0.37684302678E+02  0.10103882695E+03  0.12113961774E+03  0.00000000000E+00 0.  1.
</event>
<event>
 7    1  0.6370239E-006  0.1003419E+03  0.7818608E-02  0.1340427E+00
          2   -1    0    0  502    0  0.00000000000E+00  0.00000000000E+00  0.37270273471E+03  0.37270273471E+03  0.00000000000E+00 0. -1.
          1   -1    0    0  501    0 -0.00000000000E+00 -0.00000000000E+00 -0.85231480330E+03  0.85231480330E+03  0.00000000000E+00 0. -1.
         25    2    1    2    0    0  0.17515158197E+02 -0.53462158386E+02  0.17018726993E+03  0.21852666728E+03  0.12500085728E+03 0.  0.
          2    1    1    2  501    0 -0.72769909609E+02  0.70255540361E+02 -0.82028070758E+03  0.82649364179E+03  0.00000000000E+00 0. -1.
          1    1    1    2  502    0  0.55254751412E+02 -0.16793381975E+02  0.17048136906E+03  0.17999722895E+03  0.00000000000E+00 0. -1.
         22    1    3    3    0    0  0.50835949813E+02  0.55102656816E+00  0.18503729502E+02  0.54101621318E+02  0.00000000000E+00 0. -1.
         22    1    3    3    0    0 -0.33320791616E+02 -0.54013184954E+02  0.15168354043E+03  0.16442504596E+03  0.00000000000E+00 0. -1.
</event>
<event>
 7    1  0.6370239E-006  0.4900976E+02  0.7818608E-02  0.1548306E+00
          2   -1    0    0  502    0  0.00000000000E+00  0.00000000000E+00  0.12667538080E+03  0.12667538080E+03  0.00000000000E+00 0. -1.
          1   -1    0    0  501    0 -0.00000000000E+00 -0.00000000000E+00 -0.74141387564E+03  0.74141387564E+03  0.00000000000E+00 0. -1.
         25    2    1    2    0    0  0.18718191187E+02 -0.36027340145E+02  0.60687370383E+02  0.14476245771E+03  0.12499948928E+03 0.  0.
          2    1    1    2  501    0  0.26681205262E+01  0.49056129412E+02 -0.69171193117E+03  0.69345440976E+03  0.00000000000E+00 0. -1.
          1    1    1    2  502    0 -0.21386311713E+02 -0.13028789267E+02  0.16286065942E+02  0.29872388962E+02  0.00000000000E+00 0. -1.
         22    1    3    3    0    0  0.15425797385E+02 -0.82528970177E+02  0.46794959090E+02  0.96118439125E+02  0.00000000000E+00 0.  1.
         22    1    3    3    0    0  0.32923938017E+01  0.46501630033E+02  0.13892411292E+02  0.48644018585E+02  0.00000000000E+00 0.  1.
</event>
<event>
 7    1  0.6370239E-006  0.1249337E+03  0.7818608E-02  0.1256931E+00
          2   -1    0    0  502    0  0.00000000000E+00  0.00000000000E+00  0.12768173593E+04  0.12768173593E+04  0.00000000000E+00 0. -1.
          1   -1    0    0  501    0 -0.00000000000E+00 -0.00000000000E+00 -0.51365903351E+03  0.51365903351E+03  0.00000000000E+00 0. -1.
         25    2    1    2    0    0  0.10964465022E+03 -0.18902280038E+03  0.21576629187E+03  0.33155996775E+03  0.12500140450E+03 0.  0.
          2    1    1    2  501    0 -0.59486922508E+02  0.80860859535E+02 -0.44662869114E+03  0.45777107849E+03  0.00000000000E+00 0. -1.
          1    1    1    2  502    0 -0.50157727708E+02  0.10816194084E+03  0.99402072503E+03  0.10011453465E+04  0.00000000000E+00 0. -1.
         22    1    3    3    0    0  0.69804461716E+02 -0.16237147278E+03  0.92886495739E+02  0.19966236285E+03  0.00000000000E+00 0.  1.
         22    1    3    3    0    0  0.39840188501E+02 -0.26651327593E+02  0.12287979613E+03  0.13189760490E+03  0.00000000000E+00 0.  1.
</event>
<event>
 7    1  0.6370239E-006  0.5060581E+02  0.7818608E-02  0.1485794E+00
          2   -1    0    0  502    0  0.00000000000E+00  0.00000000000E+00  0.36665077243E+03  0.36665077243E+03  0.00000000000E+00 0. -1.
          1   -1    0    0  501    0 -0.00000000000E+00 -0.00000000000E+00 -0.23164730457E+04  0.23164730457E+04  0.00000000000E+00 0. -1.
         25    2    1    2    0    0 -0.32404720923E+02 -0.67721842734E+02 -0.42831517869E+03  0.45245385599E+03  0.12499714230E+03 0.  0.
          2    1    1    2  501    0  0.32660052271E+02  0.17186201637E+02 -0.18741052746E+04  0.18744686247E+04  0.00000000000E+00 0. -1.
          1    1    1    2  502    0 -0.25533134719E+00  0.50535641097E+02  0.35259818006E+03  0.35620133744E+03  0.00000000000E+00 0. -1.
         22    1    3    3    0    0 -0.55836387677E+02 -0.76762218328E+02 -0.41131559946E+03  0.42212635871E+03  0.00000000000E+00 0. -1.
         22    1    3    3    0    0  0.23431666753E+02  0.90403755937E+01 -0.16999579225E+02  0.30327497285E+02  0.00000000000E+00 0. -1.
</event>
<event>
 7    1  0.6370239E-006  0.1033961E+03  0.7818608E-02  0.1291600E+00
          2   -1    0    0  502    0  0.00000000000E+00  0.00000000000E+00  0.21709403124E+04  0.21709403124E+04  0.00000000000E+00 0. -1.
          1   -1    0    0  501    0 -0.00000000000E+00 -0.00000000000E+00 -0.45577181583E+03  0.45577181583E+03  0.00000000000E+00 0. -1.
         25    2    1    2    0    0  0.51517597018E+02 -0.11050442596E+03  0.19569304836E+03  0.26227183775E+03  0.12500182695E+03 0.  0.
          2    1    1    2  501    0  0.45838580708E+02  0.73875096213E+02 -0.41659865663E+03  0.42557390196E+03  0.00000000000E+00 0. -1.
          1    1    1    2  502    0 -0.97356177725E+02  0.36629329748E+02  0.19360741049E+04  0.19388663885E+04  0.00000000000E+00 0. -1.
         22    1    3    3    0    0 -0.24530025225E+02 -0.28690763968E+02  0.93892146942E+00  0.37759285588E+02  0.00000000000E+00 0.  1.
         22    1    3    3    0    0  0.76047622243E+02 -0.81813661993E+02  0.19475412689E+03  0.22451255216E+03  0.00000000000E+00 0.  1.
</event>
<event>
 7    1  0.6370239E-006  0.7719694E+02  0.7818608E-02  0.1484863E+00
          2   -1    0    0  502    0  0.00000000000E+00  0.00000000000E+00  0.38834915546E+03  0.38834915546E+03  0.00000000000E+00 0. -1.
          1   -1    0    0  501    0 -0.00000000000E+00 -0.00000000000E+00 -0.22456548702E+03  0.22456548702E+03  0.00000000000E+00 0. -1.
         25    2    1    2    0    0 -0.74899641190E+02 -0.11464495811E+02 -0.37969265502E+02  0.15103436738E+03  0.12501329566E+03 0.  0.
          2    1    1    2  501    0  0.69739196614E+02  0.35263297077E+02 -0.11781988471E+03  0.14138097785E+03  0.00000000000E+00 0. -1.
          1    1    1    2  502    0  0.51604445765E+01 -0.23798801266E+02  0.31957281864E+03  0.32049929726E+03  0.00000000000E+00 0. -1.
         22    1    3    3    0    0 -0.10556014814E+03 -0.30423441370E+02 -0.32571915446E+02  0.11458385722E+03  0.00000000000E+00 0.  1.
         22    1    3    3    0    0  0.30660506947E+02  0.18958945559E+02 -0.53973500563E+01  0.36450510156E+02  0.00000000000E+00 0.  1.
</event>
<event>
 7    1  0.6370239E-006  0.4962682E+02  0.7818608E-02  0.1532623E+00
          2   -1    0    0  502    0  0.00000000000E+00  0.00000000000E+00  0.26712177045E+03  0.26712177045E+03  0.00000000000E+00 0. -1.
          1   -1    0    0  501    0 -0.00000000000E+00 -0.00000000000E+00 -0.15622902638E+03  0.15622902638E+03  0.00000000000E+00 0. -1.
         25    2    1    2    0    0 -0.39741042069E+02  0.47914973424E+02  0.19132585037E+02  0.14094984616E+03  0.12500243285E+03 0.  0.
          2    1    1    2  501    0  0.27386307919E+02 -0.24427690902E+00 -0.90006694353E+02  0.94081212583E+02  0.00000000000E+00 0. -1.
          1    1    1    2  502    0  0.12354734150E+02 -0.47670696515E+02  0.18176685338E+03  0.18831973808E+03  0.00000000000E+00 0. -1.
         22    1    3    3    0    0  0.69267750099E+01 -0.21975118201E+02  0.47055412127E+02  0.52393681322E+02  0.00000000000E+00 0.  1.
         22    1    3    3    0    0 -0.46667817079E+02  0.69890091625E+02 -0.27922827090E+02  0.88556164839E+02  0.00000000000E+00 0.  1.
</event>
<event>
 7    1  0.6370239E-006  0.1067488E+03  0.7818608E-02  0.1314131E+00
          2   -1    0    0  502    0  0.00000000000E+00  0.00000000000E+00  0.45843818799E+03  0.45843818799E+03  0.00000000000E+00 0. -1.
          1   -1    0    0  501    0 -0.00000000000E+00 -0.00000000000E+00 -0.71256964573E+03  0.71256964573E+03  0.00000000000E+00 0. -1.
         25    2    1    2    0    0 -0.13677435244E+02  0.54880161130E+02  0.10885989709E+02  0.13763083070E+03  0.12499934587E+03 0.  0.
          2    1    1    2  501    0  0.78111804256E+02 -0.78070211519E+02 -0.64138841088E+03  0.65082678610E+03  0.00000000000E+00 0. -1.
          1    1    1    2  502    0 -0.64434369013E+02  0.23190050389E+02  0.37637096344E+03  0.38255021692E+03  0.00000000000E+00 0. -1.
         22    1    3    3    0    0  0.51673928809E+02  0.36245880890E+02 -0.15059305348E+02  0.64890226364E+02  0.00000000000E+00 0.  1.
         22    1    3    3    0    0 -0.65351364052E+02  0.18634280240E+02  0.25945295057E+02  0.72740604336E+02  0.00000000000E+00 0.  1.
</event>
<event>
 7    1  0.6370239E-006  0.1237580E+03  0.7818608E-02  0.1355581E+00
          2   -1    0    0  502    0  0.00000000000E+00  0.00000000000E+00  0.23785505176E+04  0.23785505176E+04  0.00000000000E+00 0. -1.
          1   -1    0    0  501    0 -0.00000000000E+00 -0.00000000000E+00 -0.25219914087E+02  0.25219914087E+02  0.00000000000E+00 0. -1.
         25    2    1    2    0    0 -0.77621703482E+02 -0.73048147528E+02  0.54673735265E+03  0.57088367002E+03  0.12500108481E+03 0.  0.
          2    1    1    2  501    0  0.14912932997E+02 -0.38329770473E+02  0.28111634963E+02  0.49817977632E+02  0.00000000000E+00 0. -1.
          1    1    1    2  502    0  0.62708770485E+02  0.11137791800E+03  0.17784816159E+04  0.17830687840E+04  0.00000000000E+00 0. -1.
         22    1    3    3    0    0 -0.29154031042E+02 -0.33953892187E+02  0.46969890760E+03  0.47182612065E+03  0.00000000000E+00 0. -1.
         22    1    3    3    0    0 -0.48467672440E+02 -0.39094255341E+02  0.77038445046E+02  0.99057549372E+02  0.00000000000E+00 0. -1.
</event>
<event>
 7    1  0.6370239E-006  0.5340367E+02  0.7818608E-02  0.1458379E+00
          2   -1    0    0  502    0  0.00000000000E+00  0.00000000000E+00  0.26316204429E+04  0.26316204429E+04  0.00000000000E+00 0. -1.
          1   -1    0    0  501    0 -0.00000000000E+00 -0.00000000000E+00 -0.28540853707E+02  0.28540853707E+02  0.00000000000E+00 0. -1.
         25    2    1    2    0    0  0.33579834301E+02  0.16793295223E+02  0.45815463297E+03  0.47638167984E+03  0.12499686851E+03 0.  0.
          2    1    1    2  501    0 -0.21895917579E+02  0.36468367196E+02  0.46275280029E+01  0.42787697157E+02  0.00000000000E+00 0. -1.
          1    1    1    2  502    0 -0.11683916722E+02 -0.53261662419E+02  0.21402974282E+04  0.21409919196E+04  0.00000000000E+00 0. -1.
         22    1    3    3    0    0 -0.27799645836E+02 -0.36857189985E+02  0.21582061956E+03  0.22070299634E+03  0.00000000000E+00 0. -1.
         22    1    3    3    0    0  0.61379480137E+02  0.53650485208E+02  0.24233401341E+03  0.25567868350E+03  0.00000000000E+00 0. -1.
</event>
<event>
 7    1  0.6370239E-006  0.5369026E+02  0.7818608E-02  0.1488584E+00
          2   -1    0    0  502    0  0.00000000000E+00  0.00000000000E+00  0.80006022758E+02  0.80006022758E+02  0.00000000000E+00 0. -1.
          1   -1    0    0  501    0 -0.00000000000E+00 -0.00000000000E+00 -0.10546557854E+04  0.10546557854E+04  0.00000000000E+00 0. -1.
         25    2    1    2    0    0 -0.39455636728E+02 -0.39832094426E+02 -0.56739204524E+03  0.58369703030E+03  0.12500058866E+03 0.  0.
          2    1    1    2  501    0  0.31374301491E+02 -0.13393257312E+02 -0.46831915137E+03  0.46955995749E+03  0.00000000000E+00 0. -1.
          1    1    1    2  502    0  0.80813352368E+01  0.53225351739E+02  0.61061434018E+02  0.81404820320E+02  0.00000000000E+00 0. -1.
         22    1    3    3    0    0 -0.39310252736E+01  0.38762081421E+02 -0.83041282372E+02  0.91726803574E+02  0.00000000000E+00 0. -1.
         22    1    3    3    0    0 -0.35524611454E+02 -0.78594175847E+02 -0.48435076287E+03  0.49197022673E+03  0.00000000000E+00 0. -1.
</event>
<event>
 7    1  0.6370239E-006  0.5531157E+02  0.7818608E-02  0.1433530E+00
          2   -1    0    0  502    0  0.00000000000E+00  0.00000000000E+00  0.27649579739E+03  0.27649579739E+03  0.00000000000E+00 0. -1.
          1   -1    0    0  501    0 -0.00000000000E+00 -0.00000000000E+00 -0.10076704230E+03  0.10076704230E+03  0.00000000000E+00 0. -1.
         25    2    1    2    0    0  0.30090344615E+02 -0.13274094204E+02  0.85385443051E+02  0.15491116858E+03  0.12500066340E+03 0.  0.
          2    1    1    2  501    0 -0.50550874126E+02 -0.31659543701E+02 -0.47297611278E+02  0.76123462972E+02  0.00000000000E+00 0. -1.
          1    1    1    2  502    0  0.20460529512E+02  0.44933637905E+02  0.13764092332E+03  0.14622820813E+03  0.00000000000E+00 0. -1.
         22    1    3    3    0    0 -0.47776691074E+02  0.43028797537E+01  0.43534405911E+02  0.64779406312E+02  0.00000000000E+00 0. -1.
         22    1    3    3    0    0  0.77867035688E+02 -0.17576973958E+02  0.41851037140E+02  0.90131762271E+02  0.00000000000E+00 0. -1.
</event>
<event>
 7    1  0.6370239E-006  0.1273260E+03  0.7818608E-02  0.1323329E+00
          2   -1    0    0  502    0  0.00000000000E+00  0.00000000000E+00  0.86080253750E+03  0.86080253750E+03  0.00000000000E+00 0. -1.
          1   -1    0    0  501    0 -0.00000000000E+00 -0.00000000000E+00 -0.68732781582E+03  0.68732781582E+03  0.00000000000E+00 0. -1.
         25    2    1    2    0    0  0.12980136497E+03 -0.10146307403E+03 -0.36732851475E+03  0.42154431118E+03  0.12500487511E+03 0.  0.
          2    1    1    2  501    0 -0.84503542150E+02  0.74188528805E+02 -0.28121754102E+03  0.30286645872E+03  0.00000000000E+00 0. -1.
          1    1    1    2  502    0 -0.45297822815E+02  0.27274545221E+02  0.82202077745E+03  0.82371958343E+03  0.00000000000E+00 0. -1.
         22    1    3    3    0    0  0.69160841966E+02 -0.82464193398E+01 -0.51251143223E+02  0.86474881758E+02  0.00000000000E+00 0.  1.
         22    1    3    3    0    0  0.60640522999E+02 -0.93216654686E+02 -0.31607737153E+03  0.33506942942E+03  0.00000000000E+00 0.  1.
</event>
<event>
 7    1  0.6370239E-006  0.1009851E+03  0.7818608E-02  0.1458131E+00
          2   -1    0    0  502    0  0.00000000000E+00  0.00000000000E+00  0.87106882551E+03  0.87106882551E+03  0.00000000000E+00 0. -1.
          1   -1    0    0  501    0 -0.00000000000E+00 -0.00000000000E+00 -0.12554147493E+03  0.12554147493E+03  0.00000000000E+00 0. -1.
         25    2    1    2    0    0  0.35336972075E+02  0.10539530249E+03  0.32961270967E+03  0.36962964995E+03  0.12499867345E+03 0.  0.
          2    1    1    2  501    0  0.12459544158E+02 -0.18777653086E+02 -0.99570203328E+02  0.10208851986E+03  0.00000000000E+00 0. -1.
          1    1    1    2  502    0 -0.47796516233E+02 -0.86617649408E+02  0.51548484424E+03  0.52489213063E+03  0.00000000000E+00 0. -1.
         22    1    3    3    0    0 -0.53952078709E+01  0.79561483958E+02  0.71676852904E+02  0.10722270860E+03  0.00000000000E+00 0.  1.
         22    1    3    3    0    0  0.40732179946E+02  0.25833818536E+02  0.25793585676E+03  0.26240694135E+03  0.00000000000E+00 0.  1.
</event>
<event>
 7    1  0.7899924E-006  0.7639435E+02  0.7818608E-02  0.1384553E+00
          2   -1    0    0  502    0  0.00000000000E+00  0.00000000000E+00  0.27715395822E+04  0.27715395822E+04  0.00000000000E+00 0. -1.
          1   -1    0    0  501    0 -0.00000000000E+00 -0.00000000000E+00 -0.63871227107E+03  0.63871227107E+03  0.00000000000E+00 0. -1.
         25    2    1    2    0    0 -0.22031182869E+02 -0.99150354695E+01 -0.24040126696E+03  0.27203265072E+03  0.12500125180E+03 0.  0.
          2    1    1    2  501    0 -0.45506309288E+02 -0.26020478683E+02 -0.38016548289E+03  0.38376253579E+03  0.00000000000E+00 0. -1.
          1    1    1    2  502    0  0.67537492157E+02  0.35935514152E+02  0.27533940610E+04  0.27544566668E+04  0.00000000000E+00 0. -1.
         22    1    3    3    0    0  0.33409552558E+02  0.26156515218E+02 -0.31318062189E+02  0.52736917902E+02  0.00000000000E+00 0. -1.
         22    1    3    3    0    0 -0.55440735426E+02 -0.36071550688E+02 -0.20908320477E+03  0.21929573281E+03  0.00000000000E+00 0. -1.
</event>
<event>
 7    1  0.6370239E-006  0.1170495E+03  0.7818608E-02  0.1374585E+00
          2   -1    0    0  502    0  0.00000000000E+00  0.00000000000E+00  0.41864994396E+03  0.41864994396E+03  0.00000000000E+00 0. -1.
          1   -1    0    0  501    0 -0.00000000000E+00 -0.00000000000E+00 -0.44561819932E+03  0.44561819932E+03  0.00000000000E+00 0. -1.
         25    2    1    2    0    0 -0.14440112218E+03  0.62939136394E+01  0.52731062206E+02  0.19823479933E+03  0.12500069322E+03 0.  0.
          2    1    1    2  501    0  0.11245483453E+03 -0.25181979350E+02 -0.36272172726E+03  0.38058806250E+03  0.00000000000E+00 0. -1.
          1    1    1    2  502    0  0.31946287654E+02  0.18888065711E+02  0.28302240969E+03  0.28544528146E+03  0.00000000000E+00 0. -1.
         22    1    3    3    0    0 -0.56247343506E+02 -0.57622578703E+02  0.35461853310E+02  0.87986750525E+02  0.00000000000E+00 0.  1.
         22    1    3    3    0    0 -0.88153778679E+02  0.63916492342E+02  0.17269208896E+02  0.11024804880E+03  0.00000000000E+00 0.  1.
</event>
<event>
 7    1  0.6370239E-006  0.6057774E+02  0.7818608E-02  0.1426867E+00
          2   -1    0    0  502    0  0.00000000000E+00  0.00000000000E+00  0.42990722701E+03  0.42990722701E+03  0.00000000000E+00 0. -1.
          1   -1    0    0  501    0 -0.00000000000E+00 -0.00000000000E+00 -0.51013941724E+02  0.51013941724E+02  0.00000000000E+00 0. -1.
         25    2    1    2    0    0  0.70236644486E+01 -0.44448181558E+02  0.10260018914E+03  0.16786200494E+03  0.12500352469E+03 0.  0.
          2    1    1    2  501    0 -0.53684149984E+02  0.52876469990E+02  0.75217566065E+02  0.10646873383E+03  0.00000000000E+00 0. -1.
          1    1    1    2  502    0  0.46660485536E+02 -0.84282884315E+01  0.20107553008E+03  0.20659042997E+03  0.00000000000E+00 0. -1.
         22    1    3    3    0    0  0.21013672070E+02  0.35083606861E+02  0.69394946919E+02  0.80548696712E+02  0.00000000000E+00 0. -1.
         22    1    3    3    0    0 -0.13990007621E+02 -0.79531788419E+02  0.33205242219E+02  0.87313308225E+02  0.00000000000E+00 0. -1.
</event>
<event>
 7    1  0.6370239E-006  0.1858561E+03  0.7818608E-02  0.1206323E+00
          2   -1    0    0  502    0  0.00000000000E+00  0.00000000000E+00  0.11549990613E+03  0.11549990613E+03  0.00000000000E+00 0. -1.
          1   -1    0    0  501    0 -0.00000000000E+00 -0.00000000000E+00 -0.20799306273E+04  0.20799306273E+04  0.00000000000E+00 0. -1.
         25    2    1    2    0    0 -0.22389692977E+02 -0.88448551274E+02 -0.52905908585E+03  0.55122904768E+03  0.12500200843E+03 0.  0.
          2    1    1    2  501    0 -0.41589378948E+01 -0.11357536555E+03 -0.14359492137E+04  0.14404397956E+04  0.00000000000E+00 0. -1.
          1    1    1    2  502    0  0.26548630872E+02  0.20202391683E+03  0.57757838812E+00  0.20376169014E+03  0.00000000000E+00 0. -1.
         22    1    3    3    0    0  0.22560327424E+02  0.23213268576E+02 -0.15256447355E+03  0.15596070915E+03  0.00000000000E+00 0. -1.
         22    1    3    3    0    0 -0.44950020401E+02 -0.11166181985E+03 -0.37649461230E+03  0.39526833852E+03  0.00000000000E+00 0. -1.
</event>
<event>
 7    1  0.6370239E-006  0.1567352E+03  0.7818608E-02  0.1285899E+00
          2   -1    0    0  502    0  0.00000000000E+00  0.00000000000E+00  0.36924781077E+03  0.36924781077E+03  0.00000000000E+00 0. -1.
          1   -1    0    0  501    0 -0.00000000000E+00 -0.00000000000E+00 -0.24124489589E+04  0.24124489589E+04  0.00000000000E+00 0. -1.
         25    2    1    2    0    0 -0.68522876739E+02 -0.15210505311E+03  0.41469913317E+02  0.21254924895E+03  0.12500439072E+03 0.  0.
          2    1    1    2  501    0  0.11182839685E+03  0.10984997811E+03 -0.23204450425E+04  0.23257338204E+04  0.00000000000E+00 0. -1.
          1    1    1    2  502    0 -0.43305520115E+02  0.42255075004E+02  0.23577398099E+03  0.24341370041E+03  0.00000000000E+00 0. -1.
         22    1    3    3    0    0 -0.23143834531E+02 -0.15811549049E+03  0.46679029382E+02  0.16647845864E+03  0.00000000000E+00 0. -1.
         22    1    3    3    0    0 -0.45379042208E+02  0.60104373714E+01 -0.52091160657E+01  0.46070790305E+02  0.00000000000E+00 0. -1.
</event>
<event>
 7    1  0.6370239E-006  0.1559899E+03  0.7818608E-02  0.1231518E+00
          2   -1    0    0  502    0  0.00000000000E+00  0.00000000000E+00  0.16056736808E+04  0.16056736808E+04  0.00000000000E+00 0. -1.
          1   -1    0    0  501    0 -0.00000000000E+00 -0.00000000000E+00 -0.15614736214E+03  0.15614736214E+03  0.00000000000E+00 0. -1.
         25    2    1    2    0    0 -0.91151629428E+02  0.14282981501E+03  0.26803206608E+03  0.34084509085E+03  0.12500084763E+03 0.  0.
          2    1    1    2  501    0  0.10280825344E+03  0.14928826769E+02 -0.91351311892E+02  0.13833824138E+03  0.00000000000E+00 0. -1.
          1    1    1    2  502    0 -0.11656624015E+02 -0.15775864178E+03  0.12728455645E+04  0.12826377108E+04  0.00000000000E+00 0. -1.
         22    1    3    3    0    0 -0.90356256637E+02  0.16071634207E+03  0.20683403072E+03  0.27708177851E+03  0.00000000000E+00 0. -1.
         22    1    3    3    0    0 -0.79537279092E+00 -0.17886527060E+02  0.61198035362E+02  0.63763312338E+02  0.00000000000E+00 0. -1.
</event>
<event>
 7    1  0.6370239E-006  0.6410843E+02  0.7818608E-02  0.1436817E+00
          2   -1    0    0  502    0  0.00000000000E+00  0.00000000000E+00  0.14407478853E+03  0.14407478853E+03  0.00000000000E+00 0. -1.
          1   -1    0    0  501    0 -0.00000000000E+00 -0.00000000000E+00 -0.16112473589E+04  0.16112473589E+04  0.00000000000E+00 0. -1.
         25    2    1    2    0    0 -0.90164270914E+02  0.51197388915E+02 -0.14398925469E+03  0.21704523183E+03  0.12499983524E+03 0.  0.
          2    1    1    2  501    0  0.36420730920E+02 -0.20013414404E+02 -0.14214263045E+04  0.14220336654E+04  0.00000000000E+00 0. -1.
          1    1    1    2  502    0  0.53743539994E+02 -0.31183974511E+02  0.98242988839E+02  0.11624325018E+03  0.00000000000E+00 0. -1.
         22    1    3    3    0    0  0.25894899026E+02 -0.11057455374E+02 -0.12063846188E+02  0.30632490917E+02  0.00000000000E+00 0. -1.
         22    1    3    3    0    0 -0.11605916994E+03  0.62254844289E+02 -0.13192540850E+03  0.18641274091E+03  0.00000000000E+00 0. -1.
</event>
<event>
 7    1  0.6370239E-006  0.6069483E+02  0.7818608E-02  0.1468424E+00
          2   -1    0    0  502    0  0.00000000000E+00  0.00000000000E+00  0.41857531882E+03  0.41857531882E+03  0.00000000000E+00 0. -1.
          1   -1    0    0  501    0 -0.00000000000E+00 -0.00000000000E+00 -0.25796547057E+04  0.25796547057E+04  0.00000000000E+00 0. -1.
         25    2    1    2    0    0  0.13549106680E+02 -0.31175537199E+02 -0.11177792641E+03  0.17109881202E+03  0.12500002492E+03 0.  0.
          2    1    1    2  501    0  0.45221483655E+01  0.60921886228E+02 -0.24370540826E+04  0.24378196258E+04  0.00000000000E+00 0. -1.
          1    1    1    2  502    0 -0.18071255046E+02 -0.29746349030E+02  0.38775262219E+03  0.38931158672E+03  0.00000000000E+00 0. -1.
         22    1    3    3    0    0  0.87241727223E+01 -0.69492629045E+02 -0.11244491273E+03  0.13247337498E+03  0.00000000000E+00 0.  1.
         22    1    3    3    0    0  0.48249339582E+01  0.38317091847E+02  0.66698631738E+00  0.38625437034E+02  0.00000000000E+00 0.  1.
</event>
<event>
 7    1  0.6370239E-006  0.3445591E+02  0.7818608E-02  0.1616122E+00
          2   -1    0    0  502    0  0.00000000000E+00  0.00000000000E+00  0.38943883932E+03  0.38943883932E+03  0.00000000000E+00 0. -1.
          1   -1    0    0  501    0 -0.00000000000E+00 -0.00000000000E+00 -0.17459855573E+04  0.17459855573E+04  0.00000000000E+00 0. -1.
         25    2    1    2    0    0 -0.58944172857E+01  0.27840145982E+02 -0.38757574906E+03  0.40822674030E+03  0.12499716938E+03 0.  0.
          2    1    1    2  501    0 -0.22137398562E+02 -0.77589796492E+01 -0.13471979061E+04  0.13474021168E+04  0.00000000000E+00 0. -1.
          1    1    1    2  502    0  0.28031815848E+02 -0.20081166333E+02  0.37822693710E+03  0.37979553958E+03  0.00000000000E+00 0. -1.
         22    1    3    3    0    0  0.53929369241E+02 -0.13357030944E+02 -0.16787889503E+03  0.17683356734E+03  0.00000000000E+00 0.  1.
         22    1    3    3    0    0 -0.59823786527E+02  0.41197176926E+02 -0.21969685403E+03  0.23139317296E+03  0.00000000000E+00 0.  1.
</event>
<event>
 7    1  0.6370239E-006  0.1306128E+03  0.7818608E-02  0.1290565E+00
          2   -1    0    0  502    0  0.00000000000E+00  0.00000000000E+00  0.66079874656E+03  0.66079874656E+03  0.00000000000E+00 0. -1.
          1   -1    0    0  501    0 -0.00000000000E+00 -0.00000000000E+00 -0.70759492248E+03  0.70759492248E+03  0.00000000000E+00 0. -1.
         25    2    1    2    0    0  0.16244658020E+03  0.54440833383E+02  0.48475909072E+02  0.21754780102E+03  0.12499774482E+03 0.  0.
          2    1    1    2  501    0 -0.34760532047E+02 -0.60174743066E+02 -0.61332964534E+03  0.61725403858E+03  0.00000000000E+00 0. -1.
          1    1    1    2  502    0 -0.12768604815E+03  0.57339096834E+01  0.51805756035E+03  0.53359182944E+03  0.00000000000E+00 0. -1.
         22    1    3    3    0    0  0.18367622030E+03  0.47160963425E+02  0.43534956851E+02  0.19456721934E+03  0.00000000000E+00 0.  1.
         22    1    3    3    0    0 -0.21229640101E+02  0.72798699577E+01  0.49409522210E+01  0.22980581679E+02  0.00000000000E+00 0.  1.
</event>
<event>
 7    1  0.6370239E-006  0.7359753E+02  0.7818608E-02  0.1361137E+00
          2   -1    0    0  502    0  0.00000000000E+00  0.00000000000E+00  0.44502277590E+03  0.44502277590E+03  0.00000000000E+00 0. -1.
          1   -1    0    0  501    0 -0.00000000000E+00 -0.00000000000E+00 -0.84433995714E+03  0.84433995714E+03  0.00000000000E+00 0. -1.
         25    2    1    2    0    0  0.58638337968E+02 -0.11179469470E+02 -0.18671033731E+03  0.23248469233E+03  0.12499978757E+03 0.  0.
          2    1    1    2  501    0 -0.80304774958E+01  0.65507172107E+02 -0.62973987372E+03  0.63318874494E+03  0.00000000000E+00 0. -1.
          1    1    1    2  502    0 -0.50607860472E+02 -0.54327702637E+02  0.41713302978E+03  0.42368929577E+03  0.00000000000E+00 0. -1.
         22    1    3    3    0    0  0.76641428779E+02  0.26708274917E+02 -0.65734233765E+02  0.10444247241E+03  0.00000000000E+00 0.  1.
         22    1    3    3    0    0 -0.18003090812E+02 -0.37887744387E+02 -0.12097610354E+03  0.12804221992E+03  0.00000000000E+00 0.  1.
</event>
<event>
 7    1  0.6370239E-006  0.4323512E+02  0.7818608E-02  0.1592440E+00
          2   -1    0    0  502    0  0.00000000000E+00  0.00000000000E+00  0.16824579626E+03  0.16824579626E+03  0.00000000000E+00 0. -1.
          1   -1    0    0  501    0 -0.00000000000E+00 -0.00000000000E+00 -0.16590714816E+04  0.16590714816E+04  0.00000000000E+00 0. -1.
         25    2    1    2    0    0 -0.11917511775E+02 -0.20662384808E+02 -0.36801479967E+03  0.38939426010E+03  0.12499614309E+03 0.  0.
          2    1    1    2  501    0  0.12252097504E+02  0.42200332134E+02 -0.12792516923E+04  0.12800062008E+04  0.00000000000E+00 0. -1.
          1    1    1    2  502    0 -0.33458572869E+00 -0.21537947326E+02  0.15644080657E+03  0.15791681698E+03  0.00000000000E+00 0. -1.
         22    1    3    3    0    0 -0.90065959896E+01 -0.60970703447E+02 -0.93922903427E+02  0.11233902812E+03  0.00000000000E+00 0. -1.
         22    1    3    3    0    0 -0.29109157857E+01  0.40308318639E+02 -0.27409189624E+03  0.27705523198E+03  0.00000000000E+00 0. -1.
</event>
<event>
 7    1  0.6370239E-006  0.6235605E+02  0.7818608E-02  0.1402813E+00
          2   -1    0    0  502    0  0.00000000000E+00  0.00000000000E+00  0.84406671292E+03  0.84406671292E+03  0.00000000000E+00 0. -1.
          1   -1    0    0  501    0 -0.00000000000E+00 -0.00000000000E+00 -0.79555378775E+03  0.79555378775E+03  0.00000000000E+00 0. -1.
         25    2    1    2    0    0  0.51771136648E+02 -0.62768399581E+02  0.38599074506E+03  0.41380622270E+03  0.12500644822E+03 0.  0.
          2    1    1    2  501    0 -0.55497877598E+02  0.61237606685E+00 -0.77847087919E+03  0.78044685864E+03  0.00000000000E+00 0. -1.
          1    1    1    2  502    0  0.37267409504E+01  0.62156023514E+02  0.44099305929E+03  0.44536741933E+03  0.00000000000E+00 0. -1.
         22    1    3    3    0    0 -0.19012981046E+02 -0.19290497135E+02  0.26879051079E+03  0.27015172666E+03  0.00000000000E+00 0.  1.
         22    1    3    3    0    0  0.70784117694E+02 -0.43477902446E+02  0.11720023428E+03  0.14365449604E+03  0.00000000000E+00 0.  1.
</event>
<event>
 7    1  0.6370239E-006  0.1172826E+03  0.7818608E-02  0.1292148E+00
          2   -1    0    0  502    0  0.00000000000E+00  0.00000000000E+00  0.19013701159E+04  0.19013701159E+04  0.00000000000E+00 0. -1.
          1   -1    0    0  501    0 -0.00000000000E+00 -0.00000000000E+00 -0.56018199826E+02  0.56018199826E+02  0.00000000000E+00 0. -1.
         25    2    1    2    0    0 -0.28892204864E+02 -0.38595745375E+02  0.16760926231E+03  0.21457502018E+03  0.12500073364E+03 0.  0.
          2    1    1    2  501    0 -0.35805615184E+02 -0.67326378915E+02  0.17889066178E+02  0.78325615639E+02  0.00000000000E+00 0. -1.
          1    1    1    2  502    0  0.64697820048E+02  0.10592212429E+03  0.16598535876E+04  0.16644876800E+04  0.00000000000E+00 0. -1.
         22    1    3    3    0    0 -0.43435099488E+02  0.23121537385E+02  0.18543622619E+02  0.52584021322E+02  0.00000000000E+00 0. -1.
         22    1    3    3    0    0  0.14542894624E+02 -0.61717282759E+02  0.14906563969E+03  0.16199099886E+03  0.00000000000E+00 0. -1.
</event>
<event>
 7    1  0.6370239E-006  0.6278051E+02  0.7818608E-02  0.1424489E+00
          2   -1    0    0  502    0  0.00000000000E+00  0.00000000000E+00  0.56244129217E+03  0.56244129217E+03  0.00000000000E+00 0. -1.
          1   -1    0    0  501    0 -0.00000000000E+00 -0.00000000000E+00 -0.17602465396E+03  0.17602465396E+03  0.00000000000E+00 0. -1.
         25    2    1    2    0    0 -0.67288568237E+02 -0.35530364870E+02  0.28407607852E+03  0.31955209591E+03  0.12499666145E+03 0.  0.
          2    1    1    2  501    0  0.41325492707E+02 -0.21511698753E+02 -0.15095449359E+03  0.15798040596E+03  0.00000000000E+00 0. -1.
          1    1    1    2  502    0  0.25963075530E+02  0.57042063624E+02  0.25329505329E+03  0.26093344426E+03  0.00000000000E+00 0. -1.
         22    1    3    3    0    0 -0.27272903569E+02 -0.21192196192E+02  0.23295897811E+01  0.34617155243E+02  0.00000000000E+00 0.  1.
         22    1    3    3    0    0 -0.40015664668E+02 -0.14338168678E+02  0.28174648873E+03  0.28493494067E+03  0.00000000000E+00 0.  1.
</event>
<event>
 7    1  0.6370239E-006  0.1326476E+03  0.7818608E-02  0.1294549E+00
          2   -1    0    0  502    0  0.00000000000E+00  0.00000000000E+00  0.26290396388E+04  0.26290396388E+04  0.00000000000E+00 0. -1.
          1   -1    0    0  501    0 -0.00000000000E+00 -0.00000000000E+00 -0.56327749262E+02  0.56327749262E+02  0.00000000000E+00 0. -1.
         25    2    1    2    0    0  0.10729996498E+03 -0.34681322547E+02  0.16096387081E+04  0.16184180464E+04  0.12499650348E+03 0.  0.
          2    1    1    2  501    0 -0.13187064509E+03 -0.26500295839E+02  0.38334130848E+02  0.13986292684E+03  0.00000000000E+00 0. -1.
          1    1    1    2  502    0  0.24570680111E+02  0.61181618385E+02  0.92473905066E+03  0.92708641483E+03  0.00000000000E+00 0. -1.
         22    1    3    3    0    0 -0.23856374159E+02 -0.97453974204E+00  0.49628909131E+03  0.49686309832E+03  0.00000000000E+00 0. -1.
         22    1    3    3    0    0  0.13115633914E+03 -0.33706782805E+02  0.11133496168E+04  0.11215549481E+04  0.00000000000E+00 0. -1.
</event>
<event>
 7    1  0.6370239E-006  0.9187983E+02  0.7818608E-02  0.1298550E+00
          2   -1    0    0  502    0  0.00000000000E+00  0.00000000000E+00  0.10409946008E+04  0.10409946008E+04  0.00000000000E+00 0. -1.
          1   -1    0    0  501    0 -0.00000000000E+00 -0.00000000000E+00 -0.25821683509E+04  0.25821683509E+04  0.00000000000E+00 0. -1.
         25    2    1    2    0    0 -0.41732763624E+02  0.82344613503E+01 -0.75689934116E+03  0.76833017039E+03  0.12500083270E+03 0.  0.
          2    1    1    2  501    0  0.83214515117E+02  0.73569524257E+02 -0.18158217978E+04  0.18192157463E+04  0.00000000000E+00 0. -1.
          1    1    1    2  502    0 -0.41481751492E+02 -0.81803985607E+02  0.10315473888E+04  0.10356170350E+04  0.00000000000E+00 0. -1.
         22    1    3    3    0    0 -0.26006142487E+01 -0.54328917894E+02 -0.41561908139E+03  0.41916299375E+03  0.00000000000E+00 0.  1.
         22    1    3    3    0    0 -0.39132149376E+02  0.62563379244E+02 -0.34128025977E+03  0.34916717664E+03  0.00000000000E+00 0.  1.
</event>
<event>
 7    1  0.6370239E-006  0.1201552E+03  0.7818608E-02  0.1446074E+00
          2   -1    0    0  502    0  0.00000000000E+00  0.00000000000E+00  0.35178666759E+02  0.35178666759E+02  0.00000000000E+00 0. -1.
          1   -1    0    0  501    0 -0.00000000000E+00 -0.00000000000E+00 -0.22060075733E+04  0.22060075733E+04  0.00000000000E+00 0. -1.
         25    2    1    2    0    0 -0.88006554485E+02 -0.75732296994E+02 -0.10027716678E+04  0.10171807801E+04  0.12500074875E+03 0.  0.
          2    1    1    2  501    0  0.11062199454E+02 -0.17488760753E+02 -0.10648874131E+04  0.10650884618E+04  0.00000000000E+00 0. -1.
          1    1    1    2  502    0  0.76944355031E+02  0.93221057747E+02 -0.10316982575E+03  0.15891699822E+03  0.00000000000E+00 0. -1.
         22    1    3    3    0    0 -0.83465307079E+02 -0.10499970674E+03 -0.90899940551E+03  0.91884237773E+03  0.00000000000E+00 0. -1.
         22    1    3    3    0    0 -0.45412474059E+01  0.29267409750E+02 -0.93772262265E+02  0.98338402325E+02  0.00000000000E+00 0. -1.
</event>
<event>
 7    1  0.6370239E-006  0.6545902E+02  0.7818608E-02  0.1445113E+00
          2   -1    0    0  502    0  0.00000000000E+00  0.00000000000E+00  0.13637050520E+04  0.13637050520E+04  0.00000000000E+00 0. -1.
          1   -1    0    0  501    0 -0.00000000000E+00 -0.00000000000E+00 -0.82946526048E+03  0.82946526048E+03  0.00000000000E+00 0. -1.
         25    2    1    2    0    0  0.88850684768E+02  0.50091368937E+02  0.89295724419E+02  0.18439721364E+03  0.12500006628E+03 0.  0.
          2    1    1    2  501    0 -0.60239019573E+02 -0.24695818200E+02 -0.78026022815E+03  0.78297167672E+03  0.00000000000E+00 0. -1.
          1    1    1    2  502    0 -0.28611665195E+02 -0.25395550737E+02  0.12252042953E+04  0.12258014221E+04  0.00000000000E+00 0. -1.
         22    1    3    3    0    0  0.40016201487E+02  0.81103561820E+02  0.17365272143E+02  0.92090372993E+02  0.00000000000E+00 0. -1.
         22    1    3    3    0    0  0.48834483280E+02 -0.31012192883E+02  0.71930452277E+02  0.92306840643E+02  0.00000000000E+00 0. -1.
</event>
<event>
 7    1  0.6370239E-006  0.1344556E+03  0.7818608E-02  0.1275228E+00
          2   -1    0    0  502    0  0.00000000000E+00  0.00000000000E+00  0.77334821988E+03  0.77334821988E+03  0.00000000000E+00 0. -1.
          1   -1    0    0  501    0 -0.00000000000E+00 -0.00000000000E+00 -0.19706176439E+04  0.19706176439E+04  0.00000000000E+00 0. -1.
         25    2    1    2    0    0  0.72248402419E+02 -0.36088552231E+02 -0.19370995306E+03  0.24427666704E+03  0.12500131556E+03 0.  0.
          2    1    1    2  501    0  0.22598719351E+01 -0.78029449458E+02 -0.17445367808E+04  0.17462824175E+04  0.00000000000E+00 0. -1.
          1    1    1    2  502    0 -0.74508274354E+02  0.11411800169E+03  0.74097730987E+03  0.75340677924E+03  0.00000000000E+00 0. -1.
         22    1    3    3    0    0  0.69681896614E+02  0.33808826367E+02 -0.84850898117E+02  0.11488376024E+03  0.00000000000E+00 0.  1.
         22    1    3    3    0    0  0.25665058058E+01 -0.69897378598E+02 -0.10885905495E+03  0.12939290680E+03  0.00000000000E+00 0.  1.
</event>
<event>
 7    1  0.6370239E-006  0.7864024E+02  0.7818608E-02  0.1414001E+00
          2   -1    0    0  502    0  0.00000000000E+00  0.00000000000E+00  0.82227193919E+03  0.82227193919E+03  0.00000000000E+00 0. -1.
          1   -1    0    0  501    0 -0.00000000000E+00 -0.00000000000E+00 -0.33715495338E+03  0.33715495338E+03  0.00000000000E+00 0. -1.
         25    2    1    2    0    0  0.51713173503E+02 -0.71411328889E+02 -0.12569506384E+02  0.15348304416E+03  0.12500088858E+03 0.  0.
          2    1    1    2  501    0 -0.11883092489E+02  0.77685494598E+02 -0.24749467735E+03  0.25967260016E+03  0.00000000000E+00 0. -1.
          1    1    1    2  502    0 -0.39830081015E+02 -0.62741657091E+01  0.74518116954E+03  0.74627124824E+03  0.00000000000E+00 0. -1.
         22    1    3    3    0    0  0.84088774914E+02 -0.57257633533E+02  0.21964047180E+02  0.10407582828E+03  0.00000000000E+00 0. -1.
         22    1    3    3    0    0 -0.32375601410E+02 -0.14153695356E+02 -0.34533553565E+02  0.49407215877E+02  0.00000000000E+00 0. -1.
</event>
<event>
 7    1  0.6370239E-006  0.1717201E+03  0.7818608E-02  0.1302244E+00
          2   -1    0    0  502    0  0.00000000000E+00  0.00000000000E+00  0.10207071580E+04  0.10207071580E+04  0.00000000000E+00 0. -1.
          1   -1    0    0  501    0 -0.00000000000E+00 -0.00000000000E+00 -0.85488513515E+03  0.85488513515E+03  0.00000000000E+00 0. -1.
         25    2    1    2    0    0 -0.14787836177E+03  0.64662108955E+01  0.13264311077E+03  0.23479606018E+03  0.12500069312E+03 0.  0.
          2    1    1    2  501    0 -0.25617667587E+02 -0.39920865549E+02 -0.79376763606E+03  0.79518362688E+03  0.00000000000E+00 0. -1.
          1    1    1    2  502    0  0.17349602935E+03  0.33454654653E+02  0.82694654812E+03  0.84561260609E+03  0.00000000000E+00 0. -1.
         22    1    3    3    0    0 -0.22581935474E+02 -0.51081200928E+02  0.37194870953E+02  0.67102096266E+02  0.00000000000E+00 0. -1.
         22    1    3    3    0    0 -0.12529642629E+03  0.57547411824E+02  0.95448239821E+02  0.16769396392E+03  0.00000000000E+00 0. -1.
</event>
<event>
 7    1  0.6370239E-006  0.1143165E+03  0.7818608E-02  0.1259793E+00
          2   -1    0    0  502    0  0.00000000000E+00  0.00000000000E+00  0.18039443274E+04  0.18039443274E+04  0.00000000000E+00 0. -1.
          1   -1    0    0  501    0 -0.00000000000E+00 -0.00000000000E+00 -0.23424615192E+03  0.23424615192E+03  0.00000000000E+00 0. -1.
         25    2    1    2    0    0  0.86391113054E+02 -0.76408799663E+02  0.51653004521E+03  0.54381029048E+03  0.12499846137E+03 0.  0.
          2    1    1    2  501    0 -0.11247905715E+03 -0.27008726612E+02 -0.20302529211E+03  0.23366702558E+03  0.00000000000E+00 0. -1.
          1    1    1    2  502    0  0.26087944092E+02  0.10341752628E+03  0.12561934224E+04  0.12607131633E+04  0.00000000000E+00 0. -1.
         22    1    3    3    0    0  0.73152865254E+01 -0.48542232120E+02  0.38304929166E+03  0.38618210932E+03  0.00000000000E+00 0. -1.
         22    1    3    3    0    0  0.79075826528E+02 -0.27866567543E+02  0.13348075355E+03  0.15762818116E+03  0.00000000000E+00 0. -1.
</event>
<event>
 7    1  0.6370239E-006  0.2525040E+03  0.7818608E-02  0.1253479E+00
          2   -1    0    0  502    0  0.00000000000E+00  0.00000000000E+00  0.23642619535E+04  0.23642619535E+04  0.00000000000E+00 0. -1.
          1   -1    0    0  501    0 -0.00000000000E+00 -0.00000000000E+00 -0.14031793975E+03  0.14031793975E+03  0.00000000000E+00 0. -1.
         25    2    1    2    0    0 -0.23165794877E+03  0.18206184442E+03  0.60109002869E+03  0.68098846668E+03  0.12499659491E+03 0.  0.
          2    1    1    2  501    0  0.38001076569E+02 -0.34604514649E+02 -0.84538647798E+02  0.98936025926E+02  0.00000000000E+00 0. -1.
          1    1    1    2  502    0  0.19365687221E+03 -0.14745732977E+03  0.17073926328E+04  0.17246554006E+04  0.00000000000E+00 0. -1.
         22    1    3    3    0    0 -0.89189560507E+02  0.51520143798E+02  0.98440872478E+02  0.14247704480E+03  0.00000000000E+00 0.  1.
         22    1    3    3    0    0 -0.14246838827E+03  0.13054170062E+03  0.50264915621E+03  0.53851142188E+03  0.00000000000E+00 0.  1.
</event>
<event>
 7    1  0.6370239E-006  0.9238853E+02  0.7818608E-02  0.1444099E+00
          2   -1    0    0  502    0  0.00000000000E+00  0.00000000000E+00  0.69845029561E+03  0.69845029561E+03  0.00000000000E+00 0. -1.
          1   -1    0    0  501    0 -0.00000000000E+00 -0.00000000000E+00 -0.10671972857E+03  0.10671972857E+03  0.00000000000E+00 0. -1.
         25    2    1    2    0    0 -0.11325255883E+03 -0.17406435769E+02  0.17906522804E+03  0.24661576828E+03  0.12500342069E+03 0.  0.
          2    1    1    2  501    0  0.86545803024E+02  0.23116136623E+02 -0.44880719444E+02  0.10019386594E+03  0.00000000000E+00 0. -1.
          1    1    1    2  502    0  0.26706755802E+02 -0.57097008543E+01  0.45754605845E+03  0.45836038997E+03  0.00000000000E+00 0. -1.
         22    1    3    3    0    0 -0.11292114798E+03 -0.57229864921E+02  0.15482807943E+03  0.19999544314E+03  0.00000000000E+00 0. -1.
         22    1    3    3    0    0 -0.33141085067E+00  0.39823429153E+02  0.24237148608E+02  0.46620325131E+02  0.00000000000E+00 0. -1.
</event>
<event>
 7    1  0.6370239E-006  0.1235270E+03  0.7818608E-02  0.1412802E+00
          2   -1    0    0  502    0  0.00000000000E+00  0.00000000000E+00  0.17756821396E+03  0.17756821396E+03  0.00000000000E+00 0. -1.
          1   -1    0    0  501    0 -0.00000000000E+00 -0.00000000000E+00 -0.15799008677E+04  0.15799008677E+04  0.00000000000E+00 0. -1.
         25    2    1    2    0    0 -0.89840087133E+02  0.43393019225E+02  0.39992920106E+02  0.16485945746E+03  0.12500004673E+03 0.  0.
          2    1    1    2  501    0  0.11570359796E+03 -0.44938892000E+02 -0.15126138004E+04  0.15176980384E+04  0.00000000000E+00 0. -1.
          1    1    1    2  502    0 -0.25863510828E+02  0.15458727749E+01  0.70288226484E+02  0.74911585868E+02  0.00000000000E+00 0. -1.
         22    1    3    3    0    0 -0.82048370428E+02  0.42864024924E+02  0.81067164876E+02  0.12304935979E+03  0.00000000000E+00 0. -1.
         22    1    3    3    0    0 -0.77917167051E+01  0.52899430095E+00 -0.41074244770E+02  0.41810097675E+02  0.00000000000E+00 0. -1.
</event>
<event>
 7    1  0.6370239E-006  0.6998523E+02  0.7818608E-02  0.1451928E+00
          2   -1    0    0  502    0  0.00000000000E+00  0.00000000000E+00  0.28570606819E+03  0.28570606819E+03  0.00000000000E+00 0. -1.
          1   -1    0    0  501    0 -0.00000000000E+00 -0.00000000000E+00 -0.84991401433E+03  0.84991401433E+03  0.00000000000E+00 0. -1.
         25    2    1    2    0    0  0.96406181716E+02  0.21986130796E+02 -0.20527200467E+03  0.25988412586E+03  0.12500248458E+03 0.  0.
          2    1    1    2  501    0 -0.62690607859E+02 -0.26576254961E+02 -0.61432653767E+03  0.61808858954E+03  0.00000000000E+00 0. -1.
          1    1    1    2  502    0 -0.33715573857E+02  0.45901241641E+01  0.25539059619E+03  0.25764736712E+03  0.00000000000E+00 0. -1.
         22    1    3    3    0    0  0.32571746742E+02 -0.60086392485E+00 -0.18690747027E+03  0.18972528078E+03  0.00000000000E+00 0.  1.
         22    1    3    3    0    0  0.63834434973E+02  0.22586994721E+02 -0.18364534399E+02  0.70158845078E+02  0.00000000000E+00 0.  1.
</event>
<event>
 7    1  0.6370239E-006  0.8210680E+02  0.7818608E-02  0.1428053E+00
          2   -1    0    0  502    0  0.00000000000E+00  0.00000000000E+00  0.44650337367E+03  0.44650337367E+03  0.00000000000E+00 0. -1.
          1   -1    0    0  501    0 -0.00000000000E+00 -0.00000000000E+00 -0.48764631049E+03  0.48764631049E+03  0.00000000000E+00 0. -1.
         25    2    1    2    0    0 -0.23751120646E+02 -0.84089743772E+02 -0.34557242798E+02  0.15636564136E+03  0.12498323899E+03 0.  0.
          2    1    1    2  501    0 -0.28086676205E+02  0.20323692196E+02 -0.38702279555E+03  0.38857246186E+03  0.00000000000E+00 0. -1.
          1    1    1    2  502    0  0.51837796850E+02  0.63766051576E+02  0.38043710153E+03  0.38921158093E+03  0.00000000000E+00 0. -1.
         22    1    3    3    0    0  0.10859719422E+02 -0.43665189344E+02 -0.76402294980E+02  0.88667316101E+02  0.00000000000E+00 0.  1.
         22    1    3    3    0    0 -0.34610840068E+02 -0.40424554429E+02  0.41845052182E+02  0.67698325261E+02  0.00000000000E+00 0.  1.
</event>
<event>
 7    1  0.6370239E-006  0.1021173E+03  0.7818608E-02  0.1352879E+00
          2   -1    0    0  502    0  0.00000000000E+00  0.00000000000E+00  0.40166557722E+03  0.40166557722E+03  0.00000000000E+00 0. -1.
          1   -1    0    0  501    0 -0.00000000000E+00 -0.00000000000E+00 -0.22691441522E+03  0.22691441522E+03  0.00000000000E+00 0. -1.
         25    2    1    2    0    0 -0.25855201823E+02  0.89746439274E+02  0.29390612583E+02  0.15878667590E+03  0.12500594191E+03 0.  0.
          2    1    1    2  501    0  0.49476211483E+02  0.12370667343E+02 -0.14891666640E+03  0.15740744088E+03  0.00000000000E+00 0. -1.
          1    1    1    2  502    0 -0.23621009660E+02 -0.10211710662E+03  0.29427721581E+03  0.31238587565E+03  0.00000000000E+00 0. -1.
         22    1    3    3    0    0  0.69662056483E+01 -0.14681974250E+02 -0.30095561627E+02  0.34202795480E+02  0.00000000000E+00 0.  1.
         22    1    3    3    0    0 -0.32821407471E+02  0.10442841352E+03  0.59486174209E+02  0.12458388042E+03  0.00000000000E+00 0.  1.
</event>
<event>
 7    1  0.6370239E-006  0.1289948E+03  0.7818608E-02  0.1281825E+00
          2   -1    0    0  502    0  0.00000000000E+00  0.00000000000E+00  0.38142378134E+04  0.38142378134E+04  0.00000000000E+00 0. -1.
          1   -1    0    0  501    0 -0.00000000000E+00 -0.00000000000E+00 -0.92444613708E+03  0.92444613708E+03  0.00000000000E+00 0. -1.
         25    2    1    2    0    0 -0.22430357069E+02  0.20209174511E+03  0.14660241772E+03  0.28010966407E+03  0.12499984265E+03 0.  0.
          2    1    1    2  501    0  0.77088606890E+01 -0.12711878672E+03 -0.85255705160E+03  0.86201632159E+03  0.00000000000E+00 0. -1.
          1    1    1    2  502    0  0.14721496380E+02 -0.74972958393E+02  0.35957463102E+04  0.35965579648E+04  0.00000000000E+00 0. -1.
         22    1    3    3    0    0 -0.74440404036E+02  0.10842740260E+03  0.78770896426E+02  0.15330599959E+03  0.00000000000E+00 0. -1.
         22    1    3    3    0    0  0.52010046967E+02  0.93664342509E+02  0.67831521290E+02  0.12680366447E+03  0.00000000000E+00 0. -1.
</event>
<event>
 7    1  0.6370239E-006  0.5150252E+02  0.7818608E-02  0.1453903E+00
          2   -1    0    0  502    0  0.00000000000E+00  0.00000000000E+00  0.47684912818E+03  0.47684912818E+03  0.00000000000E+00 0. -1.
          1   -1    0    0  501    0 -0.00000000000E+00 -0.00000000000E+00 -0.44703106810E+02  0.44703106810E+02  0.00000000000E+00 0. -1.
         25    2    1    2    0    0  0.25466297837E+01  0.38191530707E+02  0.11138652235E+03  0.17174765159E+03  0.12500088049E+03 0.  0.
          2    1    1    2  501    0  0.48259551972E+02 -0.29751046818E+02  0.54607253881E+02  0.78715064122E+02  0.00000000000E+00 0. -1.
          1    1    1    2  502    0 -0.50806181756E+02 -0.84404838891E+01  0.26615224514E+03  0.27108951928E+03  0.00000000000E+00 0. -1.
         22    1    3    3    0    0  0.18211744859E+02  0.60840024763E+02  0.12561107407E+03  0.14075268450E+03  0.00000000000E+00 0.  1.
         22    1    3    3    0    0 -0.15665115075E+02 -0.22648494056E+02 -0.14224551718E+02  0.30994967090E+02  0.00000000000E+00 0.  1.
</event>
<event>
 7    1  0.6370239E-006  0.5963873E+02  0.7818608E-02  0.1480785E+00
          2   -1    0    0  502    0  0.00000000000E+00  0.00000000000E+00  0.18014912621E+03  0.18014912621E+03  0.00000000000E+00 0. -1.
          1   -1    0    0  501    0 -0.00000000000E+00 -0.00000000000E+00 -0.17402347586E+03  0.17402347586E+03  0.00000000000E+00 0. -1.
         25    2    1    2    0    0 -0.54393907232E+02 -0.58378630127E+02  0.77786720043E+02  0.16746916557E+03  0.12501354327E+03 0.  0.
          2    1    1    2  501    0  0.31102408244E+02  0.92149047783E+01 -0.11351843139E+03  0.11806230784E+03  0.00000000000E+00 0. -1.
          1    1    1    2  502    0  0.23291498988E+02  0.49163725348E+02  0.41857361695E+02  0.68641128657E+02  0.00000000000E+00 0. -1.
         22    1    3    3    0    0  0.12891855203E+02  0.18736235069E+02  0.59244754035E+02  0.63460123825E+02  0.00000000000E+00 0.  1.
         22    1    3    3    0    0 -0.67285762434E+02 -0.77114865196E+02  0.18541966008E+02  0.10400904174E+03  0.00000000000E+00 0.  1.
</event>
<event>
 7    1  0.6370239E-006  0.1055876E+03  0.7818608E-02  0.1394742E+00
          2   -1    0    0  502    0  0.00000000000E+00  0.00000000000E+00  0.11905310547E+04  0.11905310547E+04  0.00000000000E+00 0. -1.
          1   -1    0    0  501    0 -0.00000000000E+00 -0.00000000000E+00 -0.80923555805E+03  0.80923555805E+03  0.00000000000E+00 0. -1.
         25    2    1    2    0    0 -0.12998592109E+03 -0.95477863983E+01  0.55301972673E+03  0.58175832944E+03  0.12499774328E+03 0.  0.
          2    1    1    2  501    0  0.10125871371E+03  0.29443061483E+02 -0.79087392148E+03  0.79787328609E+03  0.00000000000E+00 0. -1.
          1    1    1    2  502    0  0.28727207372E+02 -0.19895275085E+02  0.61914969139E+03  0.62013499721E+03  0.00000000000E+00 0. -1.
         22    1    3    3    0    0 -0.42121594410E+02 -0.61944707912E+02  0.18000824356E+03  0.19497267323E+03  0.00000000000E+00 0. -1.
         22    1    3    3    0    0 -0.87864326675E+02  0.52396921514E+02  0.37301148316E+03  0.38678565622E+03  0.00000000000E+00 0. -1.
</event>
<event>
 7    1  0.6370239E-006  0.5363974E+02  0.7818608E-02  0.1440372E+00
          2   -1    0    0  502    0  0.00000000000E+00  0.00000000000E+00  0.18850167385E+04  0.18850167385E+04  0.00000000000E+00 0. -1.
          1   -1    0    0  501    0 -0.00000000000E+00 -0.00000000000E+00 -0.22056213928E+03  0.22056213928E+03  0.00000000000E+00 0. -1.
         25    2    1    2    0    0  0.42882473195E+02 -0.15141578611E+02 -0.11895376865E+03  0.17844585918E+03  0.12499900668E+03 0.  0.
          2    1    1    2  501    0 -0.66743679697E+00  0.48358502950E+02 -0.63290265467E+02  0.79653298628E+02  0.00000000000E+00 0. -1.
          1    1    1    2  502    0 -0.42215036398E+02 -0.33216924339E+02  0.18466986333E+04  0.18474797199E+04  0.00000000000E+00 0. -1.
         22    1    3    3    0    0  0.83826884261E+02 -0.11622724102E+02 -0.50346910441E+02  0.98472562836E+02  0.00000000000E+00 0. -1.
         22    1    3    3    0    0 -0.40944411066E+02 -0.35188545085E+01 -0.68606858210E+02  0.79973296343E+02  0.00000000000E+00 0. -1.
</event>
<event>
 7    1  0.6370239E-006  0.7204569E+02  0.7818608E-02  0.1372385E+00
          2   -1    0    0  502    0  0.00000000000E+00  0.00000000000E+00  0.17935094801E+04  0.17935094801E+04  0.00000000000E+00 0. -1.
          1   -1    0    0  501    0 -0.00000000000E+00 -0.00000000000E+00 -0.56082582763E+02  0.56082582763E+02  0.00000000000E+00 0. -1.
         25    2    1    2    0    0 -0.33149580156E+02 -0.28715117230E+02  0.33301937916E+03  0.35840160736E+03  0.12500541044E+03 0.  0.
          2    1    1    2  501    0 -0.56437877068E+01  0.76303987562E+02 -0.84697549549E+01  0.76979787000E+02  0.00000000000E+00 0. -1.
          1    1    1    2  502    0  0.38793367863E+02 -0.47588870332E+02  0.14128772731E+04  0.14142106685E+04  0.00000000000E+00 0. -1.
         22    1    3    3    0    0 -0.65146253027E+02 -0.83597425871E+01  0.30299556940E+03  0.31003263482E+03  0.00000000000E+00 0.  1.
         22    1    3    3    0    0  0.31996672871E+02 -0.20355374643E+02  0.30023809756E+02  0.48368972533E+02  0.00000000000E+00 0.  1.
</event>
<event>
 7    1  0.6370239E-006  0.5859754E+02  0.7818608E-02  0.1531487E+00
          2   -1    0    0  502    0  0.00000000000E+00  0.00000000000E+00  0.18553830120E+02  0.18553830120E+02  0.00000000000E+00 0. -1.
          1   -1    0    0  501    0 -0.00000000000E+00 -0.00000000000E+00 -0.18298451733E+04  0.18298451733E+04  0.00000000000E+00 0. -1.
         25    2    1    2    0    0 -0.44016459247E+02 -0.55867825695E+02 -0.15294819275E+04  0.15362287538E+04  0.12500061968E+03 0.  0.
          2    1    1    2  501    0 -0.40719370565E+01  0.23011068721E+02 -0.23837125167E+03  0.23951397366E+03  0.00000000000E+00 0. -1.
          1    1    1    2  502    0  0.48088396304E+02  0.32856756974E+02 -0.43438163988E+02  0.72656275906E+02  0.00000000000E+00 0. -1.
         22    1    3    3    0    0  0.15116861833E+02 -0.78545012227E+02 -0.78944350496E+03  0.79348527774E+03  0.00000000000E+00 0.  1.
         22    1    3    3    0    0 -0.59133321080E+02  0.22677186532E+02 -0.74003842252E+03  0.74274347608E+03  0.00000000000E+00 0.  1.
</event>
<event>
 7    1  0.6370239E-006  0.9888251E+02  0.7818608E-02  0.1310077E+00
          2   -1    0    0  502    0  0.00000000000E+00  0.00000000000E+00  0.16389898199E+04  0.16389898199E+04  0.00000000000E+00 0. -1.
          1   -1    0    0  501    0 -0.00000000000E+00 -0.00000000000E+00 -0.69526534692E+02  0.69526534692E+02  0.00000000000E+00 0. -1.
         25    2    1    2    0    0  0.59246085390E+02  0.55423771184E+02  0.24404217228E+03  0.28594368808E+03  0.12500127140E+03 0.  0.
          2    1    1    2  501    0 -0.31799029735E+01 -0.10774729176E+03  0.13756907485E+02  0.10866850127E+03  0.00000000000E+00 0. -1.
          1    1    1    2  502    0 -0.56066182417E+02  0.52323520577E+02  0.13116642054E+04  0.13139041652E+04  0.00000000000E+00 0. -1.
         22    1    3    3    0    0  0.37667463611E+02 -0.35296942988E+02  0.56716598248E+02  0.76690837236E+02  0.00000000000E+00 0.  1.
         22    1    3    3    0    0  0.21578621779E+02  0.90720714172E+02  0.18732557404E+03  0.20925285084E+03  0.00000000000E+00 0.  1.
</event>
<event>
 7    1  0.6370239E-006  0.3852085E+02  0.7818608E-02  0.1620142E+00
          2   -1    0    0  502    0  0.00000000000E+00  0.00000000000E+00  0.53511471830E+03  0.53511471830E+03  0.00000000000E+00 0. -1.
          1   -1    0    0  501    0 -0.00000000000E+00 -0.00000000000E+00 -0.50707663078E+03  0.50707663078E+03  0.00000000000E+00 0. -1.
         25    2    1    2    0    0  0.57632633777E+01  0.34342781655E+02  0.57671626311E+02  0.14199974029E+03  0.12500107161E+03 0.  0.
          2    1    1    2  501    0 -0.20439699826E+02  0.14677654192E+01 -0.46382564451E+03  0.46427811080E+03  0.00000000000E+00 0. -1.
          1    1    1    2  502    0  0.14676436448E+02 -0.35810547074E+02  0.43419210572E+03  0.43591349800E+03  0.00000000000E+00 0. -1.
         22    1    3    3    0    0  0.14027277907E+02  0.25239720212E+02  0.96784390901E+02  0.10100013032E+03  0.00000000000E+00 0.  1.
         22    1    3    3    0    0 -0.82640145295E+01  0.91030614434E+01 -0.39112764590E+02  0.40999609970E+02  0.00000000000E+00 0.  1.
</event>
<event>
 7    1  0.7627109E-006  0.1213020E+03  0.7818608E-02  0.1386928E+00
          2   -1    0    0  502    0  0.00000000000E+00  0.00000000000E+00  0.76135091581E+03  0.76135091581E+03  0.00000000000E+00 0. -1.
          1   -1    0    0  501    0 -0.00000000000E+00 -0.00000000000E+00 -0.11188199237E+04  0.11188199237E+04  0.00000000000E+00 0. -1.
         25    2    1    2    0    0  0.13202822179E+03 -0.13608720226E+02 -0.33985946850E+03  0.38567860319E+03  0.12500751185E+03 0.  0.
          2    1    1    2  501    0 -0.17846389078E+02 -0.27024734257E+02 -0.75072659813E+03  0.75142481660E+03  0.00000000000E+00 0. -1.
          1    1    1    2  502    0 -0.11418183272E+03  0.40633454483E+02  0.73311705870E+03  0.74306741976E+03  0.00000000000E+00 0. -1.
         22    1    3    3    0    0 -0.10059511625E+01  0.14080009758E+02  0.50300162761E+01  0.14985315354E+02  0.00000000000E+00 0.  1.
         22    1    3    3    0    0  0.13303417296E+03 -0.27688729984E+02 -0.34488948477E+03  0.37069328784E+03  0.00000000000E+00 0.  1.
</event>
<event>
 7    1  0.6370239E-006  0.1172281E+03  0.7818608E-02  0.1262150E+00
          2   -1    0    0  502    0  0.00000000000E+00  0.00000000000E+00  0.90168042540E+03  0.90168042540E+03  0.00000000000E+00 0. -1.
          1   -1    0    0  501    0 -0.00000000000E+00 -0.00000000000E+00 -0.22894933527E+04  0.22894933527E+04  0.00000000000E+00 0. -1.
         25    2    1    2    0    0  0.71363558211E+01 -0.14299239292E+02 -0.10152712360E+04  0.10230621502E+04  0.12500033906E+03 0.  0.
          2    1    1    2  501    0  0.46257324516E+02 -0.90493897248E+02 -0.12644271359E+04  0.12685049734E+04  0.00000000000E+00 0. -1.
          1    1    1    2  502    0 -0.53393680337E+02  0.10479313654E+03  0.89188544458E+03  0.89960665450E+03  0.00000000000E+00 0. -1.
         22    1    3    3    0    0 -0.43674828113E+02 -0.39929575873E+02 -0.71506218708E+03  0.71750665017E+03  0.00000000000E+00 0. -1.
         22    1    3    3    0    0  0.50811183934E+02  0.25630336581E+02 -0.30020904887E+03  0.30555550001E+03  0.00000000000E+00 0. -1.
</event>
<event>
 7    1  0.6370239E-006  0.5454472E+02  0.7818608E-02  0.1442890E+00
          2   -1    0    0  502    0  0.00000000000E+00  0.00000000000E+00  0.11689965983E+04  0.11689965983E+04  0.00000000000E+00 0. -1.
          1   -1    0    0  501    0 -0.00000000000E+00 -0.00000000000E+00 -0.18785275743E+02  0.18785275743E+02  0.00000000000E+00 0. -1.
         25    2    1    2    0    0  0.23198593366E+02 -0.42319893572E+02  0.82008257837E+03  0.83095715853E+03  0.12500086334E+03 0.  0.
          2    1    1    2  501    0  0.39920634776E+02  0.24187091814E+02  0.47228068670E+02  0.66401528308E+02  0.00000000000E+00 0. -1.
          1    1    1    2  502    0 -0.63119228142E+02  0.18132801758E+02  0.28290067554E+03  0.29042318723E+03  0.00000000000E+00 0. -1.
         22    1    3    3    0    0 -0.25051341478E+01 -0.43505817477E+02  0.79070218629E+03  0.79190212733E+03  0.00000000000E+00 0. -1.
         22    1    3    3    0    0  0.25703727514E+02  0.11859239050E+01  0.29380392073E+02  0.39055031200E+02  0.00000000000E+00 0. -1.
</event>
<event>
 7    1  0.6370239E-006  0.5352912E+02  0.7818608E-02  0.1451752E+00
          2   -1    0    0  502    0  0.00000000000E+00  0.00000000000E+00  0.35062359775E+03  0.35062359775E+03  0.00000000000E+00 0. -1.
          1   -1    0    0  501    0 -0.00000000000E+00 -0.00000000000E+00 -0.21493774717E+03  0.21493774717E+03  0.00000000000E+00 0. -1.
         25    2    1    2    0    0  0.30291932452E+02  0.92178443920E+02  0.12956018262E+03  0.20451637763E+03  0.12500656424E+03 0.  0.
          2    1    1    2  501    0 -0.15480284057E+02 -0.50168181164E+02 -0.17075359999E+03  0.17864287701E+03  0.00000000000E+00 0. -1.
          1    1    1    2  502    0 -0.14811648395E+02 -0.42010262756E+02  0.17687926796E+03  0.18240209028E+03  0.00000000000E+00 0. -1.
         22    1    3    3    0    0 -0.23079304348E+01 -0.30672871998E+02  0.19808085301E+02  0.36585678384E+02  0.00000000000E+00 0.  1.
         22    1    3    3    0    0  0.32599862887E+02  0.12285131592E+03  0.10975209732E+03  0.16793069925E+03  0.00000000000E+00 0.  1.
</event>
<event>
 7    1  0.6370239E-006  0.9821846E+02  0.7818608E-02  0.1296326E+00
          2   -1    0    0  502    0  0.00000000000E+00  0.00000000000E+00  0.14412140167E+03  0.14412140167E+03  0.00000000000E+00 0. -1.
          1   -1    0    0  501    0 -0.00000000000E+00 -0.00000000000E+00 -0.42198518220E+03  0.42198518220E+03  0.00000000000E+00 0. -1.
         25    2    1    2    0    0  0.78683893052E+02  0.45613194769E+02 -0.32670505009E+03  0.36143115496E+03  0.12499828583E+03 0.  0.
          2    1    1    2  501    0  0.17497864925E+02 -0.85819977477E+02  0.49137206975E+02  0.10042763026E+03  0.00000000000E+00 0. -1.
          1    1    1    2  502    0 -0.96181757977E+02  0.40206782708E+02 -0.29593741760E+00  0.10424779864E+03  0.00000000000E+00 0. -1.
         22    1    3    3    0    0  0.10246023408E+03  0.66167294527E+02 -0.24017430482E+03  0.26936946213E+03  0.00000000000E+00 0. -1.
         22    1    3    3    0    0 -0.23776341031E+02 -0.20554099758E+02 -0.86530745269E+02  0.92061692829E+02  0.00000000000E+00 0. -1.
</event>
<event>
 7    1  0.6370239E-006  0.2302366E+03  0.7818608E-02  0.1288252E+00
          2   -1    0    0  502    0  0.00000000000E+00  0.00000000000E+00  0.38405863497E+04  0.38405863497E+04  0.00000000000E+00 0. -1.
          1   -1    0    0  501    0 -0.00000000000E+00 -0.00000000000E+00 -0.32597588127E+03  0.32597588127E+03  0.00000000000E+00 0. -1.
         25    2    1    2    0    0 -0.29709125313E+02  0.24938681948E+03  0.25426442779E+03  0.37861851706E+03  0.12500065745E+03 0.  0.
          2    1    1    2  501    0 -0.29040372106E+02 -0.27923782021E+02 -0.25851284908E+03  0.26163328143E+03  0.00000000000E+00 0. -1.
          1    1    1    2  502    0  0.58749497419E+02 -0.22146303746E+03  0.35188588898E+04  0.35263104325E+04  0.00000000000E+00 0. -1.
         22    1    3    3    0    0 -0.22615271441E+02  0.26223986397E+03  0.22667121525E+03  0.34736297525E+03  0.00000000000E+00 0.  1.
         22    1    3    3    0    0 -0.70938538714E+01 -0.12853044483E+02  0.27593212540E+02  0.31255541804E+02  0.00000000000E+00 0.  1.
</event>
<event>
 7    1  0.6370239E-006  0.1020107E+03  0.7818608E-02  0.1367703E+00
          2   -1    0    0  502    0  0.00000000000E+00  0.00000000000E+00  0.23944202548E+04  0.23944202548E+04  0.00000000000E+00 0. -1.
          1   -1    0    0  501    0 -0.00000000000E+00 -0.00000000000E+00 -0.35673026134E+03  0.35673026134E+03  0.00000000000E+00 0. -1.
         25    2    1    2    0    0  0.70096263474E+02  0.23646856748E+02 -0.11361063945E+03  0.18439731830E+03  0.12498933399E+03 0.  0.
          2    1    1    2  501    0 -0.11425128003E+03 -0.14584392389E+02 -0.19152701949E+03  0.22349196559E+03  0.00000000000E+00 0. -1.
          1    1    1    2  502    0  0.44155016558E+02 -0.90624643587E+01  0.23428276524E+04  0.23432612323E+04  0.00000000000E+00 0. -1.
         22    1    3    3    0    0  0.10200583563E+03  0.27171249008E+02 -0.10938813239E+03  0.15201720555E+03  0.00000000000E+00 0. -1.
         22    1    3    3    0    0 -0.31909572155E+02 -0.35243922603E+01 -0.42225070637E+01  0.32380112752E+02  0.00000000000E+00 0. -1.
</event>
<event>
 7    1  0.6370239E-006  0.7352139E+02  0.7818608E-02  0.1405189E+00
          2   -1    0    0  502    0  0.00000000000E+00  0.00000000000E+00  0.18196974617E+04  0.18196974617E+04  0.00000000000E+00 0. -1.
          1   -1    0    0  501    0 -0.00000000000E+00 -0.00000000000E+00 -0.27319808791E+03  0.27319808791E+03  0.00000000000E+00 0. -1.
         25    2    1    2    0    0 -0.34169138339E+02  0.33048777619E+02 -0.10142702798E+03  0.16784449215E+03  0.12499831928E+03 0.  0.
          2    1    1    2  501    0  0.80166362233E+02 -0.28722578929E+02 -0.12514924901E+03  0.15137359975E+03  0.00000000000E+00 0. -1.
          1    1    1    2  502    0 -0.45997223895E+02 -0.43261986894E+01  0.17730756508E+04  0.17736774577E+04  0.00000000000E+00 0. -1.
         22    1    3    3    0    0  0.69598912929E+01 -0.45093596703E+01  0.26794389218E+02  0.28048417157E+02  0.00000000000E+00 0. -1.
         22    1    3    3    0    0 -0.41129029631E+02  0.37558137289E+02 -0.12822141720E+03  0.13979607499E+03  0.00000000000E+00 0. -1.
</event>
<event>
 7    1  0.6370239E-006  0.9326765E+02  0.7818608E-02  0.1410981E+00
          2   -1    0    0  502    0  0.00000000000E+00  0.00000000000E+00  0.32809909781E+03  0.32809909781E+03  0.00000000000E+00 0. -1.
          1   -1    0    0  501    0 -0.00000000000E+00 -0.00000000000E+00 -0.13636707749E+03  0.13636707749E+03  0.00000000000E+00 0. -1.
         25    2    1    2    0    0  0.65023623547E+02 -0.10367104089E+03  0.21654667099E+03  0.27837633299E+03  0.12500066287E+03 0.  0.
          2    1    1    2  501    0 -0.36955498717E+02  0.83089889663E+02 -0.79818800662E+02  0.12099867598E+03  0.00000000000E+00 0. -1.
          1    1    1    2  502    0 -0.28068124831E+02  0.20581151223E+02  0.55004149990E+02  0.65091166323E+02  0.00000000000E+00 0. -1.
         22    1    3    3    0    0  0.81600479888E+02 -0.12311827988E+03  0.19690090161E+03  0.24614368612E+03  0.00000000000E+00 0. -1.
         22    1    3    3    0    0 -0.16576856341E+02  0.19447238991E+02  0.19645769374E+02  0.32232646879E+02  0.00000000000E+00 0. -1.
</event>
<event>
 7    1  0.6370239E-006  0.2739336E+02  0.7818608E-02  0.1650323E+00
          2   -1    0    0  502    0  0.00000000000E+00  0.00000000000E+00  0.39861242670E+03  0.39861242670E+03  0.00000000000E+00 0. -1.
          1   -1    0    0  501    0 -0.00000000000E+00 -0.00000000000E+00 -0.87106004044E+02  0.87106004044E+02  0.00000000000E+00 0. -1.
         25    2    1    2    0    0 -0.35876461284E+01 -0.14386408148E+02  0.28324893896E+03  0.30995739351E+03  0.12499513759E+03 0.  0.
          2    1    1    2  501    0  0.22150243048E+02 -0.98055471993E+01 -0.69372383486E+02  0.73479994648E+02  0.00000000000E+00 0. -1.
          1    1    1    2  502    0 -0.18562596920E+02  0.24191955347E+02  0.97629867174E+02  0.10228104259E+03  0.00000000000E+00 0. -1.
         22    1    3    3    0    0  0.18193060200E+02 -0.30507480854E+02  0.28047810960E+03  0.28271834711E+03  0.00000000000E+00 0.  1.
         22    1    3    3    0    0 -0.21780706329E+02  0.16121072706E+02  0.27708293652E+01  0.27239046399E+02  0.00000000000E+00 0.  1.
</event>
<event>
 7    1  0.6370239E-006  0.8748478E+02  0.7818608E-02  0.1431670E+00
          2   -1    0    0  502    0  0.00000000000E+00  0.00000000000E+00  0.68845733567E+03  0.68845733567E+03  0.00000000000E+00 0. -1.
          1   -1    0    0  501    0 -0.00000000000E+00 -0.00000000000E+00 -0.61231294337E+02  0.61231294337E+02  0.00000000000E+00 0. -1.
         25    2    1    2    0    0  0.90022471187E+02  0.53357632260E+01  0.42715198705E+03  0.45410583069E+03  0.12498307782E+03 0.  0.
          2    1    1    2  501    0 -0.95219230021E+01  0.30191255878E+02 -0.33435570936E+02  0.46044721228E+02  0.00000000000E+00 0. -1.
          1    1    1    2  502    0 -0.80500548185E+02 -0.35527019104E+02  0.23350962523E+03  0.24953807809E+03  0.00000000000E+00 0. -1.
         22    1    3    3    0    0  0.14426406723E+02 -0.53723698142E+00 -0.50567905772E+01  0.15296436364E+02  0.00000000000E+00 0.  1.
         22    1    3    3    0    0  0.75596064465E+02  0.58730002074E+01  0.43220877762E+03  0.43880939433E+03  0.00000000000E+00 0.  1.
</event>
<event>
 7    1  0.6370239E-006  0.5449060E+02  0.7818608E-02  0.1450891E+00
          2   -1    0    0  502    0  0.00000000000E+00  0.00000000000E+00  0.16195008119E+03  0.16195008119E+03  0.00000000000E+00 0. -1.
          1   -1    0    0  501    0 -0.00000000000E+00 -0.00000000000E+00 -0.17719841831E+04  0.17719841831E+04  0.00000000000E+00 0. -1.
         25    2    1    2    0    0  0.36074770073E+02  0.53888615014E+02 -0.26218693181E+03  0.29761105545E+03  0.12499992499E+03 0.  0.
          2    1    1    2  501    0  0.79617198115E+01 -0.54076237723E+02 -0.14882105500E+04  0.14892139771E+04  0.00000000000E+00 0. -1.
          1    1    1    2  502    0 -0.44036489885E+02  0.18762270901E+00  0.14036337990E+03  0.14710923174E+03  0.00000000000E+00 0. -1.
         22    1    3    3    0    0 -0.12984471479E+02 -0.35300645316E+02 -0.90682938668E+02  0.98173965107E+02  0.00000000000E+00 0.  1.
         22    1    3    3    0    0  0.49059241552E+02  0.89189260330E+02 -0.17150399314E+03  0.19943709034E+03  0.00000000000E+00 0.  1.
</event>
<event>
 7    1  0.6370239E-006  0.1391487E+03  0.7818608E-02  0.1275481E+00
          2   -1    0    0  502    0  0.00000000000E+00  0.00000000000E+00  0.19291204453E+04  0.19291204453E+04  0.00000000000E+00 0. -1.
          1   -1    0    0  501    0 -0.00000000000E+00 -0.00000000000E+00 -0.20384596571E+04  0.20384596571E+04  0.00000000000E+00 0. -1.
         25    2    1    2    0    0 -0.13144027772E+03  0.13504383045E+02  0.69980584158E+03  0.72305738977E+03  0.12499943206E+03 0.  0.
          2    1    1    2  501    0  0.13176911676E+02  0.74083535813E+02 -0.20216848983E+04  0.20230847311E+04  0.00000000000E+00 0. -1.
          1    1    1    2  502    0  0.11826336604E+03 -0.87587918858E+02  0.12125398449E+04  0.12214379815E+04  0.00000000000E+00 0. -1.
         22    1    3    3    0    0  0.20015331851E+01 -0.57368225661E+01  0.31955342594E+03  0.31961118456E+03  0.00000000000E+00 0.  1.
         22    1    3    3    0    0 -0.13344181091E+03  0.19241205612E+02  0.38025241564E+03  0.40344620520E+03  0.00000000000E+00 0.  1.
</event>
<event>
 7    1  0.6370239E-006  0.8731397E+02  0.7818608E-02  0.1385765E+00
          2   -1    0    0  502    0  0.00000000000E+00  0.00000000000E+00  0.16234534582E+04  0.16234534582E+04  0.00000000000E+00 0. -1.
          1   -1    0    0  501    0 -0.00000000000E+00 -0.00000000000E+00 -0.33881730728E+03  0.33881730728E+03  0.00000000000E+00 0. -1.
         25    2    1    2    0    0  0.21195799380E+01 -0.12598090765E+03 -0.64851127507E+02  0.18896031580E+03  0.12499860199E+03 0.  0.
          2    1    1    2  501    0 -0.11691418373E+02  0.81584118511E+02 -0.20355349036E+03  0.21960574012E+03  0.00000000000E+00 0. -1.
          1    1    1    2  502    0  0.95718384355E+01  0.44396789138E+02  0.15530407687E+04  0.15537047095E+04  0.00000000000E+00 0. -1.
         22    1    3    3    0    0 -0.50859858620E+02 -0.10421785775E+03 -0.23513537439E+02  0.11832570953E+03  0.00000000000E+00 0. -1.
         22    1    3    3    0    0  0.52979438558E+02 -0.21763049900E+02 -0.41337590067E+02  0.70634606274E+02  0.00000000000E+00 0. -1.
</event>
<event>
 7    1  0.6370239E-006  0.1847430E+03  0.7818608E-02  0.1245263E+00
          2   -1    0    0  502    0  0.00000000000E+00  0.00000000000E+00  0.23903702490E+04  0.23903702490E+04  0.00000000000E+00 0. -1.
          1   -1    0    0  501    0 -0.00000000000E+00 -0.00000000000E+00 -0.87856149834E+03  0.87856149834E+03  0.00000000000E+00 0. -1.
         25    2    1    2    0    0  0.28153773210E+02 -0.18425932993E+03 -0.83184870136E+02  0.23935377327E+03  0.12500548208E+03 0.  0.
          2    1    1    2  501    0  0.48006352626E+02  0.18031276561E+03 -0.70451436464E+03  0.72880573085E+03  0.00000000000E+00 0. -1.
          1    1    1    2  502    0 -0.76160125836E+02  0.39465643145E+01  0.22995079854E+04  0.23007722432E+04  0.00000000000E+00 0. -1.
         22    1    3    3    0    0  0.42098195939E+01 -0.10738405229E+03 -0.11068117199E+03  0.15427047384E+03  0.00000000000E+00 0.  1.
         22    1    3    3    0    0  0.23943953616E+02 -0.76875277635E+02  0.27496301850E+02  0.85083299429E+02  0.00000000000E+00 0.  1.
</event>
<event>
 7    1  0.6370239E-006  0.1467120E+03  0.7818608E-02  0.1315975E+00
          2   -1    0    0  502    0  0.00000000000E+00  0.00000000000E+00  0.26634861292E+04  0.26634861292E+04  0.00000000000E+00 0. -1.
          1   -1    0    0  501    0 -0.00000000000E+00 -0.00000000000E+00 -0.89071855821E+02  0.89071855821E+02  0.00000000000E+00 0. -1.
         25    2    1    2    0    0  0.24112821513E+01 -0.10872480894E+03  0.12927095681E+04  0.13032844293E+04  0.12500151181E+03 0.  0.
          2    1    1    2  501    0 -0.36063415634E+02  0.14435026948E+03 -0.16900687123E+02  0.14974379276E+03  0.00000000000E+00 0. -1.
          1    1    1    2  502    0  0.33652133483E+02 -0.35625460541E+02  0.12986053925E+04  0.12995297630E+04  0.00000000000E+00 0. -1.
         22    1    3    3    0    0  0.36267521121E+02 -0.11200140634E+03  0.71961377107E+03  0.72918010644E+03  0.00000000000E+00 0. -1.
         22    1    3    3    0    0 -0.33856238970E+02  0.32765973996E+01  0.57309579700E+03  0.57410432288E+03  0.00000000000E+00 0. -1.
</event>
<event>
 7    1  0.6370239E-006  0.1472412E+03  0.7818608E-02  0.1380571E+00
          2   -1    0    0  502    0  0.00000000000E+00  0.00000000000E+00  0.31781841845E+03  0.31781841845E+03  0.00000000000E+00 0. -1.
          1   -1    0    0  501    0 -0.00000000000E+00 -0.00000000000E+00 -0.15255182975E+04  0.15255182975E+04  0.00000000000E+00 0. -1.
         25    2    1    2    0    0 -0.97317142721E+02  0.89491471621E+02 -0.21285175298E+03  0.28002178081E+03  0.12500791662E+03 0.  0.
          2    1    1    2  501    0 -0.26917165414E+02 -0.80389217654E+01 -0.12595035042E+04  0.12598167467E+04  0.00000000000E+00 0. -1.
          1    1    1    2  502    0  0.12423430814E+03 -0.81452549856E+02  0.26465537817E+03  0.30349818845E+03  0.00000000000E+00 0. -1.
         22    1    3    3    0    0  0.77821247910E+01  0.71898606037E+02 -0.11189373521E+03  0.13322979770E+03  0.00000000000E+00 0. -1.
         22    1    3    3    0    0 -0.10509926751E+03  0.17592865584E+02 -0.10095801777E+03  0.14679198310E+03  0.00000000000E+00 0. -1.
</event>
<event>
 7    1  0.6370239E-006  0.5917229E+02  0.7818608E-02  0.1503831E+00
          2   -1    0    0  502    0  0.00000000000E+00  0.00000000000E+00  0.16206724090E+04  0.16206724090E+04  0.00000000000E+00 0. -1.
          1   -1    0    0  501    0 -0.00000000000E+00 -0.00000000000E+00 -0.37426518773E+03  0.37426518773E+03  0.00000000000E+00 0. -1.
         25    2    1    2    0    0 -0.72717666968E+02 -0.43147422712E+02  0.55567815594E+03  0.57580650316E+03  0.12500142765E+03 0.  0.
          2    1    1    2  501    0  0.45372273203E+02  0.37822452355E+02 -0.36162036124E+03  0.36641297295E+03  0.00000000000E+00 0. -1.
          1    1    1    2  502    0  0.27345393765E+02  0.53249703569E+01  0.10523494266E+04  0.10527181206E+04  0.00000000000E+00 0. -1.
         22    1    3    3    0    0  0.33389383362E+02  0.41650256387E+00  0.84274240707E+02  0.90648618536E+02  0.00000000000E+00 0.  1.
         22    1    3    3    0    0 -0.10610705033E+03 -0.43563925276E+02  0.47140391524E+03  0.48515788463E+03  0.00000000000E+00 0.  1.
</event>
<event>
 7    1  0.6370239E-006  0.7465824E+02  0.7818608E-02  0.1389106E+00
          2   -1    0    0  502    0  0.00000000000E+00  0.00000000000E+00  0.26927899872E+02  0.26927899872E+02  0.00000000000E+00 0. -1.
          1   -1    0    0  501    0 -0.00000000000E+00 -0.00000000000E+00 -0.96471088507E+03  0.96471088507E+03  0.00000000000E+00 0. -1.
         25    2    1    2    0    0  0.20623400353E+02 -0.10629948256E+03 -0.48009375609E+03  0.50779071999E+03  0.12504597572E+03 0.  0.
          2    1    1    2  501    0 -0.34129380350E+02  0.38838401305E+02 -0.36376699864E+03  0.36742300598E+03  0.00000000000E+00 0. -1.
          1    1    1    2  502    0  0.13505979997E+02  0.67461081258E+02 -0.93922230471E+02  0.11642505897E+03  0.00000000000E+00 0. -1.
         22    1    3    3    0    0 -0.10894657007E+02 -0.17104329834E+02 -0.19435836722E+01  0.20372264672E+02  0.00000000000E+00 0. -1.
         22    1    3    3    0    0  0.31518057360E+02 -0.89195152729E+02 -0.47815017241E+03  0.48741845532E+03  0.00000000000E+00 0. -1.
</event>
<event>
 7    1  0.6370239E-006  0.3742588E+02  0.7818608E-02  0.1532561E+00
          2   -1    0    0  502    0  0.00000000000E+00  0.00000000000E+00  0.26486392642E+04  0.26486392642E+04  0.00000000000E+00 0. -1.
          1   -1    0    0  501    0 -0.00000000000E+00 -0.00000000000E+00 -0.28337701997E+03  0.28337701997E+03  0.00000000000E+00 0. -1.
         25    2    1    2    0    0 -0.33398819221E+02  0.91311675365E+01  0.68874722778E+02  0.14683235761E+03  0.12496861389E+03 0.  0.
          2    1    1    2  501    0  0.69059569053E+01 -0.35668168918E+02 -0.24290884859E+03  0.24561070669E+03  0.00000000000E+00 0. -1.
          1    1    1    2  502    0  0.26492862316E+02  0.26537001382E+02  0.25392963700E+04  0.25395732199E+04  0.00000000000E+00 0. -1.
         22    1    3    3    0    0 -0.18310523288E+02 -0.16257190434E+02 -0.32813282030E+02  0.40942434973E+02  0.00000000000E+00 0. -1.
         22    1    3    3    0    0 -0.15088295933E+02  0.25388357971E+02  0.10168800481E+03  0.10588992264E+03  0.00000000000E+00 0. -1.
</event>
<event>
 7    1  0.6370239E-006  0.6918826E+02  0.7818608E-02  0.1414394E+00
          2   -1    0    0  502    0  0.00000000000E+00  0.00000000000E+00  0.20312322315E+03  0.20312322315E+03  0.00000000000E+00 0. -1.
          1   -1    0    0  501    0 -0.00000000000E+00 -0.00000000000E+00 -0.16512226778E+04  0.16512226778E+04  0.00000000000E+00 0. -1.
         25    2    1    2    0    0  0.30631578364E+02 -0.33836946848E+01 -0.34634924454E+03  0.36950204744E+03  0.12499688348E+03 0.  0.
          2    1    1    2  501    0 -0.70067219338E+02 -0.19690428730E+02 -0.12895315850E+04  0.12915838482E+04  0.00000000000E+00 0. -1.
          1    1    1    2  502    0  0.39435640974E+02  0.23074123414E+02  0.18778137483E+03  0.19326000539E+03  0.00000000000E+00 0. -1.
         22    1    3    3    0    0  0.14412452869E+02  0.53646218623E+02 -0.85215808375E+02  0.10172202105E+03  0.00000000000E+00 0.  1.
         22    1    3    3    0    0  0.16219125495E+02 -0.57029913308E+02 -0.26113343617E+03  0.26778002638E+03  0.00000000000E+00 0.  1.
</event>
<event>
 7    1  0.6370239E-006  0.9552819E+02  0.7818608E-02  0.1351986E+00
          2   -1    0    0  502    0  0.00000000000E+00  0.00000000000E+00  0.94643483194E+03  0.94643483194E+03  0.00000000000E+00 0. -1.
          1   -1    0    0  501    0 -0.00000000000E+00 -0.00000000000E+00 -0.13993766631E+04  0.13993766631E+04  0.00000000000E+00 0. -1.
         25    2    1    2    0    0  0.23820325719E+02 -0.10789750925E+03  0.14960087525E+02  0.16750506231E+03  0.12499944504E+03 0.  0.
          2    1    1    2  501    0  0.28501601910E+02  0.91164612061E+02 -0.13204952684E+04  0.13239452714E+04  0.00000000000E+00 0. -1.
          1    1    1    2  502    0 -0.52321927628E+02  0.16732897188E+02  0.85259334972E+03  0.85436116131E+03  0.00000000000E+00 0. -1.
         22    1    3    3    0    0  0.48298470273E+02 -0.16415911758E+02  0.45135922462E+02  0.68113698226E+02  0.00000000000E+00 0.  1.
         22    1    3    3    0    0 -0.24478144554E+02 -0.91481597491E+02 -0.30175834937E+02  0.99391364084E+02  0.00000000000E+00 0.  1.
</event>
<event>
 7    1  0.6370239E-006  0.3455998E+02  0.7818608E-02  0.1632171E+00
          2   -1    0    0  502    0  0.00000000000E+00  0.00000000000E+00  0.10935736181E+04  0.10935736181E+04  0.00000000000E+00 0. -1.
          1   -1    0    0  501    0 -0.00000000000E+00 -0.00000000000E+00 -0.10325722518E+04  0.10325722518E+04  0.00000000000E+00 0. -1.
         25    2    1    2    0    0 -0.13609712009E+02  0.53382473507E+02 -0.27367842303E+03  0.30587488554E+03  0.12499861452E+03 0.  0.
          2    1    1    2  501    0  0.86365384529E+00 -0.21279443605E+02 -0.74236602818E+03  0.74267144849E+03  0.00000000000E+00 0. -1.
          1    1    1    2  502    0  0.12746058163E+02 -0.32103029901E+02  0.10770458176E+04  0.10775995358E+04  0.00000000000E+00 0. -1.
         22    1    3    3    0    0  0.46945590533E+02  0.34776351731E+02 -0.20169292074E+03  0.20998408841E+03  0.00000000000E+00 0. -1.
         22    1    3    3    0    0 -0.60555302542E+02  0.18606121775E+02 -0.71985502289E+02  0.95890797125E+02  0.00000000000E+00 0. -1.
</event>
<event>
 7    1  0.6370239E-006  0.1975052E+03  0.7818608E-02  0.1239541E+00
          2   -1    0    0  502    0  0.00000000000E+00  0.00000000000E+00  0.45360470460E+03  0.45360470460E+03  0.00000000000E+00 0. -1.
          1   -1    0    0  501    0 -0.00000000000E+00 -0.00000000000E+00 -0.14545551186E+04  0.14545551186E+04  0.00000000000E+00 0. -1.
         25    2    1    2    0    0 -0.12892044997E+03  0.22001671451E+03  0.13538574385E+03  0.31461429852E+03  0.12500008043E+03 0.  0.
          2    1    1    2  501    0  0.61428224440E+02 -0.18598980415E+03 -0.13514336915E+04  0.13655543404E+04  0.00000000000E+00 0. -1.
          1    1    1    2  502    0  0.67492225530E+02 -0.34026910363E+02  0.21509753365E+03  0.22799118429E+03  0.00000000000E+00 0. -1.
         22    1    3    3    0    0  0.15943237336E+02  0.58045067079E+02  0.32309690811E+01  0.60281471367E+02  0.00000000000E+00 0. -1.
         22    1    3    3    0    0 -0.14486368731E+03  0.16197164744E+03  0.13215477477E+03  0.25433282715E+03  0.00000000000E+00 0. -1.
</event>
<event>
 7    1  0.6370239E-006  0.5565602E+02  0.7818608E-02  0.1466921E+00
          2   -1    0    0  502    0  0.00000000000E+00  0.00000000000E+00  0.11921362945E+04  0.11921362945E+04  0.00000000000E+00 0. -1.
          1   -1    0    0  501    0 -0.00000000000E+00 -0.00000000000E+00 -0.46890761989E+02  0.46890761989E+02  0.00000000000E+00 0. -1.
         25    2    1    2    0    0  0.72937699508E+02  0.50606622593E+02  0.64855371227E+03  0.66642699151E+03  0.12498831566E+03 0.  0.
          2    1    1    2  501    0 -0.28054581832E+02 -0.26174074328E+02 -0.26684108275E+02  0.46735247546E+02  0.00000000000E+00 0. -1.
          1    1    1    2  502    0 -0.44883117676E+02 -0.24432548266E+02  0.52337592848E+03  0.52586481740E+03  0.00000000000E+00 0. -1.
         22    1    3    3    0    0  0.64399383936E+02 -0.24429652621E+02  0.42287280524E+03  0.42844544342E+03  0.00000000000E+00 0. -1.
         22    1    3    3    0    0  0.85383155719E+01  0.75036275214E+02  0.22568090704E+03  0.23798154809E+03  0.00000000000E+00 0. -1.
</event>
<event>
 7    1  0.6370239E-006  0.1551680E+03  0.7818608E-02  0.1195700E+00
          2   -1    0    0  502    0  0.00000000000E+00  0.00000000000E+00  0.13178682419E+04  0.13178682419E+04  0.00000000000E+00 0. -1.
          1   -1    0    0  501    0 -0.00000000000E+00 -0.00000000000E+00 -0.54269047105E+03  0.54269047105E+03  0.00000000000E+00 0. -1.
         25    2    1    2    0    0  0.61146692146E+02 -0.17006303012E+03  0.16316535833E+03  0.27369530832E+03  0.12500334181E+03 0.  0.
          2    1    1    2  501    0 -0.15073974208E+03  0.46353894149E+02 -0.46915889598E+03  0.49495577885E+03  0.00000000000E+00 0. -1.
          1    1    1    2  502    0  0.89593049931E+02  0.12370913597E+03  0.10811713085E+04  0.10919076258E+04  0.00000000000E+00 0. -1.
         22    1    3    3    0    0  0.39537291305E+02 -0.16212990331E+03  0.75693573436E+02  0.18324524554E+03  0.00000000000E+00 0. -1.
         22    1    3    3    0    0  0.21609400842E+02 -0.79331268080E+01  0.87471784890E+02  0.90450062783E+02  0.00000000000E+00 0. -1.
</event>
<event>
 7    1  0.6370239E-006  0.3789172E+02  0.7818608E-02  0.1609571E+00
          2   -1    0    0  502    0  0.00000000000E+00  0.00000000000E+00  0.16570974579E+03  0.16570974579E+03  0.00000000000E+00 0. -1.
          1   -1    0    0  501    0 -0.00000000000E+00 -0.00000000000E+00 -0.23033244213E+04  0.23033244213E+04  0.00000000000E+00 0. -1.
         25    2    1    2    0    0 -0.22805775037E+02  0.26664414099E+01 -0.39915616087E+03  0.41890118508E+03  0.12500139525E+03 0.  0.
          2    1    1    2  501    0  0.34728151421E+02  0.16029655179E+02 -0.18933128269E+04  0.18936991458E+04  0.00000000000E+00 0. -1.
          1    1    1    2  502    0 -0.11922376384E+02 -0.18696096589E+02  0.15485431225E+03  0.15643383621E+03  0.00000000000E+00 0. -1.
         22    1    3    3    0    0  0.25553042809E+02 -0.99429745861E+01 -0.14509837454E+02  0.31021865246E+02  0.00000000000E+00 0.  1.
         22    1    3    3    0    0 -0.48358817846E+02  0.12609415996E+02 -0.38464632342E+03  0.38787931983E+03  0.00000000000E+00 0.  1.
</event>
<event>
 7    1  0.6370239E-006  0.1262089E+03  0.7818608E-02  0.1271300E+00
          2   -1    0    0  502    0  0.00000000000E+00  0.00000000000E+00  0.13812923549E+04  0.13812923549E+04  0.00000000000E+00 0. -1.
          1   -1    0    0  501    0 -0.00000000000E+00 -0.00000000000E+00 -0.34256634998E+03  0.34256634998E+03  0.00000000000E+00 0. -1.
         25    2    1    2    0    0 -0.56499746408E+02  0.17032691862E+03 -0.96826383652E+02  0.23917017984E+03  0.12499418307E+03 0.  0.
          2    1    1    2  501    0  0.75743504828E+02 -0.86133085049E+02 -0.15412585015E+03  0.19212174408E+03  0.00000000000E+00 0. -1.
          1    1    1    2  502    0 -0.19243758421E+02 -0.84193833567E+02  0.12896782387E+04  0.12925667810E+04  0.00000000000E+00 0. -1.
         22    1    3    3    0    0 -0.32299140149E+02  0.25441057015E+02  0.25183206417E+02  0.48214891079E+02  0.00000000000E+00 0. -1.
         22    1    3    3    0    0 -0.24200606259E+02  0.14488586160E+03 -0.12200959007E+03  0.19095528876E+03  0.00000000000E+00 0. -1.
</event>
<event>
 7    1  0.6370239E-006  0.7813644E+02  0.7818608E-02  0.1370295E+00
          2   -1    0    0  502    0  0.00000000000E+00  0.00000000000E+00  0.14354608853E+04  0.14354608853E+04  0.00000000000E+00 0. -1.
          1   -1    0    0  501    0 -0.00000000000E+00 -0.00000000000E+00 -0.39493034920E+02  0.39493034920E+02  0.00000000000E+00 0. -1.
         25    2    1    2    0    0 -0.92591780673E+01 -0.60596921141E+02  0.14597312939E+03  0.20171719540E+03  0.12499581267E+03 0.  0.
          2    1    1    2  501    0 -0.55787150686E+02  0.14325400542E+02  0.70467584331E+02  0.91011558188E+02  0.00000000000E+00 0. -1.
          1    1    1    2  502    0  0.65046328754E+02  0.46271520599E+02  0.11795271366E+04  0.11822251666E+04  0.00000000000E+00 0. -1.
         22    1    3    3    0    0  0.72893620382E+01 -0.37717295532E+02  0.16385257192E+03  0.16829555700E+03  0.00000000000E+00 0.  1.
         22    1    3    3    0    0 -0.16548540105E+02 -0.22879625608E+02 -0.17879442535E+02  0.33421638395E+02  0.00000000000E+00 0.  1.
</event>
<event>
 7    1  0.6370239E-006  0.5363248E+02  0.7818608E-02  0.1443905E+00
          2   -1    0    0  502    0  0.00000000000E+00  0.00000000000E+00  0.34851592721E+03  0.34851592721E+03  0.00000000000E+00 0. -1.
          1   -1    0    0  501    0 -0.00000000000E+00 -0.00000000000E+00 -0.17921880446E+03  0.17921880446E+03  0.00000000000E+00 0. -1.
         25    2    1    2    0    0 -0.10860115785E+02 -0.88831158916E+02  0.10033351294E+03  0.18359692174E+03  0.12502839256E+03 0.  0.
          2    1    1    2  501    0 -0.15199893621E+02  0.44593844536E+02 -0.13020049323E+03  0.13846232763E+03  0.00000000000E+00 0. -1.
          1    1    1    2  502    0  0.26060009406E+02  0.44237314380E+02  0.19916410305E+03  0.20567548229E+03  0.00000000000E+00 0. -1.
         22    1    3    3    0    0 -0.43540632173E+02 -0.10481628781E+03  0.56975511853E+02  0.12699783381E+03  0.00000000000E+00 0.  1.
         22    1    3    3    0    0  0.32680516388E+02  0.15985128895E+02  0.43358001086E+02  0.56599087937E+02  0.00000000000E+00 0.  1.
</event>
<event>
 7    1  0.6370239E-006  0.1384350E+03  0.7818608E-02  0.1342375E+00
          2   -1    0    0  502    0  0.00000000000E+00  0.00000000000E+00  0.88302153953E+03  0.88302153953E+03  0.00000000000E+00 0. -1.
          1   -1    0    0  501    0 -0.00000000000E+00 -0.00000000000E+00 -0.82981580771E+03  0.82981580771E+03  0.00000000000E+00 0. -1.
         25    2    1    2    0    0 -0.12288497213E+03 -0.43891607943E+02  0.40279499768E+03  0.44147024223E+03  0.12499989998E+03 0.  0.
          2    1    1    2  501    0 -0.21943593890E+02  0.34822968777E+02 -0.79851272448E+03  0.79957284322E+03  0.00000000000E+00 0. -1.
          1    1    1    2  502    0  0.14482856602E+03  0.90686391665E+01  0.44892345862E+03  0.47179426179E+03  0.00000000000E+00 0. -1.
         22    1    3    3    0    0 -0.10480857939E+03  0.21107362322E+02  0.18735103110E+03  0.21570991612E+03  0.00000000000E+00 0.  1.
         22    1    3    3    0    0 -0.18076392743E+02 -0.64998970266E+02  0.21544396658E+03  0.22576032611E+03  0.00000000000E+00 0.  1.
</event>
<event>
 7    1  0.6370239E-006  0.6905764E+02  0.7818608E-02  0.1438279E+00
          2   -1    0    0  502    0  0.00000000000E+00  0.00000000000E+00  0.41906161358E+03  0.41906161358E+03  0.00000000000E+00 0. -1.
          1   -1    0    0  501    0 -0.00000000000E+00 -0.00000000000E+00 -0.80609661894E+03  0.80609661894E+03  0.00000000000E+00 0. -1.
         25    2    1    2    0    0  0.64190728554E+02 -0.26874673705E+02  0.38252479132E+03  0.40839347673E+03  0.12496926878E+03 0.  0.
          2    1    1    2  501    0 -0.19095851117E+02 -0.33036343109E+02 -0.73182581078E+03  0.73281994297E+03  0.00000000000E+00 0. -1.
          1    1    1    2  502    0 -0.45094877437E+02  0.59911016814E+02 -0.37733985904E+02  0.83944812817E+02  0.00000000000E+00 0. -1.
         22    1    3    3    0    0 -0.22390722006E+02 -0.31261631010E+02  0.41731393927E+02  0.56746305998E+02  0.00000000000E+00 0. -1.
         22    1    3    3    0    0  0.86581450560E+02  0.43869573052E+01  0.34079339739E+03  0.35164717073E+03  0.00000000000E+00 0. -1.
</event>
<event>
 7    1  0.6370239E-006  0.1504449E+03  0.7818608E-02  0.1360319E+00
          2   -1    0    0  502    0  0.00000000000E+00  0.00000000000E+00  0.47028709079E+03  0.47028709079E+03  0.00000000000E+00 0. -1.
          1   -1    0    0  501    0 -0.00000000000E+00 -0.00000000000E+00 -0.26430336614E+03  0.26430336614E+03  0.00000000000E+00 0. -1.
         25    2    1    2    0    0 -0.98187762606E+02  0.95670754663E+02  0.38588701913E+03  0.42816849489E+03  0.12500295378E+03 0.  0.
          2    1    1    2  501    0  0.12750775009E+03 -0.81630399050E+02 -0.21215013754E+03  0.26063274783E+03  0.00000000000E+00 0. -1.
          1    1    1    2  502    0 -0.29319987484E+02 -0.14040355613E+02  0.32246843056E+02  0.45789214221E+02  0.00000000000E+00 0. -1.
         22    1    3    3    0    0 -0.82191735285E+02 -0.50456763153E+01  0.14848864383E+03  0.16979345554E+03  0.00000000000E+00 0. -1.
         22    1    3    3    0    0 -0.15996027321E+02  0.10071643098E+03  0.23739837530E+03  0.25837503934E+03  0.00000000000E+00 0. -1.
</event>
<event>
 7    1  0.6370239E-006  0.4991735E+02  0.7818608E-02  0.1485891E+00
          2   -1    0    0  502    0  0.00000000000E+00  0.00000000000E+00  0.23155857296E+04  0.23155857296E+04  0.00000000000E+00 0. -1.
          1   -1    0    0  501    0 -0.00000000000E+00 -0.00000000000E+00 -0.25517844465E+03  0.25517844465E+03  0.00000000000E+00 0. -1.
         25    2    1    2    0    0  0.30542509382E+01  0.16060168527E+02  0.13529178488E+03  0.18492434514E+03  0.12500355558E+03 0.  0.
          2    1    1    2  501    0  0.17084051649E+02 -0.47562810236E+02 -0.22742604390E+03  0.23297358473E+03  0.00000000000E+00 0. -1.
          1    1    1    2  502    0 -0.20138302587E+02  0.31502641709E+02  0.21525415440E+04  0.21528662444E+04  0.00000000000E+00 0. -1.
         22    1    3    3    0    0  0.33675540839E+02 -0.34770284573E+02  0.11045369329E+03  0.12059449864E+03  0.00000000000E+00 0.  1.
         22    1    3    3    0    0 -0.30621289901E+02  0.50830453100E+02  0.24838091589E+02  0.64329846505E+02  0.00000000000E+00 0.  1.
</event>
<event>
 7    1  0.6370239E-006  0.8958138E+02  0.7818608E-02  0.1414251E+00
          2   -1    0    0  502    0  0.00000000000E+00  0.00000000000E+00  0.78303542598E+03  0.78303542598E+03  0.00000000000E+00 0. -1.
          1   -1    0    0  501    0 -0.00000000000E+00 -0.00000000000E+00 -0.12946894718E+04  0.12946894718E+04  0.00000000000E+00 0. -1.
         25    2    1    2    0    0 -0.10069469563E+03 -0.55511127204E+02 -0.10660397879E+03  0.20052503867E+03  0.12499990348E+03 0.  0.
          2    1    1    2  501    0  0.65623382120E+02  0.59762970694E+02 -0.11389734907E+04  0.11424266513E+04  0.00000000000E+00 0. -1.
          1    1    1    2  502    0  0.35071313513E+02 -0.42518434898E+01  0.73392342366E+03  0.73477320787E+03  0.00000000000E+00 0. -1.
         22    1    3    3    0    0 -0.71276522019E+02 -0.95579242727E+02 -0.84425051143E+02  0.14609354364E+03  0.00000000000E+00 0.  1.
         22    1    3    3    0    0 -0.29418173614E+02  0.40068115524E+02 -0.22178927645E+02  0.54431495036E+02  0.00000000000E+00 0.  1.
</event>
<event>
 7    1  0.6370239E-006  0.1414377E+03  0.7818608E-02  0.1227471E+00
          2   -1    0    0  502    0  0.00000000000E+00  0.00000000000E+00  0.23406547986E+04  0.23406547986E+04  0.00000000000E+00 0. -1.
          1   -1    0    0  501    0 -0.00000000000E+00 -0.00000000000E+00 -0.56759046273E+03  0.56759046273E+03  0.00000000000E+00 0. -1.
         25    2    1    2    0    0  0.11021395542E+02 -0.25027035895E+03  0.67963627091E+03  0.73504401146E+03  0.12501005688E+03 0.  0.
          2    1    1    2  501    0 -0.57019079785E+01  0.11933194207E+03 -0.53060573188E+03  0.54388883685E+03  0.00000000000E+00 0. -1.
          1    1    1    2  502    0 -0.53194875638E+01  0.13093841688E+03  0.16240337968E+04  0.16293124130E+04  0.00000000000E+00 0. -1.
         22    1    3    3    0    0  0.26775237585E+02 -0.22496065943E+02  0.20950689759E+03  0.21240557071E+03  0.00000000000E+00 0. -1.
         22    1    3    3    0    0 -0.15753842043E+02 -0.22777429301E+03  0.47012937332E+03  0.52263844075E+03  0.00000000000E+00 0. -1.
</event>
<event>
 7    1  0.6370239E-006  0.1242640E+03  0.7818608E-02  0.1400243E+00
          2   -1    0    0  502    0  0.00000000000E+00  0.00000000000E+00  0.32163734115E+03  0.32163734115E+03  0.00000000000E+00 0. -1.
          1   -1    0    0  501    0 -0.00000000000E+00 -0.00000000000E+00 -0.18161830707E+03  0.18161830707E+03  0.00000000000E+00 0. -1.
         25    2    1    2    0    0 -0.28463020885E+02 -0.10548458031E+03 -0.12902173924E+02  0.16652097938E+03  0.12500252094E+03 0.  0.
          2    1    1    2  501    0  0.49233760354E+02  0.12488526372E+03 -0.41296608778E+02  0.14044821875E+03  0.00000000000E+00 0. -1.
          1    1    1    2  502    0 -0.20770739469E+02 -0.19400683410E+02  0.19421781678E+03  0.19628645010E+03  0.00000000000E+00 0. -1.
         22    1    3    3    0    0  0.33585964671E+02 -0.93780139381E+02  0.81876402347E+01  0.99948831998E+02  0.00000000000E+00 0. -1.
         22    1    3    3    0    0 -0.62048985557E+02 -0.11704440928E+02 -0.21089814158E+02  0.66572147384E+02  0.00000000000E+00 0. -1.
</event>
<event>
 7    1  0.6370239E-006  0.6039183E+02  0.7818608E-02  0.1421927E+00
          2   -1    0    0  502    0  0.00000000000E+00  0.00000000000E+00  0.23299408290E+04  0.23299408290E+04  0.00000000000E+00 0. -1.
          1   -1    0    0  501    0 -0.00000000000E+00 -0.00000000000E+00 -0.95822180432E+01  0.95822180432E+01  0.00000000000E+00 0. -1.
         25    2    1    2    0    0 -0.12759810267E+02  0.22566623039E+02  0.14111306560E+04  0.14168933510E+04  0.12499989863E+03 0.  0.
          2    1    1    2  501    0  0.48253038052E+02  0.36315521050E+02  0.17377006849E+03  0.18396523980E+03  0.00000000000E+00 0. -1.
          1    1    1    2  502    0 -0.35493227784E+02 -0.58882144089E+02  0.73545788648E+03  0.73866445623E+03  0.00000000000E+00 0. -1.
         22    1    3    3    0    0 -0.17437575903E+02  0.62763137046E+02  0.42786222025E+03  0.43279251373E+03  0.00000000000E+00 0. -1.
         22    1    3    3    0    0  0.46777656355E+01 -0.40196514007E+02  0.98326843571E+03  0.98410083726E+03  0.00000000000E+00 0. -1.
</event>
<event>
 7    1  0.6370239E-006  0.8657199E+02  0.7818608E-02  0.1381930E+00
          2   -1    0    0  502    0  0.00000000000E+00  0.00000000000E+00  0.16205561580E+04  0.16205561580E+04  0.00000000000E+00 0. -1.
          1   -1    0    0  501    0 -0.00000000000E+00 -0.00000000000E+00 -0.50159659983E+02  0.50159659983E+02  0.00000000000E+00 0. -1.
         25    2    1    2    0    0  0.38942027191E+02 -0.38191077198E+02  0.48637038516E+03  0.50513080410E+03  0.12500375127E+03 0.  0.
          2    1    1    2  501    0 -0.31184927024E+02  0.84802986301E+02  0.10436321179E+02  0.90955829713E+02  0.00000000000E+00 0. -1.
          1    1    1    2  502    0 -0.77571001672E+01 -0.46611909103E+02  0.10735897917E+04  0.10746291842E+04  0.00000000000E+00 0. -1.
         22    1    3    3    0    0 -0.33584364909E+02 -0.32516461054E+02  0.32207615350E+03  0.32545088487E+03  0.00000000000E+00 0.  1.
         22    1    3    3    0    0  0.72526392101E+02 -0.56746161439E+01  0.16429423165E+03  0.17967991923E+03  0.00000000000E+00 0.  1.
</event>
<event>
 7    1  0.7529781E-006  0.1419533E+03  0.7818608E-02  0.1241310E+00
          2   -1    0    0  502    0  0.00000000000E+00  0.00000000000E+00  0.10202282618E+04  0.10202282618E+04  0.00000000000E+00 0. -1.
          1   -1    0    0  501    0 -0.00000000000E+00 -0.00000000000E+00 -0.13463716758E+04  0.13463716758E+04  0.00000000000E+00 0. -1.
         25    2    1    2    0    0 -0.45047471246E+02 -0.21442861744E+02 -0.80099496820E+02  0.15662655607E+03  0.12500751054E+03 0.  0.
          2    1    1    2  501    0 -0.10136231936E+03  0.19877362481E+02 -0.12203566706E+04  0.12247203080E+04  0.00000000000E+00 0. -1.
          1    1    1    2  502    0  0.14640979061E+03  0.15654992627E+01  0.97431275334E+03  0.98525307353E+03  0.00000000000E+00 0. -1.
         22    1    3    3    0    0  0.31531647230E+02  0.28921401526E+02 -0.22053509875E+02  0.48135740786E+02  0.00000000000E+00 0. -1.
         22    1    3    3    0    0 -0.76579118476E+02 -0.50364263270E+02 -0.58045986945E+02  0.10849081529E+03  0.00000000000E+00 0. -1.
</event>
<event>
 7    1  0.6370239E-006  0.4433497E+02  0.7818608E-02  0.1563513E+00
          2   -1    0    0  502    0  0.00000000000E+00  0.00000000000E+00  0.16904987540E+03  0.16904987540E+03  0.00000000000E+00 0. -1.
          1   -1    0    0  501    0 -0.00000000000E+00 -0.00000000000E+00 -0.77499753103E+02  0.77499753103E+02  0.00000000000E+00 0. -1.
         25    2    1    2    0    0 -0.40128340955E+02  0.19049570500E+02  0.47589129869E+02  0.14092203780E+03  0.12498450132E+03 0.  0.
          2    1    1    2  501    0 -0.48243891912E+01 -0.24658497773E+02 -0.16513804943E+02  0.30066958563E+02  0.00000000000E+00 0. -1.
          1    1    1    2  502    0  0.44952730146E+02  0.56089272739E+01  0.60474797369E+02  0.75560632142E+02  0.00000000000E+00 0. -1.
         22    1    3    3    0    0  0.38609130449E+02  0.34173951095E+02  0.26722707060E+02  0.58074322726E+02  0.00000000000E+00 0. -1.
         22    1    3    3    0    0 -0.78737471404E+02 -0.15124380595E+02  0.20866422809E+02  0.82847715070E+02  0.00000000000E+00 0. -1.
</event>
<event>
 7    1  0.6370239E-006  0.7711035E+02  0.7818608E-02  0.1355033E+00
          2   -1    0    0  502    0  0.00000000000E+00  0.00000000000E+00  0.48750474386E+03  0.48750474386E+03  0.00000000000E+00 0. -1.
          1   -1    0    0  501    0 -0.00000000000E+00 -0.00000000000E+00 -0.43836700150E+03  0.43836700150E+03  0.00000000000E+00 0. -1.
         25    2    1    2    0    0 -0.51538012554E+02 -0.87545383086E+02 -0.48533180190E+02  0.16822270887E+03  0.12499219721E+03 0.  0.
          2    1    1    2  501    0  0.72879976647E+02  0.24757302944E+02 -0.32286674266E+03  0.33191467060E+03  0.00000000000E+00 0. -1.
          1    1    1    2  502    0 -0.21341964093E+02  0.62788080141E+02  0.42053766521E+03  0.42573436589E+03  0.00000000000E+00 0. -1.
         22    1    3    3    0    0 -0.22806339363E+02  0.13366317770E+02 -0.57129462286E+02  0.62948892182E+02  0.00000000000E+00 0.  1.
         22    1    3    3    0    0 -0.28731673191E+02 -0.10091170086E+03  0.85962820959E+01  0.10527381669E+03  0.00000000000E+00 0.  1.
</event>
<event>
 7    1  0.6370239E-006  0.7456301E+02  0.7818608E-02  0.1493896E+00
          2   -1    0    0  502    0  0.00000000000E+00  0.00000000000E+00  0.72333414540E+03  0.72333414540E+03  0.00000000000E+00 0. -1.
          1   -1    0    0  501    0 -0.00000000000E+00 -0.00000000000E+00 -0.68076302900E+02  0.68076302900E+02  0.00000000000E+00 0. -1.
         25    2    1    2    0    0  0.31960677321E+02 -0.76033708386E+02  0.28223633679E+03  0.31950781187E+03  0.12500112934E+03 0.  0.
          2    1    1    2  501    0 -0.46719368059E+02  0.57524410656E+02 -0.21115005096E+02  0.77055827900E+02  0.00000000000E+00 0. -1.
          1    1    1    2  502    0  0.14758690739E+02  0.18509297731E+02  0.39413651080E+03  0.39484680853E+03  0.00000000000E+00 0. -1.
         22    1    3    3    0    0 -0.66797532494E+01 -0.17715399371E+02 -0.82965712589E+01  0.20670935465E+02  0.00000000000E+00 0.  1.
         22    1    3    3    0    0  0.38640430570E+02 -0.58318309015E+02  0.29053290805E+03  0.29883687640E+03  0.00000000000E+00 0.  1.
</event>
<event>
 7    1  0.6370239E-006  0.1111251E+03  0.7818608E-02  0.1287923E+00
          2   -1    0    0  502    0  0.00000000000E+00  0.00000000000E+00  0.20954068795E+04  0.20954068795E+04  0.00000000000E+00 0. -1.
          1   -1    0    0  501    0 -0.00000000000E+00 -0.00000000000E+00 -0.13800772775E+03  0.13800772775E+03  0.00000000000E+00 0. -1.
         25    2    1    2    0    0 -0.17353384531E+03 -0.53619571182E+02  0.27832942838E+03  0.35507961433E+03  0.12500083169E+03 0.  0.
          2    1    1    2  501    0  0.89816183185E+02  0.54968773564E+02 -0.70525563682E+02  0.12673739764E+03  0.00000000000E+00 0. -1.
          1    1    1    2  502    0  0.83717662127E+02 -0.13492023814E+01  0.17495952871E+04  0.17515975953E+04  0.00000000000E+00 0. -1.
         22    1    3    3    0    0 -0.14387790348E+03  0.76753895374E+01  0.23064845466E+03  0.27195307013E+03  0.00000000000E+00 0.  1.
         22    1    3    3    0    0 -0.29655941831E+02 -0.61294960720E+02  0.47680973726E+02  0.83126544202E+02  0.00000000000E+00 0.  1.
</event>
<event>
 7    1  0.6370239E-006  0.3583113E+02  0.7818608E-02  0.1597883E+00
          2   -1    0    0  502    0  0.00000000000E+00  0.00000000000E+00  0.54842611090E+03  0.54842611090E+03  0.00000000000E+00 0. -1.
          1   -1    0    0  501    0 -0.00000000000E+00 -0.00000000000E+00 -0.14021352539E+04  0.14021352539E+04  0.00000000000E+00 0. -1.
         25    2    1    2    0    0 -0.30182819069E+02 -0.51940496064E+01  0.89159266094E+02  0.15656584329E+03  0.12500203133E+03 0.  0.
          2    1    1    2  501    0  0.29793640458E+02 -0.19951873414E+02 -0.13678252558E+04  0.13682951687E+04  0.00000000000E+00 0. -1.
          1    1    1    2  502    0  0.38917861124E+00  0.25145923021E+02  0.42495684666E+03  0.42570035286E+03  0.00000000000E+00 0. -1.
         22    1    3    3    0    0 -0.17118678822E+02  0.16518536061E+02 -0.27974954430E+02  0.36722054321E+02  0.00000000000E+00 0. -1.
         22    1    3    3    0    0 -0.13064140247E+02 -0.21712585668E+02  0.11713422052E+03  0.11984378897E+03  0.00000000000E+00 0. -1.
</event>
<event>
 7    1  0.6370239E-006  0.8152036E+02  0.7818608E-02  0.1346074E+00
          2   -1    0    0  502    0  0.00000000000E+00  0.00000000000E+00  0.41459825695E+03  0.41459825695E+03  0.00000000000E+00 0. -1.
          1   -1    0    0  501    0 -0.00000000000E+00 -0.00000000000E+00 -0.18692075430E+04  0.18692075430E+04  0.00000000000E+00 0. -1.
         25    2    1    2    0    0 -0.57524531200E+02  0.75223831698E+02  0.16010622555E+03  0.22411231914E+03  0.12499852632E+03 0.  0.
          2    1    1    2  501    0 -0.99372751113E+01 -0.80977851467E+02 -0.18311240320E+04  0.18329406380E+04  0.00000000000E+00 0. -1.
          1    1    1    2  502    0  0.67461806311E+02  0.57540197691E+01  0.21640852036E+03  0.22675284284E+03  0.00000000000E+00 0. -1.
         22    1    3    3    0    0 -0.14718541083E+02  0.52069858854E+02  0.16645877074E+03  0.17503264841E+03  0.00000000000E+00 0.  1.
         22    1    3    3    0    0 -0.42805990117E+02  0.23153972843E+02 -0.63525451881E+01  0.49079670727E+02  0.00000000000E+00 0.  1.
</event>
<event>
 7    1  0.6370239E-006  0.3929246E+02  0.7818608E-02  0.1581109E+00
          2   -1    0    0  502    0  0.00000000000E+00  0.00000000000E+00  0.23995326417E+04  0.23995326417E+04  0.00000000000E+00 0. -1.
          1   -1    0    0  501    0 -0.00000000000E+00 -0.00000000000E+00 -0.77209177875E+01  0.77209177875E+01  0.00000000000E+00 0. -1.
         25    2    1    2    0    0 -0.34822222767E+02  0.14252177158E+02  0.82912162015E+03  0.83933507957E+03  0.12500001222E+03 0.  0.
          2    1    1    2  501    0  0.39535829345E+02  0.10710519125E+02  0.16536590031E+03  0.17036337049E+03  0.00000000000E+00 0. -1.
          1    1    1    2  502    0 -0.47136065776E+01 -0.24962696283E+02  0.13973242034E+04  0.13975551094E+04  0.00000000000E+00 0. -1.
         22    1    3    3    0    0  0.94251802868E+01  0.26792841533E+02  0.72443768988E+03  0.72499424611E+03  0.00000000000E+00 0. -1.
         22    1    3    3    0    0 -0.44247403054E+02 -0.12540664375E+02  0.10468393027E+03  0.11434083346E+03  0.00000000000E+00 0. -1.
</event>
<event>
 7    1  0.6370239E-006  0.5341634E+02  0.7818608E-02  0.1458306E+00
          2   -1    0    0  502    0  0.00000000000E+00  0.00000000000E+00  0.38325182431E+03  0.38325182431E+03  0.00000000000E+00 0. -1.
          1   -1    0    0  501    0 -0.00000000000E+00 -0.00000000000E+00 -0.41738658238E+02  0.41738658238E+02  0.00000000000E+00 0. -1.
         25    2    1    2    0    0 -0.34475741047E+02 -0.45905858360E+02  0.17682537558E+03  0.22402392688E+03  0.12499432712E+03 0.  0.
          2    1    1    2  501    0 -0.70065265415E+01  0.55374907455E+02  0.38521758281E+02  0.67818859110E+02  0.00000000000E+00 0. -1.
          1    1    1    2  502    0  0.41482267589E+02 -0.94690490952E+01  0.12616603221E+03  0.13314769656E+03  0.00000000000E+00 0. -1.
         22    1    3    3    0    0  0.15041919432E+02  0.36733920794E+01  0.14709153774E+03  0.14790427182E+03  0.00000000000E+00 0.  1.
         22    1    3    3    0    0 -0.49517660479E+02 -0.49579250440E+02  0.29733837848E+02  0.76119655062E+02  0.00000000000E+00 0.  1.
</event>
<event>
 7    1  0.6370239E-006  0.1594715E+03  0.7818608E-02  0.1201124E+00
          2   -1    0    0  502    0  0.00000000000E+00  0.00000000000E+00  0.86150759695E+03  0.86150759695E+03  0.00000000000E+00 0. -1.
          1   -1    0    0  501    0 -0.00000000000E+00 -0.00000000000E+00 -0.50489311450E+03  0.50489311450E+03  0.00000000000E+00 0. -1.
         25    2    1    2    0    0 -0.15202367946E+03 -0.52116546820E+01  0.35120988155E+03  0.40262801245E+03  0.12499029983E+03 0.  0.
          2    1    1    2  501    0  0.66849126349E+02  0.14478383034E+03 -0.45131797001E+03  0.47866384162E+03  0.00000000000E+00 0. -1.
          1    1    1    2  502    0  0.85174553114E+02 -0.13957217566E+03  0.45672257092E+03  0.48510885737E+03  0.00000000000E+00 0. -1.
         22    1    3    3    0    0 -0.17267374286E+03 -0.16180962681E+02  0.31274513454E+03  0.35761370808E+03  0.00000000000E+00 0.  1.
         22    1    3    3    0    0  0.20650063393E+02  0.10969307999E+02  0.38464747004E+02  0.45014304373E+02  0.00000000000E+00 0.  1.
</event>
<event>
 7    1  0.6370239E-006  0.1023119E+03  0.7818608E-02  0.1338940E+00
          2   -1    0    0  502    0  0.00000000000E+00  0.00000000000E+00  0.26534440138E+03  0.26534440138E+03  0.00000000000E+00 0. -1.
          1   -1    0    0  501    0 -0.00000000000E+00 -0.00000000000E+00 -0.11814184838E+03  0.11814184838E+03  0.00000000000E+00 0. -1.
         25    2    1    2    0    0  0.95011027713E+02 -0.70885405380E+01  0.25232935031E+02  0.15917981178E+03  0.12499667465E+03 0.  0.
          2    1    1    2  501    0 -0.94722008215E+02  0.64460582911E+02  0.34421180938E+02  0.11963378823E+03  0.00000000000E+00 0. -1.
          1    1    1    2  502    0 -0.28901949873E+00 -0.57372042373E+02  0.87548437037E+02  0.10467264975E+03  0.00000000000E+00 0. -1.
         22    1    3    3    0    0  0.42596031398E+02 -0.50325967605E+02 -0.29208395036E+02  0.72112795306E+02  0.00000000000E+00 0. -1.
         22    1    3    3    0    0  0.52414996316E+02  0.43237427067E+02  0.54441330067E+02  0.87067016474E+02  0.00000000000E+00 0. -1.
</event>
<event>
 7    1  0.6370239E-006  0.1791600E+03  0.7818608E-02  0.1205205E+00
          2   -1    0    0  502    0  0.00000000000E+00  0.00000000000E+00  0.94169291046E+03  0.94169291046E+03  0.00000000000E+00 0. -1.
          1   -1    0    0  501    0 -0.00000000000E+00 -0.00000000000E+00 -0.19582084644E+03  0.19582084644E+03  0.00000000000E+00 0. -1.
         25    2    1    2    0    0 -0.65176993841E+02  0.31237113981E+02 -0.94023391314E+02  0.17230576094E+03  0.12500031729E+03 0.  0.
          2    1    1    2  501    0 -0.78102649868E+02  0.90213806040E+02  0.16261253234E+02  0.12042833169E+03  0.00000000000E+00 0. -1.
          1    1    1    2  502    0  0.14327964371E+03 -0.12145092002E+03  0.82363420210E+03  0.84477966426E+03  0.00000000000E+00 0. -1.
         22    1    3    3    0    0  0.28420635445E+02  0.46156485923E+01 -0.64469342593E+02  0.70606889645E+02  0.00000000000E+00 0. -1.
         22    1    3    3    0    0 -0.93597629286E+02  0.26621465389E+02 -0.29554048722E+02  0.10169887130E+03  0.00000000000E+00 0. -1.
</event>
<event>
 7    1  0.6370239E-006  0.2172557E+03  0.7818608E-02  0.1210331E+00
          2   -1    0    0  502    0  0.00000000000E+00  0.00000000000E+00  0.24216288766E+04  0.24216288766E+04  0.00000000000E+00 0. -1.
          1   -1    0    0  501    0 -0.00000000000E+00 -0.00000000000E+00 -0.13671151764E+03  0.13671151764E+03  0.00000000000E+00 0. -1.
         25    2    1    2    0    0 -0.19392390853E+03  0.12950864634E+03  0.56518085669E+03  0.62404698248E+03  0.12500505506E+03 0.  0.
          2    1    1    2  501    0  0.21386808929E+03 -0.38527951306E+02  0.53479036848E+01  0.21737654593E+03  0.00000000000E+00 0. -1.
          1    1    1    2  502    0 -0.19944180760E+02 -0.90980695033E+02  0.17143885986E+04  0.17169168659E+04  0.00000000000E+00 0. -1.
         22    1    3    3    0    0 -0.20359474570E+03  0.13879938552E+03  0.55489976139E+03  0.60714893979E+03  0.00000000000E+00 0.  1.
         22    1    3    3    0    0  0.96708371699E+01 -0.92907391791E+01  0.10281095306E+02  0.16898042690E+02  0.00000000000E+00 0.  1.
</event>
<event>
 7    1  0.6370239E-006  0.2944606E+02  0.7818608E-02  0.1628263E+00
          2   -1    0    0  502    0  0.00000000000E+00  0.00000000000E+00  0.14722845630E+04  0.14722845630E+04  0.00000000000E+00 0. -1.
          1   -1    0    0  501    0 -0.00000000000E+00 -0.00000000000E+00 -0.94741911651E+03  0.94741911651E+03  0.00000000000E+00 0. -1.
         25    2    1    2    0    0 -0.46649728967E+02  0.16135355695E+02 -0.32732927196E+02  0.13832328798E+03  0.12500136223E+03 0.  0.
          2    1    1    2  501    0  0.21395263294E+02 -0.20123549228E+02 -0.86152558799E+03  0.86202613260E+03  0.00000000000E+00 0. -1.
          1    1    1    2  502    0  0.25254465672E+02  0.39881935326E+01  0.14191239616E+04  0.14193542589E+04  0.00000000000E+00 0. -1.
         22    1    3    3    0    0 -0.55533331989E+02  0.62501911111E+02 -0.35936533472E+02  0.91004803677E+02  0.00000000000E+00 0. -1.
         22    1    3    3    0    0  0.88836030220E+01 -0.46366555415E+02  0.32036062758E+01  0.47318484305E+02  0.00000000000E+00 0. -1.
</event>
<event>
 7    1  0.6370239E-006  0.6005276E+02  0.7818608E-02  0.1539492E+00
          2   -1    0    0  502    0  0.00000000000E+00  0.00000000000E+00  0.13061608033E+04  0.13061608033E+04  0.00000000000E+00 0. -1.
          1   -1    0    0  501    0 -0.00000000000E+00 -0.00000000000E+00 -0.52682263424E+02  0.52682263424E+02  0.00000000000E+00 0. -1.
         25    2    1    2    0    0 -0.70506105748E+02 -0.26671752875E+02  0.76952710203E+03  0.78324895652E+03  0.12499789508E+03 0.  0.
          2    1    1    2  501    0  0.14726302809E+02  0.15853323505E+02 -0.41647452421E+02  0.46932953815E+02  0.00000000000E+00 0. -1.
          1    1    1    2  502    0  0.55779802939E+02  0.10818429370E+02  0.52559889031E+03  0.52866115644E+03  0.00000000000E+00 0. -1.
         22    1    3    3    0    0 -0.56347101986E+02 -0.65570462432E+01  0.74918351739E+03  0.75132811307E+03  0.00000000000E+00 0.  1.
         22    1    3    3    0    0 -0.14159003761E+02 -0.20114706632E+02  0.20343584640E+02  0.31920843448E+02  0.00000000000E+00 0.  1.
</event>
<event>
 7    1  0.6370239E-006  0.1015084E+03  0.7818608E-02  0.1346375E+00
          2   -1    0    0  502    0  0.00000000000E+00  0.00000000000E+00  0.31492196860E+04  0.31492196860E+04  0.00000000000E+00 0. -1.
          1   -1    0    0  501    0 -0.00000000000E+00 -0.00000000000E+00 -0.35075053768E+03  0.35075053768E+03  0.00000000000E+00 0. -1.
         25    2    1    2    0    0  0.75571360573E+02 -0.47676646896E+02  0.37580137461E+03  0.40599966735E+03  0.12499985414E+03 0.  0.
          2    1    1    2  501    0 -0.44222225324E+02  0.91932711454E+02 -0.32762635384E+03  0.34314174385E+03  0.00000000000E+00 0. -1.
          1    1    1    2  502    0 -0.31349135249E+02 -0.44256064558E+02  0.27502941275E+04  0.27508288125E+04  0.00000000000E+00 0. -1.
         22    1    3    3    0    0  0.57917749983E+02  0.31196735931E+02  0.10989124781E+03  0.12807727527E+03  0.00000000000E+00 0.  1.
         22    1    3    3    0    0  0.17653610590E+02 -0.78873382826E+02  0.26591012680E+03  0.27792239208E+03  0.00000000000E+00 0.  1.
</event>
<event>
 7    1  0.6370239E-006  0.1226629E+03  0.7818608E-02  0.1261102E+00
          2   -1    0    0  502    0  0.00000000000E+00  0.00000000000E+00  0.72170565786E+03  0.72170565786E+03  0.00000000000E+00 0. -1.
          1   -1    0    0  501    0 -0.00000000000E+00 -0.00000000000E+00 -0.86953009311E+03  0.86953009311E+03  0.00000000000E+00 0. -1.
         25    2    1    2    0    0 -0.59741650973E+02 -0.40484563149E+02  0.14601438793E+03  0.20531199843E+03  0.12499900201E+03 0.  0.
          2    1    1    2  501    0  0.88802637007E+01  0.12440505543E+03 -0.83077969260E+03  0.84008950389E+03  0.00000000000E+00 0. -1.
          1    1    1    2  502    0  0.50861387273E+02 -0.83920492284E+02  0.53694086943E+03  0.54583424865E+03  0.00000000000E+00 0. -1.
         22    1    3    3    0    0  0.26358107300E+02  0.21519892765E+02  0.58927673583E+02  0.68046501152E+02  0.00000000000E+00 0. -1.
         22    1    3    3    0    0 -0.86099758274E+02 -0.62004455914E+02  0.87086714346E+02  0.13726549728E+03  0.00000000000E+00 0. -1.
</event>
<event>
 7    1  0.6370239E-006  0.1020041E+03  0.7818608E-02  0.1436598E+00
          2   -1    0    0  502    0  0.00000000000E+00  0.00000000000E+00  0.75960964765E+03  0.75960964765E+03  0.00000000000E+00 0. -1.
          1   -1    0    0  501    0 -0.00000000000E+00 -0.00000000000E+00 -0.97070419954E+02  0.97070419954E+02  0.00000000000E+00 0. -1.
         25    2    1    2    0    0  0.11286493184E+03  0.50971227340E+02  0.28952389836E+03  0.33880127505E+03  0.12500262957E+03 0.  0.
          2    1    1    2  501    0 -0.94136646503E+02 -0.32704833692E+02 -0.37539035200E+02  0.10649175332E+03  0.00000000000E+00 0. -1.
          1    1    1    2  502    0 -0.18728285332E+02 -0.18266393648E+02  0.41055436454E+03  0.41138703924E+03  0.00000000000E+00 0. -1.
         22    1    3    3    0    0  0.13012841503E+02  0.51920718897E+02  0.19162415872E+03  0.19895957705E+03  0.00000000000E+00 0.  1.
         22    1    3    3    0    0  0.99852090332E+02 -0.94949155744E+00  0.97899739637E+02  0.13984169800E+03  0.00000000000E+00 0.  1.
</event>
<event>
 7    1  0.6370239E-006  0.1810713E+03  0.7818608E-02  0.1201037E+00
          2   -1    0    0  502    0  0.00000000000E+00  0.00000000000E+00  0.16743681965E+04  0.16743681965E+04  0.00000000000E+00 0. -1.
          1   -1    0    0  501    0 -0.00000000000E+00 -0.00000000000E+00 -0.15301584089E+03  0.15301584089E+03  0.00000000000E+00 0. -1.
         25    2    1    2    0    0 -0.20289769193E+03 -0.53978397735E+01  0.19300174865E+03  0.30669817989E+03  0.12496995039E+03 0.  0.
          2    1    1    2  501    0  0.53949262848E+02  0.11109606972E+03 -0.47828267458E+02  0.13244018588E+03  0.00000000000E+00 0. -1.
          1    1    1    2  502    0  0.14894842909E+03 -0.10569822995E+03  0.13761788745E+04  0.13882456717E+04  0.00000000000E+00 0. -1.
         22    1    3    3    0    0  0.78422091380E+00  0.31254637740E-03 -0.15296108592E+02  0.15316198634E+02  0.00000000000E+00 0. -1.
         22    1    3    3    0    0 -0.20368191285E+03 -0.53981523199E+01  0.20829785724E+03  0.29138198125E+03  0.00000000000E+00 0. -1.
</event>
<event>
 7    1  0.6370239E-006  0.3031893E+02  0.7818608E-02  0.1683467E+00
          2   -1    0    0  502    0  0.00000000000E+00  0.00000000000E+00  0.14635465306E+03  0.14635465306E+03  0.00000000000E+00 0. -1.
          1   -1    0    0  501    0 -0.00000000000E+00 -0.00000000000E+00 -0.11805176493E+03  0.11805176493E+03  0.00000000000E+00 0. -1.
         25    2    1    2    0    0 -0.10509990125E+02 -0.77211157508E+00 -0.72058656827E+02  0.14466656118E+03  0.12499963140E+03 0.  0.
          2    1    1    2  501    0  0.16406335277E+02  0.30512163803E+02  0.47343053059E+02  0.58664509289E+02  0.00000000000E+00 0. -1.
          1    1    1    2  502    0 -0.58963451520E+01 -0.29740052228E+02  0.53018491894E+02  0.61075347526E+02  0.00000000000E+00 0. -1.
         22    1    3    3    0    0  0.15962232059E+02  0.58213854653E+02 -0.40757729095E+02  0.72834320254E+02  0.00000000000E+00 0. -1.
         22    1    3    3    0    0 -0.26472222184E+02 -0.58985966228E+02 -0.31300927732E+02  0.71832240923E+02  0.00000000000E+00 0. -1.
</event>
<event>
 7    1  0.6370239E-006  0.1229670E+03  0.7818608E-02  0.1379926E+00
          2   -1    0    0  502    0  0.00000000000E+00  0.00000000000E+00  0.70367834480E+03  0.70367834480E+03  0.00000000000E+00 0. -1.
          1   -1    0    0  501    0 -0.00000000000E+00 -0.00000000000E+00 -0.24464929115E+04  0.24464929115E+04  0.00000000000E+00 0. -1.
         25    2    1    2    0    0  0.10222118122E+03  0.38910926247E+02 -0.40865280678E+02  0.17104999741E+03  0.12499960151E+03 0.  0.
          2    1    1    2  501    0  0.21090712370E+02 -0.26431153289E+02 -0.23343977721E+04  0.23346426670E+04  0.00000000000E+00 0. -1.
          1    1    1    2  502    0 -0.12331189359E+03 -0.12479772958E+02  0.63244848611E+03  0.64447859190E+03  0.00000000000E+00 0. -1.
         22    1    3    3    0    0  0.11235808206E+03 -0.13078578896E+02 -0.28770168999E+02  0.11671808110E+03  0.00000000000E+00 0.  1.
         22    1    3    3    0    0 -0.10136900840E+02  0.51989505143E+02 -0.12095111679E+02  0.54331916312E+02  0.00000000000E+00 0.  1.
</event>
<event>
 7    1  0.6370239E-006  0.3085900E+03  0.7818608E-02  0.1228526E+00
          2   -1    0    0  502    0  0.00000000000E+00  0.00000000000E+00  0.15437290773E+04  0.15437290773E+04  0.00000000000E+00 0. -1.
          1   -1    0    0  501    0 -0.00000000000E+00 -0.00000000000E+00 -0.86352774377E+03  0.86352774377E+03  0.00000000000E+00 0. -1.
         25    2    1    2    0    0  0.13791601060E+03  0.28363547108E+03 -0.29144951056E+03  0.44725574673E+03  0.12499991739E+03 0.  0.
          2    1    1    2  501    0  0.42584510895E+02 -0.33466834124E+02 -0.47639305888E+03  0.47946200695E+03  0.00000000000E+00 0. -1.
          1    1    1    2  502    0 -0.18050052149E+03 -0.25016863695E+03  0.14480439029E+04  0.14805390674E+04  0.00000000000E+00 0. -1.
         22    1    3    3    0    0  0.11771822075E+03  0.28796818857E+03 -0.29188869979E+03  0.42659379999E+03  0.00000000000E+00 0.  1.
         22    1    3    3    0    0  0.20197789849E+02 -0.43327174982E+01  0.43918923576E+00  0.20661946735E+02  0.00000000000E+00 0.  1.
</event>
<event>
 7    1  0.6370239E-006  0.9974167E+02  0.7818608E-02  0.1440783E+00
          2   -1    0    0  502    0  0.00000000000E+00  0.00000000000E+00  0.62750624001E+03  0.62750624001E+03  0.00000000000E+00 0. -1.
          1   -1    0    0  501    0 -0.00000000000E+00 -0.00000000000E+00 -0.13644429874E+04  0.13644429874E+04  0.00000000000E+00 0. -1.
         25    2    1    2    0    0 -0.35258281899E+01  0.74936969771E+02 -0.53604474656E+02  0.15532076873E+03  0.12499248215E+03 0.  0.
          2    1    1    2  501    0 -0.45737270386E+01  0.25522858710E+02 -0.12554416695E+04  0.12557094094E+04  0.00000000000E+00 0. -1.
          1    1    1    2  502    0  0.80995552286E+01 -0.10045982848E+03  0.57210939678E+03  0.58091904928E+03  0.00000000000E+00 0. -1.
         22    1    3    3    0    0  0.43365354087E+02  0.83852292786E+02 -0.51516369606E+02  0.10754393185E+03  0.00000000000E+00 0. -1.
         22    1    3    3    0    0 -0.46891182277E+02 -0.89153230149E+01 -0.20881050495E+01  0.47776836883E+02  0.00000000000E+00 0. -1.
</event>
<event>
 7    1  0.6370239E-006  0.9537685E+02  0.7818608E-02  0.1356257E+00
          2   -1    0    0  502    0  0.00000000000E+00  0.00000000000E+00  0.42287976586E+03  0.42287976586E+03  0.00000000000E+00 0. -1.
          1   -1    0    0  501    0 -0.00000000000E+00 -0.00000000000E+00 -0.79149526216E+03  0.79149526216E+03  0.00000000000E+00 0. -1.
         25    2    1    2    0    0  0.80363703942E+01 -0.60778120443E+02 -0.40721574090E+03  0.43035732603E+03  0.12499682098E+03 0.  0.
          2    1    1    2  501    0  0.50924017456E+02 -0.14914469745E+02 -0.36516956050E+03  0.36900474912E+03  0.00000000000E+00 0. -1.
          1    1    1    2  502    0 -0.58960387850E+02  0.75692590188E+02  0.40376980510E+03  0.41501295287E+03  0.00000000000E+00 0. -1.
         22    1    3    3    0    0  0.91950376749E+01 -0.92376594400E+02 -0.37026094337E+03  0.38172129898E+03  0.00000000000E+00 0. -1.
         22    1    3    3    0    0 -0.11586672808E+01  0.31598473957E+02 -0.36954797527E+02  0.48636027043E+02  0.00000000000E+00 0. -1.
</event>
<event>
 7    1  0.6370239E-006  0.1001354E+03  0.7818608E-02  0.1396759E+00
          2   -1    0    0  502    0  0.00000000000E+00  0.00000000000E+00  0.13360466655E+02  0.13360466655E+02  0.00000000000E+00 0. -1.
          1   -1    0    0  501    0 -0.00000000000E+00 -0.00000000000E+00 -0.35369397724E+04  0.35369397724E+04  0.00000000000E+00 0. -1.
         25    2    1    2    0    0 -0.12301959353E+02 -0.12764178950E+03 -0.18196228299E+04  0.18284135256E+04  0.12500005134E+03 0.  0.
          2    1    1    2  501    0  0.70522371712E+01  0.91764718754E+02 -0.16689526227E+04  0.16714883651E+04  0.00000000000E+00 0. -1.
          1    1    1    2  502    0  0.52497221815E+01  0.35877070747E+02 -0.35003853133E+02  0.50398348411E+02  0.00000000000E+00 0. -1.
         22    1    3    3    0    0  0.36426316797E+02 -0.53568474656E+02 -0.33872669667E+03  0.34486552897E+03  0.00000000000E+00 0. -1.
         22    1    3    3    0    0 -0.48728276149E+02 -0.74073314845E+02 -0.14808961332E+04  0.14835479966E+04  0.00000000000E+00 0. -1.
</event>
<event>
 7    1  0.6370239E-006  0.8641221E+02  0.7818608E-02  0.1417426E+00
          2   -1    0    0  502    0  0.00000000000E+00  0.00000000000E+00  0.21949830214E+03  0.21949830214E+03  0.00000000000E+00 0. -1.
          1   -1    0    0  501    0 -0.00000000000E+00 -0.00000000000E+00 -0.31500866053E+04  0.31500866053E+04  0.00000000000E+00 0. -1.
         25    2    1    2    0    0  0.57550569893E+02 -0.25442823083E+02  0.66487156090E+02  0.15493464345E+03  0.12499918590E+03 0.  0.
          2    1    1    2  501    0 -0.86449756696E+02  0.44229504403E+01 -0.31023081496E+04  0.31035155837E+04  0.00000000000E+00 0. -1.
          1    1    1    2  502    0  0.28899186803E+02  0.21019872642E+02  0.10523269037E+03  0.11113468030E+03  0.00000000000E+00 0. -1.
         22    1    3    3    0    0 -0.95967831156E+01  0.10324358010E+02  0.76868599550E+02  0.78150318050E+02  0.00000000000E+00 0. -1.
         22    1    3    3    0    0  0.67147353009E+02 -0.35767181093E+02 -0.10381443460E+02  0.76784325404E+02  0.00000000000E+00 0. -1.
</event>
<event>
 7    1  0.6370239E-006  0.6401342E+02  0.7818608E-02  0.1385806E+00
          2   -1    0    0  502    0  0.00000000000E+00  0.00000000000E+00  0.39186608707E+03  0.39186608707E+03  0.00000000000E+00 0. -1.
          1   -1    0    0  501    0 -0.00000000000E+00 -0.00000000000E+00 -0.81452364248E+02  0.81452364248E+02  0.00000000000E+00 0. -1.
         25    2    1    2    0    0  0.10394937077E+01  0.69071851114E+01  0.23051095910E+03  0.26230517648E+03  0.12497965272E+03 0.  0.
          2    1    1    2  501    0 -0.23873039083E+02 -0.64471680571E+02 -0.37475616729E+02  0.78300328480E+02  0.00000000000E+00 0. -1.
          1    1    1    2  502    0  0.22833545376E+02  0.57564495460E+02  0.11737838045E+03  0.13271294635E+03  0.00000000000E+00 0. -1.
         22    1    3    3    0    0 -0.18912960827E+02  0.30446887517E+02  0.68077308445E+01  0.36483670950E+02  0.00000000000E+00 0. -1.
         22    1    3    3    0    0  0.19952454535E+02 -0.23539702406E+02  0.22370322825E+03  0.22582150553E+03  0.00000000000E+00 0. -1.
</event>
<event>
 7    1  0.6370239E-006  0.7698942E+02  0.7818608E-02  0.1405985E+00
          2   -1    0    0  502    0  0.00000000000E+00  0.00000000000E+00  0.20277003548E+04  0.20277003548E+04  0.00000000000E+00 0. -1.
          1   -1    0    0  501    0 -0.00000000000E+00 -0.00000000000E+00 -0.20594740276E+03  0.20594740276E+03  0.00000000000E+00 0. -1.
         25    2    1    2    0    0  0.62693844908E+02  0.34361397283E+02  0.78309403619E+03  0.79622403954E+03  0.12500091122E+03 0.  0.
          2    1    1    2  501    0 -0.76825206896E+02  0.71431730615E+01 -0.19151274162E+03  0.20647098473E+03  0.00000000000E+00 0. -1.
          1    1    1    2  502    0  0.14131361988E+02 -0.41504570344E+02  0.12301716574E+04  0.12309527333E+04  0.00000000000E+00 0. -1.
         22    1    3    3    0    0 -0.14789474489E+01 -0.91310250663E+01 -0.52268146943E-01  0.92501695270E+01  0.00000000000E+00 0.  1.
         22    1    3    3    0    0  0.64172792357E+02  0.43492422349E+02  0.78314630434E+03  0.78697387001E+03  0.00000000000E+00 0.  1.
</event>
<event>
 7    1  0.6370239E-006  0.1989724E+03  0.7818608E-02  0.1228127E+00
          2   -1    0    0  502    0  0.00000000000E+00  0.00000000000E+00  0.30327787070E+03  0.30327787070E+03  0.00000000000E+00 0. -1.
          1   -1    0    0  501    0 -0.00000000000E+00 -0.00000000000E+00 -0.68995640833E+03  0.68995640833E+03  0.00000000000E+00 0. -1.
         25    2    1    2    0    0 -0.17200128664E+01  0.13752905743E+03 -0.25411648662E+02  0.18758544513E+03  0.12500138902E+03 0.  0.
          2    1    1    2  501    0  0.44864239766E+02 -0.21000747846E+03 -0.55459600418E+03  0.59472066457E+03  0.00000000000E+00 0. -1.
          1    1    1    2  502    0 -0.43144226899E+02  0.72478421026E+02  0.19332911521E+03  0.21092816933E+03  0.00000000000E+00 0. -1.
         22    1    3    3    0    0 -0.12181543370E+02  0.11799763601E+03 -0.70040743603E+02  0.13775898471E+03  0.00000000000E+00 0. -1.
         22    1    3    3    0    0  0.10461530504E+02  0.19531421419E+02  0.44629094942E+02  0.49826460425E+02  0.00000000000E+00 0. -1.
</event>
<event>
 7    1  0.6370239E-006  0.9801088E+02  0.7818608E-02  0.1396691E+00
          2   -1    0    0  502    0  0.00000000000E+00  0.00000000000E+00  0.82199258920E+03  0.82199258920E+03  0.00000000000E+00 0. -1.
          1   -1    0    0  501    0 -0.00000000000E+00 -0.00000000000E+00 -0.99869948784E+03  0.99869948784E+03  0.00000000000E+00 0. -1.
         25    2    1    2    0    0  0.66985290922E+01  0.11485854755E+03  0.97362611259E+02  0.19581548034E+03  0.12500747191E+03 0.  0.
          2    1    1    2  501    0  0.24415081776E+02 -0.94714436938E+02 -0.94644225930E+03  0.95148298512E+03  0.00000000000E+00 0. -1.
          1    1    1    2  502    0 -0.31113610868E+02 -0.20144110610E+02  0.67237274940E+03  0.67339361158E+03  0.00000000000E+00 0. -1.
         22    1    3    3    0    0 -0.25558949052E+02  0.12220470641E+03  0.10349562973E+03  0.16216841714E+03  0.00000000000E+00 0. -1.
         22    1    3    3    0    0  0.32257478144E+02 -0.73461588638E+01 -0.61330184683E+01  0.33647063197E+02  0.00000000000E+00 0. -1.
</event>
<event>
 7    1  0.6370239E-006  0.1952915E+03  0.7818608E-02  0.1245696E+00
          2   -1    0    0  502    0  0.00000000000E+00  0.00000000000E+00  0.22083224010E+04  0.22083224010E+04  0.00000000000E+00 0. -1.
          1   -1    0    0  501    0 -0.00000000000E+00 -0.00000000000E+00 -0.23451392238E+04  0.23451392238E+04  0.00000000000E+00 0. -1.
         25    2    1    2    0    0  0.76185468903E+02  0.11149367120E+03 -0.23671502087E+03  0.29981392644E+03  0.12497729791E+03 0.  0.
          2    1    1    2  501    0 -0.98843784858E+02 -0.17965520772E+03 -0.20712181493E+04  0.20813434867E+04  0.00000000000E+00 0. -1.
          1    1    1    2  502    0  0.22658315956E+02  0.68161536520E+02  0.21711163474E+04  0.21723042117E+04  0.00000000000E+00 0. -1.
         22    1    3    3    0    0 -0.13594407654E+02  0.18113575771E+02 -0.13006183273E+03  0.13201889970E+03  0.00000000000E+00 0. -1.
         22    1    3    3    0    0  0.89779876557E+02  0.93380095427E+02 -0.10665318814E+03  0.16779502674E+03  0.00000000000E+00 0. -1.
</event>
<event>
 7    1  0.6370239E-006  0.1292928E+03  0.7818608E-02  0.1288470E+00
          2   -1    0    0  502    0  0.00000000000E+00  0.00000000000E+00  0.11425555837E+04  0.11425555837E+04  0.00000000000E+00 0. -1.
          1   -1    0    0  501    0 -0.00000000000E+00 -0.00000000000E+00 -0.53646542464E+03  0.53646542464E+03  0.00000000000E+00 0. -1.
         25    2    1    2    0    0  0.13846746992E+03  0.77544547633E+02  0.21911642992E+03  0.29803232276E+03  0.12499943383E+03 0.  0.
          2    1    1    2  501    0 -0.66115075907E+02  0.27470283525E+02 -0.48979204334E+03  0.49499703580E+03  0.00000000000E+00 0. -1.
          1    1    1    2  502    0 -0.72352394009E+02 -0.10501483116E+03  0.87676577249E+03  0.88599164979E+03  0.00000000000E+00 0. -1.
         22    1    3    3    0    0  0.24077325998E+02 -0.34379907593E+02  0.46560313934E+02  0.62686190719E+02  0.00000000000E+00 0. -1.
         22    1    3    3    0    0  0.11439014392E+03  0.11192445523E+03  0.17255611599E+03  0.23534613204E+03  0.00000000000E+00 0. -1.
</event>
<event>
 7    1  0.6370239E-006  0.9134314E+02  0.7818608E-02  0.1358876E+00
          2   -1    0    0  502    0  0.00000000000E+00  0.00000000000E+00  0.16719395891E+04  0.16719395891E+04  0.00000000000E+00 0. -1.
          1   -1    0    0  501    0 -0.00000000000E+00 -0.00000000000E+00 -0.27056262147E+03  0.27056262147E+03  0.00000000000E+00 0. -1.
         25    2    1    2    0    0 -0.11809335464E+03  0.66793365066E+02  0.94544525089E+03  0.96327476478E+03  0.12499662399E+03 0.  0.
          2    1    1    2  501    0  0.63935292092E+02 -0.64778891658E+02 -0.25266644994E+03  0.26855979093E+03  0.00000000000E+00 0. -1.
          1    1    1    2  502    0  0.54158062545E+02 -0.20144734082E+01  0.70859816664E+03  0.71066765482E+03  0.00000000000E+00 0. -1.
         22    1    3    3    0    0 -0.12540841292E+03  0.20250113248E+02  0.80926383770E+03  0.81917354457E+03  0.00000000000E+00 0. -1.
         22    1    3    3    0    0  0.73150582844E+01  0.46543251818E+02  0.13618141318E+03  0.14410122020E+03  0.00000000000E+00 0. -1.
</event>
<event>
 7    1  0.6370239E-006  0.1391972E+03  0.7818608E-02  0.1354862E+00
          2   -1    0    0  502    0  0.00000000000E+00  0.00000000000E+00  0.17578113658E+03  0.17578113658E+03  0.00000000000E+00 0. -1.
          1   -1    0    0  501    0 -0.00000000000E+00 -0.00000000000E+00 -0.44236732215E+03  0.44236732215E+03  0.00000000000E+00 0. -1.
         25    2    1    2    0    0  0.96542392155E+02 -0.92318111161E+02 -0.15085732967E+03  0.23712009708E+03  0.12499975757E+03 0.  0.
          2    1    1    2  501    0 -0.12541832045E+03  0.69521560815E+02 -0.22439641113E+03  0.26630199371E+03  0.00000000000E+00 0. -1.
          1    1    1    2  502    0  0.28875928296E+02  0.22796550347E+02  0.10866755523E+03  0.11472636795E+03  0.00000000000E+00 0. -1.
         22    1    3    3    0    0  0.62482334266E+02 -0.79001805881E+02 -0.21899715899E+02  0.10307727676E+03  0.00000000000E+00 0. -1.
         22    1    3    3    0    0  0.34060057889E+02 -0.13316305280E+02 -0.12895761377E+03  0.13404282032E+03  0.00000000000E+00 0. -1.
</event>
<event>
 7    1  0.6370239E-006  0.4496444E+02  0.7818608E-02  0.1495633E+00
          2   -1    0    0  502    0  0.00000000000E+00  0.00000000000E+00  0.67369849804E+03  0.67369849804E+03  0.00000000000E+00 0. -1.
          1   -1    0    0  501    0 -0.00000000000E+00 -0.00000000000E+00 -0.53281818899E+02  0.53281818899E+02  0.00000000000E+00 0. -1.
         25    2    1    2    0    0  0.15028883147E+02  0.13186022801E+02  0.28611462583E+03  0.31286252654E+03  0.12498657077E+03 0.  0.
          2    1    1    2  501    0  0.33347643704E+02 -0.19808466599E+02 -0.28444864771E+02  0.48099386913E+02  0.00000000000E+00 0. -1.
          1    1    1    2  502    0 -0.48376526851E+02  0.66224437983E+01  0.36274691808E+03  0.36601840348E+03  0.00000000000E+00 0. -1.
         22    1    3    3    0    0 -0.72600102934E+01  0.12481664839E+02  0.28988638356E+03  0.29024578391E+03  0.00000000000E+00 0. -1.
         22    1    3    3    0    0  0.22288893440E+02  0.70435796174E+00 -0.37717577242E+01  0.22616742631E+02  0.00000000000E+00 0. -1.
</event>
<event>
 7    1  0.6370239E-006  0.1413944E+03  0.7818608E-02  0.1290186E+00
          2   -1    0    0  502    0  0.00000000000E+00  0.00000000000E+00  0.86988155184E+03  0.86988155184E+03  0.00000000000E+00 0. -1.
          1   -1    0    0  501    0 -0.00000000000E+00 -0.00000000000E+00 -0.31809039407E+03  0.31809039407E+03  0.00000000000E+00 0. -1.
         25    2    1    2    0    0 -0.91145215000E+02 -0.87472454704E+02  0.13537205325E+03  0.22340137484E+03  0.12499480361E+03 0.  0.
          2    1    1    2  501    0  0.13774341517E+03  0.42987748424E+02 -0.25343045112E+03  0.29163022561E+03  0.00000000000E+00 0. -1.
          1    1    1    2  502    0 -0.46598200166E+02  0.44484706280E+02  0.66984955564E+03  0.67294034546E+03  0.00000000000E+00 0. -1.
         22    1    3    3    0    0 -0.10302754255E+02  0.24189109594E+02  0.61761762685E+02  0.67125070563E+02  0.00000000000E+00 0.  1.
         22    1    3    3    0    0 -0.80842460745E+02 -0.11166156430E+03  0.73610290570E+02  0.15627630428E+03  0.00000000000E+00 0.  1.
</event>
<event>
 7    1  0.6370239E-006  0.9214328E+02  0.7818608E-02  0.1447598E+00
          2   -1    0    0  502    0  0.00000000000E+00  0.00000000000E+00  0.20125871445E+03  0.20125871445E+03  0.00000000000E+00 0. -1.
          1   -1    0    0  501    0 -0.00000000000E+00 -0.00000000000E+00 -0.55647502049E+03  0.55647502049E+03  0.00000000000E+00 0. -1.
         25    2    1    2    0    0  0.84200497262E+02  0.69353568942E+02 -0.95138193932E+02  0.19124955377E+03  0.12500189843E+03 0.  0.
          2    1    1    2  501    0 -0.43270270644E+01 -0.26329008904E+02 -0.39936549819E+03  0.40025584445E+03  0.00000000000E+00 0. -1.
          1    1    1    2  502    0 -0.79873470198E+02 -0.43024560038E+02  0.13928738607E+03  0.16622833672E+03  0.00000000000E+00 0. -1.
         22    1    3    3    0    0  0.10601610209E+03  0.39222755588E+02 -0.10334006721E+03  0.15315680837E+03  0.00000000000E+00 0. -1.
         22    1    3    3    0    0 -0.21815604829E+02  0.30130813354E+02  0.82018732779E+01  0.38092745407E+02  0.00000000000E+00 0. -1.
</event>
<event>
 7    1  0.6370239E-006  0.1171243E+03  0.7818608E-02  0.1272412E+00
          2   -1    0    0  502    0  0.00000000000E+00  0.00000000000E+00  0.11512165899E+04  0.11512165899E+04  0.00000000000E+00 0. -1.
          1   -1    0    0  501    0 -0.00000000000E+00 -0.00000000000E+00 -0.12023003652E+03  0.12023003652E+03  0.00000000000E+00 0. -1.
         25    2    1    2    0    0  0.14295171909E+03 -0.11158941171E+03  0.59925847017E+03  0.63845360476E+03  0.12499960224E+03 0.  0.
          2    1    1    2  501    0 -0.88633994593E+02  0.24923348762E+02 -0.73315922868E+02  0.11769614631E+03  0.00000000000E+00 0. -1.
          1    1    1    2  502    0 -0.54317724500E+02  0.86666062948E+02  0.50504400608E+03  0.51529687535E+03  0.00000000000E+00 0. -1.
         22    1    3    3    0    0 -0.74563036498E+00  0.93418736781E+01 -0.10700099050E+01  0.94324699658E+01  0.00000000000E+00 0.  1.
         22    1    3    3    0    0  0.14369734946E+03 -0.12093128539E+03  0.60032848008E+03  0.62902113480E+03  0.00000000000E+00 0.  1.
</event>
<event>
 7    1  0.6370239E-006  0.4028475E+02  0.7818608E-02  0.1508665E+00
          2   -1    0    0  502    0  0.00000000000E+00  0.00000000000E+00  0.98153949493E+03  0.98153949493E+03  0.00000000000E+00 0. -1.
          1   -1    0    0  501    0 -0.00000000000E+00 -0.00000000000E+00 -0.49051512406E+03  0.49051512406E+03  0.00000000000E+00 0. -1.
         25    2    1    2    0    0 -0.14477857728E+02  0.13713321297E+02  0.67771849273E+03  0.68943612470E+03  0.12498860391E+03 0.  0.
          2    1    1    2  501    0 -0.34949327994E+02 -0.18609474594E+02 -0.48176856191E+03  0.48339292022E+03  0.00000000000E+00 0. -1.
          1    1    1    2  502    0  0.49427185722E+02  0.48961532970E+01  0.29507444005E+03  0.29922557407E+03  0.00000000000E+00 0. -1.
         22    1    3    3    0    0 -0.42334001955E+02  0.52420101987E+02  0.52861829768E+03  0.53289524248E+03  0.00000000000E+00 0. -1.
         22    1    3    3    0    0  0.27856144226E+02 -0.38706780690E+02  0.14910019505E+03  0.15654088222E+03  0.00000000000E+00 0. -1.
</event>
<event>
 7    1  0.6370239E-006  0.8963883E+02  0.7818608E-02  0.1371997E+00
          2   -1    0    0  502    0  0.00000000000E+00  0.00000000000E+00  0.20729554753E+04  0.20729554753E+04  0.00000000000E+00 0. -1.
          1   -1    0    0  501    0 -0.00000000000E+00 -0.00000000000E+00 -0.39697288687E+03  0.39697288687E+03  0.00000000000E+00 0. -1.
         25    2    1    2    0    0  0.12344782811E+03  0.50100136379E+02  0.31060379061E+03  0.36034595063E+03  0.12500039788E+03 0.  0.
          2    1    1    2  501    0 -0.87534897026E+02 -0.16026428638E+02 -0.36642243945E+03  0.37707374444E+03  0.00000000000E+00 0. -1.
          1    1    1    2  502    0 -0.35912931083E+02 -0.34073707741E+02  0.17318012373E+04  0.17325086671E+04  0.00000000000E+00 0. -1.
         22    1    3    3    0    0 -0.59248138657E+01  0.50380562797E+02  0.62125633465E+02  0.80205354313E+02  0.00000000000E+00 0.  1.
         22    1    3    3    0    0  0.12937264197E+03 -0.28042641818E+00  0.24847815714E+03  0.28014059632E+03  0.00000000000E+00 0.  1.
</event>
<event>
 7    1  0.6370239E-006  0.1018728E+03  0.7818608E-02  0.1293841E+00
          2   -1    0    0  502    0  0.00000000000E+00  0.00000000000E+00  0.58726450632E+03  0.58726450632E+03  0.00000000000E+00 0. -1.
          1   -1    0    0  501    0 -0.00000000000E+00 -0.00000000000E+00 -0.19700408897E+04  0.19700408897E+04  0.00000000000E+00 0. -1.
         25    2    1    2    0    0 -0.89794606595E+02  0.14115209821E+03 -0.55776165298E+03  0.59557525883E+03  0.12499936475E+03 0.  0.
          2    1    1    2  501    0  0.44171692195E+01 -0.86302791434E+02 -0.13874878481E+04  0.13901763240E+04  0.00000000000E+00 0. -1.
          1    1    1    2  502    0  0.85377437376E+02 -0.54849306772E+02  0.56247311769E+03  0.57155381321E+03  0.00000000000E+00 0. -1.
         22    1    3    3    0    0  0.22234399501E+02  0.16149166612E+02 -0.18150742722E+03  0.18357589776E+03  0.00000000000E+00 0.  1.
         22    1    3    3    0    0 -0.11202900610E+03  0.12500293159E+03 -0.37625422576E+03  0.41199936106E+03  0.00000000000E+00 0.  1.
</event>
<event>
 7    1  0.6370239E-006  0.4160955E+02  0.7818608E-02  0.1506874E+00
          2   -1    0    0  502    0  0.00000000000E+00  0.00000000000E+00  0.42097747305E+03  0.42097747305E+03  0.00000000000E+00 0. -1.
          1   -1    0    0  501    0 -0.00000000000E+00 -0.00000000000E+00 -0.37391751325E+03  0.37391751325E+03  0.00000000000E+00 0. -1.
         25    2    1    2    0    0  0.53424481262E+02  0.37957070116E+02  0.14088030193E+03  0.19941516374E+03  0.12499693472E+03 0.  0.
          2    1    1    2  501    0 -0.14630777058E+02 -0.38851095331E+02 -0.34188610943E+03  0.34439741443E+03  0.00000000000E+00 0. -1.
          1    1    1    2  502    0 -0.38793704203E+02  0.89402521476E+00  0.24806576730E+03  0.25108240813E+03  0.00000000000E+00 0. -1.
         22    1    3    3    0    0  0.90958707731E+02  0.11385385574E+02  0.71859824802E+02  0.11647724214E+03  0.00000000000E+00 0.  1.
         22    1    3    3    0    0 -0.37534226470E+02  0.26571684542E+02  0.69020477130E+02  0.82937921600E+02  0.00000000000E+00 0.  1.
</event>
<event>
 7    1  0.6370239E-006  0.7192257E+02  0.7818608E-02  0.1491002E+00
          2   -1    0    0  502    0  0.00000000000E+00  0.00000000000E+00  0.85014763536E+03  0.85014763536E+03  0.00000000000E+00 0. -1.
          1   -1    0    0  501    0 -0.00000000000E+00 -0.00000000000E+00 -0.12178699552E+04  0.12178699552E+04  0.00000000000E+00 0. -1.
         25    2    1    2    0    0  0.45631176520E+02  0.23172144759E+02 -0.56701223325E+03  0.58287785205E+03  0.12499826076E+03 0.  0.
          2    1    1    2  501    0  0.94238984347E+01  0.23199196260E+02 -0.64114205183E+03  0.64163084651E+03  0.00000000000E+00 0. -1.
          1    1    1    2  502    0 -0.55055074955E+02 -0.46371341019E+02  0.84043196528E+03  0.84350889196E+03  0.00000000000E+00 0. -1.
         22    1    3    3    0    0 -0.27423110103E+02  0.30246139911E+02 -0.74739464831E+02  0.85163628096E+02  0.00000000000E+00 0.  1.
         22    1    3    3    0    0  0.73054286623E+02 -0.70739951520E+01 -0.49227276842E+03  0.49771422395E+03  0.00000000000E+00 0.  1.
</event>
<event>
 7    1  0.6370239E-006  0.9728642E+02  0.7818608E-02  0.1388357E+00
          2   -1    0    0  502    0  0.00000000000E+00  0.00000000000E+00  0.54129801424E+03  0.54129801424E+03  0.00000000000E+00 0. -1.
          1   -1    0    0  501    0 -0.00000000000E+00 -0.00000000000E+00 -0.46896823448E+03  0.46896823448E+03  0.00000000000E+00 0. -1.
         25    2    1    2    0    0 -0.89771433002E+02  0.86039058480E+02  0.29629220032E+02  0.17878352282E+03  0.12499611029E+03 0.  0.
          2    1    1    2  501    0  0.39654076185E+02 -0.45782103877E+01 -0.38812305273E+03  0.39017036001E+03  0.00000000000E+00 0. -1.
          1    1    1    2  502    0  0.50117356818E+02 -0.81460848092E+02  0.43082361247E+03  0.44131236589E+03  0.00000000000E+00 0. -1.
         22    1    3    3    0    0 -0.12082293681E+03  0.77841383628E+02  0.29210985304E+02  0.14666541762E+03  0.00000000000E+00 0. -1.
         22    1    3    3    0    0  0.31051503805E+02  0.81976748523E+01  0.41823472844E+00  0.32118105203E+02  0.00000000000E+00 0. -1.
</event>
<event>
 7    1  0.6370239E-006  0.1753929E+03  0.7818608E-02  0.1241968E+00
          2   -1    0    0  502    0  0.00000000000E+00  0.00000000000E+00  0.29305011350E+03  0.29305011350E+03  0.00000000000E+00 0. -1.
          1   -1    0    0  501    0 -0.00000000000E+00 -0.00000000000E+00 -0.99716986580E+03  0.99716986580E+03  0.00000000000E+00 0. -1.
         25    2    1    2    0    0  0.70170819620E+02 -0.20483967886E+03 -0.29719901795E+03  0.38837510932E+03  0.12499892522E+03 0.  0.
          2    1    1    2  501    0 -0.10635834293E+03  0.13009459532E+03 -0.63618537635E+03  0.65800344522E+03  0.00000000000E+00 0. -1.
          1    1    1    2  502    0  0.36187523313E+02  0.74745083540E+02  0.22926464200E+03  0.24384142476E+03  0.00000000000E+00 0. -1.
         22    1    3    3    0    0  0.41707860656E+02 -0.44370183325E+00 -0.33335157916E+02  0.53394524673E+02  0.00000000000E+00 0.  1.
         22    1    3    3    0    0  0.28462958964E+02 -0.20439597703E+03 -0.26386386004E+03  0.33498058465E+03  0.00000000000E+00 0.  1.
</event>
<event>
 7    1  0.6370239E-006  0.8527578E+02  0.7818608E-02  0.1331252E+00
          2   -1    0    0  502    0  0.00000000000E+00  0.00000000000E+00  0.68159129124E+03  0.68159129124E+03  0.00000000000E+00 0. -1.
          1   -1    0    0  501    0 -0.00000000000E+00 -0.00000000000E+00 -0.14157119241E+04  0.14157119241E+04  0.00000000000E+00 0. -1.
         25    2    1    2    0    0  0.30478478172E+02 -0.10344464145E+02  0.50696338915E+02  0.13867762026E+03  0.12500167204E+03 0.  0.
          2    1    1    2  501    0 -0.68086482984E+02 -0.52936090070E+02 -0.13680498359E+04  0.13707656081E+04  0.00000000000E+00 0. -1.
          1    1    1    2  502    0  0.37608004812E+02  0.63280554214E+02  0.58323286411E+03  0.58785998702E+03  0.00000000000E+00 0. -1.
         22    1    3    3    0    0  0.46296875793E+02 -0.22254302720E+02  0.84856802582E+02  0.99193405235E+02  0.00000000000E+00 0.  1.
         22    1    3    3    0    0 -0.15818397621E+02  0.11909838575E+02 -0.34160463667E+02  0.39484215025E+02  0.00000000000E+00 0.  1.
</event>
<event>
 7    1  0.6370239E-006  0.1029590E+03  0.7818608E-02  0.1377611E+00
          2   -1    0    0  502    0  0.00000000000E+00  0.00000000000E+00  0.20864012948E+04  0.20864012948E+04  0.00000000000E+00 0. -1.
          1   -1    0    0  501    0 -0.00000000000E+00 -0.00000000000E+00 -0.79995401871E+03  0.79995401871E+03  0.00000000000E+00 0. -1.
         25    2    1    2    0    0  0.69912101886E+02  0.12435826749E+03  0.59575608061E+02  0.19881624000E+03  0.12500385404E+03 0.  0.
          2    1    1    2  501    0 -0.25488225541E+02 -0.32314867509E+02 -0.72841817476E+03  0.72957997343E+03  0.00000000000E+00 0. -1.
          1    1    1    2  502    0 -0.44423876344E+02 -0.92043399985E+02  0.19552898428E+04  0.19579591001E+04  0.00000000000E+00 0. -1.
         22    1    3    3    0    0 -0.32915339550E+02  0.59818047611E+02  0.21257714068E+02  0.71508802291E+02  0.00000000000E+00 0.  1.
         22    1    3    3    0    0  0.10282744144E+03  0.64540219884E+02  0.38317893993E+02  0.12730743770E+03  0.00000000000E+00 0.  1.
</event>
<event>
 7    1  0.6370239E-006  0.1761914E+03  0.7818608E-02  0.1285755E+00
          2   -1    0    0  502    0  0.00000000000E+00  0.00000000000E+00  0.28091684858E+04  0.28091684858E+04  0.00000000000E+00 0. -1.
          1   -1    0    0  501    0 -0.00000000000E+00 -0.00000000000E+00 -0.49945999174E+03  0.49945999174E+03  0.00000000000E+00 0. -1.
         25    2    1    2    0    0  0.98518963978E+01  0.14742115195E+03 -0.63667750363E+02  0.20374556603E+03  0.12501446850E+03 0.  0.
          2    1    1    2  501    0  0.50475435686E+02  0.18897382194E+02 -0.36089319579E+03  0.36489557332E+03  0.00000000000E+00 0. -1.
          1    1    1    2  502    0 -0.60327332083E+02 -0.16631853415E+03  0.27342694402E+04  0.27399873382E+04  0.00000000000E+00 0. -1.
         22    1    3    3    0    0  0.57063862214E+02  0.45820449901E+02  0.32363354674E+01  0.73254841937E+02  0.00000000000E+00 0. -1.
         22    1    3    3    0    0 -0.47211965816E+02  0.10160070205E+03 -0.66904085830E+02  0.13049072409E+03  0.00000000000E+00 0. -1.
</event>
<event>
 7    1  0.6370239E-006  0.1832025E+03  0.7818608E-02  0.1293303E+00
          2   -1    0    0  502    0  0.00000000000E+00  0.00000000000E+00  0.65365914673E+03  0.65365914673E+03  0.00000000000E+00 0. -1.
          1   -1    0    0  501    0 -0.00000000000E+00 -0.00000000000E+00 -0.25563899954E+04  0.25563899954E+04  0.00000000000E+00 0. -1.
         25    2    1    2    0    0  0.99175043873E+02 -0.11081888752E+03 -0.27926810856E+03  0.34018702591E+03  0.12498008234E+03 0.  0.
          2    1    1    2  501    0 -0.99958929372E+02  0.15910690763E+03 -0.22417904034E+04  0.22496513081E+04  0.00000000000E+00 0. -1.
          1    1    1    2  502    0  0.78388549902E+00 -0.48288020110E+02  0.61832766324E+03  0.62021080810E+03  0.00000000000E+00 0. -1.
         22    1    3    3    0    0  0.32934323440E+02 -0.18970984656E+02  0.87911867475E+00  0.38017637603E+02  0.00000000000E+00 0.  1.
         22    1    3    3    0    0  0.66240720434E+02 -0.91847902863E+02 -0.28014722723E+03  0.30216938831E+03  0.00000000000E+00 0.  1.
</event>
<event>
 7    1  0.6370239E-006  0.6163286E+02  0.7818608E-02  0.1395134E+00
          2   -1    0    0  502    0  0.00000000000E+00  0.00000000000E+00  0.42254046199E+02  0.42254046199E+02  0.00000000000E+00 0. -1.
          1   -1    0    0  501    0 -0.00000000000E+00 -0.00000000000E+00 -0.11845157964E+04  0.11845157964E+04  0.00000000000E+00 0. -1.
         25    2    1    2    0    0 -0.36178540973E+01 -0.14199609557E+02 -0.36012502157E+03  0.38148321184E+03  0.12499876789E+03 0.  0.
          2    1    1    2  501    0 -0.36245391329E+02  0.58611543153E+02 -0.78257833988E+03  0.78560670786E+03  0.00000000000E+00 0. -1.
          1    1    1    2  502    0  0.39863245426E+02 -0.44411933596E+02  0.44161120953E+00  0.59679922939E+02  0.00000000000E+00 0. -1.
         22    1    3    3    0    0 -0.34318825444E+01  0.41547396975E+02 -0.44517063183E+02  0.60989613276E+02  0.00000000000E+00 0.  1.
         22    1    3    3    0    0 -0.18597155295E+00 -0.55747006532E+02 -0.31560795839E+03  0.32049359857E+03  0.00000000000E+00 0.  1.
</event>
<event>
 7    1  0.6370239E-006  0.2329184E+03  0.7818608E-02  0.1288978E+00
          2   -1    0    0  502    0  0.00000000000E+00  0.00000000000E+00  0.38739485747E+03  0.38739485747E+03  0.00000000000E+00 0. -1.
          1   -1    0    0  501    0 -0.00000000000E+00 -0.00000000000E+00 -0.52173161326E+03  0.52173161326E+03  0.00000000000E+00 0. -1.
         25    2    1    2    0    0  0.19603933065E+03 -0.17484740640E+03 -0.20831341071E+02  0.29165409787E+03  0.12500053340E+03 0.  0.
          2    1    1    2  501    0 -0.15991844280E+03  0.15873128259E+03 -0.32878806577E+03  0.39858640295E+03  0.00000000000E+00 0. -1.
          1    1    1    2  502    0 -0.36120887843E+02  0.16116123806E+02  0.21528265105E+03  0.21888596992E+03  0.00000000000E+00 0. -1.
         22    1    3    3    0    0  0.32383403649E+02 -0.28569437275E+01  0.34997816507E+02  0.47767081967E+02  0.00000000000E+00 0.  1.
         22    1    3    3    0    0  0.16365592700E+03 -0.17199046267E+03 -0.55829157578E+02  0.24388701590E+03  0.00000000000E+00 0.  1.
</event>
<event>
 7    1  0.6370239E-006  0.8601738E+02  0.7818608E-02  0.1405937E+00
          2   -1    0    0  502    0  0.00000000000E+00  0.00000000000E+00  0.24038892914E+03  0.24038892914E+03  0.00000000000E+00 0. -1.
          1   -1    0    0  501    0 -0.00000000000E+00 -0.00000000000E+00 -0.20580791053E+04  0.20580791053E+04  0.00000000000E+00 0. -1.
         25    2    1    2    0    0  0.58451655680E+02  0.12943523506E+02 -0.71843324119E+01  0.13877787563E+03  0.12499421299E+03 0.  0.
          2    1    1    2  501    0  0.18945615936E+02  0.34383270625E+02 -0.19731047168E+04  0.19734952163E+04  0.00000000000E+00 0. -1.
          1    1    1    2  502    0 -0.77397271617E+02 -0.47326794131E+02  0.16259887301E+03  0.18619494247E+03  0.00000000000E+00 0. -1.
         22    1    3    3    0    0  0.68336621644E+02 -0.35062029297E+02  0.24258634311E+02  0.80546390948E+02  0.00000000000E+00 0. -1.
         22    1    3    3    0    0 -0.98849659637E+01  0.48005552803E+02 -0.31442966723E+02  0.58231484683E+02  0.00000000000E+00 0. -1.
</event>
<event>
 7    1  0.6370239E-006  0.1313847E+03  0.7818608E-02  0.1339956E+00
          2   -1    0    0  502    0  0.00000000000E+00  0.00000000000E+00  0.79123424456E+03  0.79123424456E+03  0.00000000000E+00 0. -1.
          1   -1    0    0  501    0 -0.00000000000E+00 -0.00000000000E+00 -0.36101768403E+03  0.36101768403E+03  0.00000000000E+00 0. -1.
         25    2    1    2    0    0  0.14531280582E+03  0.27877564777E+00  0.22865658203E+03  0.29837264701E+03  0.12500605878E+03 0.  0.
          2    1    1    2  501    0 -0.21707880644E+02 -0.38600162972E+02 -0.31666205041E+03  0.31974373932E+03  0.00000000000E+00 0. -1.
          1    1    1    2  502    0 -0.12360492517E+03  0.38321387324E+02  0.51822202891E+03  0.53413554226E+03  0.00000000000E+00 0. -1.
         22    1    3    3    0    0  0.47361079991E+02 -0.37716692219E+02  0.16445691887E+03  0.17524753617E+03  0.00000000000E+00 0. -1.
         22    1    3    3    0    0  0.97951725826E+02  0.37995467866E+02  0.64199663159E+02  0.12312511084E+03  0.00000000000E+00 0. -1.
</event>
<event>
 7    1  0.6370239E-006  0.8203624E+02  0.7818608E-02  0.1332515E+00
          2   -1    0    0  502    0  0.00000000000E+00  0.00000000000E+00  0.40607156060E+02  0.40607156060E+02  0.00000000000E+00 0. -1.
          1   -1    0    0  501    0 -0.00000000000E+00 -0.00000000000E+00 -0.29783980018E+04  0.29783980018E+04  0.00000000000E+00 0. -1.
         25    2    1    2    0    0 -0.12504531688E+03 -0.11306267361E+02 -0.12039210266E+04  0.12168875307E+04  0.12500104488E+03 0.  0.
          2    1    1    2  501    0  0.63343877011E+02 -0.41405771767E+02 -0.17177053136E+04  0.17193715216E+04  0.00000000000E+00 0. -1.
          1    1    1    2  502    0  0.61701439872E+02  0.52712039128E+02 -0.16164505546E+02  0.82746105593E+02  0.00000000000E+00 0. -1.
         22    1    3    3    0    0 -0.81929579456E+02  0.88966131618E+01 -0.28348689158E+03  0.29522266751E+03  0.00000000000E+00 0. -1.
         22    1    3    3    0    0 -0.43115737426E+02 -0.20202880523E+02 -0.92043413500E+03  0.92166486321E+03  0.00000000000E+00 0. -1.
</event>
<event>
 7    1  0.6370239E-006  0.1005824E+03  0.7818608E-02  0.1289799E+00
          2   -1    0    0  502    0  0.00000000000E+00  0.00000000000E+00  0.33154982816E+04  0.33154982816E+04  0.00000000000E+00 0. -1.
          1   -1    0    0  501    0 -0.00000000000E+00 -0.00000000000E+00 -0.82922378516E+02  0.82922378516E+02  0.00000000000E+00 0. -1.
         25    2    1    2    0    0  0.15791990322E+03  0.92851152619E+02  0.91576700541E+03  0.94223902945E+03  0.12500059216E+03 0.  0.
          2    1    1    2  501    0 -0.84922575107E+02 -0.32394269550E+02 -0.38685118899E+02  0.98781429868E+02  0.00000000000E+00 0. -1.
          1    1    1    2  502    0 -0.72997328111E+02 -0.60456883068E+02  0.23554940166E+04  0.23574002008E+04  0.00000000000E+00 0. -1.
         22    1    3    3    0    0  0.27228273145E+02 -0.26744702022E+02  0.26722875496E+03  0.26994048496E+03  0.00000000000E+00 0.  1.
         22    1    3    3    0    0  0.13069163007E+03  0.11959585464E+03  0.64853825045E+03  0.67229854448E+03  0.00000000000E+00 0.  1.
</event>
<event>
 7    1  0.6370239E-006  0.5157499E+02  0.7818608E-02  0.1500831E+00
          2   -1    0    0  502    0  0.00000000000E+00  0.00000000000E+00  0.23258138834E+03  0.23258138834E+03  0.00000000000E+00 0. -1.
          1   -1    0    0  501    0 -0.00000000000E+00 -0.00000000000E+00 -0.29037859989E+03  0.29037859989E+03  0.00000000000E+00 0. -1.
         25    2    1    2    0    0 -0.41450982172E+02 -0.94960269195E+00  0.45221439641E+02  0.13924300664E+03  0.12499820250E+03 0.  0.
          2    1    1    2  501    0 -0.17666611701E+01  0.32578493539E+02 -0.23710073970E+03  0.23933499556E+03  0.00000000000E+00 0. -1.
          1    1    1    2  502    0  0.43217643342E+02 -0.31628890847E+02  0.13408208850E+03  0.14438198603E+03  0.00000000000E+00 0. -1.
         22    1    3    3    0    0 -0.81872727578E+02 -0.14280313459E+02  0.49057063184E+02  0.96507338176E+02  0.00000000000E+00 0.  1.
         22    1    3    3    0    0  0.40421745407E+02  0.13330710767E+02 -0.38356235431E+01  0.42735668466E+02  0.00000000000E+00 0.  1.
</event>
<event>
 7    1  0.6370239E-006  0.8223360E+02  0.7818608E-02  0.1392412E+00
          2   -1    0    0  502    0  0.00000000000E+00  0.00000000000E+00  0.85325185268E+03  0.85325185268E+03  0.00000000000E+00 0. -1.
          1   -1    0    0  501    0 -0.00000000000E+00 -0.00000000000E+00 -0.45986645333E+03  0.45986645333E+03  0.00000000000E+00 0. -1.
         25    2    1    2    0    0 -0.66555580750E+02  0.98812145435E+02  0.35218542994E+03  0.39224085496E+03  0.12499930329E+03 0.  0.
          2    1    1    2  501    0  0.35794437476E+02 -0.28430211280E+02 -0.43556886700E+03  0.43796090758E+03  0.00000000000E+00 0. -1.
          1    1    1    2  502    0  0.30761143274E+02 -0.70381934155E+02  0.47676883641E+03  0.48291654348E+03  0.00000000000E+00 0. -1.
         22    1    3    3    0    0 -0.91658815718E+02  0.64829494412E+02  0.15995364477E+03  0.19542100788E+03  0.00000000000E+00 0.  1.
         22    1    3    3    0    0  0.25103234968E+02  0.33982651023E+02  0.19223178516E+03  0.19681984708E+03  0.00000000000E+00 0.  1.
</event>
<event>
 7    1  0.6370239E-006  0.4178913E+02  0.7818608E-02  0.1547964E+00
          2   -1    0    0  502    0  0.00000000000E+00  0.00000000000E+00  0.18040078367E+04  0.18040078367E+04  0.00000000000E+00 0. -1.
          1   -1    0    0  501    0 -0.00000000000E+00 -0.00000000000E+00 -0.71931866950E+01  0.71931866950E+01  0.00000000000E+00 0. -1.
         25    2    1    2    0    0  0.50680869897E+02  0.43627987732E+02  0.10850044508E+04  0.10942264556E+04  0.12499970383E+03 0.  0.
          2    1    1    2  501    0 -0.31532689164E+02 -0.21273679894E+02  0.16315495719E+03  0.16753035545E+03  0.00000000000E+00 0. -1.
          1    1    1    2  502    0 -0.19148180732E+02 -0.22354307837E+02  0.54865524202E+03  0.54944421236E+03  0.00000000000E+00 0. -1.
         22    1    3    3    0    0  0.48853233245E+02 -0.35245568514E+02  0.57639389373E+03  0.57953326844E+03  0.00000000000E+00 0.  1.
         22    1    3    3    0    0  0.18276366512E+01  0.78873556246E+02  0.50861055709E+03  0.51469318717E+03  0.00000000000E+00 0.  1.
</event>
<event>
 7    1  0.6370239E-006  0.9336140E+02  0.7818608E-02  0.1480787E+00
          2   -1    0    0  502    0  0.00000000000E+00  0.00000000000E+00  0.15186882334E+04  0.15186882334E+04  0.00000000000E+00 0. -1.
          1   -1    0    0  501    0 -0.00000000000E+00 -0.00000000000E+00 -0.57633719114E+02  0.57633719114E+02  0.00000000000E+00 0. -1.
         25    2    1    2    0    0  0.95714408487E+02 -0.17808755072E+02  0.48378207407E+03  0.50906582216E+03  0.12499806542E+03 0.  0.
          2    1    1    2  501    0 -0.27480260223E+01  0.20538388908E+02 -0.40367321806E+02  0.45375078356E+02  0.00000000000E+00 0. -1.
          1    1    1    2  502    0 -0.92966382465E+02 -0.27296338359E+01  0.10176397620E+04  0.10218810520E+04  0.00000000000E+00 0. -1.
         22    1    3    3    0    0  0.36090477160E+02 -0.63060432713E+02  0.33166379058E+03  0.33952910140E+03  0.00000000000E+00 0. -1.
         22    1    3    3    0    0  0.59623931327E+02  0.45251677641E+02  0.15211828348E+03  0.16953672076E+03  0.00000000000E+00 0. -1.
</event>
<event>
 7    1  0.6370239E-006  0.1137366E+03  0.7818608E-02  0.1266803E+00
          2   -1    0    0  502    0  0.00000000000E+00  0.00000000000E+00  0.19710622327E+04  0.19710622327E+04  0.00000000000E+00 0. -1.
          1   -1    0    0  501    0 -0.00000000000E+00 -0.00000000000E+00 -0.18249715355E+04  0.18249715355E+04  0.00000000000E+00 0. -1.
         25    2    1    2    0    0 -0.13278843058E+03 -0.11375840550E+03  0.14977628346E+03  0.26197812061E+03  0.12500343385E+03 0.  0.
          2    1    1    2  501    0  0.99918855948E+02  0.60478539484E+01 -0.17656553997E+04  0.17684906968E+04  0.00000000000E+00 0. -1.
          1    1    1    2  502    0  0.32869574637E+02  0.10771055155E+03  0.17619698134E+04  0.17655649507E+04  0.00000000000E+00 0. -1.
         22    1    3    3    0    0  0.10504088506E+02  0.79927180564E+01 -0.89179121283E+01  0.15929487562E+02  0.00000000000E+00 0.  1.
         22    1    3    3    0    0 -0.14329251909E+03 -0.12175112356E+03  0.15869419558E+03  0.24604863305E+03  0.00000000000E+00 0.  1.
</event>
<event>
 7    1  0.6370239E-006  0.1122644E+03  0.7818608E-02  0.1261925E+00
          2   -1    0    0  502    0  0.00000000000E+00  0.00000000000E+00  0.10955706028E+04  0.10955706028E+04  0.00000000000E+00 0. -1.
          1   -1    0    0  501    0 -0.00000000000E+00 -0.00000000000E+00 -0.69017846965E+02  0.69017846965E+02  0.00000000000E+00 0. -1.
         25    2    1    2    0    0  0.37177197485E+02  0.55242817311E+01  0.22954029499E+03  0.26405818078E+03  0.12500125644E+03 0.  0.
          2    1    1    2  501    0 -0.88330044767E+02 -0.10545765253E+03  0.51930937628E+02  0.14703855130E+03  0.00000000000E+00 0. -1.
          1    1    1    2  502    0  0.51152847282E+02  0.99933370799E+02  0.74508152325E+03  0.75349171772E+03  0.00000000000E+00 0. -1.
         22    1    3    3    0    0  0.80405353433E+02  0.17055669409E+02  0.17627621721E+03  0.19449735595E+03  0.00000000000E+00 0.  1.
         22    1    3    3    0    0 -0.43228155948E+02 -0.11531387678E+02  0.53264077787E+02  0.69560824829E+02  0.00000000000E+00 0.  1.
</event>
<event>
 7    1  0.6370239E-006  0.4882272E+02  0.7818608E-02  0.1493243E+00
          2   -1    0    0  502    0  0.00000000000E+00  0.00000000000E+00  0.82391586973E+03  0.82391586973E+03  0.00000000000E+00 0. -1.
          1   -1    0    0  501    0 -0.00000000000E+00 -0.00000000000E+00 -0.11166648430E+04  0.11166648430E+04  0.00000000000E+00 0. -1.
         25    2    1    2    0    0  0.11693275565E+02 -0.66931393117E+02  0.20260790944E+02  0.14370892896E+03  0.12500085014E+03 0.  0.
          2    1    1    2  501    0 -0.29261703239E+02  0.21511654748E+02 -0.10538284918E+04  0.10544541188E+04  0.00000000000E+00 0. -1.
          1    1    1    2  502    0  0.17568427674E+02  0.45419738369E+02  0.74081872752E+03  0.74241766502E+03  0.00000000000E+00 0. -1.
         22    1    3    3    0    0 -0.39964061247E+02  0.16081425139E+02  0.15629778146E+02  0.45826066717E+02  0.00000000000E+00 0.  1.
         22    1    3    3    0    0  0.51657336812E+02 -0.83012818256E+02  0.46310127977E+01  0.97882862243E+02  0.00000000000E+00 0.  1.
</event>
<event>
 7    1  0.6370239E-006  0.8429492E+02  0.7818608E-02  0.1437139E+00
          2   -1    0    0  502    0  0.00000000000E+00  0.00000000000E+00  0.11739114647E+04  0.11739114647E+04  0.00000000000E+00 0. -1.
          1   -1    0    0  501    0 -0.00000000000E+00 -0.00000000000E+00 -0.18254757748E+04  0.18254757748E+04  0.00000000000E+00 0. -1.
         25    2    1    2    0    0 -0.27766972170E+02  0.10932483352E+03  0.22934357561E+02  0.16992640164E+03  0.12500429293E+03 0.  0.
          2    1    1    2  501    0 -0.27601315879E+01 -0.31408008946E+02 -0.17502127162E+04  0.17504966819E+04  0.00000000000E+00 0. -1.
          1    1    1    2  502    0  0.30527103758E+02 -0.77916824576E+02  0.10757140486E+04  0.10789641560E+04  0.00000000000E+00 0. -1.
         22    1    3    3    0    0 -0.69600314593E+01  0.10298664081E+03  0.65412965357E+02  0.12220288973E+03  0.00000000000E+00 0.  1.
         22    1    3    3    0    0 -0.20806940711E+02  0.63381927156E+01 -0.42478607795E+02  0.47723511908E+02  0.00000000000E+00 0.  1.
</event>
<event>
 7    1  0.6370239E-006  0.8172025E+02  0.7818608E-02  0.1393061E+00
          2   -1    0    0  502    0  0.00000000000E+00  0.00000000000E+00  0.24004980805E+04  0.24004980805E+04  0.00000000000E+00 0. -1.
          1   -1    0    0  501    0 -0.00000000000E+00 -0.00000000000E+00 -0.44244771706E+02  0.44244771706E+02  0.00000000000E+00 0. -1.
         25    2    1    2    0    0  0.11610398967E+02 -0.11198709710E+03  0.54025379161E+03  0.56584020622E+03  0.12500027340E+03 0.  0.
          2    1    1    2  501    0 -0.33687347133E+02  0.71904429498E+02  0.19425781013E+02  0.81746225028E+02  0.00000000000E+00 0. -1.
          1    1    1    2  502    0  0.22076948166E+02  0.40082667597E+02  0.17965737362E+04  0.17971564210E+04  0.00000000000E+00 0. -1.
         22    1    3    3    0    0 -0.43866299794E+02 -0.10213712220E+03  0.33294061937E+03  0.35100669512E+03  0.00000000000E+00 0.  1.
         22    1    3    3    0    0  0.55476698761E+02 -0.98499748913E+01  0.20731317224E+03  0.21483351110E+03  0.00000000000E+00 0.  1.
</event>
<event>
 7    1  0.6370239E-006  0.8670695E+02  0.7818608E-02  0.1366530E+00
          2   -1    0    0  502    0  0.00000000000E+00  0.00000000000E+00  0.11249791330E+03  0.11249791330E+03  0.00000000000E+00 0. -1.
          1   -1    0    0  501    0 -0.00000000000E+00 -0.00000000000E+00 -0.80698972622E+03  0.80698972622E+03  0.00000000000E+00 0. -1.
         25    2    1    2    0    0  0.13031838764E+03 -0.43545492945E+02 -0.37982559903E+03  0.42281576161E+03  0.12500636175E+03 0.  0.
          2    1    1    2  501    0 -0.49057074580E+02  0.21473947503E+02 -0.38392565858E+03  0.38764241035E+03  0.00000000000E+00 0. -1.
          1    1    1    2  502    0 -0.81261313057E+02  0.22071545441E+02  0.69259444682E+02  0.10902946756E+03  0.00000000000E+00 0. -1.
         22    1    3    3    0    0  0.10040571847E+03 -0.82943782956E+02 -0.22158124388E+03  0.25701989626E+03  0.00000000000E+00 0. -1.
         22    1    3    3    0    0  0.29912669170E+02  0.39398290011E+02 -0.15824435514E+03  0.16579586535E+03  0.00000000000E+00 0. -1.
</event>
<event>
 7    1  0.6370239E-006  0.7454178E+02  0.7818608E-02  0.1387741E+00
          2   -1    0    0  502    0  0.00000000000E+00  0.00000000000E+00  0.44440571110E+04  0.44440571110E+04  0.00000000000E+00 0. -1.
          1   -1    0    0  501    0 -0.00000000000E+00 -0.00000000000E+00 -0.80999599374E+02  0.80999599374E+02  0.00000000000E+00 0. -1.
         25    2    1    2    0    0  0.18272963454E+02 -0.18890702974E+02  0.12897542335E+03  0.18152503716E+03  0.12500367769E+03 0.  0.
          2    1    1    2  501    0  0.71133474971E+01 -0.51871180990E+02 -0.41795559789E+02  0.66993193295E+02  0.00000000000E+00 0. -1.
          1    1    1    2  502    0 -0.25386310951E+02  0.70761883963E+02  0.42758776481E+04  0.42765384799E+04  0.00000000000E+00 0. -1.
         22    1    3    3    0    0  0.48285296150E+02 -0.13747340717E+02  0.12495800511E+01  0.50219723728E+02  0.00000000000E+00 0.  1.
         22    1    3    3    0    0 -0.30012332696E+02 -0.51433622568E+01  0.12772584330E+03  0.13130531344E+03  0.00000000000E+00 0.  1.
</event>
<event>
 7    1  0.6370239E-006  0.1173549E+03  0.7818608E-02  0.1282679E+00
          2   -1    0    0  502    0  0.00000000000E+00  0.00000000000E+00  0.12711225296E+04  0.12711225296E+04  0.00000000000E+00 0. -1.
          1   -1    0    0  501    0 -0.00000000000E+00 -0.00000000000E+00 -0.51004222184E+03  0.51004222184E+03  0.00000000000E+00 0. -1.
         25    2    1    2    0    0 -0.10676507395E+02 -0.10851176031E+03  0.17526150310E+03  0.24131290351E+03  0.12500613184E+03 0.  0.
          2    1    1    2  501    0 -0.71476756954E+02  0.94701529656E+02 -0.46796937292E+03  0.48277597340E+03  0.00000000000E+00 0. -1.
          1    1    1    2  502    0  0.82153264348E+02  0.13810230653E+02  0.10537881776E+04  0.10570758746E+04  0.00000000000E+00 0. -1.
         22    1    3    3    0    0  0.23954091443E+00 -0.94480180995E+02  0.36292176326E+02  0.10121108656E+03  0.00000000000E+00 0.  1.
         22    1    3    3    0    0 -0.10916048309E+02 -0.14031579314E+02  0.13896932677E+03  0.14010181695E+03  0.00000000000E+00 0.  1.
</event>
<event>
 7    1  0.6370239E-006  0.2098640E+03  0.7818608E-02  0.1165754E+00
          2   -1    0    0  502    0  0.00000000000E+00  0.00000000000E+00  0.52967574721E+03  0.52967574721E+03  0.00000000000E+00 0. -1.
          1   -1    0    0  501    0 -0.00000000000E+00 -0.00000000000E+00 -0.14971058185E+04  0.14971058185E+04  0.00000000000E+00 0. -1.
         25    2    1    2    0    0 -0.19567600477E+02  0.79310279851E+02  0.17550878852E+03  0.23043945862E+03  0.12500399100E+03 0.  0.
          2    1    1    2  501    0 -0.84451420331E+02 -0.19832935751E+03 -0.14420290922E+04  0.14580516037E+04  0.00000000000E+00 0. -1.
          1    1    1    2  502    0  0.10401902081E+03  0.11901907766E+03  0.29909023239E+03  0.33829050334E+03  0.00000000000E+00 0. -1.
         22    1    3    3    0    0 -0.92604002786E+01  0.10517473141E+02 -0.19147545821E+02  0.23727637168E+02  0.00000000000E+00 0. -1.
         22    1    3    3    0    0 -0.10307200198E+02  0.68792806710E+02  0.19465633434E+03  0.20671182145E+03  0.00000000000E+00 0. -1.
</event>
<event>
 7    1  0.6370239E-006  0.6274111E+02  0.7818608E-02  0.1448474E+00
          2   -1    0    0  502    0  0.00000000000E+00  0.00000000000E+00  0.25708744809E+04  0.25708744809E+04  0.00000000000E+00 0. -1.
          1   -1    0    0  501    0 -0.00000000000E+00 -0.00000000000E+00 -0.13166413541E+03  0.13166413541E+03  0.00000000000E+00 0. -1.
         25    2    1    2    0    0  0.42434068434E+02 -0.83671212851E+02 -0.97163189690E+00  0.15629377695E+03  0.12500111448E+03 0.  0.
          2    1    1    2  501    0  0.13389089213E+01  0.38910218567E+02 -0.45438002002E+02  0.59836525735E+02  0.00000000000E+00 0. -1.
          1    1    1    2  502    0 -0.43772977356E+02  0.44760994284E+02  0.24856199794E+04  0.24864083136E+04  0.00000000000E+00 0. -1.
         22    1    3    3    0    0  0.83919328817E+02 -0.66530149337E+02  0.16049258807E+02  0.10828801055E+03  0.00000000000E+00 0.  1.
         22    1    3    3    0    0 -0.41485260383E+02 -0.17141063514E+02 -0.17020890704E+02  0.48005766401E+02  0.00000000000E+00 0.  1.
</event>
<event>
 7    1  0.6370239E-006  0.1486707E+03  0.7818608E-02  0.1351623E+00
          2   -1    0    0  502    0  0.00000000000E+00  0.00000000000E+00  0.49517771461E+03  0.49517771461E+03  0.00000000000E+00 0. -1.
          1   -1    0    0  501    0 -0.00000000000E+00 -0.00000000000E+00 -0.67409416669E+03  0.67409416669E+03  0.00000000000E+00 0. -1.
         25    2    1    2    0    0 -0.14843670699E+02  0.16863183649E+03  0.35704865154E+03  0.41444654315E+03  0.12500066690E+03 0.  0.
          2    1    1    2  501    0  0.39250885483E+02 -0.14298309754E+03 -0.63373120122E+03  0.65084562962E+03  0.00000000000E+00 0. -1.
          1    1    1    2  502    0 -0.24407214784E+02 -0.25648738957E+02  0.97766097611E+02  0.10397970853E+03  0.00000000000E+00 0. -1.
         22    1    3    3    0    0  0.24392746609E+02  0.48024916733E+02  0.22499067561E+03  0.23134866074E+03  0.00000000000E+00 0.  1.
         22    1    3    3    0    0 -0.39236417308E+02  0.12060691976E+03  0.13205797593E+03  0.18309788241E+03  0.00000000000E+00 0.  1.
</event>
<event>
 7    1  0.6370239E-006  0.6620356E+02  0.7818608E-02  0.1464571E+00
          2   -1    0    0  502    0  0.00000000000E+00  0.00000000000E+00  0.17476581588E+03  0.17476581588E+03  0.00000000000E+00 0. -1.
          1   -1    0    0  501    0 -0.00000000000E+00 -0.00000000000E+00 -0.74926080156E+03  0.74926080156E+03  0.00000000000E+00 0. -1.
         25    2    1    2    0    0 -0.93245963662E+02 -0.30287094230E+02 -0.29251777055E+03  0.33288516918E+03  0.12503508291E+03 0.  0.
          2    1    1    2  501    0  0.32080341935E+02  0.68640143328E+01 -0.42896692401E+03  0.43021957757E+03  0.00000000000E+00 0. -1.
          1    1    1    2  502    0  0.61165621726E+02  0.23423079897E+02  0.14698970887E+03  0.16092187069E+03  0.00000000000E+00 0. -1.
         22    1    3    3    0    0 -0.60921904861E+02 -0.75604378312E+02 -0.22712734098E+03  0.24701078829E+03  0.00000000000E+00 0.  1.
         22    1    3    3    0    0 -0.32324058801E+02  0.45317284082E+02 -0.65390429571E+02  0.85874380891E+02  0.00000000000E+00 0.  1.
</event>
<event>
 7    1  0.6370239E-006  0.1198980E+03  0.7818608E-02  0.1249578E+00
          2   -1    0    0  502    0  0.00000000000E+00  0.00000000000E+00  0.11080775706E+03  0.11080775706E+03  0.00000000000E+00 0. -1.
          1   -1    0    0  501    0 -0.00000000000E+00 -0.00000000000E+00 -0.18138518366E+04  0.18138518366E+04  0.00000000000E+00 0. -1.
         25    2    1    2    0    0 -0.21841335826E+02 -0.87566649495E+02 -0.43726344781E+03  0.46364802749E+03  0.12500083422E+03 0.  0.
          2    1    1    2  501    0  0.11252568873E+03 -0.84754197835E+00 -0.13188850799E+04  0.13236769255E+04  0.00000000000E+00 0. -1.
          1    1    1    2  502    0 -0.90684352909E+02  0.88414191473E+02  0.53104448195E+02  0.13733464069E+03  0.00000000000E+00 0. -1.
         22    1    3    3    0    0 -0.21807909324E+02  0.20917892777E+02 -0.20599255967E+03  0.20819720888E+03  0.00000000000E+00 0. -1.
         22    1    3    3    0    0 -0.33426501265E-01 -0.10848454227E+03 -0.23127088814E+03  0.25545081861E+03  0.00000000000E+00 0. -1.
</event>
<event>
 7    1  0.6370239E-006  0.4928527E+02  0.7818608E-02  0.1551870E+00
          2   -1    0    0  502    0  0.00000000000E+00  0.00000000000E+00  0.94984400841E+03  0.94984400841E+03  0.00000000000E+00 0. -1.
          1   -1    0    0  501    0 -0.00000000000E+00 -0.00000000000E+00 -0.25898035310E+03  0.25898035310E+03  0.00000000000E+00 0. -1.
         25    2    1    2    0    0  0.45549497285E+02 -0.35715530656E+02 -0.12756928299E+03  0.18774839503E+03  0.12500072816E+03 0.  0.
          2    1    1    2  501    0 -0.22961115812E+02 -0.80727462675E+01 -0.99189357486E+02  0.10213183005E+03  0.00000000000E+00 0. -1.
          1    1    1    2  502    0 -0.22588381473E+02  0.43788276924E+02  0.91762229578E+03  0.91894413643E+03  0.00000000000E+00 0. -1.
         22    1    3    3    0    0  0.66979382538E+02  0.16912964726E+02 -0.31038685788E+02  0.75734312411E+02  0.00000000000E+00 0. -1.
         22    1    3    3    0    0 -0.21429885252E+02 -0.52628495382E+02 -0.96530597200E+02  0.11201408261E+03  0.00000000000E+00 0. -1.
</event>
<event>
 7    1  0.6370239E-006  0.8213465E+02  0.7818608E-02  0.1503762E+00
          2   -1    0    0  502    0  0.00000000000E+00  0.00000000000E+00  0.23450247392E+02  0.23450247392E+02  0.00000000000E+00 0. -1.
          1   -1    0    0  501    0 -0.00000000000E+00 -0.00000000000E+00 -0.12555440025E+04  0.12555440025E+04  0.00000000000E+00 0. -1.
         25    2    1    2    0    0 -0.77449114393E+01 -0.68829037698E+02 -0.48036749030E+03  0.50117049328E+03  0.12498606929E+03 0.  0.
          2    1    1    2  501    0  0.10359117636E+02 -0.17201508832E+02 -0.62089402248E+03  0.62121863332E+03  0.00000000000E+00 0. -1.
          1    1    1    2  502    0 -0.26142061972E+01  0.86030546530E+02 -0.13083224234E+03  0.15660512330E+03  0.00000000000E+00 0. -1.
         22    1    3    3    0    0 -0.61819492476E+02 -0.17142553562E+02 -0.28104350729E+03  0.28827238817E+03  0.00000000000E+00 0. -1.
         22    1    3    3    0    0  0.54074581037E+02 -0.51686484136E+02 -0.19932398301E+03  0.21289810511E+03  0.00000000000E+00 0. -1.
</event>
<event>
 7    1  0.6370239E-006  0.2176504E+03  0.7818608E-02  0.1202207E+00
          2   -1    0    0  502    0  0.00000000000E+00  0.00000000000E+00  0.47479152899E+03  0.47479152899E+03  0.00000000000E+00 0. -1.
          1   -1    0    0  501    0 -0.00000000000E+00 -0.00000000000E+00 -0.14182117161E+04  0.14182117161E+04  0.00000000000E+00 0. -1.
         25    2    1    2    0    0 -0.59770299189E+01  0.23791512805E+03  0.77168209535E+02  0.27967712405E+03  0.12500011245E+03 0.  0.
          2    1    1    2  501    0 -0.87806322279E+02 -0.19921986558E+03 -0.12989418641E+04  0.13170605420E+04  0.00000000000E+00 0. -1.
          1    1    1    2  502    0  0.93783352198E+02 -0.38695262466E+02  0.27835346743E+03  0.29626557903E+03  0.00000000000E+00 0. -1.
         22    1    3    3    0    0 -0.16791326244E+02 -0.16075280725E+01 -0.15226662784E+02  0.22724085088E+02  0.00000000000E+00 0.  1.
         22    1    3    3    0    0  0.10814296325E+02  0.23952265612E+03  0.92394872319E+02  0.25695303896E+03  0.00000000000E+00 0.  1.
</event>
<event>
 7    1  0.6370239E-006  0.4866909E+02  0.7818608E-02  0.1463413E+00
          2   -1    0    0  502    0  0.00000000000E+00  0.00000000000E+00  0.52953470663E+03  0.52953470663E+03  0.00000000000E+00 0. -1.
          1   -1    0    0  501    0 -0.00000000000E+00 -0.00000000000E+00 -0.43279317708E+03  0.43279317708E+03  0.00000000000E+00 0. -1.
         25    2    1    2    0    0 -0.64336177334E+02  0.51149470718E+02 -0.21510043656E+02  0.15113269891E+03  0.12499199428E+03 0.  0.
          2    1    1    2  501    0  0.19959226456E+02 -0.43682510501E+02 -0.34370891421E+03  0.34704805165E+03  0.00000000000E+00 0. -1.
          1    1    1    2  502    0  0.44376950878E+02 -0.74669602173E+01  0.46196048742E+03  0.46414713314E+03  0.00000000000E+00 0. -1.
         22    1    3    3    0    0 -0.43993238883E+02 -0.11903759995E+02  0.40066205375E+02  0.60682826093E+02  0.00000000000E+00 0.  1.
         22    1    3    3    0    0 -0.20342938451E+02  0.63053230713E+02 -0.61576249031E+02  0.90449872819E+02  0.00000000000E+00 0.  1.
</event>
<event>
 7    1  0.6370239E-006  0.6111280E+02  0.7818608E-02  0.1518213E+00
          2   -1    0    0  502    0  0.00000000000E+00  0.00000000000E+00  0.89546969669E+03  0.89546969669E+03  0.00000000000E+00 0. -1.
          1   -1    0    0  501    0 -0.00000000000E+00 -0.00000000000E+00 -0.20234750117E+03  0.20234750117E+03  0.00000000000E+00 0. -1.
         25    2    1    2    0    0  0.50222750768E+02  0.59319148800E+02  0.66486479358E+03  0.68096355249E+03  0.12500031990E+03 0.  0.
          2    1    1    2  501    0 -0.10666788950E+02 -0.22025398995E+02 -0.19018239240E+03  0.19175046536E+03  0.00000000000E+00 0. -1.
          1    1    1    2  502    0 -0.39555961818E+02 -0.37293749805E+02  0.21843979435E+03  0.22510318000E+03  0.00000000000E+00 0. -1.
         22    1    3    3    0    0  0.20718327296E+02  0.61387870624E+02  0.63713449786E+03  0.64042024337E+03  0.00000000000E+00 0. -1.
         22    1    3    3    0    0  0.29504423472E+02 -0.20687218240E+01  0.27730295712E+02  0.40543309124E+02  0.00000000000E+00 0. -1.
</event>
<event>
 7    1  0.6370239E-006  0.1634736E+03  0.7818608E-02  0.1316331E+00
          2   -1    0    0  502    0  0.00000000000E+00  0.00000000000E+00  0.40470598713E+03  0.40470598713E+03  0.00000000000E+00 0. -1.
          1   -1    0    0  501    0 -0.00000000000E+00 -0.00000000000E+00 -0.44355170003E+03  0.44355170003E+03  0.00000000000E+00 0. -1.
         25    2    1    2    0    0  0.13535315465E+03  0.32275435189E+02  0.97763490311E+02  0.21105998256E+03  0.12500574391E+03 0.  0.
          2    1    1    2  501    0 -0.14947135171E+03 -0.73781009033E+02 -0.36678429325E+03  0.40288464857E+03  0.00000000000E+00 0. -1.
          1    1    1    2  502    0  0.14118197061E+02  0.41505573844E+02  0.23017509004E+03  0.23431305603E+03  0.00000000000E+00 0. -1.
         22    1    3    3    0    0  0.85318049663E+02  0.43323879874E+02  0.12144446926E+03  0.15461205412E+03  0.00000000000E+00 0. -1.
         22    1    3    3    0    0  0.50035104987E+02 -0.11048444685E+02 -0.23680978948E+02  0.56447928438E+02  0.00000000000E+00 0. -1.
</event>
<event>
 7    1  0.6370239E-006  0.1080923E+03  0.7818608E-02  0.1404275E+00
          2   -1    0    0  502    0  0.00000000000E+00  0.00000000000E+00  0.74283071047E+02  0.74283071047E+02  0.00000000000E+00 0. -1.
          1   -1    0    0  501    0 -0.00000000000E+00 -0.00000000000E+00 -0.77224059513E+03  0.77224059513E+03  0.00000000000E+00 0. -1.
         25    2    1    2    0    0  0.13291240515E+03  0.32295781856E+02 -0.47873964180E+03  0.51334740505E+03  0.12500075468E+03 0.  0.
          2    1    1    2  501    0 -0.30158721595E+02 -0.96034290896E+01 -0.22554660829E+03  0.22775655172E+03  0.00000000000E+00 0. -1.
          1    1    1    2  502    0 -0.10275368356E+03 -0.22692352766E+02  0.63287260089E+01  0.10541970941E+03  0.00000000000E+00 0. -1.
         22    1    3    3    0    0  0.41202521542E+02  0.72568693819E+02 -0.25233447077E+03  0.26577537177E+03  0.00000000000E+00 0. -1.
         22    1    3    3    0    0  0.91709883612E+02 -0.40272911963E+02 -0.22640517103E+03  0.24757203328E+03  0.00000000000E+00 0. -1.
</event>
<event>
 7    1  0.6370239E-006  0.2117718E+03  0.7818608E-02  0.1309489E+00
          2   -1    0    0  502    0  0.00000000000E+00  0.00000000000E+00  0.28378204991E+04  0.28378204991E+04  0.00000000000E+00 0. -1.
          1   -1    0    0  501    0 -0.00000000000E+00 -0.00000000000E+00 -0.13273284751E+03  0.13273284751E+03  0.00000000000E+00 0. -1.
         25    2    1    2    0    0 -0.94976681033E+02  0.21961363293E+03  0.57689118486E+03  0.63693029296E+03  0.12500416480E+03 0.  0.
          2    1    1    2  501    0  0.95827548183E+02 -0.18362379326E+03  0.20125783721E+01  0.20713441750E+03  0.00000000000E+00 0. -1.
          1    1    1    2  502    0 -0.85086714940E+00 -0.35989839676E+02  0.21261838883E+04  0.21264886361E+04  0.00000000000E+00 0. -1.
         22    1    3    3    0    0  0.28115958039E+02  0.17265398827E+02  0.64610393265E+02  0.72547253642E+02  0.00000000000E+00 0.  1.
         22    1    3    3    0    0 -0.12309263907E+03  0.20234823411E+03  0.51228079159E+03  0.56438303932E+03  0.00000000000E+00 0.  1.
</event>
<event>
 7    1  0.6370239E-006  0.8898479E+02  0.7818608E-02  0.1476787E+00
          2   -1    0    0  502    0  0.00000000000E+00  0.00000000000E+00  0.16786721161E+03  0.16786721161E+03  0.00000000000E+00 0. -1.
          1   -1    0    0  501    0 -0.00000000000E+00 -0.00000000000E+00 -0.32460521380E+03  0.32460521380E+03  0.00000000000E+00 0. -1.
         25    2    1    2    0    0 -0.81532340065E+02 -0.45061731694E+02 -0.12001767315E+01  0.15589435798E+03  0.12499411301E+03 0.  0.
          2    1    1    2  501    0  0.85748401319E+02  0.23098108491E+02 -0.23647914108E+03  0.25260383036E+03  0.00000000000E+00 0. -1.
          1    1    1    2  502    0 -0.42160612545E+01  0.21963623202E+02  0.80941315627E+02  0.83974237074E+02  0.00000000000E+00 0. -1.
         22    1    3    3    0    0  0.26112003317E+02 -0.36058303995E+02 -0.15038316959E+02  0.46991371349E+02  0.00000000000E+00 0.  1.
         22    1    3    3    0    0 -0.10764434338E+03 -0.90034276982E+01  0.13838140227E+02  0.10890298663E+03  0.00000000000E+00 0.  1.
</event>
<event>
 7    1  0.6370239E-006  0.6868746E+02  0.7818608E-02  0.1390304E+00
          2   -1    0    0  502    0  0.00000000000E+00  0.00000000000E+00  0.19227166581E+04  0.19227166581E+04  0.00000000000E+00 0. -1.
          1   -1    0    0  501    0 -0.00000000000E+00 -0.00000000000E+00 -0.59376036232E+03  0.59376036232E+03  0.00000000000E+00 0. -1.
         25    2    1    2    0    0  0.15645429343E+02 -0.18724221308E+02  0.17462354982E+03  0.21612526199E+03  0.12498547434E+03 0.  0.
          2    1    1    2  501    0 -0.69161076840E+02  0.34259178803E+01 -0.57046692968E+03  0.57465425199E+03  0.00000000000E+00 0. -1.
          1    1    1    2  502    0  0.53515647497E+02  0.15298303428E+02  0.17247996756E+04  0.17256975064E+04  0.00000000000E+00 0. -1.
         22    1    3    3    0    0 -0.14312021599E+01 -0.70604968476E+02  0.11752010195E+03  0.13710610590E+03  0.00000000000E+00 0.  1.
         22    1    3    3    0    0  0.17076631503E+02  0.51880747169E+02  0.57103447871E+02  0.79019156089E+02  0.00000000000E+00 0.  1.
</event>
<event>
 7    1  0.6370239E-006  0.1157997E+03  0.7818608E-02  0.1252197E+00
          2   -1    0    0  502    0  0.00000000000E+00  0.00000000000E+00  0.80206313165E+03  0.80206313165E+03  0.00000000000E+00 0. -1.
          1   -1    0    0  501    0 -0.00000000000E+00 -0.00000000000E+00 -0.22776415341E+03  0.22776415341E+03  0.00000000000E+00 0. -1.
         25    2    1    2    0    0  0.50076701506E+02  0.21150234134E+02  0.81296411671E+02  0.15870760537E+03  0.12499595599E+03 0.  0.
          2    1    1    2  501    0 -0.45658457635E+02  0.10641844086E+03 -0.16459462759E+03  0.20124852978E+03  0.00000000000E+00 0. -1.
          1    1    1    2  502    0 -0.44182438702E+01 -0.12756867499E+03  0.65759719415E+03  0.66987114990E+03  0.00000000000E+00 0. -1.
         22    1    3    3    0    0  0.80799323919E+02  0.49185501782E+01  0.12871647034E+02  0.81965859838E+02  0.00000000000E+00 0.  1.
         22    1    3    3    0    0 -0.30722622413E+02  0.16231683955E+02  0.68424764637E+02  0.76741745534E+02  0.00000000000E+00 0.  1.
</event>
<event>
 7    1  0.6370239E-006  0.5852126E+02  0.7818608E-02  0.1474312E+00
          2   -1    0    0  502    0  0.00000000000E+00  0.00000000000E+00  0.13708910533E+04  0.13708910533E+04  0.00000000000E+00 0. -1.
          1   -1    0    0  501    0 -0.00000000000E+00 -0.00000000000E+00 -0.54628330275E+03  0.54628330275E+03  0.00000000000E+00 0. -1.
         25    2    1    2    0    0  0.50633524169E+02  0.69843326487E+02  0.14604519853E+03  0.21070459776E+03  0.12500153390E+03 0.  0.
          2    1    1    2  501    0 -0.19376535984E+02 -0.54982226353E+02 -0.51204821273E+03  0.51535605897E+03  0.00000000000E+00 0. -1.
          1    1    1    2  502    0 -0.31256988185E+02 -0.14861100134E+02  0.11906107647E+04  0.11911136993E+04  0.00000000000E+00 0. -1.
         22    1    3    3    0    0  0.90413140391E+02  0.61164458358E+02  0.90264471229E+02  0.14164498469E+03  0.00000000000E+00 0. -1.
         22    1    3    3    0    0 -0.39779616222E+02  0.86788681292E+01  0.55780727305E+02  0.69059613071E+02  0.00000000000E+00 0. -1.
</event>
<event>
 7    1  0.6370239E-006  0.1321185E+03  0.7818608E-02  0.1355506E+00
          2   -1    0    0  502    0  0.00000000000E+00  0.00000000000E+00  0.14711643376E+04  0.14711643376E+04  0.00000000000E+00 0. -1.
          1   -1    0    0  501    0 -0.00000000000E+00 -0.00000000000E+00 -0.16920282099E+04  0.16920282099E+04  0.00000000000E+00 0. -1.
         25    2    1    2    0    0  0.69364839041E+02  0.64910542372E+02 -0.70439055694E+02  0.17207297568E+03  0.12499035557E+03 0.  0.
          2    1    1    2  501    0  0.32531703582E+02  0.20683777504E+02 -0.15674176043E+04  0.15678916023E+04  0.00000000000E+00 0. -1.
          1    1    1    2  502    0 -0.10189654262E+03 -0.85594319876E+02  0.14169927876E+04  0.14232279695E+04  0.00000000000E+00 0. -1.
         22    1    3    3    0    0  0.32306310041E+02  0.75442550048E+02 -0.95648946022E+02  0.12603172974E+03  0.00000000000E+00 0.  1.
         22    1    3    3    0    0  0.37058529000E+02 -0.10532007676E+02  0.25209890328E+02  0.46041245939E+02  0.00000000000E+00 0.  1.
</event>
<event>
 7    1  0.6370239E-006  0.8746552E+02  0.7818608E-02  0.1379368E+00
          2   -1    0    0  502    0  0.00000000000E+00  0.00000000000E+00  0.15940572494E+04  0.15940572494E+04  0.00000000000E+00 0. -1.
          1   -1    0    0  501    0 -0.00000000000E+00 -0.00000000000E+00 -0.51794994998E+03  0.51794994998E+03  0.00000000000E+00 0. -1.
         25    2    1    2    0    0 -0.72201096297E+02 -0.41967223597E+02 -0.22895510636E+03  0.27389658511E+03  0.12499860976E+03 0.  0.
          2    1    1    2  501    0  0.44339637343E+02  0.80754396688E+02 -0.25818746700E+03  0.27413143588E+03  0.00000000000E+00 0. -1.
          1    1    1    2  502    0  0.27861458954E+02 -0.38787173090E+02  0.15632498728E+04  0.15639791784E+04  0.00000000000E+00 0. -1.
         22    1    3    3    0    0 -0.67914737943E+02 -0.79910719999E+02 -0.20051671103E+03  0.22628540873E+03  0.00000000000E+00 0. -1.
         22    1    3    3    0    0 -0.42863583537E+01  0.37943496402E+02 -0.28438395328E+02  0.47611176377E+02  0.00000000000E+00 0. -1.
</event>
<event>
 7    1  0.6370239E-006  0.5030637E+02  0.7818608E-02  0.1450804E+00
          2   -1    0    0  502    0  0.00000000000E+00  0.00000000000E+00  0.49388156961E+02  0.49388156961E+02  0.00000000000E+00 0. -1.
          1   -1    0    0  501    0 -0.00000000000E+00 -0.00000000000E+00 -0.12691968655E+04  0.12691968655E+04  0.00000000000E+00 0. -1.
         25    2    1    2    0    0 -0.94470525729E+01 -0.84512127620E+02 -0.74708112725E+03  0.76222472038E+03  0.12499906855E+03 0.  0.
          2    1    1    2  501    0 -0.19140146598E+02  0.43724368906E+02 -0.49815538415E+03  0.50043676165E+03  0.00000000000E+00 0. -1.
          1    1    1    2  502    0  0.28587199171E+02  0.40787758714E+02  0.25427802861E+02  0.55923540443E+02  0.00000000000E+00 0. -1.
         22    1    3    3    0    0 -0.20158835779E+02  0.27458921815E+02 -0.26580512511E+03  0.26797898347E+03  0.00000000000E+00 0.  1.
         22    1    3    3    0    0  0.10711783206E+02 -0.11197104943E+03 -0.48127600215E+03  0.49424573691E+03  0.00000000000E+00 0.  1.
</event>
<event>
 7    1  0.6370239E-006  0.2199562E+03  0.7818608E-02  0.1264517E+00
          2   -1    0    0  502    0  0.00000000000E+00  0.00000000000E+00  0.12947603705E+04  0.12947603705E+04  0.00000000000E+00 0. -1.
          1   -1    0    0  501    0 -0.00000000000E+00 -0.00000000000E+00 -0.61765965574E+03  0.61765965574E+03  0.00000000000E+00 0. -1.
         25    2    1    2    0    0  0.15330056422E+03  0.11765370955E+03 -0.13956119038E+03  0.26915748542E+03  0.12499987093E+03 0.  0.
          2    1    1    2  501    0 -0.16166854991E+03 -0.16991436557E+03 -0.37939452528E+03  0.44603566838E+03  0.00000000000E+00 0. -1.
          1    1    1    2  502    0  0.83679856900E+01  0.52260656015E+02  0.11960564304E+04  0.11972268725E+04  0.00000000000E+00 0. -1.
         22    1    3    3    0    0  0.16546001107E+03  0.12427970824E+03 -0.10526368805E+03  0.23216999196E+03  0.00000000000E+00 0.  1.
         22    1    3    3    0    0 -0.12159446847E+02 -0.66259986862E+01 -0.34297502334E+02  0.36987493461E+02  0.00000000000E+00 0.  1.
</event>
<event>
 7    1  0.6370239E-006  0.1825180E+03  0.7818608E-02  0.1366827E+00
          2   -1    0    0  502    0  0.00000000000E+00  0.00000000000E+00  0.18694165430E+04  0.18694165430E+04  0.00000000000E+00 0. -1.
          1   -1    0    0  501    0 -0.00000000000E+00 -0.00000000000E+00 -0.10509866742E+04  0.10509866742E+04  0.00000000000E+00 0. -1.
         25    2    1    2    0    0 -0.19054016323E+03  0.61160413974E+02 -0.99676804920E+02  0.25613911494E+03  0.12500252286E+03 0.  0.
          2    1    1    2  501    0  0.23128179442E+02  0.10444232434E+02 -0.86826546699E+03  0.86863623908E+03  0.00000000000E+00 0. -1.
          1    1    1    2  502    0  0.16741198379E+03 -0.71604646408E+02  0.17863721407E+04  0.17956278631E+04  0.00000000000E+00 0. -1.
         22    1    3    3    0    0  0.11105766624E+02  0.12312112842E+02 -0.35139831551E+02  0.38855294830E+02  0.00000000000E+00 0. -1.
         22    1    3    3    0    0 -0.20164592986E+03  0.48848301132E+02 -0.64536973369E+02  0.21728382011E+03  0.00000000000E+00 0. -1.
</event>
<event>
 7    1  0.6370239E-006  0.1072950E+03  0.7818608E-02  0.1280141E+00
          2   -1    0    0  502    0  0.00000000000E+00  0.00000000000E+00  0.93564802022E+03  0.93564802022E+03  0.00000000000E+00 0. -1.
          1   -1    0    0  501    0 -0.00000000000E+00 -0.00000000000E+00 -0.30677821275E+03  0.30677821275E+03  0.00000000000E+00 0. -1.
         25    2    1    2    0    0 -0.90624971868E+02  0.48938131168E+02  0.21811289664E+03  0.27167083984E+03  0.12499593325E+03 0.  0.
          2    1    1    2  501    0 -0.14820264701E+02 -0.92154686932E+02 -0.26733164627E+03  0.28315779288E+03  0.00000000000E+00 0. -1.
          1    1    1    2  502    0  0.10544523657E+03  0.43216555764E+02  0.67808855710E+03  0.68759760026E+03  0.00000000000E+00 0. -1.
         22    1    3    3    0    0 -0.55655785113E+02 -0.38048866716E+02  0.10464024128E+03  0.12447836265E+03  0.00000000000E+00 0.  1.
         22    1    3    3    0    0 -0.34969186756E+02  0.86986997885E+02  0.11347265537E+03  0.14719247718E+03  0.00000000000E+00 0.  1.
</event>
<event>
 7    1  0.6370239E-006  0.7866852E+02  0.7818608E-02  0.1478972E+00
          2   -1    0    0  502    0  0.00000000000E+00  0.00000000000E+00  0.12137432010E+04  0.12137432010E+04  0.00000000000E+00 0. -1.
          1   -1    0    0  501    0 -0.00000000000E+00 -0.00000000000E+00 -0.27308336979E+04  0.27308336979E+04  0.00000000000E+00 0. -1.
         25    2    1    2    0    0  0.10210014238E+03  0.37662977988E+01 -0.22195717669E+03  0.27445930730E+03  0.12499719599E+03 0.  0.
          2    1    1    2  501    0 -0.77655056971E+02 -0.85507711557E+01 -0.24818801195E+04  0.24831094118E+04  0.00000000000E+00 0. -1.
          1    1    1    2  502    0 -0.24445085412E+02  0.47844733569E+01  0.11867467992E+04  0.11870081798E+04  0.00000000000E+00 0. -1.
         22    1    3    3    0    0  0.12918342508E+03  0.10004230671E+02 -0.20296643060E+03  0.24079828466E+03  0.00000000000E+00 0.  1.
         22    1    3    3    0    0 -0.27083282693E+02 -0.62379328717E+01 -0.18990746087E+02  0.33661022636E+02  0.00000000000E+00 0.  1.
</event>
<event>
 7    1  0.6370239E-006  0.1119443E+03  0.7818608E-02  0.1274023E+00
          2   -1    0    0  502    0  0.00000000000E+00  0.00000000000E+00  0.76680307392E+03  0.76680307392E+03  0.00000000000E+00 0. -1.
          1   -1    0    0  501    0 -0.00000000000E+00 -0.00000000000E+00 -0.24791819874E+03  0.24791819874E+03  0.00000000000E+00 0. -1.
         25    2    1    2    0    0  0.12190699728E+02  0.45709796122E+02 -0.74988294774E+01  0.13386328270E+03  0.12500058956E+03 0.  0.
          2    1    1    2  501    0 -0.53681913053E+02 -0.13100366840E+03 -0.14508981707E+03  0.20271843513E+03  0.00000000000E+00 0. -1.
          1    1    1    2  502    0  0.41491213325E+02  0.85293872282E+02  0.67147352173E+03  0.67813955482E+03  0.00000000000E+00 0. -1.
         22    1    3    3    0    0 -0.45765171342E+02  0.53606710950E+02 -0.21553996767E+02  0.73706886676E+02  0.00000000000E+00 0.  1.
         22    1    3    3    0    0  0.57955871069E+02 -0.78969148284E+01  0.14055167289E+02  0.60156396025E+02  0.00000000000E+00 0.  1.
</event>
<event>
 7    1  0.6370239E-006  0.9282880E+02  0.7818608E-02  0.1352981E+00
          2   -1    0    0  502    0  0.00000000000E+00  0.00000000000E+00  0.97068240963E+03  0.97068240963E+03  0.00000000000E+00 0. -1.
          1   -1    0    0  501    0 -0.00000000000E+00 -0.00000000000E+00 -0.21338726795E+03  0.21338726795E+03  0.00000000000E+00 0. -1.
         25    2    1    2    0    0 -0.11289149338E+03  0.63145748278E+02  0.22344209237E+03  0.28685071430E+03  0.12500035541E+03 0.  0.
          2    1    1    2  501    0  0.55659897290E+02  0.66335277588E+01 -0.17442701903E+03  0.18321247999E+03  0.00000000000E+00 0. -1.
          1    1    1    2  502    0  0.57231596089E+02 -0.69779276036E+02  0.70828006834E+03  0.71400648328E+03  0.00000000000E+00 0. -1.
         22    1    3    3    0    0 -0.53022285846E+02  0.97252735537E+02  0.13095507266E+03  0.17151876988E+03  0.00000000000E+00 0.  1.
         22    1    3    3    0    0 -0.59869207534E+02 -0.34106987259E+02  0.92487019708E+02  0.11533194443E+03  0.00000000000E+00 0.  1.
</event>
<event>
 7    1  0.6370239E-006  0.1049363E+03  0.7818608E-02  0.1301391E+00
          2   -1    0    0  502    0  0.00000000000E+00  0.00000000000E+00  0.62731697125E+03  0.62731697125E+03  0.00000000000E+00 0. -1.
          1   -1    0    0  501    0 -0.00000000000E+00 -0.00000000000E+00 -0.30698355995E+03  0.30698355995E+03  0.00000000000E+00 0. -1.
         25    2    1    2    0    0 -0.10024693913E+02 -0.48822160754E+02  0.64024127067E+02  0.14902544162E+03  0.12500158213E+03 0.  0.
          2    1    1    2  501    0  0.83907035327E+02  0.74546391014E+02 -0.24943066466E+03  0.27352003850E+03  0.00000000000E+00 0. -1.
          1    1    1    2  502    0 -0.73882341414E+02 -0.25724230261E+02  0.50573994889E+03  0.51175505108E+03  0.00000000000E+00 0. -1.
         22    1    3    3    0    0  0.15653807391E+02 -0.27524046825E+01  0.89183801669E+02  0.90589005389E+02  0.00000000000E+00 0. -1.
         22    1    3    3    0    0 -0.25678501305E+02 -0.46069756071E+02 -0.25159674602E+02  0.58436436235E+02  0.00000000000E+00 0. -1.
</event>
<event>
 7    1  0.6370239E-006  0.5309561E+02  0.7818608E-02  0.1563772E+00
          2   -1    0    0  502    0  0.00000000000E+00  0.00000000000E+00  0.21184589464E+03  0.21184589464E+03  0.00000000000E+00 0. -1.
          1   -1    0    0  501    0 -0.00000000000E+00 -0.00000000000E+00 -0.80388955627E+03  0.80388955627E+03  0.00000000000E+00 0. -1.
         25    2    1    2    0    0  0.55289098615E+02  0.28079215023E+02 -0.59153048302E+02  0.15155583586E+03  0.12499904606E+03 0.  0.
          2    1    1    2  501    0 -0.36864073177E+02 -0.38042062944E+02 -0.69686364026E+03  0.69887416003E+03  0.00000000000E+00 0. -1.
          1    1    1    2  502    0 -0.18425025439E+02  0.99628479214E+01  0.16397302693E+03  0.16530545502E+03  0.00000000000E+00 0. -1.
         22    1    3    3    0    0  0.14400467022E+01  0.79974381249E+01 -0.87219390793E+02  0.87597116855E+02  0.00000000000E+00 0.  1.
         22    1    3    3    0    0  0.53849051913E+02  0.20081776898E+02  0.28066342491E+02  0.63958719000E+02  0.00000000000E+00 0.  1.
</event>
<event>
 7    1  0.6370239E-006  0.3431751E+02  0.7818608E-02  0.1567115E+00
          2   -1    0    0  502    0  0.00000000000E+00  0.00000000000E+00  0.58373565450E+03  0.58373565450E+03  0.00000000000E+00 0. -1.
          1   -1    0    0  501    0 -0.00000000000E+00 -0.00000000000E+00 -0.50593824750E+02  0.50593824750E+02  0.00000000000E+00 0. -1.
         25    2    1    2    0    0  0.59849061231E+02 -0.99828363961E+01  0.20293302002E+03  0.24594339863E+03  0.12499911023E+03 0.  0.
          2    1    1    2  501    0 -0.32697013723E+02 -0.64409779070E+01 -0.18581215371E+02  0.38155503764E+02  0.00000000000E+00 0. -1.
          1    1    1    2  502    0 -0.27152047508E+02  0.16423814303E+02  0.34879002510E+03  0.35023057686E+03  0.00000000000E+00 0. -1.
         22    1    3    3    0    0  0.37270306140E+02  0.50806979870E+02  0.52098801706E+02  0.81760076214E+02  0.00000000000E+00 0. -1.
         22    1    3    3    0    0  0.22578755091E+02 -0.60789816266E+02  0.15083421832E+03  0.16418332241E+03  0.00000000000E+00 0. -1.
</event>
<event>
 7    1  0.6370239E-006  0.1254023E+03  0.7818608E-02  0.1371097E+00
          2   -1    0    0  502    0  0.00000000000E+00  0.00000000000E+00  0.35326978977E+03  0.35326978977E+03  0.00000000000E+00 0. -1.
          1   -1    0    0  501    0 -0.00000000000E+00 -0.00000000000E+00 -0.10506814509E+04  0.10506814509E+04  0.00000000000E+00 0. -1.
         25    2    1    2    0    0  0.55061569850E+02 -0.14171921655E+03 -0.14248785935E+03  0.24298892443E+03  0.12499885808E+03 0.  0.
          2    1    1    2  501    0 -0.29009141829E+02  0.20722935248E+02 -0.84491296848E+03  0.84566476494E+03  0.00000000000E+00 0. -1.
          1    1    1    2  502    0 -0.26052428021E+02  0.12099628131E+03  0.28998916666E+03  0.31529755134E+03  0.00000000000E+00 0. -1.
         22    1    3    3    0    0 -0.20407945125E+02  0.13280358397E+02 -0.15368448486E+02  0.28793078200E+02  0.00000000000E+00 0. -1.
         22    1    3    3    0    0  0.75469514975E+02 -0.15499957495E+03 -0.12711941086E+03  0.21419584623E+03  0.00000000000E+00 0. -1.
</event>
<event>
 7    1  0.6370239E-006  0.5550070E+02  0.7818608E-02  0.1497770E+00
          2   -1    0    0  502    0  0.00000000000E+00  0.00000000000E+00  0.22449154816E+04  0.22449154816E+04  0.00000000000E+00 0. -1.
          1   -1    0    0  501    0 -0.00000000000E+00 -0.00000000000E+00 -0.62100735080E+03  0.62100735080E+03  0.00000000000E+00 0. -1.
         25    2    1    2    0    0 -0.13879305913E+02  0.40432985578E+02 -0.30819127809E+03  0.33531429988E+03  0.12500541732E+03 0.  0.
          2    1    1    2  501    0 -0.11449422788E+02 -0.58243449492E+02 -0.29620247160E+03  0.30209153062E+03  0.00000000000E+00 0. -1.
          1    1    1    2  502    0  0.25328728701E+02  0.17810463914E+02  0.22283018805E+04  0.22285170019E+04  0.00000000000E+00 0. -1.
         22    1    3    3    0    0 -0.15847461190E+00  0.84303729280E+02 -0.17148510267E+03  0.19108711187E+03  0.00000000000E+00 0.  1.
         22    1    3    3    0    0 -0.13720831301E+02 -0.43870743702E+02 -0.13670617542E+03  0.14422718802E+03  0.00000000000E+00 0.  1.
</event>
<event>
 7    1  0.9375919E-006  0.6931484E+02  0.7818608E-02  0.1394022E+00
          2   -1    0    0  502    0  0.00000000000E+00  0.00000000000E+00  0.25158792234E+04  0.25158792234E+04  0.00000000000E+00 0. -1.
          1   -1    0    0  501    0 -0.00000000000E+00 -0.00000000000E+00 -0.89706462039E+03  0.89706462039E+03  0.00000000000E+00 0. -1.
         25    2    1    2    0    0 -0.30747879356E+01  0.16130976547E+02 -0.68314297916E+02  0.14337270952E+03  0.12497690911E+03 0.  0.
          2    1    1    2  501    0 -0.22823348261E+02  0.48428415007E+02 -0.78982665850E+03  0.79163903838E+03  0.00000000000E+00 0. -1.
          1    1    1    2  502    0  0.25898136197E+02 -0.64559391554E+02  0.24769555595E+04  0.24779320959E+04  0.00000000000E+00 0. -1.
         22    1    3    3    0    0 -0.37224421855E+02  0.26947054462E+02 -0.90315239270E+02  0.10133431685E+03  0.00000000000E+00 0. -1.
         22    1    3    3    0    0  0.34149633919E+02 -0.10816077915E+02  0.22000941354E+02  0.42038392675E+02  0.00000000000E+00 0. -1.
</event>
<event>
 7    1  0.6370239E-006  0.9466354E+02  0.7818608E-02  0.1422172E+00
          2   -1    0    0  502    0  0.00000000000E+00  0.00000000000E+00  0.11109503257E+04  0.11109503257E+04  0.00000000000E+00 0. -1.
          1   -1    0    0  501    0 -0.00000000000E+00 -0.00000000000E+00 -0.87628958605E+03  0.87628958605E+03  0.00000000000E+00 0. -1.
         25    2    1    2    0    0 -0.23890806009E+02 -0.74896295810E+02  0.20155181440E+03  0.24985182220E+03  0.12499029336E+03 0.  0.
          2    1    1    2  501    0  0.55260917807E+02  0.77145495260E+02 -0.84921659930E+03  0.85450221124E+03  0.00000000000E+00 0. -1.
          1    1    1    2  502    0 -0.31370111798E+02 -0.22491994503E+01  0.88232552454E+03  0.88288587828E+03  0.00000000000E+00 0. -1.
         22    1    3    3    0    0 -0.36036628794E+02 -0.10531611272E+03  0.12989657593E+03  0.17106502463E+03  0.00000000000E+00 0. -1.
         22    1    3    3    0    0  0.12145822785E+02  0.30419816914E+02  0.71655238463E+02  0.78786797570E+02  0.00000000000E+00 0. -1.
</event>
<event>
 7    1  0.6370239E-006  0.9378241E+02  0.7818608E-02  0.1470443E+00
          2   -1    0    0  502    0  0.00000000000E+00  0.00000000000E+00  0.40493801924E+03  0.40493801924E+03  0.00000000000E+00 0. -1.
          1   -1    0    0  501    0 -0.00000000000E+00 -0.00000000000E+00 -0.46771713498E+03  0.46771713498E+03  0.00000000000E+00 0. -1.
         25    2    1    2    0    0  0.78194326469E+02 -0.72351308320E+02 -0.20728919100E+03  0.26446735218E+03  0.12500042862E+03 0.  0.
          2    1    1    2  501    0 -0.56061755110E+02  0.70597430034E+02 -0.22272737324E+03  0.24027983749E+03  0.00000000000E+00 0. -1.
          1    1    1    2  502    0 -0.22132571359E+02  0.17538782863E+01  0.36723744849E+03  0.36790796455E+03  0.00000000000E+00 0. -1.
         22    1    3    3    0    0  0.20016113600E+02 -0.46841822965E+02 -0.35594474970E+01  0.51063400287E+02  0.00000000000E+00 0.  1.
         22    1    3    3    0    0  0.58178212869E+02 -0.25509485355E+02 -0.20372974350E+03  0.21340395189E+03  0.00000000000E+00 0.  1.
</event>
<event>
 7    1  0.6370239E-006  0.6659126E+02  0.7818608E-02  0.1448198E+00
          2   -1    0    0  502    0  0.00000000000E+00  0.00000000000E+00  0.16818934790E+04  0.16818934790E+04  0.00000000000E+00 0. -1.
          1   -1    0    0  501    0 -0.00000000000E+00 -0.00000000000E+00 -0.10155154580E+03  0.10155154580E+03  0.00000000000E+00 0. -1.
         25    2    1    2    0    0 -0.50158974771E+02 -0.33029454966E+02  0.18122595930E+03  0.22819645138E+03  0.12499561773E+03 0.  0.
          2    1    1    2  501    0 -0.16951068453E+02  0.32615175081E+02 -0.72932263253E+02  0.81671313143E+02  0.00000000000E+00 0. -1.
          1    1    1    2  502    0  0.67110043224E+02  0.41427988551E+00  0.14720482371E+04  0.14735772603E+04  0.00000000000E+00 0. -1.
         22    1    3    3    0    0 -0.10485322812E+02 -0.18439418657E+01 -0.18961908061E+02  0.21746173764E+02  0.00000000000E+00 0. -1.
         22    1    3    3    0    0 -0.39673651959E+02 -0.31185513101E+02  0.20018786736E+03  0.20645027761E+03  0.00000000000E+00 0. -1.
</event>
<event>
 7    1  0.6370239E-006  0.1525281E+03  0.7818608E-02  0.1296374E+00
          2   -1    0    0  502    0  0.00000000000E+00  0.00000000000E+00  0.44151892632E+03  0.44151892632E+03  0.00000000000E+00 0. -1.
          1   -1    0    0  501    0 -0.00000000000E+00 -0.00000000000E+00 -0.21029843527E+04  0.21029843527E+04  0.00000000000E+00 0. -1.
         25    2    1    2    0    0  0.40835190474E+02 -0.15616731450E+03 -0.33247044464E+02  0.20683571879E+03  0.12497962114E+03 0.  0.
          2    1    1    2  501    0  0.15368662305E+02  0.15178342498E+03 -0.19777467647E+04  0.19836221085E+04  0.00000000000E+00 0. -1.
          1    1    1    2  502    0 -0.56203852779E+02  0.43838895181E+01  0.34952838278E+03  0.35404545178E+03  0.00000000000E+00 0. -1.
         22    1    3    3    0    0 -0.94858041061E+01 -0.85476394739E+02 -0.71657816100E+02  0.11194211515E+03  0.00000000000E+00 0.  1.
         22    1    3    3    0    0  0.50320994580E+02 -0.70690919764E+02  0.38410771635E+02  0.94893603632E+02  0.00000000000E+00 0.  1.
</event>
<event>
 7    1  0.6370239E-006  0.7182427E+02  0.7818608E-02  0.1474617E+00
          2   -1    0    0  502    0  0.00000000000E+00  0.00000000000E+00  0.12186893298E+03  0.12186893298E+03  0.00000000000E+00 0. -1.
          1   -1    0    0  501    0 -0.00000000000E+00 -0.00000000000E+00 -0.85950289150E+03  0.85950289150E+03  0.00000000000E+00 0. -1.
         25    2    1    2    0    0 -0.86118272499E+02 -0.26620009811E+02 -0.67623656437E+02  0.16829380327E+03  0.12499945411E+03 0.  0.
          2    1    1    2  501    0  0.71246356173E+02  0.27325287919E+01 -0.73698839586E+03  0.74042920365E+03  0.00000000000E+00 0. -1.
          1    1    1    2  502    0  0.14871916326E+02  0.23887481019E+02  0.66978093783E+02  0.72648817550E+02  0.00000000000E+00 0. -1.
         22    1    3    3    0    0  0.21626465763E+02 -0.39719689895E+02 -0.14813763487E+02  0.47589971374E+02  0.00000000000E+00 0.  1.
         22    1    3    3    0    0 -0.10774473826E+03  0.13099680083E+02 -0.52809892951E+02  0.12070383190E+03  0.00000000000E+00 0.  1.
</event>
<event>
 7    1  0.6370239E-006  0.6581062E+02  0.7818608E-02  0.1438483E+00
          2   -1    0    0  502    0  0.00000000000E+00  0.00000000000E+00  0.13412830632E+04  0.13412830632E+04  0.00000000000E+00 0. -1.
          1   -1    0    0  501    0 -0.00000000000E+00 -0.00000000000E+00 -0.41793837717E+02  0.41793837717E+02  0.00000000000E+00 0. -1.
         25    2    1    2    0    0 -0.10526544080E+02 -0.59482217052E+02  0.23057568616E+03  0.26914395519E+03  0.12499751713E+03 0.  0.
          2    1    1    2  501    0 -0.29343052800E+02  0.62450559832E+02  0.31673988857E+02  0.75923176574E+02  0.00000000000E+00 0. -1.
          1    1    1    2  502    0  0.39869596881E+02 -0.29683427794E+01  0.10372395505E+04  0.10380097692E+04  0.00000000000E+00 0. -1.
         22    1    3    3    0    0 -0.38043894835E+02 -0.76272975619E+02  0.86241682094E+02  0.12125399983E+03  0.00000000000E+00 0. -1.
         22    1    3    3    0    0  0.27517350755E+02  0.16790758567E+02  0.14433400407E+03  0.14788995536E+03  0.00000000000E+00 0. -1.
</event>
<event>
 7    1  0.1025768E-005  0.1514204E+03  0.7818608E-02  0.1277588E+00
          2   -1    0    0  502    0  0.00000000000E+00  0.00000000000E+00  0.11973207221E+04  0.11973207221E+04  0.00000000000E+00 0. -1.
          1   -1    0    0  501    0 -0.00000000000E+00 -0.00000000000E+00 -0.15201226000E+04  0.15201226000E+04  0.00000000000E+00 0. -1.
         25    2    1    2    0    0 -0.88373100942E+02 -0.55869402981E+01 -0.17494073738E+03  0.23254233518E+03  0.12502262669E+03 0.  0.
          2    1    1    2  501    0 -0.60123383795E+02 -0.31268664754E+02 -0.13104934077E+04  0.13122444598E+04  0.00000000000E+00 0. -1.
          1    1    1    2  502    0  0.14849648474E+03  0.36855605052E+02  0.11626322672E+04  0.11726565270E+04  0.00000000000E+00 0. -1.
         22    1    3    3    0    0 -0.20253127640E+02 -0.34629767894E+02 -0.14863852134E+03  0.15395720194E+03  0.00000000000E+00 0.  1.
         22    1    3    3    0    0 -0.68119973302E+02  0.29042827595E+02 -0.26302216036E+02  0.78585133237E+02  0.00000000000E+00 0.  1.
</event>
<event>
 7    1  0.6370239E-006  0.1092923E+03  0.7818608E-02  0.1364378E+00
          2   -1    0    0  502    0  0.00000000000E+00  0.00000000000E+00  0.13476258961E+04  0.13476258961E+04  0.00000000000E+00 0. -1.
          1   -1    0    0  501    0 -0.00000000000E+00 -0.00000000000E+00 -0.16882396470E+04  0.16882396470E+04  0.00000000000E+00 0. -1.
         25    2    1    2    0    0 -0.14196838311E+03  0.54629682834E+02  0.23559609856E+03  0.30703152061E+03  0.12499363560E+03 0.  0.
          2    1    1    2  501    0  0.10277667724E+03 -0.36330088112E+02 -0.16502884857E+04  0.16538848227E+04  0.00000000000E+00 0. -1.
          1    1    1    2  502    0  0.39191705867E+02 -0.18299594722E+02  0.10740786363E+04  0.10749491997E+04  0.00000000000E+00 0. -1.
         22    1    3    3    0    0 -0.15723653690E+03  0.46636496350E+02  0.23860671781E+03  0.28953662482E+03  0.00000000000E+00 0. -1.
         22    1    3    3    0    0  0.15268153789E+02  0.79931864841E+01 -0.30106192514E+01  0.17494895786E+02  0.00000000000E+00 0. -1.
</event>
<event>
 7    1  0.6370239E-006  0.8133490E+02  0.7818608E-02  0.1412696E+00
          2   -1    0    0  502    0  0.00000000000E+00  0.00000000000E+00  0.14343465378E+03  0.14343465378E+03  0.00000000000E+00 0. -1.
          1   -1    0    0  501    0 -0.00000000000E+00 -0.00000000000E+00 -0.58230049563E+03  0.58230049563E+03  0.00000000000E+00 0. -1.
         25    2    1    2    0    0 -0.23002209951E+02 -0.48003963670E+02 -0.29679457742E+01  0.13589679181E+03  0.12500258850E+03 0.  0.
          2    1    1    2  501    0  0.46287954233E+01  0.82837926106E+02 -0.50420814109E+03  0.51098864693E+03  0.00000000000E+00 0. -1.
          1    1    1    2  502    0  0.18373414528E+02 -0.34833962436E+02  0.68310245005E+02  0.78849710672E+02  0.00000000000E+00 0. -1.
         22    1    3    3    0    0 -0.48008535809E+02  0.15448999544E+02 -0.34146522829E+02  0.60905468710E+02  0.00000000000E+00 0.  1.
         22    1    3    3    0    0  0.25006325858E+02 -0.63452963214E+02  0.31178577055E+02  0.74991323103E+02  0.00000000000E+00 0.  1.
</event>
<event>
 7    1  0.6370239E-006  0.2964231E+03  0.7818608E-02  0.1168238E+00
          2   -1    0    0  502    0  0.00000000000E+00  0.00000000000E+00  0.14249309315E+04  0.14249309315E+04  0.00000000000E+00 0. -1.
          1   -1    0    0  501    0 -0.00000000000E+00 -0.00000000000E+00 -0.90451836491E+03  0.90451836491E+03  0.00000000000E+00 0. -1.
         25    2    1    2    0    0  0.35355164937E+02  0.21435584462E+03  0.97594787880E+02  0.26897509424E+03  0.12499777155E+03 0.  0.
          2    1    1    2  501    0  0.17539173768E+02 -0.30938513352E+03 -0.78698289052E+03  0.84579480575E+03  0.00000000000E+00 0. -1.
          1    1    1    2  502    0 -0.52894338705E+02  0.95029288900E+02  0.12098006692E+04  0.12146793964E+04  0.00000000000E+00 0. -1.
         22    1    3    3    0    0  0.60521668859E+02  0.50240663151E+02  0.59501400289E+02  0.98627649631E+02  0.00000000000E+00 0. -1.
         22    1    3    3    0    0 -0.25166503922E+02  0.16411518147E+03  0.38093387592E+02  0.17034744461E+03  0.00000000000E+00 0. -1.
</event>
<event>
 7    1  0.6370239E-006  0.6274530E+02  0.7818608E-02  0.1413011E+00
          2   -1    0    0  502    0  0.00000000000E+00  0.00000000000E+00  0.12115998071E+04  0.12115998071E+04  0.00000000000E+00 0. -1.
          1   -1    0    0  501    0 -0.00000000000E+00 -0.00000000000E+00 -0.27334599256E+03  0.27334599256E+03  0.00000000000E+00 0. -1.
         25    2    1    2    0    0 -0.43133779631E+01 -0.14430378665E+02  0.54384357049E+03  0.55822931370E+03  0.12500918544E+03 0.  0.
          2    1    1    2  501    0 -0.16607428162E+02  0.60860243392E+02 -0.26141384329E+03  0.26891815365E+03  0.00000000000E+00 0. -1.
          1    1    1    2  502    0  0.20920806126E+02 -0.46429864727E+02  0.65582408735E+03  0.65779833233E+03  0.00000000000E+00 0. -1.
         22    1    3    3    0    0 -0.27659832707E+02  0.47126008286E+02  0.16800092913E+03  0.17666419895E+03  0.00000000000E+00 0. -1.
         22    1    3    3    0    0  0.23346454744E+02 -0.61556386951E+02  0.37584264136E+03  0.38156511475E+03  0.00000000000E+00 0. -1.
</event>
<event>
 7    1  0.6370239E-006  0.2003482E+03  0.7818608E-02  0.1297046E+00
          2   -1    0    0  502    0  0.00000000000E+00  0.00000000000E+00  0.16611046293E+04  0.16611046293E+04  0.00000000000E+00 0. -1.
          1   -1    0    0  501    0 -0.00000000000E+00 -0.00000000000E+00 -0.68381893252E+03  0.68381893252E+03  0.00000000000E+00 0. -1.
         25    2    1    2    0    0 -0.16629375423E+03  0.13248468969E+03  0.36127188689E+03  0.43742668861E+03  0.12497570145E+03 0.  0.
          2    1    1    2  501    0  0.12888306294E+03 -0.15297020052E+03 -0.62987761149E+03  0.66087557953E+03  0.00000000000E+00 0. -1.
          1    1    1    2  502    0  0.37410691298E+02  0.20485510829E+02  0.12458914213E+04  0.12466212936E+04  0.00000000000E+00 0. -1.
         22    1    3    3    0    0 -0.34072586128E+02  0.10043707717E+03  0.11770991889E+03  0.15844296324E+03  0.00000000000E+00 0.  1.
         22    1    3    3    0    0 -0.13222116811E+03  0.32047612519E+02  0.24356196800E+03  0.27898372537E+03  0.00000000000E+00 0.  1.
</event>
<event>
 7    1  0.6370239E-006  0.1185147E+03  0.7818608E-02  0.1342817E+00
          2   -1    0    0  502    0  0.00000000000E+00  0.00000000000E+00  0.52514490127E+03  0.52514490127E+03  0.00000000000E+00 0. -1.
          1   -1    0    0  501    0 -0.00000000000E+00 -0.00000000000E+00 -0.50595551085E+03  0.50595551085E+03  0.00000000000E+00 0. -1.
         25    2    1    2    0    0 -0.47290238464E+02 -0.54015510825E+02  0.28635545392E+03  0.32058806439E+03  0.12499287571E+03 0.  0.
          2    1    1    2  501    0  0.76924102290E+02  0.91642940744E+02 -0.47880161251E+03  0.49352480206E+03  0.00000000000E+00 0. -1.
          1    1    1    2  502    0 -0.29633863826E+02 -0.37627429919E+02  0.21163554902E+03  0.21698754567E+03  0.00000000000E+00 0. -1.
         22    1    3    3    0    0  0.16917808411E+02 -0.51045488831E+02  0.22636753478E+03  0.23266739130E+03  0.00000000000E+00 0. -1.
         22    1    3    3    0    0 -0.64208046875E+02 -0.29700219947E+01  0.59987919133E+02  0.87920673086E+02  0.00000000000E+00 0. -1.
</event>
<event>
 7    1  0.6370239E-006  0.4373327E+03  0.7818608E-02  0.1181838E+00
          2   -1    0    0  502    0  0.00000000000E+00  0.00000000000E+00  0.23683575545E+04  0.23683575545E+04  0.00000000000E+00 0. -1.
          1   -1    0    0  501    0 -0.00000000000E+00 -0.00000000000E+00 -0.22264056754E+03  0.22264056754E+03  0.00000000000E+00 0. -1.
         25    2    1    2    0    0  0.35448917378E+03 -0.19149047797E+03  0.49991600214E+03  0.65411969065E+03  0.12500153208E+03 0.  0.
          2    1    1    2  501    0  0.19248689815E+02 -0.60179750194E+02 -0.10854493145E+03  0.12559504981E+03  0.00000000000E+00 0. -1.
          1    1    1    2  502    0 -0.37373786360E+03  0.25167022817E+03  0.17543459163E+04  0.18112833816E+04  0.00000000000E+00 0. -1.
         22    1    3    3    0    0  0.24384113172E+02 -0.48549816699E+01 -0.21276205235E+01  0.24953608783E+02  0.00000000000E+00 0. -1.
         22    1    3    3    0    0  0.33010506061E+03 -0.18663549630E+03  0.50204362266E+03  0.62916608187E+03  0.00000000000E+00 0. -1.
</event>
<event>
 7    1  0.6370239E-006  0.6814530E+02  0.7818608E-02  0.1395256E+00
          2   -1    0    0  502    0  0.00000000000E+00  0.00000000000E+00  0.21465295500E+04  0.21465295500E+04  0.00000000000E+00 0. -1.
          1   -1    0    0  501    0 -0.00000000000E+00 -0.00000000000E+00 -0.10069769570E+04  0.10069769570E+04  0.00000000000E+00 0. -1.
         25    2    1    2    0    0  0.24910633347E+02  0.11653803625E+03  0.22322234651E+03  0.28223189090E+03  0.12499988286E+03 0.  0.
          2    1    1    2  501    0 -0.26264679945E+02 -0.62632493870E+02 -0.97590790264E+03  0.97826831551E+03  0.00000000000E+00 0. -1.
          1    1    1    2  502    0  0.13540465988E+01 -0.53905542377E+02  0.18922381492E+04  0.18930063006E+04  0.00000000000E+00 0. -1.
         22    1    3    3    0    0  0.34118741633E+02  0.23082749644E+01  0.13024098681E+03  0.13465560259E+03  0.00000000000E+00 0.  1.
         22    1    3    3    0    0 -0.92081082864E+01  0.11422976128E+03  0.92981359699E+02  0.14757628831E+03  0.00000000000E+00 0.  1.
</event>
<event>
 7    1  0.6370239E-006  0.1211790E+03  0.7818608E-02  0.1320906E+00
          2   -1    0    0  502    0  0.00000000000E+00  0.00000000000E+00  0.55603460569E+03  0.55603460569E+03  0.00000000000E+00 0. -1.
          1   -1    0    0  501    0 -0.00000000000E+00 -0.00000000000E+00 -0.64226618544E+03  0.64226618544E+03  0.00000000000E+00 0. -1.
         25    2    1    2    0    0  0.64222278695E+02  0.18236678451E+02  0.11280459701E+03  0.18110756881E+03  0.12497198428E+03 0.  0.
          2    1    1    2  501    0 -0.11936917262E+03 -0.31710559651E+02 -0.59982248414E+03  0.61240637770E+03  0.00000000000E+00 0. -1.
          1    1    1    2  502    0  0.55146893928E+02  0.13473881200E+02  0.40078630738E+03  0.40478684461E+03  0.00000000000E+00 0. -1.
         22    1    3    3    0    0  0.62396662475E+02  0.11472184322E+02  0.13963802353E+03  0.15337448326E+03  0.00000000000E+00 0. -1.
         22    1    3    3    0    0  0.18256162198E+01  0.67644941285E+01 -0.26833426520E+02  0.27733085551E+02  0.00000000000E+00 0. -1.
</event>
<event>
 7    1  0.6370239E-006  0.1737314E+03  0.7818608E-02  0.1268697E+00
          2   -1    0    0  502    0  0.00000000000E+00  0.00000000000E+00  0.14563830028E+04  0.14563830028E+04  0.00000000000E+00 0. -1.
          1   -1    0    0  501    0 -0.00000000000E+00 -0.00000000000E+00 -0.28230166542E+03  0.28230166542E+03  0.00000000000E+00 0. -1.
         25    2    1    2    0    0  0.22649855139E+03  0.60310188880E+02  0.88978436551E+02  0.28014242094E+03  0.12499480460E+03 0.  0.
          2    1    1    2  501    0 -0.62722368121E+02 -0.14336373513E+02 -0.17528851580E+03  0.18672356798E+03  0.00000000000E+00 0. -1.
          1    1    1    2  502    0 -0.16377618327E+03 -0.45973815367E+02  0.12603914166E+04  0.12718186793E+04  0.00000000000E+00 0. -1.
         22    1    3    3    0    0 -0.13566612301E+02 -0.38313327800E+01 -0.42794183957E+01  0.14732464220E+02  0.00000000000E+00 0.  1.
         22    1    3    3    0    0  0.24006516369E+03  0.64141521660E+02  0.93257854947E+02  0.26540995672E+03  0.00000000000E+00 0.  1.
</event>
<event>
 7    1  0.6370239E-006  0.2992248E+03  0.7818608E-02  0.1265542E+00
          2   -1    0    0  502    0  0.00000000000E+00  0.00000000000E+00  0.57805055303E+03  0.57805055303E+03  0.00000000000E+00 0. -1.
          1   -1    0    0  501    0 -0.00000000000E+00 -0.00000000000E+00 -0.20812777166E+04  0.20812777166E+04  0.00000000000E+00 0. -1.
         25    2    1    2    0    0  0.25910113184E+03 -0.75182341855E+02 -0.87187284426E+02  0.30986355178E+03  0.12501206785E+03 0.  0.
          2    1    1    2  501    0  0.32048823622E+02 -0.21367269792E+02 -0.18321275143E+04  0.18325323778E+04  0.00000000000E+00 0. -1.
          1    1    1    2  502    0 -0.29114995546E+03  0.96549611647E+02  0.41608763511E+03  0.51693234002E+03  0.00000000000E+00 0. -1.
         22    1    3    3    0    0  0.10661748542E+03 -0.95789873494E+02 -0.37189628079E+02  0.14807449645E+03  0.00000000000E+00 0.  1.
         22    1    3    3    0    0  0.15248364642E+03  0.20607531640E+02 -0.49997656347E+02  0.16178905533E+03  0.00000000000E+00 0.  1.
</event>
<event>
 7    1  0.6370239E-006  0.2848470E+02  0.7818608E-02  0.1619598E+00
          2   -1    0    0  502    0  0.00000000000E+00  0.00000000000E+00  0.57436837388E+03  0.57436837388E+03  0.00000000000E+00 0. -1.
          1   -1    0    0  501    0 -0.00000000000E+00 -0.00000000000E+00 -0.46726737053E+03  0.46726737053E+03  0.00000000000E+00 0. -1.
         25    2    1    2    0    0 -0.26483256687E+02 -0.25283412589E+01 -0.97069860365E+02  0.16048544427E+03  0.12500105855E+03 0.  0.
          2    1    1    2  501    0  0.10115488404E+02  0.25895464114E+02 -0.33754287578E+03  0.33868582957E+03  0.00000000000E+00 0. -1.
          1    1    1    2  502    0  0.16367768283E+02 -0.23367122855E+02  0.54171373949E+03  0.54246447056E+03  0.00000000000E+00 0. -1.
         22    1    3    3    0    0 -0.95536132455E+01 -0.63275264975E+02 -0.40226801670E+02  0.75585886621E+02  0.00000000000E+00 0.  1.
         22    1    3    3    0    0 -0.16929643441E+02  0.60746923716E+02 -0.56843058695E+02  0.84899557654E+02  0.00000000000E+00 0.  1.
</event>
<event>
 7    1  0.6370239E-006  0.2795112E+03  0.7818608E-02  0.1314481E+00
          2   -1    0    0  502    0  0.00000000000E+00  0.00000000000E+00  0.25178923377E+03  0.25178923377E+03  0.00000000000E+00 0. -1.
          1   -1    0    0  501    0 -0.00000000000E+00 -0.00000000000E+00 -0.14781816177E+04  0.14781816177E+04  0.00000000000E+00 0. -1.
         25    2    1    2    0    0 -0.18564647115E+03 -0.18571436641E+03 -0.17461094139E+03  0.33921394042E+03  0.12499071317E+03 0.  0.
          2    1    1    2  501    0  0.18775158055E+03  0.21170042402E+03 -0.12037539631E+04  0.12365643247E+04  0.00000000000E+00 0. -1.
          1    1    1    2  502    0 -0.21051094002E+01 -0.25986057610E+02  0.15197252055E+03  0.15419258633E+03  0.00000000000E+00 0. -1.
         22    1    3    3    0    0  0.18127907476E+01  0.15389448972E+02 -0.13553489190E+02  0.20586850638E+02  0.00000000000E+00 0.  1.
         22    1    3    3    0    0 -0.18745926190E+03 -0.20110381538E+03 -0.16105745220E+03  0.31862708978E+03  0.00000000000E+00 0.  1.
</event>
<event>
 7    1  0.6370239E-006  0.1316677E+03  0.7818608E-02  0.1323537E+00
          2   -1    0    0  502    0  0.00000000000E+00  0.00000000000E+00  0.42940711116E+04  0.42940711116E+04  0.00000000000E+00 0. -1.
          1   -1    0    0  501    0 -0.00000000000E+00 -0.00000000000E+00 -0.58082520412E+03  0.58082520412E+03  0.00000000000E+00 0. -1.
         25    2    1    2    0    0  0.15438060941E+03 -0.80707376971E+02  0.49141953514E+03  0.53615841368E+03  0.12500252710E+03 0.  0.
          2    1    1    2  501    0 -0.12518382841E+03  0.38845960376E+02 -0.55058992070E+03  0.56597637787E+03  0.00000000000E+00 0. -1.
          1    1    1    2  502    0 -0.29196781002E+02  0.41861416595E+02  0.37724162930E+04  0.37727615241E+04  0.00000000000E+00 0. -1.
         22    1    3    3    0    0  0.37874240208E+02 -0.68362179886E+02  0.96229655617E+02  0.12396770680E+03  0.00000000000E+00 0. -1.
         22    1    3    3    0    0  0.11650636920E+03 -0.12345197085E+02  0.39518987952E+03  0.41219070687E+03  0.00000000000E+00 0. -1.
</event>
<event>
 7    1  0.6370239E-006  0.6500721E+02  0.7818608E-02  0.1429070E+00
          2   -1    0    0  502    0  0.00000000000E+00  0.00000000000E+00  0.16589236980E+03  0.16589236980E+03  0.00000000000E+00 0. -1.
          1   -1    0    0  501    0 -0.00000000000E+00 -0.00000000000E+00 -0.11359475174E+04  0.11359475174E+04  0.00000000000E+00 0. -1.
         25    2    1    2    0    0 -0.11217588851E+02 -0.39865328911E+02 -0.12042901640E+03  0.17844684117E+03  0.12500019353E+03 0.  0.
          2    1    1    2  501    0 -0.43426400808E+02  0.14556603001E+01 -0.97785039189E+03  0.97881528398E+03  0.00000000000E+00 0. -1.
          1    1    1    2  502    0  0.54643989659E+02  0.38409668611E+02  0.12822426069E+03  0.14457776205E+03  0.00000000000E+00 0. -1.
         22    1    3    3    0    0  0.40416306825E+02 -0.36042956822E+02 -0.11408398496E+03  0.12628431501E+03  0.00000000000E+00 0.  1.
         22    1    3    3    0    0 -0.51633895676E+02 -0.38223720890E+01 -0.63450314401E+01  0.52162526156E+02  0.00000000000E+00 0.  1.
</event>
<event>
 7    1  0.6370239E-006  0.8330911E+02  0.7818608E-02  0.1367629E+00
          2   -1    0    0  502    0  0.00000000000E+00  0.00000000000E+00  0.24580241152E+02  0.24580241152E+02  0.00000000000E+00 0. -1.
          1   -1    0    0  501    0 -0.00000000000E+00 -0.00000000000E+00 -0.20890871578E+04  0.20890871578E+04  0.00000000000E+00 0. -1.
         25    2    1    2    0    0 -0.74055884273E+02 -0.10520906495E+02 -0.16222435591E+04  0.16287735185E+04  0.12503617903E+03 0.  0.
          2    1    1    2  501    0  0.20302361975E+01  0.55190794371E+02 -0.36826232949E+03  0.37238057006E+03  0.00000000000E+00 0. -1.
          1    1    1    2  502    0  0.72025648075E+02 -0.44669887875E+02 -0.74001028113E+02  0.11251331044E+03  0.00000000000E+00 0. -1.
         22    1    3    3    0    0 -0.65880602637E+02 -0.23276241856E+02 -0.16018246753E+04  0.16033478499E+04  0.00000000000E+00 0. -1.
         22    1    3    3    0    0 -0.81752816352E+01  0.12755335360E+02 -0.20418883748E+02  0.25425668595E+02  0.00000000000E+00 0. -1.
</event>
<event>
 7    1  0.6370239E-006  0.7271523E+02  0.7818608E-02  0.1353670E+00
          2   -1    0    0  502    0  0.00000000000E+00  0.00000000000E+00  0.19072592560E+04  0.19072592560E+04  0.00000000000E+00 0. -1.
          1   -1    0    0  501    0 -0.00000000000E+00 -0.00000000000E+00 -0.33945620351E+03  0.33945620351E+03  0.00000000000E+00 0. -1.
         25    2    1    2    0    0 -0.59295415820E+02  0.47202523907E+02 -0.92057992425E+01  0.14646985013E+03  0.12499858263E+03 0.  0.
          2    1    1    2  501    0  0.71380883368E+02  0.22905040773E+02 -0.25554369071E+03  0.26631269077E+03  0.00000000000E+00 0. -1.
          1    1    1    2  502    0 -0.12085467548E+02 -0.70107564679E+02  0.18325525425E+04  0.18339329186E+04  0.00000000000E+00 0. -1.
         22    1    3    3    0    0  0.18729337032E+02 -0.12162624807E+02  0.32904933002E+02  0.39767475702E+02  0.00000000000E+00 0. -1.
         22    1    3    3    0    0 -0.78024752852E+02  0.59365148713E+02 -0.42110732244E+02  0.10670237443E+03  0.00000000000E+00 0. -1.
</event>
<event>
 7    1  0.6370239E-006  0.2096200E+03  0.7818608E-02  0.1303551E+00
          2   -1    0    0  502    0  0.00000000000E+00  0.00000000000E+00  0.75914934214E+03  0.75914934214E+03  0.00000000000E+00 0. -1.
          1   -1    0    0  501    0 -0.00000000000E+00 -0.00000000000E+00 -0.15033158916E+04  0.15033158916E+04  0.00000000000E+00 0. -1.
         25    2    1    2    0    0 -0.19400532216E+03  0.13911891506E+03 -0.11075213166E+04  0.11398354841E+04  0.12501730490E+03 0.  0.
          2    1    1    2  501    0  0.38386463810E+02  0.77772323202E+00 -0.36387367183E+03  0.36589366557E+03  0.00000000000E+00 0. -1.
          1    1    1    2  502    0  0.15561885835E+03 -0.13989663829E+03  0.72722843897E+03  0.75673608407E+03  0.00000000000E+00 0. -1.
         22    1    3    3    0    0 -0.52673774356E+02  0.63189271235E+02 -0.17204305794E+03  0.19069930333E+03  0.00000000000E+00 0. -1.
         22    1    3    3    0    0 -0.14133154780E+03  0.75929643825E+02 -0.93547825868E+03  0.94913618079E+03  0.00000000000E+00 0. -1.
</event>
<event>
 7    1  0.6370239E-006  0.7650992E+02  0.7818608E-02  0.1438701E+00
          2   -1    0    0  502    0  0.00000000000E+00  0.00000000000E+00  0.12573955479E+03  0.12573955479E+03  0.00000000000E+00 0. -1.
          1   -1    0    0  501    0 -0.00000000000E+00 -0.00000000000E+00 -0.21914479369E+03  0.21914479369E+03  0.00000000000E+00 0. -1.
         25    2    1    2    0    0 -0.99797188912E+02 -0.17682170789E+01 -0.34768046356E+02  0.16368921355E+03  0.12499094398E+03 0.  0.
          2    1    1    2  501    0  0.70190982365E+02  0.19152743874E+02 -0.10237257900E+03  0.12559357681E+03  0.00000000000E+00 0. -1.
          1    1    1    2  502    0  0.29606206546E+02 -0.17384526795E+02  0.43735386461E+02  0.55601558133E+02  0.00000000000E+00 0. -1.
         22    1    3    3    0    0  0.11180608439E+02 -0.40774663313E+02 -0.10834964255E+02  0.43646026437E+02  0.00000000000E+00 0. -1.
         22    1    3    3    0    0 -0.11097779735E+03  0.39006446234E+02 -0.23933082101E+02  0.12004318711E+03  0.00000000000E+00 0. -1.
</event>
<event>
 7    1  0.6370239E-006  0.4609939E+02  0.7818608E-02  0.1586097E+00
          2   -1    0    0  502    0  0.00000000000E+00  0.00000000000E+00  0.15909815960E+04  0.15909815960E+04  0.00000000000E+00 0. -1.
          1   -1    0    0  501    0 -0.00000000000E+00 -0.00000000000E+00 -0.31488131391E+02  0.31488131391E+02  0.00000000000E+00 0. -1.
         25    2    1    2    0    0 -0.15841109737E+02  0.41847006724E+02  0.31783638060E+03  0.34445315339E+03  0.12500358921E+03 0.  0.
          2    1    1    2  501    0 -0.18199005472E+02 -0.10476741375E+02 -0.11542479572E+02  0.23962361000E+02  0.00000000000E+00 0. -1.
          1    1    1    2  502    0  0.34040115209E+02 -0.31370265349E+02  0.12531995636E+04  0.12540542130E+04  0.00000000000E+00 0. -1.
         22    1    3    3    0    0  0.35481478835E+02  0.64174426848E+02  0.21794538282E+03  0.22995104326E+03  0.00000000000E+00 0.  1.
         22    1    3    3    0    0 -0.51322588572E+02 -0.22327420124E+02  0.99890997779E+02  0.11450211013E+03  0.00000000000E+00 0.  1.
</event>
<event>
 7    1  0.6370239E-006  0.5024736E+02  0.7818608E-02  0.1477610E+00
          2   -1    0    0  502    0  0.00000000000E+00  0.00000000000E+00  0.17955245367E+04  0.17955245367E+04  0.00000000000E+00 0. -1.
          1   -1    0    0  501    0 -0.00000000000E+00 -0.00000000000E+00 -0.38607954353E+02  0.38607954353E+02  0.00000000000E+00 0. -1.
         25    2    1    2    0    0  0.40274849005E+02  0.33858038183E+02  0.87851741808E+03  0.88892358837E+03  0.12499544738E+03 0.  0.
          2    1    1    2  501    0  0.11392682637E+02 -0.37691750194E+02 -0.20790706926E+02  0.44527685150E+02  0.00000000000E+00 0. -1.
          1    1    1    2  502    0 -0.51667531642E+02  0.38337120111E+01  0.89918987117E+03  0.90068121751E+03  0.00000000000E+00 0. -1.
         22    1    3    3    0    0 -0.33845444872E+02  0.44777244315E+02  0.26716036015E+03  0.27299299219E+03  0.00000000000E+00 0. -1.
         22    1    3    3    0    0  0.74120293876E+02 -0.10919206133E+02  0.61135705793E+03  0.61593059618E+03  0.00000000000E+00 0. -1.
</event>
<event>
 7    1  0.6370239E-006  0.1213029E+03  0.7818608E-02  0.1294049E+00
          2   -1    0    0  502    0  0.00000000000E+00  0.00000000000E+00  0.17905218600E+03  0.17905218600E+03  0.00000000000E+00 0. -1.
          1   -1    0    0  501    0 -0.00000000000E+00 -0.00000000000E+00 -0.52176845123E+03  0.52176845123E+03  0.00000000000E+00 0. -1.
         25    2    1    2    0    0 -0.24494423863E+02  0.16145844849E+03 -0.34515288113E+03  0.40177606956E+03  0.12499876530E+03 0.  0.
          2    1    1    2  501    0 -0.84498480031E+01 -0.96950611934E+02 -0.12139284898E+03  0.15558613328E+03  0.00000000000E+00 0. -1.
          1    1    1    2  502    0  0.32944271866E+02 -0.64507836552E+02  0.12382946488E+03  0.14345843439E+03  0.00000000000E+00 0. -1.
         22    1    3    3    0    0  0.17735776620E+02  0.11527947183E+03 -0.30718226256E+03  0.32858006152E+03  0.00000000000E+00 0.  1.
         22    1    3    3    0    0 -0.42230200483E+02  0.46178976653E+02 -0.37970618575E+02  0.73196008036E+02  0.00000000000E+00 0.  1.
</event>
<event>
 7    1  0.6370239E-006  0.2165303E+03  0.7818608E-02  0.1228675E+00
          2   -1    0    0  502    0  0.00000000000E+00  0.00000000000E+00  0.34713782016E+03  0.34713782016E+03  0.00000000000E+00 0. -1.
          1   -1    0    0  501    0 -0.00000000000E+00 -0.00000000000E+00 -0.84524915985E+03  0.84524915985E+03  0.00000000000E+00 0. -1.
         25    2    1    2    0    0 -0.18093578724E+03  0.81807078951E+02 -0.58848484202E+03  0.63353755205E+03  0.12500105316E+03 0.  0.
          2    1    1    2  501    0 -0.36979768172E+02 -0.67618689655E+02 -0.18908405177E+03  0.20418758307E+03  0.00000000000E+00 0. -1.
          1    1    1    2  502    0  0.21791555542E+03 -0.14188389296E+02  0.27945755410E+03  0.35466184490E+03  0.00000000000E+00 0. -1.
         22    1    3    3    0    0 -0.86723237828E+01  0.33593835263E+02 -0.23313468432E+03  0.23570221891E+03  0.00000000000E+00 0. -1.
         22    1    3    3    0    0 -0.17226346346E+03  0.48213243688E+02 -0.35535015771E+03  0.39783533314E+03  0.00000000000E+00 0. -1.
</event>
<event>
 7    1  0.6370239E-006  0.6792543E+02  0.7818608E-02  0.1441271E+00
          2   -1    0    0  502    0  0.00000000000E+00  0.00000000000E+00  0.39660213321E+03  0.39660213321E+03  0.00000000000E+00 0. -1.
          1   -1    0    0  501    0 -0.00000000000E+00 -0.00000000000E+00 -0.36692098799E+04  0.36692098799E+04  0.00000000000E+00 0. -1.
         25    2    1    2    0    0  0.71954440155E+02  0.76865980862E+02 -0.30444253568E+04  0.30488094013E+04  0.12500876807E+03 0.  0.
          2    1    1    2  501    0 -0.29415639806E+02 -0.23955865037E+02 -0.61908610343E+03  0.62024734324E+03  0.00000000000E+00 0. -1.
          1    1    1    2  502    0 -0.42538800349E+02 -0.52910115825E+02  0.39090371351E+03  0.39675526856E+03  0.00000000000E+00 0. -1.
         22    1    3    3    0    0  0.46650733644E+02  0.19484601140E+02 -0.34783119256E+03  0.35148610093E+03  0.00000000000E+00 0.  1.
         22    1    3    3    0    0  0.25303706511E+02  0.57381379722E+02 -0.26965941642E+04  0.26973233004E+04  0.00000000000E+00 0.  1.
</event>
<event>
 7    1  0.6370239E-006  0.2132925E+03  0.7818608E-02  0.1319476E+00
          2   -1    0    0  502    0  0.00000000000E+00  0.00000000000E+00  0.14133003519E+04  0.14133003519E+04  0.00000000000E+00 0. -1.
          1   -1    0    0  501    0 -0.00000000000E+00 -0.00000000000E+00 -0.96866722379E+03  0.96866722379E+03  0.00000000000E+00 0. -1.
         25    2    1    2    0    0 -0.15499165752E+03  0.11981670302E+03  0.14040217755E+02  0.23280982063E+03  0.12499931457E+03 0.  0.
          2    1    1    2  501    0 -0.30564023661E+02 -0.11532309389E+02 -0.85002059320E+03  0.85064808386E+03  0.00000000000E+00 0. -1.
          1    1    1    2  502    0  0.18555568119E+03 -0.10828439363E+03  0.12806135036E+04  0.12985096712E+04  0.00000000000E+00 0. -1.
         22    1    3    3    0    0 -0.58600398719E+00 -0.11861390441E+02 -0.23599786975E+02  0.26419423331E+02  0.00000000000E+00 0.  1.
         22    1    3    3    0    0 -0.15440565354E+03  0.13167809346E+03  0.37640004730E+02  0.20639039730E+03  0.00000000000E+00 0.  1.
</event>
<event>
 7    1  0.6370239E-006  0.1361501E+03  0.7818608E-02  0.1391763E+00
          2   -1    0    0  502    0  0.00000000000E+00  0.00000000000E+00  0.25383796629E+04  0.25383796629E+04  0.00000000000E+00 0. -1.
          1   -1    0    0  501    0 -0.00000000000E+00 -0.00000000000E+00 -0.21224476454E+02  0.21224476454E+02  0.00000000000E+00 0. -1.
         25    2    1    2    0    0  0.30079471536E+01  0.12660035240E+03  0.85578178819E+03  0.87408525397E+03  0.12500346092E+03 0.  0.
          2    1    1    2  501    0 -0.28022860284E+02 -0.13862091136E+03  0.40759457791E+03  0.43143293535E+03  0.00000000000E+00 0. -1.
          1    1    1    2  502    0  0.25014913131E+02  0.12020558961E+02  0.12537788204E+04  0.12540859501E+04  0.00000000000E+00 0. -1.
         22    1    3    3    0    0 -0.51924683758E+02  0.92331082389E+02  0.64312749292E+03  0.65179304516E+03  0.00000000000E+00 0.  1.
         22    1    3    3    0    0  0.54932630912E+02  0.34269270008E+02  0.21265429526E+03  0.22229220881E+03  0.00000000000E+00 0.  1.
</event>
<event>
 7    1  0.6370239E-006  0.8345418E+02  0.7818608E-02  0.1350577E+00
          2   -1    0    0  502    0  0.00000000000E+00  0.00000000000E+00  0.27437035451E+04  0.27437035451E+04  0.00000000000E+00 0. -1.
          1   -1    0    0  501    0 -0.00000000000E+00 -0.00000000000E+00 -0.22382696989E+02  0.22382696989E+02  0.00000000000E+00 0. -1.
         25    2    1    2    0    0  0.17099796414E+02 -0.44152527733E+02  0.30954266784E+03  0.33718877529E+03  0.12505102248E+03 0.  0.
          2    1    1    2  501    0 -0.53711393592E+02 -0.34131834388E+02  0.12299682429E+03  0.13848507034E+03  0.00000000000E+00 0. -1.
          1    1    1    2  502    0  0.36611597178E+02  0.78284362121E+02  0.22887813560E+04  0.22904123965E+04  0.00000000000E+00 0. -1.
         22    1    3    3    0    0 -0.15366311160E+02 -0.72922185087E+02  0.10921547292E+03  0.13221871320E+03  0.00000000000E+00 0. -1.
         22    1    3    3    0    0  0.32466107574E+02  0.28769657354E+02  0.20032719492E+03  0.20497006209E+03  0.00000000000E+00 0. -1.
</event>
<event>
 7    1  0.6370239E-006  0.1035753E+03  0.7818608E-02  0.1287373E+00
          2   -1    0    0  502    0  0.00000000000E+00  0.00000000000E+00  0.34753589243E+03  0.34753589243E+03  0.00000000000E+00 0. -1.
          1   -1    0    0  501    0 -0.00000000000E+00 -0.00000000000E+00 -0.75643006193E+03  0.75643006193E+03  0.00000000000E+00 0. -1.
         25    2    1    2    0    0  0.88705183503E+02  0.13595964507E+03  0.12405973402E+02  0.20526210900E+03  0.12499996219E+03 0.  0.
          2    1    1    2  501    0 -0.68363171669E+00 -0.90295332485E+02 -0.64642822657E+03  0.65270450169E+03  0.00000000000E+00 0. -1.
          1    1    1    2  502    0 -0.88021551787E+02 -0.45664312590E+02  0.22512808368E+03  0.24599934367E+03  0.00000000000E+00 0. -1.
         22    1    3    3    0    0  0.42847307445E+02 -0.12154592118E+02 -0.16582260775E+02  0.47524701338E+02  0.00000000000E+00 0. -1.
         22    1    3    3    0    0  0.45857876058E+02  0.14811423719E+03  0.28988234177E+02  0.15773740766E+03  0.00000000000E+00 0. -1.
</event>
<event>
 7    1  0.6370239E-006  0.1043990E+03  0.7818608E-02  0.1274099E+00
          2   -1    0    0  502    0  0.00000000000E+00  0.00000000000E+00  0.16400212202E+03  0.16400212202E+03  0.00000000000E+00 0. -1.
          1   -1    0    0  501    0 -0.00000000000E+00 -0.00000000000E+00 -0.15228430162E+04  0.15228430162E+04  0.00000000000E+00 0. -1.
         25    2    1    2    0    0 -0.95127305051E+02 -0.26513666786E+02 -0.33341322976E+03  0.36951603484E+03  0.12500215812E+03 0.  0.
          2    1    1    2  501    0  0.26473359584E+02  0.10516348506E+03 -0.11498256951E+04  0.11549282777E+04  0.00000000000E+00 0. -1.
          1    1    1    2  502    0  0.68653945467E+02 -0.78649818276E+02  0.12439803072E+03  0.16240082571E+03  0.00000000000E+00 0. -1.
         22    1    3    3    0    0 -0.10398279565E+03  0.23913095127E+02 -0.24724858826E+03  0.26928817706E+03  0.00000000000E+00 0.  1.
         22    1    3    3    0    0  0.88554905970E+01 -0.50426761913E+02 -0.86164641497E+02  0.10022785778E+03  0.00000000000E+00 0.  1.
</event>
<event>
 7    1  0.6370239E-006  0.1024389E+03  0.7818608E-02  0.1292609E+00
          2   -1    0    0  502    0  0.00000000000E+00  0.00000000000E+00  0.24903658197E+04  0.24903658197E+04  0.00000000000E+00 0. -1.
          1   -1    0    0  501    0 -0.00000000000E+00 -0.00000000000E+00 -0.17857851743E+03  0.17857851743E+03  0.00000000000E+00 0. -1.
         25    2    1    2    0    0 -0.30038702843E+02  0.17184327954E+03  0.15566078703E+03  0.26511725712E+03  0.12499777202E+03 0.  0.
          2    1    1    2  501    0 -0.12075493402E+02 -0.95795057493E+02 -0.10406879407E+03  0.14196064412E+03  0.00000000000E+00 0. -1.
          1    1    1    2  502    0  0.42114196245E+02 -0.76048222050E+02  0.22601953093E+04  0.22618664359E+04  0.00000000000E+00 0. -1.
         22    1    3    3    0    0 -0.30447612859E+02  0.32885525800E+02  0.11011390040E+03  0.11888475931E+03  0.00000000000E+00 0.  1.
         22    1    3    3    0    0  0.40891001592E+00  0.13895775374E+03  0.45546886633E+02  0.14623249781E+03  0.00000000000E+00 0.  1.
</event>
<event>
 7    1  0.6370239E-006  0.7009614E+02  0.7818608E-02  0.1513317E+00
          2   -1    0    0  502    0  0.00000000000E+00  0.00000000000E+00  0.88730644911E+03  0.88730644911E+03  0.00000000000E+00 0. -1.
          1   -1    0    0  501    0 -0.00000000000E+00 -0.00000000000E+00 -0.24097267865E+03  0.24097267865E+03  0.00000000000E+00 0. -1.
         25    2    1    2    0    0 -0.46204344080E+02 -0.17483640682E+02  0.33386317648E+02  0.13850098844E+03  0.12500943360E+03 0.  0.
          2    1    1    2  501    0 -0.17248193426E+02 -0.13737188128E+02 -0.18620340980E+03  0.18750445418E+03  0.00000000000E+00 0. -1.
          1    1    1    2  502    0  0.63452537507E+02  0.31220828810E+02  0.79915086261E+03  0.80227368515E+03  0.00000000000E+00 0. -1.
         22    1    3    3    0    0 -0.27170249994E+02 -0.25315135433E+02  0.79641048836E+02  0.87873632145E+02  0.00000000000E+00 0.  1.
         22    1    3    3    0    0 -0.19034094086E+02  0.78314947507E+01 -0.46254731188E+02  0.50627356291E+02  0.00000000000E+00 0.  1.
</event>
<event>
 7    1  0.6370239E-006  0.1409518E+03  0.7818608E-02  0.1288654E+00
          2   -1    0    0  502    0  0.00000000000E+00  0.00000000000E+00  0.15087830692E+03  0.15087830692E+03  0.00000000000E+00 0. -1.
          1   -1    0    0  501    0 -0.00000000000E+00 -0.00000000000E+00 -0.65142450299E+03  0.65142450299E+03  0.00000000000E+00 0. -1.
         25    2    1    2    0    0 -0.15151992816E+03 -0.84141884464E+02 -0.46821411383E+03  0.51467251446E+03  0.12500078159E+03 0.  0.
          2    1    1    2  501    0  0.87282243205E+02  0.71044143419E+02 -0.12877030659E+03  0.17101828017E+03  0.00000000000E+00 0. -1.
          1    1    1    2  502    0  0.64237684959E+02  0.13097741045E+02  0.96438224354E+02  0.11661201527E+03  0.00000000000E+00 0. -1.
         22    1    3    3    0    0 -0.10850760767E+02 -0.71010016554E+02 -0.14039200239E+03  0.15770249140E+03  0.00000000000E+00 0. -1.
         22    1    3    3    0    0 -0.14066916740E+03 -0.13131867910E+02 -0.32782211145E+03  0.35697002306E+03  0.00000000000E+00 0. -1.
</event>
<event>
 7    1  0.6370239E-006  0.2546818E+03  0.7818608E-02  0.1166983E+00
          2   -1    0    0  502    0  0.00000000000E+00  0.00000000000E+00  0.18985802662E+04  0.18985802662E+04  0.00000000000E+00 0. -1.
          1   -1    0    0  501    0 -0.00000000000E+00 -0.00000000000E+00 -0.19510724274E+03  0.19510724274E+03  0.00000000000E+00 0. -1.
         25    2    1    2    0    0  0.24997959654E+03 -0.10894866136E+03  0.67153353070E+03  0.73548684712E+03  0.12499603966E+03 0.  0.
          2    1    1    2  501    0 -0.90131180885E+02 -0.91480291000E+02 -0.12139477067E+03  0.17671718579E+03  0.00000000000E+00 0. -1.
          1    1    1    2  502    0 -0.15984841566E+03  0.20042895236E+03  0.11533342634E+04  0.11814834760E+04  0.00000000000E+00 0. -1.
         22    1    3    3    0    0  0.30719936876E+02 -0.14492249168E+02  0.15448777039E+02  0.37314936951E+02  0.00000000000E+00 0.  1.
         22    1    3    3    0    0  0.21925965967E+03 -0.94456412192E+02  0.65608475366E+03  0.69817191017E+03  0.00000000000E+00 0.  1.
</event>
<event>
 7    1  0.6370239E-006  0.5168875E+02  0.7818608E-02  0.1454942E+00
          2   -1    0    0  502    0  0.00000000000E+00  0.00000000000E+00  0.16747067502E+04  0.16747067502E+04  0.00000000000E+00 0. -1.
          1   -1    0    0  501    0 -0.00000000000E+00 -0.00000000000E+00 -0.11398276878E+04  0.11398276878E+04  0.00000000000E+00 0. -1.
         25    2    1    2    0    0 -0.62884241069E+01  0.24360372495E+02  0.39189952201E+03  0.41211920127E+03  0.12499611465E+03 0.  0.
          2    1    1    2  501    0 -0.44553964299E+02 -0.67634155092E+01 -0.11286994210E+04  0.11295986820E+04  0.00000000000E+00 0. -1.
          1    1    1    2  502    0  0.50842388406E+02 -0.17596956986E+02  0.12716789613E+04  0.12728165547E+04  0.00000000000E+00 0. -1.
         22    1    3    3    0    0  0.11632261772E+02  0.47466376698E+02  0.53509556984E+02  0.72468193846E+02  0.00000000000E+00 0. -1.
         22    1    3    3    0    0 -0.17920685879E+02 -0.23106004203E+02  0.33838996502E+03  0.33965100742E+03  0.00000000000E+00 0. -1.
</event>
<event>
 7    1  0.6370239E-006  0.6391470E+02  0.7818608E-02  0.1478707E+00
          2   -1    0    0  502    0  0.00000000000E+00  0.00000000000E+00  0.13485629169E+04  0.13485629169E+04  0.00000000000E+00 0. -1.
          1   -1    0    0  501    0 -0.00000000000E+00 -0.00000000000E+00 -0.28806369948E+03  0.28806369948E+03  0.00000000000E+00 0. -1.
         25    2    1    2    0    0 -0.48300117231E+02 -0.48804275492E+02  0.11209015087E+02  0.14305607148E+03  0.12499855574E+03 0.  0.
          2    1    1    2  501    0  0.28303828773E+02 -0.11932277156E+02 -0.22026985043E+03  0.22240119822E+03  0.00000000000E+00 0. -1.
          1    1    1    2  502    0  0.19996288457E+02  0.60736552648E+02  0.12695600528E+04  0.12711693467E+04  0.00000000000E+00 0. -1.
         22    1    3    3    0    0 -0.13362598048E+02 -0.72790518242E+02 -0.33690993580E+02  0.81314830265E+02  0.00000000000E+00 0. -1.
         22    1    3    3    0    0 -0.34937519183E+02  0.23986242751E+02  0.44900008668E+02  0.61741241211E+02  0.00000000000E+00 0. -1.
</event>
<event>
 7    1  0.6370239E-006  0.6085445E+02  0.7818608E-02  0.1397097E+00
          2   -1    0    0  502    0  0.00000000000E+00  0.00000000000E+00  0.10618960526E+04  0.10618960526E+04  0.00000000000E+00 0. -1.
          1   -1    0    0  501    0 -0.00000000000E+00 -0.00000000000E+00 -0.85299293607E+03  0.85299293607E+03  0.00000000000E+00 0. -1.
         25    2    1    2    0    0 -0.22857635018E+02 -0.27401201762E+02 -0.30870359517E+02  0.13361282635E+03  0.12500444365E+03 0.  0.
          2    1    1    2  501    0  0.58663507448E+02 -0.20124223666E+02 -0.76862526448E+03  0.77112332910E+03  0.00000000000E+00 0. -1.
          1    1    1    2  502    0 -0.35805872431E+02  0.47525425428E+02  0.10083987405E+04  0.10101528332E+04  0.00000000000E+00 0. -1.
         22    1    3    3    0    0  0.27461651616E+02 -0.47644588622E+02  0.20711184839E+02  0.58763103321E+02  0.00000000000E+00 0. -1.
         22    1    3    3    0    0 -0.50319286634E+02  0.20243386860E+02 -0.51581544356E+02  0.74849723026E+02  0.00000000000E+00 0. -1.
</event>
<event>
 7    1  0.6370239E-006  0.5049037E+02  0.7818608E-02  0.1447650E+00
          2   -1    0    0  502    0  0.00000000000E+00  0.00000000000E+00  0.36724682882E+03  0.36724682882E+03  0.00000000000E+00 0. -1.
          1   -1    0    0  501    0 -0.00000000000E+00 -0.00000000000E+00 -0.13054565041E+04  0.13054565041E+04  0.00000000000E+00 0. -1.
         25    2    1    2    0    0  0.27742006807E+02 -0.23218733552E+02  0.18090336907E+03  0.22284483352E+03  0.12500024942E+03 0.  0.
          2    1    1    2  501    0  0.27076484568E+02  0.40449469739E+02 -0.12790171162E+04  0.12799429984E+04  0.00000000000E+00 0. -1.
          1    1    1    2  502    0 -0.54818491376E+02 -0.17230736188E+02  0.15990407187E+03  0.16991550096E+03  0.00000000000E+00 0. -1.
         22    1    3    3    0    0  0.48117229291E+02  0.27536496768E+02  0.31540419800E+02  0.63783418614E+02  0.00000000000E+00 0. -1.
         22    1    3    3    0    0 -0.20375222484E+02 -0.50755230319E+02  0.14936294927E+03  0.15906141491E+03  0.00000000000E+00 0. -1.
</event>
<event>
 7    1  0.6370239E-006  0.4110084E+02  0.7818608E-02  0.1598695E+00
          2   -1    0    0  502    0  0.00000000000E+00  0.00000000000E+00  0.52275206218E+03  0.52275206218E+03  0.00000000000E+00 0. -1.
          1   -1    0    0  501    0 -0.00000000000E+00 -0.00000000000E+00 -0.12492636807E+04  0.12492636807E+04  0.00000000000E+00 0. -1.
         25    2    1    2    0    0 -0.39520438902E+00 -0.21143799177E+02 -0.50503607783E+03  0.52070444608E+03  0.12499785528E+03 0.  0.
          2    1    1    2  501    0 -0.12403440882E+02 -0.17948728264E+02 -0.73540987559E+03  0.73573343495E+03  0.00000000000E+00 0. -1.
          1    1    1    2  502    0  0.12798645271E+02  0.39092527442E+02  0.51393433491E+03  0.51557786184E+03  0.00000000000E+00 0. -1.
         22    1    3    3    0    0  0.41514345055E+02 -0.40073516709E+02 -0.12244055446E+03  0.13535515123E+03  0.00000000000E+00 0. -1.
         22    1    3    3    0    0 -0.41909549444E+02  0.18929717532E+02 -0.38259552337E+03  0.38534929485E+03  0.00000000000E+00 0. -1.
</event>
<event>
 7    1  0.6370239E-006  0.8042171E+02  0.7818608E-02  0.1337211E+00
          2   -1    0    0  502    0  0.00000000000E+00  0.00000000000E+00  0.17942118863E+04  0.17942118863E+04  0.00000000000E+00 0. -1.
          1   -1    0    0  501    0 -0.00000000000E+00 -0.00000000000E+00 -0.12881941556E+04  0.12881941556E+04  0.00000000000E+00 0. -1.
         25    2    1    2    0    0 -0.68102229846E+02  0.95556288970E+02  0.86621186067E+03  0.88301584674E+03  0.12500031981E+03 0.  0.
          2    1    1    2  501    0  0.77326093211E+02 -0.22038511822E+02 -0.12770332423E+04  0.12795620042E+04  0.00000000000E+00 0. -1.
          1    1    1    2  502    0 -0.92238633644E+01 -0.73517777148E+02  0.91683911227E+03  0.91982819102E+03  0.00000000000E+00 0. -1.
         22    1    3    3    0    0 -0.20872648113E+02  0.11567362638E+03  0.52760355857E+03  0.54053822279E+03  0.00000000000E+00 0. -1.
         22    1    3    3    0    0 -0.47229581733E+02 -0.20117337410E+02  0.33860830210E+03  0.34247762395E+03  0.00000000000E+00 0. -1.
</event>
<event>
 7    1  0.6370239E-006  0.2018628E+03  0.7818608E-02  0.1303462E+00
          2   -1    0    0  502    0  0.00000000000E+00  0.00000000000E+00  0.59163086249E+03  0.59163086249E+03  0.00000000000E+00 0. -1.
          1   -1    0    0  501    0 -0.00000000000E+00 -0.00000000000E+00 -0.33630313429E+04  0.33630313429E+04  0.00000000000E+00 0. -1.
         25    2    1    2    0    0 -0.84077884857E+02  0.21675517089E+03  0.50982110316E+02  0.26884267061E+03  0.12500124454E+03 0.  0.
          2    1    1    2  501    0  0.93864001811E+02 -0.17807157558E+03 -0.32500584792E+04  0.32562862367E+04  0.00000000000E+00 0. -1.
          1    1    1    2  502    0 -0.97861169543E+01 -0.38683595308E+02  0.42767588846E+03  0.42953329813E+03  0.00000000000E+00 0. -1.
         22    1    3    3    0    0 -0.67534177756E+02  0.22787870086E+03  0.62583857411E+02  0.24577694497E+03  0.00000000000E+00 0.  1.
         22    1    3    3    0    0 -0.16543707101E+02 -0.11123529968E+02 -0.11601747095E+02  0.23065725639E+02  0.00000000000E+00 0.  1.
</event>
<event>
 7    1  0.6370239E-006  0.1437991E+03  0.7818608E-02  0.1347938E+00
          2   -1    0    0  502    0  0.00000000000E+00  0.00000000000E+00  0.24348769849E+04  0.24348769849E+04  0.00000000000E+00 0. -1.
          1   -1    0    0  501    0 -0.00000000000E+00 -0.00000000000E+00 -0.42036219983E+03  0.42036219983E+03  0.00000000000E+00 0. -1.
         25    2    1    2    0    0 -0.10381274464E+02  0.12671569836E+03  0.62146716429E+03  0.64653772808E+03  0.12499983384E+03 0.  0.
          2    1    1    2  501    0  0.31887946620E+02  0.20251053950E+02 -0.40388142526E+03  0.40564411988E+03  0.00000000000E+00 0. -1.
          1    1    1    2  502    0 -0.21506672156E+02 -0.14696675231E+03  0.17969290460E+04  0.18030573367E+04  0.00000000000E+00 0. -1.
         22    1    3    3    0    0 -0.37269313811E+02  0.12285717635E+03  0.59470590747E+03  0.60840611758E+03  0.00000000000E+00 0. -1.
         22    1    3    3    0    0  0.26888039347E+02  0.38585220041E+01  0.26761256826E+02  0.38131610494E+02  0.00000000000E+00 0. -1.
</event>
<event>
 7    1  0.6370239E-006  0.7774361E+02  0.7818608E-02  0.1424355E+00
          2   -1    0    0  502    0  0.00000000000E+00  0.00000000000E+00  0.11583234438E+04  0.11583234438E+04  0.00000000000E+00 0. -1.
          1   -1    0    0  501    0 -0.00000000000E+00 -0.00000000000E+00 -0.63304473856E+03  0.63304473856E+03  0.00000000000E+00 0. -1.
         25    2    1    2    0    0  0.54888633685E+02 -0.53873839654E+02 -0.60235722295E+02  0.15864483142E+03  0.12499875035E+03 0.  0.
          2    1    1    2  501    0 -0.75117973762E+02  0.22107178903E+02 -0.52035460662E+03  0.52621322101E+03  0.00000000000E+00 0. -1.
          1    1    1    2  502    0  0.20229340077E+02  0.31766660751E+02  0.11058690342E+04  0.11065101299E+04  0.00000000000E+00 0. -1.
         22    1    3    3    0    0  0.36569667830E+02 -0.60904596869E+02  0.21788371828E+02  0.74306417434E+02  0.00000000000E+00 0.  1.
         22    1    3    3    0    0  0.18318965855E+02  0.70307572150E+01 -0.82024094122E+02  0.84338413985E+02  0.00000000000E+00 0.  1.
</event>
<event>
 7    1  0.6370239E-006  0.1175503E+03  0.7818608E-02  0.1272343E+00
          2   -1    0    0  502    0  0.00000000000E+00  0.00000000000E+00  0.27348760726E+04  0.27348760726E+04  0.00000000000E+00 0. -1.
          1   -1    0    0  501    0 -0.00000000000E+00 -0.00000000000E+00 -0.50621037675E+03  0.50621037675E+03  0.00000000000E+00 0. -1.
         25    2    1    2    0    0 -0.93384583194E+02 -0.71084551115E-01  0.10183848827E+04  0.10302675643E+04  0.12499119657E+03 0.  0.
          2    1    1    2  501    0  0.76116697443E+02 -0.90088527418E+02 -0.49206405358E+03  0.50600071860E+03  0.00000000000E+00 0. -1.
          1    1    1    2  502    0  0.17267885750E+02  0.90159611969E+02  0.17023448668E+04  0.17048181665E+04  0.00000000000E+00 0. -1.
         22    1    3    3    0    0 -0.49847647792E+02  0.61245174515E+02  0.44213112897E+03  0.44912770411E+03  0.00000000000E+00 0. -1.
         22    1    3    3    0    0 -0.43536935401E+02 -0.61316259066E+02  0.57625375372E+03  0.58113986015E+03  0.00000000000E+00 0. -1.
</event>
<event>
 7    1  0.6370239E-006  0.7810020E+02  0.7818608E-02  0.1384087E+00
          2   -1    0    0  502    0  0.00000000000E+00  0.00000000000E+00  0.63010093837E+02  0.63010093837E+02  0.00000000000E+00 0. -1.
          1   -1    0    0  501    0 -0.00000000000E+00 -0.00000000000E+00 -0.87204472074E+03  0.87204472074E+03  0.00000000000E+00 0. -1.
         25    2    1    2    0    0 -0.29490786930E+02  0.87041778739E+02 -0.49386447053E+03  0.51766169708E+03  0.12500215844E+03 0.  0.
          2    1    1    2  501    0 -0.32721345828E+02 -0.39729276851E+02 -0.33322450466E+03  0.33717602587E+03  0.00000000000E+00 0. -1.
          1    1    1    2  502    0  0.62212132758E+02 -0.47312501888E+02  0.18054348288E+02  0.80217091629E+02  0.00000000000E+00 0. -1.
         22    1    3    3    0    0 -0.20991806820E+02  0.61303063529E+02 -0.80179379643E+02  0.10308954589E+03  0.00000000000E+00 0.  1.
         22    1    3    3    0    0 -0.84989801108E+01  0.25738715210E+02 -0.41368509089E+03  0.41457215119E+03  0.00000000000E+00 0.  1.
</event>
<event>
 7    1  0.6370239E-006  0.1311564E+03  0.7818608E-02  0.1363740E+00
          2   -1    0    0  502    0  0.00000000000E+00  0.00000000000E+00  0.64197415439E+03  0.64197415439E+03  0.00000000000E+00 0. -1.
          1   -1    0    0  501    0 -0.00000000000E+00 -0.00000000000E+00 -0.18200244755E+04  0.18200244755E+04  0.00000000000E+00 0. -1.
         25    2    1    2    0    0 -0.16623273430E+03  0.96489660907E+01 -0.84987057524E+01  0.20838412143E+03  0.12500115826E+03 0.  0.
          2    1    1    2  501    0  0.13007929596E+03 -0.72122772400E+01 -0.17084947156E+04  0.17134546488E+04  0.00000000000E+00 0. -1.
          1    1    1    2  502    0  0.36153438336E+02 -0.24366888507E+01  0.53894310032E+03  0.54015985961E+03  0.00000000000E+00 0. -1.
         22    1    3    3    0    0  0.52289558312E+01  0.30311320525E+02  0.14770069693E+02  0.34121446186E+02  0.00000000000E+00 0. -1.
         22    1    3    3    0    0 -0.17146169013E+03 -0.20662354435E+02 -0.23268775445E+02  0.17426267524E+03  0.00000000000E+00 0. -1.
</event>
<event>
 7    1  0.6370239E-006  0.8391167E+02  0.7818608E-02  0.1412095E+00
          2   -1    0    0  502    0  0.00000000000E+00  0.00000000000E+00  0.24006673993E+03  0.24006673993E+03  0.00000000000E+00 0. -1.
          1   -1    0    0  501    0 -0.00000000000E+00 -0.00000000000E+00 -0.74073665799E+03  0.74073665799E+03  0.00000000000E+00 0. -1.
         25    2    1    2    0    0 -0.50738857573E+02 -0.60739616486E+02  0.13133275936E+02  0.14853695792E+03  0.12500804875E+03 0.  0.
          2    1    1    2  501    0  0.18943706469E+02  0.82185889370E+02 -0.66803484790E+03  0.67333791103E+03  0.00000000000E+00 0. -1.
          1    1    1    2  502    0  0.31795151104E+02 -0.21446272884E+02  0.15423165390E+03  0.15892852897E+03  0.00000000000E+00 0. -1.
         22    1    3    3    0    0 -0.24125936860E+02 -0.23794792774E+02  0.68757197739E+02  0.76653801167E+02  0.00000000000E+00 0.  1.
         22    1    3    3    0    0 -0.26612920713E+02 -0.36944823712E+02 -0.55623921803E+02  0.71883156752E+02  0.00000000000E+00 0.  1.
</event>
<event>
 7    1  0.6370239E-006  0.2180187E+03  0.7818608E-02  0.1204730E+00
          2   -1    0    0  502    0  0.00000000000E+00  0.00000000000E+00  0.55870719864E+03  0.55870719864E+03  0.00000000000E+00 0. -1.
          1   -1    0    0  501    0 -0.00000000000E+00 -0.00000000000E+00 -0.93666994923E+03  0.93666994923E+03  0.00000000000E+00 0. -1.
         25    2    1    2    0    0 -0.40374817938E+02  0.17077390442E+03 -0.21327389324E+03  0.30315947584E+03  0.12500424752E+03 0.  0.
          2    1    1    2  501    0  0.13372699127E+03 -0.20238832923E+03 -0.65167440039E+03  0.69535851769E+03  0.00000000000E+00 0. -1.
          1    1    1    2  502    0 -0.93352173334E+02  0.31614424804E+02  0.48698554304E+03  0.49685915434E+03  0.00000000000E+00 0. -1.
         22    1    3    3    0    0  0.87671451572E+01  0.17880750185E+02  0.14377620251E+02  0.24562166547E+02  0.00000000000E+00 0. -1.
         22    1    3    3    0    0 -0.49141963095E+02  0.15289315424E+03 -0.22765151349E+03  0.27859730929E+03  0.00000000000E+00 0. -1.
</event>
<event>
 7    1  0.6370239E-006  0.1039851E+03  0.7818608E-02  0.1358360E+00
          2   -1    0    0  502    0  0.00000000000E+00  0.00000000000E+00  0.10063357580E+04  0.10063357580E+04  0.00000000000E+00 0. -1.
          1   -1    0    0  501    0 -0.00000000000E+00 -0.00000000000E+00 -0.46801575113E+03  0.46801575113E+03  0.00000000000E+00 0. -1.
         25    2    1    2    0    0 -0.64609741579E+02  0.54826674503E+02  0.21416742776E+03  0.26205746460E+03  0.12500417871E+03 0.  0.
          2    1    1    2  501    0  0.19656465738E+02  0.43586918664E+02 -0.43895661131E+03  0.44155305766E+03  0.00000000000E+00 0. -1.
          1    1    1    2  502    0  0.44953275841E+02 -0.98413593167E+02  0.76310919046E+03  0.77074098690E+03  0.00000000000E+00 0. -1.
         22    1    3    3    0    0 -0.57482543702E+02  0.66719787872E+02  0.22680141309E+03  0.24329951480E+03  0.00000000000E+00 0.  1.
         22    1    3    3    0    0 -0.71271978766E+01 -0.11893113369E+02 -0.12633985330E+02  0.18757949794E+02  0.00000000000E+00 0.  1.
</event>
<event>
 7    1  0.6370239E-006  0.6004135E+02  0.7818608E-02  0.1454809E+00
          2   -1    0    0  502    0  0.00000000000E+00  0.00000000000E+00  0.63027985213E+03  0.63027985213E+03  0.00000000000E+00 0. -1.
          1   -1    0    0  501    0 -0.00000000000E+00 -0.00000000000E+00 -0.60477608589E+03  0.60477608589E+03  0.00000000000E+00 0. -1.
         25    2    1    2    0    0  0.90500685235E+02 -0.36755019519E+02  0.30249165087E+03  0.34156623845E+03  0.12499996368E+03 0.  0.
          2    1    1    2  501    0 -0.52496549394E+02  0.28774045658E+02 -0.58247548671E+03  0.58554378660E+03  0.00000000000E+00 0. -1.
          1    1    1    2  502    0 -0.38004135841E+02  0.79809738610E+01  0.30548760209E+03  0.30794591297E+03  0.00000000000E+00 0. -1.
         22    1    3    3    0    0  0.17542149571E+01  0.17168640823E+02 -0.42076771290E+01  0.17763559459E+02  0.00000000000E+00 0. -1.
         22    1    3    3    0    0  0.88746470278E+02 -0.53923660342E+02  0.30669932800E+03  0.32380267899E+03  0.00000000000E+00 0. -1.
</event>
<event>
 7    1  0.6370239E-006  0.1292543E+03  0.7818608E-02  0.1276711E+00
          2   -1    0    0  502    0  0.00000000000E+00  0.00000000000E+00  0.12013028602E+04  0.12013028602E+04  0.00000000000E+00 0. -1.
          1   -1    0    0  501    0 -0.00000000000E+00 -0.00000000000E+00 -0.35492892245E+02  0.35492892245E+02  0.00000000000E+00 0. -1.
         25    2    1    2    0    0 -0.13050065498E+03  0.83712613735E+02  0.67122670665E+03  0.70015002079E+03  0.12500614881E+03 0.  0.
          2    1    1    2  501    0  0.54749886402E+02 -0.10961857326E+03  0.35727816274E+03  0.37770552979E+03  0.00000000000E+00 0. -1.
          1    1    1    2  502    0  0.75750768574E+02  0.25905959523E+02  0.13730509858E+03  0.15894020188E+03  0.00000000000E+00 0. -1.
         22    1    3    3    0    0 -0.12822933250E+03  0.73702612283E+02  0.67357387545E+03  0.68962062212E+03  0.00000000000E+00 0. -1.
         22    1    3    3    0    0 -0.22713224810E+01  0.10010001452E+02 -0.23471687980E+01  0.10529398665E+02  0.00000000000E+00 0. -1.
</event>
<event>
 7    1  0.6370239E-006  0.7344103E+02  0.7818608E-02  0.1516391E+00
          2   -1    0    0  502    0  0.00000000000E+00  0.00000000000E+00  0.13564400272E+04  0.13564400272E+04  0.00000000000E+00 0. -1.
          1   -1    0    0  501    0 -0.00000000000E+00 -0.00000000000E+00 -0.55889523799E+03  0.55889523799E+03  0.00000000000E+00 0. -1.
         25    2    1    2    0    0 -0.24336683477E+02 -0.55591618607E+02 -0.83231927746E+02  0.16197694924E+03  0.12500510417E+03 0.  0.
          2    1    1    2  501    0  0.11809940887E+02 -0.16896539038E+02 -0.43501934436E+03  0.43550751739E+03  0.00000000000E+00 0. -1.
          1    1    1    2  502    0  0.12526742590E+02  0.72488157645E+02  0.13157960613E+04  0.13178507986E+04  0.00000000000E+00 0. -1.
         22    1    3    3    0    0 -0.15308897778E+02  0.90158363697E+01 -0.94169883939E+02  0.95831178108E+02  0.00000000000E+00 0.  1.
         22    1    3    3    0    0 -0.90277856985E+01 -0.64607454977E+02  0.10937956193E+02  0.66145771134E+02  0.00000000000E+00 0.  1.
</event>
<event>
 7    1  0.6370239E-006  0.2390126E+03  0.7818608E-02  0.1252464E+00
          2   -1    0    0  502    0  0.00000000000E+00  0.00000000000E+00  0.17866627538E+04  0.17866627538E+04  0.00000000000E+00 0. -1.
          1   -1    0    0  501    0 -0.00000000000E+00 -0.00000000000E+00 -0.22787217348E+03  0.22787217348E+03  0.00000000000E+00 0. -1.
         25    2    1    2    0    0 -0.28738645781E+03 -0.78686070555E+01  0.62763351772E+02  0.31971396661E+03  0.12499956404E+03 0.  0.
          2    1    1    2  501    0  0.51846613035E+02  0.17892949563E+02 -0.82345137383E+02  0.98939125617E+02  0.00000000000E+00 0. -1.
          1    1    1    2  502    0  0.23553984478E+03 -0.10024342508E+02  0.15783723659E+04  0.15958818350E+04  0.00000000000E+00 0. -1.
         22    1    3    3    0    0 -0.16120919938E+03  0.51015372887E+02  0.63082702120E+02  0.18047271690E+03  0.00000000000E+00 0. -1.
         22    1    3    3    0    0 -0.12617725843E+03 -0.58883979942E+02 -0.31935034791E+00  0.13924124972E+03  0.00000000000E+00 0. -1.
</event>
<event>
 7    1  0.6370239E-006  0.1895172E+03  0.7818608E-02  0.1197745E+00
          2   -1    0    0  502    0  0.00000000000E+00  0.00000000000E+00  0.43460378808E+03  0.43460378808E+03  0.00000000000E+00 0. -1.
          1   -1    0    0  501    0 -0.00000000000E+00 -0.00000000000E+00 -0.17072113803E+04  0.17072113803E+04  0.00000000000E+00 0. -1.
         25    2    1    2    0    0 -0.26126840047E+01 -0.81611553386E+02  0.19169487839E+03  0.24297973321E+03  0.12499981035E+03 0.  0.
          2    1    1    2  501    0 -0.72087265159E+02  0.17844482357E+03 -0.16583412948E+04  0.16694714669E+04  0.00000000000E+00 0. -1.
          1    1    1    2  502    0  0.74699949164E+02 -0.96833270183E+02  0.19403882420E+03  0.22936396822E+03  0.00000000000E+00 0. -1.
         22    1    3    3    0    0 -0.59211442251E+01 -0.11530011995E+03  0.14888804428E+03  0.18840601726E+03  0.00000000000E+00 0.  1.
         22    1    3    3    0    0  0.33084602204E+01  0.33688566567E+02  0.42806834115E+02  0.54573715957E+02  0.00000000000E+00 0.  1.
</event>
<event>
 7    1  0.6370239E-006  0.2623150E+02  0.7818608E-02  0.1670703E+00
          2   -1    0    0  502    0  0.00000000000E+00  0.00000000000E+00  0.11089921339E+04  0.11089921339E+04  0.00000000000E+00 0. -1.
          1   -1    0    0  501    0 -0.00000000000E+00 -0.00000000000E+00 -0.11098546182E+03  0.11098546182E+03  0.00000000000E+00 0. -1.
         25    2    1    2    0    0 -0.24291181882E+02 -0.41582082269E+02  0.47534391466E+03  0.49385840871E+03  0.12500063828E+03 0.  0.
          2    1    1    2  501    0  0.98309072233E+01  0.24239239431E+02 -0.99838713523E+02  0.10320831450E+03  0.00000000000E+00 0. -1.
          1    1    1    2  502    0  0.14460274659E+02  0.17342842838E+02  0.62250147091E+03  0.62291087246E+03  0.00000000000E+00 0. -1.
         22    1    3    3    0    0  0.32843299246E+02 -0.24667440998E+02  0.37435255204E+03  0.37659925408E+03  0.00000000000E+00 0. -1.
         22    1    3    3    0    0 -0.57134481128E+02 -0.16914641270E+02  0.10099136261E+03  0.11725915464E+03  0.00000000000E+00 0. -1.
</event>
<event>
 7    1  0.6370239E-006  0.4846225E+03  0.7818608E-02  0.1199322E+00
          2   -1    0    0  502    0  0.00000000000E+00  0.00000000000E+00  0.93225178195E+03  0.93225178195E+03  0.00000000000E+00 0. -1.
          1   -1    0    0  501    0 -0.00000000000E+00 -0.00000000000E+00 -0.48236889270E+03  0.48236889270E+03  0.00000000000E+00 0. -1.
         25    2    1    2    0    0 -0.12591956935E+03 -0.46764119129E+03  0.35983509266E+03  0.61615747301E+03  0.12499886362E+03 0.  0.
          2    1    1    2  501    0  0.80212564796E+02  0.47864052888E+03 -0.18503458853E+03  0.51939253980E+03  0.00000000000E+00 0. -1.
          1    1    1    2  502    0  0.45707004558E+02 -0.10999337599E+02  0.27508238512E+03  0.27907066183E+03  0.00000000000E+00 0. -1.
         22    1    3    3    0    0 -0.20587278683E+02 -0.69424512925E+02  0.51712358569E+01  0.72597112331E+02  0.00000000000E+00 0. -1.
         22    1    3    3    0    0 -0.10533229067E+03 -0.39821667836E+03  0.35466385681E+03  0.54356036068E+03  0.00000000000E+00 0. -1.
</event>
<event>
 7    1  0.6370239E-006  0.1453464E+03  0.7818608E-02  0.1240453E+00
          2   -1    0    0  502    0  0.00000000000E+00  0.00000000000E+00  0.11574522506E+04  0.11574522506E+04  0.00000000000E+00 0. -1.
          1   -1    0    0  501    0 -0.00000000000E+00 -0.00000000000E+00 -0.97403165604E+02  0.97403165604E+02  0.00000000000E+00 0. -1.
         25    2    1    2    0    0  0.33058343538E+02  0.10687414907E+03  0.28692835936E+03  0.33236659744E+03  0.12499893549E+03 0.  0.
          2    1    1    2  501    0  0.10110521827E+03 -0.11543338118E+02 -0.27269253626E+02  0.10535238968E+03  0.00000000000E+00 0. -1.
          1    1    1    2  502    0 -0.13416356181E+03 -0.95330810953E+02  0.80038997921E+03  0.81713642904E+03  0.00000000000E+00 0. -1.
         22    1    3    3    0    0  0.65229752594E+02  0.15004114595E+02  0.15109345729E+03  0.16525518726E+03  0.00000000000E+00 0. -1.
         22    1    3    3    0    0 -0.32171409056E+02  0.91870034476E+02  0.13583490207E+03  0.16711141019E+03  0.00000000000E+00 0. -1.
</event>
<event>
 7    1  0.6370239E-006  0.8643518E+02  0.7818608E-02  0.1411653E+00
          2   -1    0    0  502    0  0.00000000000E+00  0.00000000000E+00  0.68446182332E+03  0.68446182332E+03  0.00000000000E+00 0. -1.
          1   -1    0    0  501    0 -0.00000000000E+00 -0.00000000000E+00 -0.10033251737E+03  0.10033251737E+03  0.00000000000E+00 0. -1.
         25    2    1    2    0    0 -0.39372675235E+02 -0.10929234257E+03  0.20027132599E+03  0.26310572502E+03  0.12498397826E+03 0.  0.
          2    1    1    2  501    0  0.25267511652E+02  0.27520401874E+02 -0.59704900007E+02  0.70430779842E+02  0.00000000000E+00 0. -1.
          1    1    1    2  502    0  0.14105163583E+02  0.81771940694E+02  0.44356287996E+03  0.45125783583E+03  0.00000000000E+00 0. -1.
         22    1    3    3    0    0  0.30056382769E+02  0.52581610002E+01  0.13743832814E+02  0.33465315517E+02  0.00000000000E+00 0. -1.
         22    1    3    3    0    0 -0.69429058004E+02 -0.11455050357E+03  0.18652749318E+03  0.22964040950E+03  0.00000000000E+00 0. -1.
</event>
<event>
 7    1  0.6370239E-006  0.1744585E+03  0.7818608E-02  0.1289413E+00
          2   -1    0    0  502    0  0.00000000000E+00  0.00000000000E+00  0.42822725393E+03  0.42822725393E+03  0.00000000000E+00 0. -1.
          1   -1    0    0  501    0 -0.00000000000E+00 -0.00000000000E+00 -0.27046822147E+04  0.27046822147E+04  0.00000000000E+00 0. -1.
         25    2    1    2    0    0 -0.21289625917E+03 -0.25869748644E+02 -0.15699665030E+04  0.15894697361E+04  0.12500064128E+03 0.  0.
          2    1    1    2  501    0  0.46391606665E+02 -0.24774753556E+02 -0.11062176574E+04  0.11074671441E+04  0.00000000000E+00 0. -1.
          1    1    1    2  502    0  0.16650465250E+03  0.50644502200E+02  0.39972919962E+03  0.43597258852E+03  0.00000000000E+00 0. -1.
         22    1    3    3    0    0 -0.10364612892E+03  0.34283236573E+02 -0.47290924792E+03  0.48534628578E+03  0.00000000000E+00 0.  1.
         22    1    3    3    0    0 -0.10925013024E+03 -0.60152985217E+02 -0.10970572551E+04  0.11041234503E+04  0.00000000000E+00 0.  1.
</event>
<event>
 7    1  0.6370239E-006  0.1216897E+03  0.7818608E-02  0.1430964E+00
          2   -1    0    0  502    0  0.00000000000E+00  0.00000000000E+00  0.55426119138E+02  0.55426119138E+02  0.00000000000E+00 0. -1.
          1   -1    0    0  501    0 -0.00000000000E+00 -0.00000000000E+00 -0.87085867069E+03  0.87085867069E+03  0.00000000000E+00 0. -1.
         25    2    1    2    0    0 -0.89617174546E+02 -0.10976405375E+03 -0.60846776364E+03  0.63713712701E+03  0.12502525247E+03 0.  0.
          2    1    1    2  501    0  0.15531830021E+02  0.16801563117E+02 -0.15952671972E+03  0.16115925220E+03  0.00000000000E+00 0. -1.
          1    1    1    2  502    0  0.74085344525E+02  0.92962490636E+02 -0.47438068200E+02  0.12798841062E+03  0.00000000000E+00 0. -1.
         22    1    3    3    0    0  0.58045048083E+01  0.21531194489E+02 -0.12976030122E+03  0.13166252460E+03  0.00000000000E+00 0.  1.
         22    1    3    3    0    0 -0.95421679354E+02 -0.13129524824E+03 -0.47870746241E+03  0.50547460240E+03  0.00000000000E+00 0.  1.
</event>
<event>
 7    1  0.6370239E-006  0.8516262E+02  0.7818608E-02  0.1414269E+00
          2   -1    0    0  502    0  0.00000000000E+00  0.00000000000E+00  0.10589291394E+04  0.10589291394E+04  0.00000000000E+00 0. -1.
          1   -1    0    0  501    0 -0.00000000000E+00 -0.00000000000E+00 -0.87611987112E+03  0.87611987112E+03  0.00000000000E+00 0. -1.
         25    2    1    2    0    0 -0.61981046083E+02  0.27897425728E+02  0.44384243437E+03  0.46609045770E+03  0.12499716707E+03 0.  0.
          2    1    1    2  501    0 -0.27249803164E+01  0.37055949917E+02 -0.86111348582E+03  0.86191473151E+03  0.00000000000E+00 0. -1.
          1    1    1    2  502    0  0.64706026399E+02 -0.64953375645E+02  0.60008031972E+03  0.60704382130E+03  0.00000000000E+00 0. -1.
         22    1    3    3    0    0 -0.33603815867E+02  0.59477992555E+01  0.42345257330E+03  0.42482546368E+03  0.00000000000E+00 0.  1.
         22    1    3    3    0    0 -0.28377230215E+02  0.21949626472E+02  0.20389861068E+02  0.41264994019E+02  0.00000000000E+00 0.  1.
</event>
<event>
 7    1  0.6370239E-006  0.5116770E+02  0.7818608E-02  0.1453431E+00
          2   -1    0    0  502    0  0.00000000000E+00  0.00000000000E+00  0.59035416452E+03  0.59035416452E+03  0.00000000000E+00 0. -1.
          1   -1    0    0  501    0 -0.00000000000E+00 -0.00000000000E+00 -0.75305230640E+03  0.75305230640E+03  0.00000000000E+00 0. -1.
         25    2    1    2    0    0 -0.70171540694E+02 -0.62814251860E+02  0.20445841778E+03  0.25748280084E+03  0.12499789106E+03 0.  0.
          2    1    1    2  501    0  0.29208289156E+02  0.41820144038E+02 -0.72416537412E+03  0.72595973558E+03  0.00000000000E+00 0. -1.
          1    1    1    2  502    0  0.40963251538E+02  0.20994107822E+02  0.35700881446E+03  0.35996393450E+03  0.00000000000E+00 0. -1.
         22    1    3    3    0    0 -0.27778515508E+02 -0.84377485574E+02  0.64822357309E+02  0.10996883196E+03  0.00000000000E+00 0. -1.
         22    1    3    3    0    0 -0.42393025185E+02  0.21563233714E+02  0.13963606047E+03  0.14751396888E+03  0.00000000000E+00 0. -1.
</event>
<event>
 7    1  0.6370239E-006  0.2948243E+03  0.7818608E-02  0.1107882E+00
          2   -1    0    0  502    0  0.00000000000E+00  0.00000000000E+00  0.76955334622E+03  0.76955334622E+03  0.00000000000E+00 0. -1.
          1   -1    0    0  501    0 -0.00000000000E+00 -0.00000000000E+00 -0.25558218683E+04  0.25558218683E+04  0.00000000000E+00 0. -1.
         25    2    1    2    0    0 -0.54731771452E+02  0.24026551345E+03  0.18324309327E+03  0.33155092294E+03  0.12499959805E+03 0.  0.
          2    1    1    2  501    0  0.20680676119E+03  0.93916113405E+02 -0.24098322455E+04  0.24205124921E+04  0.00000000000E+00 0. -1.
          1    1    1    2  502    0 -0.15207498974E+03 -0.33418162686E+03  0.44032063010E+03  0.57331179957E+03  0.00000000000E+00 0. -1.
         22    1    3    3    0    0  0.34824071184E+02  0.85102246512E+02  0.93644151161E+02  0.13124151531E+03  0.00000000000E+00 0. -1.
         22    1    3    3    0    0 -0.89555842635E+02  0.15516326694E+03  0.89598942105E+02  0.20030940763E+03  0.00000000000E+00 0. -1.
</event>
<event>
 7    1  0.6370239E-006  0.5720133E+02  0.7818608E-02  0.1479525E+00
          2   -1    0    0  502    0  0.00000000000E+00  0.00000000000E+00  0.25750259092E+03  0.25750259092E+03  0.00000000000E+00 0. -1.
          1   -1    0    0  501    0 -0.00000000000E+00 -0.00000000000E+00 -0.31725651964E+03  0.31725651964E+03  0.00000000000E+00 0. -1.
         25    2    1    2    0    0 -0.42666905345E+02 -0.71980211022E+01 -0.24232859810E+02  0.13447737061E+03  0.12499862156E+03 0.  0.
          2    1    1    2  501    0  0.14279489138E+01 -0.34093283729E+02 -0.23242261536E+03  0.23491416127E+03  0.00000000000E+00 0. -1.
          1    1    1    2  502    0  0.41238956431E+02  0.41291304831E+02  0.19690154645E+03  0.20536757869E+03  0.00000000000E+00 0. -1.
         22    1    3    3    0    0 -0.78768801977E+02  0.68597591629E+01  0.13713484267E+02  0.80247368252E+02  0.00000000000E+00 0.  1.
         22    1    3    3    0    0  0.36101896633E+02 -0.14057780265E+02 -0.37946344077E+02  0.54230002353E+02  0.00000000000E+00 0.  1.
</event>
<event>
 7    1  0.6370239E-006  0.9502743E+02  0.7818608E-02  0.1428410E+00
          2   -1    0    0  502    0  0.00000000000E+00  0.00000000000E+00  0.24845172798E+03  0.24845172798E+03  0.00000000000E+00 0. -1.
          1   -1    0    0  501    0 -0.00000000000E+00 -0.00000000000E+00 -0.11421642847E+04  0.11421642847E+04  0.00000000000E+00 0. -1.
         25    2    1    2    0    0  0.73209638694E+02  0.79449421912E+02 -0.16797597397E+03  0.23561518439E+03  0.12500690160E+03 0.  0.
          2    1    1    2  501    0 -0.29547413598E+02  0.44029396680E+01 -0.92970675931E+03  0.93018659087E+03  0.00000000000E+00 0. -1.
          1    1    1    2  502    0 -0.43662225095E+02 -0.83852361580E+02  0.20397017653E+03  0.22481423745E+03  0.00000000000E+00 0. -1.
         22    1    3    3    0    0  0.12033665083E+02  0.76109863792E+01  0.20429829955E+02  0.24902091498E+02  0.00000000000E+00 0. -1.
         22    1    3    3    0    0  0.61175973611E+02  0.71838435532E+02 -0.18840580392E+03  0.21071309290E+03  0.00000000000E+00 0. -1.
</event>
<event>
 7    1  0.6370239E-006  0.1475673E+03  0.7818608E-02  0.1404924E+00
          2   -1    0    0  502    0  0.00000000000E+00  0.00000000000E+00  0.10352927772E+03  0.10352927772E+03  0.00000000000E+00 0. -1.
          1   -1    0    0  501    0 -0.00000000000E+00 -0.00000000000E+00 -0.11681277970E+04  0.11681277970E+04  0.00000000000E+00 0. -1.
         25    2    1    2    0    0 -0.80230008777E+02 -0.11469766476E+03 -0.65495100906E+02  0.19876596761E+03  0.12500357205E+03 0.  0.
          2    1    1    2  501    0  0.10214478179E+03  0.10750141199E+03 -0.10264553013E+04  0.10371116601E+04  0.00000000000E+00 0. -1.
          1    1    1    2  502    0 -0.21914773014E+02  0.71962527660E+01  0.27351882894E+02  0.35779447005E+02  0.00000000000E+00 0. -1.
         22    1    3    3    0    0 -0.11289559233E+03 -0.73984034671E+02 -0.40718114425E+02  0.14098587516E+03  0.00000000000E+00 0. -1.
         22    1    3    3    0    0  0.32665583551E+02 -0.40713630086E+02 -0.24776986481E+02  0.57780092442E+02  0.00000000000E+00 0. -1.
</event>
<event>
 7    1  0.6370239E-006  0.1089496E+03  0.7818608E-02  0.1394625E+00
          2   -1    0    0  502    0  0.00000000000E+00  0.00000000000E+00  0.10502881432E+04  0.10502881432E+04  0.00000000000E+00 0. -1.
          1   -1    0    0  501    0 -0.00000000000E+00 -0.00000000000E+00 -0.30336095063E+03  0.30336095063E+03  0.00000000000E+00 0. -1.
         25    2    1    2    0    0  0.11630609456E+03 -0.32419948161E+02 -0.21404107382E+03  0.27571121764E+03  0.12499973432E+03 0.  0.
          2    1    1    2  501    0 -0.95125176609E+02  0.59549046056E+01 -0.19164586100E+02  0.97219038640E+02  0.00000000000E+00 0. -1.
          1    1    1    2  502    0 -0.21180917947E+02  0.26465043556E+02  0.98013285253E+03  0.98071883760E+03  0.00000000000E+00 0. -1.
         22    1    3    3    0    0  0.29066319628E+02  0.44277276489E+02 -0.39596225228E+02  0.66130093017E+02  0.00000000000E+00 0. -1.
         22    1    3    3    0    0  0.87239774927E+02 -0.76697224650E+02 -0.17444484859E+03  0.20958112462E+03  0.00000000000E+00 0. -1.
</event>
<event>
 7    1  0.7822104E-006  0.5368078E+02  0.7818608E-02  0.1426935E+00
          2   -1    0    0  502    0  0.00000000000E+00  0.00000000000E+00  0.14853558145E+04  0.14853558145E+04  0.00000000000E+00 0. -1.
          1   -1    0    0  501    0 -0.00000000000E+00 -0.00000000000E+00 -0.58004035081E+03  0.58004035081E+03  0.00000000000E+00 0. -1.
         25    2    1    2    0    0 -0.56809601886E+02 -0.11369402345E+02 -0.64142810907E+01  0.13791777631E+03  0.12499430325E+03 0.  0.
          2    1    1    2  501    0  0.19217350788E+02  0.49907595744E+02 -0.50595411310E+03  0.50877267935E+03  0.00000000000E+00 0. -1.
          1    1    1    2  502    0  0.37592251098E+02 -0.38538193399E+02  0.14176838579E+04  0.14187057097E+04  0.00000000000E+00 0. -1.
         22    1    3    3    0    0 -0.57457167886E+02 -0.55871871741E+02  0.24410361840E+02  0.83778624711E+02  0.00000000000E+00 0.  1.
         22    1    3    3    0    0  0.64756599953E+00  0.44502469396E+02 -0.30824642930E+02  0.54139151599E+02  0.00000000000E+00 0.  1.
</event>
<event>
 7    1  0.6370239E-006  0.1518835E+03  0.7818608E-02  0.1245881E+00
          2   -1    0    0  502    0  0.00000000000E+00  0.00000000000E+00  0.16070100776E+03  0.16070100776E+03  0.00000000000E+00 0. -1.
          1   -1    0    0  501    0 -0.00000000000E+00 -0.00000000000E+00 -0.28389940160E+04  0.28389940160E+04  0.00000000000E+00 0. -1.
         25    2    1    2    0    0  0.20080143638E+03  0.58778118946E+02 -0.98316692775E+03  0.10129257939E+04  0.12500148791E+03 0.  0.
          2    1    1    2  501    0 -0.84637496606E+02  0.36535252115E+02 -0.18007435845E+04  0.18031017130E+04  0.00000000000E+00 0. -1.
          1    1    1    2  502    0 -0.11616393978E+03 -0.95313371062E+02  0.10561750397E+03  0.18366751687E+03  0.00000000000E+00 0. -1.
         22    1    3    3    0    0  0.12586087123E+02  0.40359624567E+01 -0.32695638613E+01  0.13615749332E+02  0.00000000000E+00 0. -1.
         22    1    3    3    0    0  0.18821534926E+03  0.54742156490E+02 -0.97989736389E+03  0.99931004455E+03  0.00000000000E+00 0. -1.
</event>
<event>
 7    1  0.6370239E-006  0.1390294E+03  0.7818608E-02  0.1265913E+00
          2   -1    0    0  502    0  0.00000000000E+00  0.00000000000E+00  0.19507044243E+04  0.19507044243E+04  0.00000000000E+00 0. -1.
          1   -1    0    0  501    0 -0.00000000000E+00 -0.00000000000E+00 -0.84257451659E+03  0.84257451659E+03  0.00000000000E+00 0. -1.
         25    2    1    2    0    0  0.59746429987E+02 -0.17878523374E+03  0.90028820419E+03  0.92826553734E+03  0.12499704602E+03 0.  0.
          2    1    1    2  501    0 -0.92912340278E+02  0.10313305039E+03 -0.82110519661E+03  0.83275619058E+03  0.00000000000E+00 0. -1.
          1    1    1    2  502    0  0.33165910291E+02  0.75652183352E+02  0.10289469002E+04  0.10322572130E+04  0.00000000000E+00 0. -1.
         22    1    3    3    0    0  0.44037730939E+02 -0.16543037962E+02  0.88006028370E+02  0.99790054017E+02  0.00000000000E+00 0. -1.
         22    1    3    3    0    0  0.15708699048E+02 -0.16224219578E+03  0.81228217582E+03  0.82847548332E+03  0.00000000000E+00 0. -1.
</event>
<event>
 7    1  0.6370239E-006  0.1261703E+03  0.7818608E-02  0.1260032E+00
          2   -1    0    0  502    0  0.00000000000E+00  0.00000000000E+00  0.28255683131E+03  0.28255683131E+03  0.00000000000E+00 0. -1.
          1   -1    0    0  501    0 -0.00000000000E+00 -0.00000000000E+00 -0.94281116940E+03  0.94281116940E+03  0.00000000000E+00 0. -1.
         25    2    1    2    0    0  0.17795751108E+02 -0.20410184924E+03 -0.41679168185E+02  0.24359107457E+03  0.12500081971E+03 0.  0.
          2    1    1    2  501    0 -0.48766820717E+02  0.11280189270E+03 -0.78223581068E+03  0.79183036903E+03  0.00000000000E+00 0. -1.
          1    1    1    2  502    0  0.30971069609E+02  0.91299956536E+02  0.16366064078E+03  0.18994655711E+03  0.00000000000E+00 0. -1.
         22    1    3    3    0    0 -0.44983867482E+02 -0.70115859149E+02  0.15916096490E+02  0.84812169913E+02  0.00000000000E+00 0. -1.
         22    1    3    3    0    0  0.62779618590E+02 -0.13398599009E+03 -0.57595264675E+02  0.15877890466E+03  0.00000000000E+00 0. -1.
</event>
<event>
 7    1  0.6370239E-006  0.7704453E+02  0.7818608E-02  0.1406460E+00
          2   -1    0    0  502    0  0.00000000000E+00  0.00000000000E+00  0.22005557292E+02  0.22005557292E+02  0.00000000000E+00 0. -1.
          1   -1    0    0  501    0 -0.00000000000E+00 -0.00000000000E+00 -0.34036128878E+04  0.34036128878E+04  0.00000000000E+00 0. -1.
         25    2    1    2    0    0  0.38096280234E+02  0.28572851509E+02 -0.17133569516E+04  0.17185701721E+04  0.12499463308E+03 0.  0.
          2    1    1    2  501    0 -0.75174434384E+02 -0.51606199760E+02 -0.16601509438E+04  0.16626531664E+04  0.00000000000E+00 0. -1.
          1    1    1    2  502    0  0.37078154150E+02  0.23033348251E+02 -0.80994351158E+01  0.44395106668E+02  0.00000000000E+00 0. -1.
         22    1    3    3    0    0 -0.43246810276E+02  0.74490253339E+01 -0.85012759424E+03  0.85125947928E+03  0.00000000000E+00 0.  1.
         22    1    3    3    0    0  0.81343090510E+02  0.21123826175E+02 -0.86322935737E+03  0.86731069279E+03  0.00000000000E+00 0.  1.
</event>
<event>
 7    1  0.6370239E-006  0.8105261E+02  0.7818608E-02  0.1405395E+00
          2   -1    0    0  502    0  0.00000000000E+00  0.00000000000E+00  0.23673494175E+03  0.23673494175E+03  0.00000000000E+00 0. -1.
          1   -1    0    0  501    0 -0.00000000000E+00 -0.00000000000E+00 -0.13799374454E+03  0.13799374454E+03  0.00000000000E+00 0. -1.
         25    2    1    2    0    0  0.13320290818E+01  0.10509849240E+03 -0.26173417830E+02  0.16540268985E+03  0.12500213839E+03 0.  0.
          2    1    1    2  501    0 -0.20604170541E+02 -0.67961515214E+02 -0.65943760861E+01  0.71321702096E+02  0.00000000000E+00 0. -1.
          1    1    1    2  502    0  0.19272141459E+02 -0.37136977189E+02  0.13150899112E+03  0.13800429434E+03  0.00000000000E+00 0. -1.
         22    1    3    3    0    0  0.34303660602E+02  0.31427178256E+02 -0.61652327919E+02  0.77236119800E+02  0.00000000000E+00 0. -1.
         22    1    3    3    0    0 -0.32971631520E+02  0.73671314147E+02  0.35478910090E+02  0.88166570050E+02  0.00000000000E+00 0. -1.
</event>
<event>
 7    1  0.6370239E-006  0.7096190E+02  0.7818608E-02  0.1414682E+00
          2   -1    0    0  502    0  0.00000000000E+00  0.00000000000E+00  0.49626371419E+03  0.49626371419E+03  0.00000000000E+00 0. -1.
          1   -1    0    0  501    0 -0.00000000000E+00 -0.00000000000E+00 -0.93411444976E+03  0.93411444976E+03  0.00000000000E+00 0. -1.
         25    2    1    2    0    0  0.64407566898E+01 -0.43212782641E+02 -0.56051179127E+03  0.57593915771E+03  0.12499446908E+03 0.  0.
          2    1    1    2  501    0 -0.39924484314E+02 -0.19538313895E+02 -0.36193345528E+03  0.36465262402E+03  0.00000000000E+00 0. -1.
          1    1    1    2  502    0  0.33483727624E+02  0.62751096537E+02  0.48459451098E+03  0.48978638222E+03  0.00000000000E+00 0. -1.
         22    1    3    3    0    0  0.26311569518E+02  0.36310097183E+02 -0.12545252236E+03  0.13322558769E+03  0.00000000000E+00 0.  1.
         22    1    3    3    0    0 -0.19870812828E+02 -0.79522879824E+02 -0.43505926891E+03  0.44271357002E+03  0.00000000000E+00 0.  1.
</event>
<event>
 7    1  0.6370239E-006  0.3607840E+02  0.7818608E-02  0.1543342E+00
          2   -1    0    0  502    0  0.00000000000E+00  0.00000000000E+00  0.22855671953E+04  0.22855671953E+04  0.00000000000E+00 0. -1.
          1   -1    0    0  501    0 -0.00000000000E+00 -0.00000000000E+00 -0.54443170071E+01  0.54443170071E+01  0.00000000000E+00 0. -1.
         25    2    1    2    0    0  0.22442982193E+02 -0.37617791981E+02  0.98575778927E+03  0.99461725726E+03  0.12500513438E+03 0.  0.
          2    1    1    2  501    0  0.12572180607E+02  0.34820949921E+02  0.72831955817E+03  0.72925985567E+03  0.00000000000E+00 0. -1.
          1    1    1    2  502    0 -0.35015162800E+02  0.27968420603E+01  0.56604553089E+03  0.56713439941E+03  0.00000000000E+00 0. -1.
         22    1    3    3    0    0  0.27001976481E+02 -0.73523894886E+02  0.39149808877E+03  0.39925633791E+03  0.00000000000E+00 0. -1.
         22    1    3    3    0    0 -0.45589942884E+01  0.35906102905E+02  0.59425970050E+03  0.59536091935E+03  0.00000000000E+00 0. -1.
</event>
<event>
 7    1  0.6370239E-006  0.8230519E+02  0.7818608E-02  0.1329422E+00
          2   -1    0    0  502    0  0.00000000000E+00  0.00000000000E+00  0.30192986966E+03  0.30192986966E+03  0.00000000000E+00 0. -1.
          1   -1    0    0  501    0 -0.00000000000E+00 -0.00000000000E+00 -0.36221596089E+03  0.36221596089E+03  0.00000000000E+00 0. -1.
         25    2    1    2    0    0  0.37649794864E+02  0.31782014439E+02  0.52614909573E+02  0.14429635236E+03  0.12500202039E+03 0.  0.
          2    1    1    2  501    0  0.54608876131E+02 -0.55000058693E+02 -0.30005497670E+03  0.30990341213E+03  0.00000000000E+00 0. -1.
          1    1    1    2  502    0 -0.92258670995E+02  0.23218044254E+02  0.18715397590E+03  0.20994606605E+03  0.00000000000E+00 0. -1.
         22    1    3    3    0    0 -0.11886268389E+02  0.25905862987E+02 -0.33986082772E+02  0.44355957159E+02  0.00000000000E+00 0. -1.
         22    1    3    3    0    0  0.49536063253E+02  0.58761514516E+01  0.86600992345E+02  0.99940395205E+02  0.00000000000E+00 0. -1.
</event>
<event>
 7    1  0.6370239E-006  0.1016475E+03  0.7818608E-02  0.1374854E+00
          2   -1    0    0  502    0  0.00000000000E+00  0.00000000000E+00  0.14371015647E+03  0.14371015647E+03  0.00000000000E+00 0. -1.
          1   -1    0    0  501    0 -0.00000000000E+00 -0.00000000000E+00 -0.10233059641E+04  0.10233059641E+04  0.00000000000E+00 0. -1.
         25    2    1    2    0    0 -0.41393637014E+02 -0.44327739428E+02  0.41758369493E+01  0.13899821181E+03  0.12499873440E+03 0.  0.
          2    1    1    2  501    0  0.68811508167E+02  0.76985624554E+02 -0.94652909628E+03  0.95214449542E+03  0.00000000000E+00 0. -1.
          1    1    1    2  502    0 -0.27417871153E+02 -0.32657885126E+02  0.62757451660E+02  0.75873413382E+02  0.00000000000E+00 0. -1.
         22    1    3    3    0    0  0.27247598243E+02  0.27607177032E+02 -0.51623592676E+01  0.39131033552E+02  0.00000000000E+00 0. -1.
         22    1    3    3    0    0 -0.68641235257E+02 -0.71934916460E+02  0.93381962169E+01  0.99867178253E+02  0.00000000000E+00 0. -1.
</event>
<event>
 7    1  0.6370239E-006  0.1657068E+03  0.7818608E-02  0.1300572E+00
          2   -1    0    0  502    0  0.00000000000E+00  0.00000000000E+00  0.80479407656E+03  0.80479407656E+03  0.00000000000E+00 0. -1.
          1   -1    0    0  501    0 -0.00000000000E+00 -0.00000000000E+00 -0.16962919656E+03  0.16962919656E+03  0.00000000000E+00 0. -1.
         25    2    1    2    0    0  0.11376003875E+03 -0.17166993707E+03  0.16857314994E+03  0.29402994828E+03  0.12499915957E+03 0.  0.
          2    1    1    2  501    0 -0.14653972200E+02  0.47717353483E+02 -0.89292938115E+02  0.10229815991E+03  0.00000000000E+00 0. -1.
          1    1    1    2  502    0 -0.99106066552E+02  0.12395258359E+03  0.55588466818E+03  0.57809516493E+03  0.00000000000E+00 0. -1.
         22    1    3    3    0    0  0.68384886628E+02 -0.12947584868E+03  0.40765273299E+02  0.15199439337E+03  0.00000000000E+00 0. -1.
         22    1    3    3    0    0  0.45375152124E+02 -0.42194088394E+02  0.12780787664E+03  0.14203555490E+03  0.00000000000E+00 0. -1.
</event>
<event>
 7    1  0.6370239E-006  0.1761643E+03  0.7818608E-02  0.1230346E+00
          2   -1    0    0  502    0  0.00000000000E+00  0.00000000000E+00  0.24076490535E+04  0.24076490535E+04  0.00000000000E+00 0. -1.
          1   -1    0    0  501    0 -0.00000000000E+00 -0.00000000000E+00 -0.63392959730E+03  0.63392959730E+03  0.00000000000E+00 0. -1.
         25    2    1    2    0    0  0.12538728870E+03  0.14115039109E+03  0.44254602616E+03  0.49709996782E+03  0.12496394547E+03 0.  0.
          2    1    1    2  501    0 -0.37677340473E+02 -0.17239192037E+03 -0.59267077730E+03  0.61838273461E+03  0.00000000000E+00 0. -1.
          1    1    1    2  502    0 -0.87709948225E+02  0.31241529278E+02  0.19238442074E+04  0.19260959484E+04  0.00000000000E+00 0. -1.
         22    1    3    3    0    0  0.93315964635E+02  0.15637020572E+03  0.30663635712E+03  0.35663057356E+03  0.00000000000E+00 0.  1.
         22    1    3    3    0    0  0.32071324062E+02 -0.15219814631E+02  0.13590966904E+03  0.14046939426E+03  0.00000000000E+00 0.  1.
</event>
<event>
 7    1  0.6370239E-006  0.2318265E+03  0.7818608E-02  0.1222107E+00
          2   -1    0    0  502    0  0.00000000000E+00  0.00000000000E+00  0.89851363531E+03  0.89851363531E+03  0.00000000000E+00 0. -1.
          1   -1    0    0  501    0 -0.00000000000E+00 -0.00000000000E+00 -0.19135191088E+03  0.19135191088E+03  0.00000000000E+00 0. -1.
         25    2    1    2    0    0 -0.26254532704E+03  0.97066075265E+02  0.20207811504E+03  0.36716712606E+03  0.12499704863E+03 0.  0.
          2    1    1    2  501    0  0.18606733402E+03 -0.10664333810E+03  0.27430410923E+01  0.21447931980E+03  0.00000000000E+00 0. -1.
          1    1    1    2  502    0  0.76477993018E+02  0.95772628316E+01  0.50234056830E+03  0.50821910033E+03  0.00000000000E+00 0. -1.
         22    1    3    3    0    0 -0.78239438617E+02 -0.28038389187E+02  0.44169265512E+02  0.94119525281E+02  0.00000000000E+00 0.  1.
         22    1    3    3    0    0 -0.18430588842E+03  0.12510446445E+03  0.15790884953E+03  0.27304760078E+03  0.00000000000E+00 0.  1.
</event>
<event>
 7    1  0.6370239E-006  0.8178970E+02  0.7818608E-02  0.1409580E+00
          2   -1    0    0  502    0  0.00000000000E+00  0.00000000000E+00  0.71182872806E+03  0.71182872806E+03  0.00000000000E+00 0. -1.
          1   -1    0    0  501    0 -0.00000000000E+00 -0.00000000000E+00 -0.65765950779E+03  0.65765950779E+03  0.00000000000E+00 0. -1.
         25    2    1    2    0    0  0.54398578533E+02  0.92028588587E+01 -0.12195399492E+01  0.13663875755E+03  0.12499905931E+03 0.  0.
          2    1    1    2  501    0 -0.80355428303E+02  0.21396681147E+02 -0.58516311617E+03  0.59104203348E+03  0.00000000000E+00 0. -1.
          1    1    1    2  502    0  0.25956849770E+02 -0.30599540006E+02  0.64055187638E+03  0.64180744482E+03  0.00000000000E+00 0. -1.
         22    1    3    3    0    0  0.54128287052E+02  0.31755987315E+02  0.50281830428E+02  0.80415027580E+02  0.00000000000E+00 0. -1.
         22    1    3    3    0    0  0.27029148114E+00 -0.22553128456E+02 -0.51501370377E+02  0.56223729967E+02  0.00000000000E+00 0. -1.
</event>
<event>
 7    1  0.6370239E-006  0.4369416E+02  0.7818608E-02  0.1504315E+00
          2   -1    0    0  502    0  0.00000000000E+00  0.00000000000E+00  0.97657435685E+03  0.97657435685E+03  0.00000000000E+00 0. -1.
          1   -1    0    0  501    0 -0.00000000000E+00 -0.00000000000E+00 -0.38048954172E+03  0.38048954172E+03  0.00000000000E+00 0. -1.
         25    2    1    2    0    0 -0.11018255939E+02  0.77875904215E+02  0.36993339519E+03  0.39832135061E+03  0.12499249200E+03 0.  0.
          2    1    1    2  501    0 -0.54123602946E+00 -0.37599373149E+02 -0.36458640284E+03  0.36652046455E+03  0.00000000000E+00 0. -1.
          1    1    1    2  502    0  0.11559491969E+02 -0.40276531065E+02  0.59073782278E+03  0.59222208341E+03  0.00000000000E+00 0. -1.
         22    1    3    3    0    0 -0.54494857425E+02 -0.17966276870E+00  0.98618415829E+02  0.11267348271E+03  0.00000000000E+00 0. -1.
         22    1    3    3    0    0  0.43476601486E+02  0.78055566983E+02  0.27131497936E+03  0.28564786790E+03  0.00000000000E+00 0. -1.
</event>
<event>
 7    1  0.6370239E-006  0.1496375E+03  0.7818608E-02  0.1248034E+00
          2   -1    0    0  502    0  0.00000000000E+00  0.00000000000E+00  0.67262962200E+03  0.67262962200E+03  0.00000000000E+00 0. -1.
          1   -1    0    0  501    0 -0.00000000000E+00 -0.00000000000E+00 -0.22591844612E+03  0.22591844612E+03  0.00000000000E+00 0. -1.
         25    2    1    2    0    0  0.48715545002E+02 -0.64271852763E+02  0.59197688375E+03  0.61037888821E+03  0.12498672288E+03 0.  0.
          2    1    1    2  501    0 -0.27734554697E+02  0.15340467935E+03 -0.76473479870E+02  0.17363868893E+03  0.00000000000E+00 0. -1.
          1    1    1    2  502    0 -0.20980990304E+02 -0.89132826585E+02 -0.68792228007E+02  0.11453049098E+03  0.00000000000E+00 0. -1.
         22    1    3    3    0    0 -0.10348235001E+02 -0.60481035840E+02  0.47827837139E+03  0.48219834322E+03  0.00000000000E+00 0. -1.
         22    1    3    3    0    0  0.59063780003E+02 -0.37908169228E+01  0.11369851236E+03  0.12818054499E+03  0.00000000000E+00 0. -1.
</event>
<event>
 7    1  0.6370239E-006  0.1246993E+03  0.7818608E-02  0.1272169E+00
          2   -1    0    0  502    0  0.00000000000E+00  0.00000000000E+00  0.87283774812E+03  0.87283774812E+03  0.00000000000E+00 0. -1.
          1   -1    0    0  501    0 -0.00000000000E+00 -0.00000000000E+00 -0.25752018452E+04  0.25752018452E+04  0.00000000000E+00 0. -1.
         25    2    1    2    0    0 -0.40015429646E+02  0.15513317154E+03 -0.27009739850E+03  0.33800192388E+03  0.12500064139E+03 0.  0.
          2    1    1    2  501    0 -0.50975276725E+02 -0.70108104893E+02 -0.22656970751E+04  0.22673545955E+04  0.00000000000E+00 0. -1.
          1    1    1    2  502    0  0.90990706371E+02 -0.85025066647E+02  0.83343037656E+03  0.84268307399E+03  0.00000000000E+00 0. -1.
         22    1    3    3    0    0  0.78037402622E+01 -0.15033781485E+02 -0.22488718184E+01  0.17087140553E+02  0.00000000000E+00 0. -1.
         22    1    3    3    0    0 -0.47819169908E+02  0.17016695303E+03 -0.26784852668E+03  0.32091478333E+03  0.00000000000E+00 0. -1.
</event>
<event>
 7    1  0.6370239E-006  0.1560213E+03  0.7818608E-02  0.1232166E+00
          2   -1    0    0  502    0  0.00000000000E+00  0.00000000000E+00  0.82958855772E+03  0.82958855772E+03  0.00000000000E+00 0. -1.
          1   -1    0    0  501    0 -0.00000000000E+00 -0.00000000000E+00 -0.23109876923E+03  0.23109876923E+03  0.00000000000E+00 0. -1.
         25    2    1    2    0    0  0.24836138524E+03 -0.22319301101E+02  0.20333337072E+02  0.27967796427E+03  0.12499916090E+03 0.  0.
          2    1    1    2  501    0 -0.10244466983E+03 -0.12255556707E+02 -0.64108769746E+02  0.12147033961E+03  0.00000000000E+00 0. -1.
          1    1    1    2  502    0 -0.14591671541E+03  0.34574857808E+02  0.64226522117E+03  0.65953902307E+03  0.00000000000E+00 0. -1.
         22    1    3    3    0    0  0.18482888519E+03  0.93749666720E+01  0.64590746302E+02  0.19601421201E+03  0.00000000000E+00 0. -1.
         22    1    3    3    0    0  0.63532500044E+02 -0.31694267773E+02 -0.44257409230E+02  0.83663752266E+02  0.00000000000E+00 0. -1.
</event>
<event>
 7    1  0.6370239E-006  0.1561300E+03  0.7818608E-02  0.1206773E+00
          2   -1    0    0  502    0  0.00000000000E+00  0.00000000000E+00  0.15257130194E+03  0.15257130194E+03  0.00000000000E+00 0. -1.
          1   -1    0    0  501    0 -0.00000000000E+00 -0.00000000000E+00 -0.14079354930E+04  0.14079354930E+04  0.00000000000E+00 0. -1.
         25    2    1    2    0    0  0.91898270583E+02 -0.13747088918E+03 -0.18913386065E+03  0.28060671262E+03  0.12499988967E+03 0.  0.
          2    1    1    2  501    0  0.72365122073E+02  0.11353623663E+03 -0.11019150031E+04  0.11101098423E+04  0.00000000000E+00 0. -1.
          1    1    1    2  502    0 -0.16426339266E+03  0.23934652555E+02  0.35684672633E+02  0.16979024006E+03  0.00000000000E+00 0. -1.
         22    1    3    3    0    0 -0.42323046663E+01 -0.10542780275E+03 -0.87280498662E+02  0.13693363152E+03  0.00000000000E+00 0.  1.
         22    1    3    3    0    0  0.96130575249E+02 -0.32043086438E+02 -0.10185336198E+03  0.14367308110E+03  0.00000000000E+00 0.  1.
</event>
<event>
 7    1  0.6370239E-006  0.3588952E+02  0.7818608E-02  0.1571075E+00
          2   -1    0    0  502    0  0.00000000000E+00  0.00000000000E+00  0.19641535477E+03  0.19641535477E+03  0.00000000000E+00 0. -1.
          1   -1    0    0  501    0 -0.00000000000E+00 -0.00000000000E+00 -0.39326614594E+03  0.39326614594E+03  0.00000000000E+00 0. -1.
         25    2    1    2    0    0  0.23630188374E+02 -0.25660971302E+02 -0.14565832813E+03  0.19508522769E+03  0.12500010504E+03 0.  0.
          2    1    1    2  501    0  0.12384069311E+02  0.26884349076E+02 -0.22000159181E+03  0.22198385931E+03  0.00000000000E+00 0. -1.
          1    1    1    2  502    0 -0.36014257684E+02 -0.12233777749E+01  0.16880912877E+03  0.17261241370E+03  0.00000000000E+00 0. -1.
         22    1    3    3    0    0  0.48435951309E+02 -0.47903004444E+02 -0.14670661465E+03  0.16175156876E+03  0.00000000000E+00 0.  1.
         22    1    3    3    0    0 -0.24805762936E+02  0.22242033142E+02  0.10482865213E+01  0.33333658931E+02  0.00000000000E+00 0.  1.
</event>
<event>
 7    1  0.6370239E-006  0.3949189E+02  0.7818608E-02  0.1572377E+00
          2   -1    0    0  502    0  0.00000000000E+00  0.00000000000E+00  0.39070654884E+02  0.39070654884E+02  0.00000000000E+00 0. -1.
          1   -1    0    0  501    0 -0.00000000000E+00 -0.00000000000E+00 -0.62033751870E+03  0.62033751870E+03  0.00000000000E+00 0. -1.
         25    2    1    2    0    0  0.14887174076E+02  0.26144019253E+01 -0.35114917318E+03  0.37304068068E+03  0.12500057826E+03 0.  0.
          2    1    1    2  501    0  0.20627264273E+02  0.16924503989E+02 -0.24251591463E+03  0.24397928542E+03  0.00000000000E+00 0. -1.
          1    1    1    2  502    0 -0.35514438350E+02 -0.19538905915E+02  0.12398223993E+02  0.42388207485E+02  0.00000000000E+00 0. -1.
         22    1    3    3    0    0 -0.35459049323E+02  0.98987926035E+01 -0.28905983789E+02  0.46806903045E+02  0.00000000000E+00 0.  1.
         22    1    3    3    0    0  0.50346223399E+02 -0.72843906782E+01 -0.32224318939E+03  0.32623377763E+03  0.00000000000E+00 0.  1.
</event>
<event>
 7    1  0.6370239E-006  0.3810975E+02  0.7818608E-02  0.1543911E+00
          2   -1    0    0  502    0  0.00000000000E+00  0.00000000000E+00  0.42549795256E+02  0.42549795256E+02  0.00000000000E+00 0. -1.
          1   -1    0    0  501    0 -0.00000000000E+00 -0.00000000000E+00 -0.18823161524E+04  0.18823161524E+04  0.00000000000E+00 0. -1.
         25    2    1    2    0    0 -0.15946524431E+01 -0.11342017837E+02 -0.15501991599E+03  0.19946077803E+03  0.12498897284E+03 0.  0.
          2    1    1    2  501    0 -0.27660433949E+02 -0.18237998821E+02 -0.16834558194E+04  0.16837818208E+04  0.00000000000E+00 0. -1.
          1    1    1    2  502    0  0.29255086392E+02  0.29580016659E+02 -0.12906217837E+01  0.41623348855E+02  0.00000000000E+00 0. -1.
         22    1    3    3    0    0 -0.35999292042E+02 -0.20362088975E+02 -0.15842129755E+03  0.16373109421E+03  0.00000000000E+00 0.  1.
         22    1    3    3    0    0  0.34404639599E+02  0.90200711378E+01  0.34013815517E+01  0.35729683818E+02  0.00000000000E+00 0.  1.
</event>
<event>
 7    1  0.6370239E-006  0.8078732E+02  0.7818608E-02  0.1349050E+00
          2   -1    0    0  502    0  0.00000000000E+00  0.00000000000E+00  0.20133207976E+03  0.20133207976E+03  0.00000000000E+00 0. -1.
          1   -1    0    0  501    0 -0.00000000000E+00 -0.00000000000E+00 -0.17526394366E+04  0.17526394366E+04  0.00000000000E+00 0. -1.
         25    2    1    2    0    0 -0.64396911311E+02 -0.71454207301E+02 -0.45007152157E+03  0.47690884568E+03  0.12500002654E+03 0.  0.
          2    1    1    2  501    0  0.81269082626E+02  0.70249227473E+01 -0.12819105020E+04  0.12845032303E+04  0.00000000000E+00 0. -1.
          1    1    1    2  502    0 -0.16872171314E+02  0.64429284554E+02  0.18067466678E+03  0.19255944040E+03  0.00000000000E+00 0. -1.
         22    1    3    3    0    0 -0.35220207570E+02 -0.10488228495E+03 -0.35795456835E+03  0.37466282137E+03  0.00000000000E+00 0.  1.
         22    1    3    3    0    0 -0.29176703741E+02  0.33428077650E+02 -0.92116953225E+02  0.10224602431E+03  0.00000000000E+00 0.  1.
</event>
<event>
 7    1  0.6370239E-006  0.2768811E+02  0.7818608E-02  0.1626005E+00
          2   -1    0    0  502    0  0.00000000000E+00  0.00000000000E+00  0.35972956024E+02  0.35972956024E+02  0.00000000000E+00 0. -1.
          1   -1    0    0  501    0 -0.00000000000E+00 -0.00000000000E+00 -0.20699620741E+04  0.20699620741E+04  0.00000000000E+00 0. -1.
         25    2    1    2    0    0 -0.39777975140E+01  0.45368813685E+01 -0.33744762812E+03  0.35990658199E+03  0.12500175947E+03 0.  0.
          2    1    1    2  501    0  0.20409642425E+02  0.18505288764E+02 -0.17130453137E+04  0.17132668344E+04  0.00000000000E+00 0. -1.
          1    1    1    2  502    0 -0.16431844911E+02 -0.23042170132E+02  0.16503823762E+02  0.32761613671E+02  0.00000000000E+00 0. -1.
         22    1    3    3    0    0 -0.31478259106E+02  0.23044888741E+02 -0.32014655997E+03  0.32251475556E+03  0.00000000000E+00 0. -1.
         22    1    3    3    0    0  0.27500461592E+02 -0.18508007372E+02 -0.17301068149E+02  0.37391826430E+02  0.00000000000E+00 0. -1.
</event>
<event>
 7    1  0.6370239E-006  0.3481332E+02  0.7818608E-02  0.1571694E+00
          2   -1    0    0  502    0  0.00000000000E+00  0.00000000000E+00  0.53349907331E+03  0.53349907331E+03  0.00000000000E+00 0. -1.
          1   -1    0    0  501    0 -0.00000000000E+00 -0.00000000000E+00 -0.18122533447E+04  0.18122533447E+04  0.00000000000E+00 0. -1.
         25    2    1    2    0    0  0.45800707302E+02 -0.23414448414E+02 -0.16972772497E+03  0.21697606928E+03  0.12500069133E+03 0.  0.
          2    1    1    2  501    0 -0.16289998617E+02  0.30700459854E+02 -0.16182616649E+04  0.16186348255E+04  0.00000000000E+00 0. -1.
          1    1    1    2  502    0 -0.29510708686E+02 -0.72860114399E+01  0.50923511845E+03  0.51014152325E+03  0.00000000000E+00 0. -1.
         22    1    3    3    0    0  0.38049331496E+02 -0.55043350682E+02 -0.29696155033E+02  0.73207811778E+02  0.00000000000E+00 0. -1.
         22    1    3    3    0    0  0.77513758062E+01  0.31628902268E+02 -0.14003156994E+03  0.14376825750E+03  0.00000000000E+00 0. -1.
</event>
<event>
 7    1  0.6370239E-006  0.8931963E+02  0.7818608E-02  0.1403473E+00
          2   -1    0    0  502    0  0.00000000000E+00  0.00000000000E+00  0.65010015179E+02  0.65010015179E+02  0.00000000000E+00 0. -1.
          1   -1    0    0  501    0 -0.00000000000E+00 -0.00000000000E+00 -0.13256894379E+04  0.13256894379E+04  0.00000000000E+00 0. -1.
         25    2    1    2    0    0  0.43662862640E+00 -0.53426841821E+02 -0.66411344623E+03  0.67788453196E+03  0.12500460447E+03 0.  0.
          2    1    1    2  501    0 -0.92574848165E+01 -0.37417464994E+02 -0.61788538845E+03  0.61908652139E+03  0.00000000000E+00 0. -1.
          1    1    1    2  502    0  0.88208561901E+01  0.90844306816E+02  0.21319411974E+02  0.93728399707E+02  0.00000000000E+00 0. -1.
         22    1    3    3    0    0  0.16417366262E+02  0.29681598285E+02 -0.37794587999E+03  0.37946490667E+03  0.00000000000E+00 0.  1.
         22    1    3    3    0    0 -0.15980737636E+02 -0.83108440107E+02 -0.28616756624E+03  0.29841962529E+03  0.00000000000E+00 0.  1.
</event>
<event>
 7    1  0.6370239E-006  0.1132070E+03  0.7818608E-02  0.1381771E+00
          2   -1    0    0  502    0  0.00000000000E+00  0.00000000000E+00  0.17277673897E+04  0.17277673897E+04  0.00000000000E+00 0. -1.
          1   -1    0    0  501    0 -0.00000000000E+00 -0.00000000000E+00 -0.76875425621E+03  0.76875425621E+03  0.00000000000E+00 0. -1.
         25    2    1    2    0    0 -0.14116452831E+03 -0.39295576308E+02 -0.60734218122E+02  0.20195253760E+03  0.12499846327E+03 0.  0.
          2    1    1    2  501    0  0.10521876328E+03  0.35166871683E+02 -0.63238407960E+03  0.64204152603E+03  0.00000000000E+00 0. -1.
          1    1    1    2  502    0  0.35945765032E+02  0.41287046244E+01  0.16521314312E+04  0.16525275823E+04  0.00000000000E+00 0. -1.
         22    1    3    3    0    0 -0.10521178575E+03 -0.37966951578E+02  0.19943305882E+02  0.11361665689E+03  0.00000000000E+00 0.  1.
         22    1    3    3    0    0 -0.35952742563E+02 -0.13286247291E+01 -0.80677524004E+02  0.88335880710E+02  0.00000000000E+00 0.  1.
</event>
<event>
 7    1  0.6370239E-006  0.1111890E+03  0.7818608E-02  0.1414280E+00
          2   -1    0    0  502    0  0.00000000000E+00  0.00000000000E+00  0.10712117852E+04  0.10712117852E+04  0.00000000000E+00 0. -1.
          1   -1    0    0  501    0 -0.00000000000E+00 -0.00000000000E+00 -0.25613195763E+03  0.25613195763E+03  0.00000000000E+00 0. -1.
         25    2    1    2    0    0 -0.10283555407E+03  0.79485260197E+02  0.16123840699E+03  0.24190237989E+03  0.12500351891E+03 0.  0.
          2    1    1    2  501    0  0.60517033688E+01 -0.27805265738E+02 -0.21138217807E+03  0.21328896155E+03  0.00000000000E+00 0. -1.
          1    1    1    2  502    0  0.96783850700E+02 -0.51679994459E+02  0.86522359867E+03  0.87215240141E+03  0.00000000000E+00 0. -1.
         22    1    3    3    0    0 -0.10644873049E+03  0.10792875792E+03  0.13795716832E+03  0.20496860564E+03  0.00000000000E+00 0. -1.
         22    1    3    3    0    0  0.36131764226E+01 -0.28443497719E+02  0.23281238669E+02  0.36933774249E+02  0.00000000000E+00 0. -1.
</event>
<event>
 7    1  0.6370239E-006  0.9496884E+02  0.7818608E-02  0.1316449E+00
          2   -1    0    0  502    0  0.00000000000E+00  0.00000000000E+00  0.76549404347E+03  0.76549404347E+03  0.00000000000E+00 0. -1.
          1   -1    0    0  501    0 -0.00000000000E+00 -0.00000000000E+00 -0.40192511351E+02  0.40192511351E+02  0.00000000000E+00 0. -1.
         25    2    1    2    0    0 -0.59711707838E+02  0.15014196255E+02  0.30991508612E+03  0.33979864225E+03  0.12499937012E+03 0.  0.
          2    1    1    2  501    0 -0.61522025539E+02 -0.43565837394E+02  0.89538229211E+02  0.11704715419E+03  0.00000000000E+00 0. -1.
          1    1    1    2  502    0  0.12123373338E+03  0.28551641139E+02  0.32584821678E+03  0.34884075837E+03  0.00000000000E+00 0. -1.
         22    1    3    3    0    0 -0.90999636624E+01  0.65975583864E+02  0.12974358565E+03  0.14583890092E+03  0.00000000000E+00 0. -1.
         22    1    3    3    0    0 -0.50611744176E+02 -0.50961387609E+02  0.18017150047E+03  0.19395974134E+03  0.00000000000E+00 0. -1.
</event>
<event>
 7    1  0.6370239E-006  0.1298741E+03  0.7818608E-02  0.1337751E+00
          2   -1    0    0  502    0  0.00000000000E+00  0.00000000000E+00  0.10631881162E+04  0.10631881162E+04  0.00000000000E+00 0. -1.
          1   -1    0    0  501    0 -0.00000000000E+00 -0.00000000000E+00 -0.88261677672E+03  0.88261677672E+03  0.00000000000E+00 0. -1.
         25    2    1    2    0    0 -0.92890009856E+01  0.15791734416E+03  0.33923028337E+03  0.39462553573E+03  0.12501182011E+03 0.  0.
          2    1    1    2  501    0 -0.25289335848E+02 -0.38024644588E+02 -0.84870981502E+03  0.84993751195E+03  0.00000000000E+00 0. -1.
          1    1    1    2  502    0  0.34578336834E+02 -0.11989269957E+03  0.69005087114E+03  0.70124184527E+03  0.00000000000E+00 0. -1.
         22    1    3    3    0    0  0.55310579844E+02  0.54892909144E+02  0.10555711054E+03  0.13120516492E+03  0.00000000000E+00 0.  1.
         22    1    3    3    0    0 -0.64599580830E+02  0.10302443501E+03  0.23367317283E+03  0.26342037081E+03  0.00000000000E+00 0.  1.
</event>
<event>
 7    1  0.6370239E-006  0.5418249E+02  0.7818608E-02  0.1493725E+00
          2   -1    0    0  502    0  0.00000000000E+00  0.00000000000E+00  0.22311871169E+04  0.22311871169E+04  0.00000000000E+00 0. -1.
          1   -1    0    0  501    0 -0.00000000000E+00 -0.00000000000E+00 -0.11992862510E+03  0.11992862510E+03  0.00000000000E+00 0. -1.
         25    2    1    2    0    0  0.46798267596E+02  0.69826849861E+02  0.33414999352E+03  0.36653547002E+03  0.12500466313E+03 0.  0.
          2    1    1    2  501    0 -0.24982264841E+02 -0.20969212446E+02 -0.10078159092E+03  0.10592804395E+03  0.00000000000E+00 0. -1.
          1    1    1    2  502    0 -0.21816002755E+02 -0.48857637414E+02  0.18778900892E+04  0.18786522280E+04  0.00000000000E+00 0. -1.
         22    1    3    3    0    0  0.27301036561E+02  0.84964202528E+02  0.32955907662E+03  0.34142853907E+03  0.00000000000E+00 0. -1.
         22    1    3    3    0    0  0.19497231036E+02 -0.15137352667E+02  0.45909168969E+01  0.25106930951E+02  0.00000000000E+00 0. -1.
</event>
<event>
 7    1  0.6370239E-006  0.1689710E+03  0.7818608E-02  0.1295662E+00
          2   -1    0    0  502    0  0.00000000000E+00  0.00000000000E+00  0.89562074526E+03  0.89562074526E+03  0.00000000000E+00 0. -1.
          1   -1    0    0  501    0 -0.00000000000E+00 -0.00000000000E+00 -0.87573936086E+03  0.87573936086E+03  0.00000000000E+00 0. -1.
         25    2    1    2    0    0  0.65734935652E+02 -0.11845046052E+03  0.14876059644E+03  0.23687343664E+03  0.12501086581E+03 0.  0.
          2    1    1    2  501    0  0.47639100573E+02 -0.18831495376E+02 -0.81959418069E+03  0.82119347911E+03  0.00000000000E+00 0. -1.
          1    1    1    2  502    0 -0.11337403623E+03  0.13728195590E+03  0.69071496865E+03  0.71329319037E+03  0.00000000000E+00 0. -1.
         22    1    3    3    0    0  0.38256331269E+02 -0.10938214192E+03  0.16655739768E+03  0.20290235724E+03  0.00000000000E+00 0.  1.
         22    1    3    3    0    0  0.27478604383E+02 -0.90683186020E+01 -0.17796801239E+02  0.33971079398E+02  0.00000000000E+00 0.  1.
</event>
<event>
 7    1  0.6370239E-006  0.5212529E+02  0.7818608E-02  0.1445016E+00
          2   -1    0    0  502    0  0.00000000000E+00  0.00000000000E+00  0.40901945811E+02  0.40901945811E+02  0.00000000000E+00 0. -1.
          1   -1    0    0  501    0 -0.00000000000E+00 -0.00000000000E+00 -0.40043096650E+03  0.40043096650E+03  0.00000000000E+00 0. -1.
         25    2    1    2    0    0  0.32258118826E+00  0.15409926502E+02 -0.17924652129E+03  0.21907391802E+03  0.12500598492E+03 0.  0.
          2    1    1    2  501    0 -0.12361832403E+02  0.46460744510E+02 -0.13857571079E+03  0.14667870773E+03  0.00000000000E+00 0. -1.
          1    1    1    2  502    0  0.12039251215E+02 -0.61870671011E+02 -0.41706788609E+02  0.75580286565E+02  0.00000000000E+00 0. -1.
         22    1    3    3    0    0 -0.36287776790E+02  0.24812498567E+02 -0.92455478777E+01  0.44921520289E+02  0.00000000000E+00 0.  1.
         22    1    3    3    0    0  0.36610357978E+02 -0.94025720649E+01 -0.17000097341E+03  0.17415239773E+03  0.00000000000E+00 0.  1.
</event>
<event>
 7    1  0.6370239E-006  0.7447048E+02  0.7818608E-02  0.1416767E+00
          2   -1    0    0  502    0  0.00000000000E+00  0.00000000000E+00  0.13452240213E+04  0.13452240213E+04  0.00000000000E+00 0. -1.
          1   -1    0    0  501    0 -0.00000000000E+00 -0.00000000000E+00 -0.53374903511E+02  0.53374903511E+02  0.00000000000E+00 0. -1.
         25    2    1    2    0    0 -0.10846591609E+03  0.23539788913E+02  0.55138977177E+03  0.57617169505E+03  0.12499666057E+03 0.  0.
          2    1    1    2  501    0  0.72410352421E+02 -0.26365911771E+01 -0.79185657146E+01  0.72889741622E+02  0.00000000000E+00 0. -1.
          1    1    1    2  502    0  0.36055563669E+02 -0.20903197736E+02  0.74837791173E+03  0.74953748813E+03  0.00000000000E+00 0. -1.
         22    1    3    3    0    0  0.19133044093E+02 -0.28764008694E+01  0.15862013686E+02  0.25019003505E+02  0.00000000000E+00 0.  1.
         22    1    3    3    0    0 -0.12759896018E+03  0.26416189783E+02  0.53552775808E+03  0.55115269154E+03  0.00000000000E+00 0.  1.
</event>
<event>
 7    1  0.6370239E-006  0.1650089E+03  0.7818608E-02  0.1235607E+00
          2   -1    0    0  502    0  0.00000000000E+00  0.00000000000E+00  0.31087079763E+04  0.31087079763E+04  0.00000000000E+00 0. -1.
          1   -1    0    0  501    0 -0.00000000000E+00 -0.00000000000E+00 -0.12322677566E+03  0.12322677566E+03  0.00000000000E+00 0. -1.
         25    2    1    2    0    0 -0.73199297616E+02  0.13441608456E+03  0.31230949240E+03  0.36957837757E+03  0.12500054866E+03 0.  0.
          2    1    1    2  501    0 -0.13105176299E+02 -0.17209728154E+03 -0.14344645469E+02  0.17319061410E+03  0.00000000000E+00 0. -1.
          1    1    1    2  502    0  0.86304473915E+02  0.37681196984E+02  0.26875163537E+04  0.26891657603E+04  0.00000000000E+00 0. -1.
         22    1    3    3    0    0 -0.49593751392E+02  0.15394722162E+03  0.22538509515E+03  0.27741255980E+03  0.00000000000E+00 0.  1.
         22    1    3    3    0    0 -0.23605546224E+02 -0.19531137059E+02  0.86924397252E+02  0.92165817769E+02  0.00000000000E+00 0.  1.
</event>
<event>
 7    1  0.6370239E-006  0.2196608E+03  0.7818608E-02  0.1309070E+00
          2   -1    0    0  502    0  0.00000000000E+00  0.00000000000E+00  0.17311538171E+03  0.17311538171E+03  0.00000000000E+00 0. -1.
          1   -1    0    0  501    0 -0.00000000000E+00 -0.00000000000E+00 -0.40401500769E+03  0.40401500769E+03  0.00000000000E+00 0. -1.
         25    2    1    2    0    0 -0.17463875785E+03  0.10964178476E+03 -0.12959073591E+03  0.27374935089E+03  0.12499972628E+03 0.  0.
          2    1    1    2  501    0  0.20900606832E+03 -0.10392625153E+03 -0.12146517550E+03  0.26313112931E+03  0.00000000000E+00 0. -1.
          1    1    1    2  502    0 -0.34367310470E+02 -0.57155332274E+01  0.20156285418E+02  0.40249909203E+02  0.00000000000E+00 0. -1.
         22    1    3    3    0    0 -0.11854508966E+03  0.57721060053E+02 -0.10537020338E+02  0.13227126617E+03  0.00000000000E+00 0. -1.
         22    1    3    3    0    0 -0.56093668186E+02  0.51920724704E+02 -0.11905371557E+03  0.14147808472E+03  0.00000000000E+00 0. -1.
</event>
<event>
 7    1  0.6370239E-006  0.1333090E+03  0.7818608E-02  0.1295278E+00
          2   -1    0    0  502    0  0.00000000000E+00  0.00000000000E+00  0.18825000931E+03  0.18825000931E+03  0.00000000000E+00 0. -1.
          1   -1    0    0  501    0 -0.00000000000E+00 -0.00000000000E+00 -0.14639494083E+04  0.14639494083E+04  0.00000000000E+00 0. -1.
         25    2    1    2    0    0 -0.12186575581E+03  0.13464246044E+03 -0.50746611746E+03  0.55328707198E+03  0.12499947620E+03 0.  0.
          2    1    1    2  501    0  0.10174625274E+03 -0.72665152233E+02 -0.92276877113E+03  0.93120069226E+03  0.00000000000E+00 0. -1.
          1    1    1    2  502    0  0.20119503070E+02 -0.61977308205E+02  0.15453548959E+03  0.16771165338E+03  0.00000000000E+00 0. -1.
         22    1    3    3    0    0 -0.12358680261E+03  0.97481988318E+02 -0.48482856215E+03  0.50974029712E+03  0.00000000000E+00 0. -1.
         22    1    3    3    0    0  0.17210467969E+01  0.37160472120E+02 -0.22637555311E+02  0.43546774860E+02  0.00000000000E+00 0. -1.
</event>
<event>
 7    1  0.6370239E-006  0.1269440E+03  0.7818608E-02  0.1319221E+00
          2   -1    0    0  502    0  0.00000000000E+00  0.00000000000E+00  0.45061423616E+03  0.45061423616E+03  0.00000000000E+00 0. -1.
          1   -1    0    0  501    0 -0.00000000000E+00 -0.00000000000E+00 -0.15189020475E+03  0.15189020475E+03  0.00000000000E+00 0. -1.
         25    2    1    2    0    0  0.11462805709E+03 -0.83928848277E+02  0.47096085421E+02  0.19500500883E+03  0.12500107664E+03 0.  0.
          2    1    1    2  501    0  0.78318937586E+01  0.54452463460E+02 -0.53905598516E+02  0.77020925001E+02  0.00000000000E+00 0. -1.
          1    1    1    2  502    0 -0.12245995085E+03  0.29476384817E+02  0.30553354450E+03  0.33047850708E+03  0.00000000000E+00 0. -1.
         22    1    3    3    0    0  0.46086584207E+02 -0.99199369567E+02 -0.18671352436E+01  0.10939823746E+03  0.00000000000E+00 0. -1.
         22    1    3    3    0    0  0.68541472885E+02  0.15270521290E+02  0.48963220664E+02  0.85606771365E+02  0.00000000000E+00 0. -1.
</event>
<event>
 7    1  0.6370239E-006  0.7548791E+02  0.7818608E-02  0.1424499E+00
          2   -1    0    0  502    0  0.00000000000E+00  0.00000000000E+00  0.62212791489E+03  0.62212791489E+03  0.00000000000E+00 0. -1.
          1   -1    0    0  501    0 -0.00000000000E+00 -0.00000000000E+00 -0.14974456403E+03  0.14974456403E+03  0.00000000000E+00 0. -1.
         25    2    1    2    0    0 -0.10106559029E+03 -0.24080124753E+02 -0.28150683775E+02  0.16495832445E+03  0.12499872743E+03 0.  0.
          2    1    1    2  501    0  0.62322027896E+02  0.24185007297E+02 -0.31198552454E+02  0.73771941918E+02  0.00000000000E+00 0. -1.
          1    1    1    2  502    0  0.38743562392E+02 -0.10488254481E+00  0.53173258709E+03  0.53314221255E+03  0.00000000000E+00 0. -1.
         22    1    3    3    0    0 -0.14787768423E+02 -0.65061147778E+02 -0.66401189086E+01  0.67050147086E+02  0.00000000000E+00 0.  1.
         22    1    3    3    0    0 -0.86277821865E+02  0.40981023025E+02 -0.21510564867E+02  0.97908177365E+02  0.00000000000E+00 0.  1.
</event>
<event>
 7    1  0.6370239E-006  0.5741003E+02  0.7818608E-02  0.1520454E+00
          2   -1    0    0  502    0  0.00000000000E+00  0.00000000000E+00  0.10347949997E+04  0.10347949997E+04  0.00000000000E+00 0. -1.
          1   -1    0    0  501    0 -0.00000000000E+00 -0.00000000000E+00 -0.27821200455E+03  0.27821200455E+03  0.00000000000E+00 0. -1.
         25    2    1    2    0    0  0.20372625773E+02 -0.46426193677E+02  0.20801410360E+03  0.24792199173E+03  0.12500004539E+03 0.  0.
          2    1    1    2  501    0 -0.44201490185E+02  0.36898662215E+02 -0.25484135585E+03  0.26126499892E+03  0.00000000000E+00 0. -1.
          1    1    1    2  502    0  0.23828864412E+02  0.95275314619E+01  0.80341024738E+03  0.80382001358E+03  0.00000000000E+00 0. -1.
         22    1    3    3    0    0  0.60213298247E+02 -0.56297922047E+02  0.85723451529E+02  0.11892689963E+03  0.00000000000E+00 0.  1.
         22    1    3    3    0    0 -0.39840672474E+02  0.98717283697E+01  0.12229065207E+03  0.12899509211E+03  0.00000000000E+00 0.  1.
</event>
<event>
 7    1  0.6370239E-006  0.1575063E+03  0.7818608E-02  0.1243966E+00
          2   -1    0    0  502    0  0.00000000000E+00  0.00000000000E+00  0.22582657131E+04  0.22582657131E+04  0.00000000000E+00 0. -1.
          1   -1    0    0  501    0 -0.00000000000E+00 -0.00000000000E+00 -0.23152194680E+03  0.23152194680E+03  0.00000000000E+00 0. -1.
         25    2    1    2    0    0  0.51170663964E+02  0.54564972480E+02  0.63576348238E+03  0.65223840653E+03  0.12499584134E+03 0.  0.
          2    1    1    2  501    0 -0.13561756828E+03 -0.87457020963E+02 -0.19266223888E+03  0.25131572500E+03  0.00000000000E+00 0. -1.
          1    1    1    2  502    0  0.84446904318E+02  0.32892048483E+02  0.15836425228E+04  0.15862335283E+04  0.00000000000E+00 0. -1.
         22    1    3    3    0    0  0.48247368791E+02 -0.14090463793E+02  0.47162582230E+03  0.47429660132E+03  0.00000000000E+00 0. -1.
         22    1    3    3    0    0  0.29232951730E+01  0.68655436273E+02  0.16413766009E+03  0.17794180522E+03  0.00000000000E+00 0. -1.
</event>
<event>
 7    1  0.6370239E-006  0.9201632E+02  0.7818608E-02  0.1313890E+00
          2   -1    0    0  502    0  0.00000000000E+00  0.00000000000E+00  0.23360335775E+04  0.23360335775E+04  0.00000000000E+00 0. -1.
          1   -1    0    0  501    0 -0.00000000000E+00 -0.00000000000E+00 -0.24631340563E+03  0.24631340563E+03  0.00000000000E+00 0. -1.
         25    2    1    2    0    0  0.96120452894E+02 -0.12458609810E+03  0.41458898780E+03  0.46072814695E+03  0.12500223714E+03 0.  0.
          2    1    1    2  501    0 -0.25890663843E+02  0.87079679007E+02 -0.21312772092E+03  0.23168215812E+03  0.00000000000E+00 0. -1.
          1    1    1    2  502    0 -0.70229789051E+02  0.37506419098E+02  0.18882589049E+04  0.18899366780E+04  0.00000000000E+00 0. -1.
         22    1    3    3    0    0 -0.16932665940E+02 -0.15325182070E+02  0.70310136743E+01  0.23895847644E+02  0.00000000000E+00 0.  1.
         22    1    3    3    0    0  0.11305311883E+03 -0.10926091603E+03  0.40755797412E+03  0.43683229931E+03  0.00000000000E+00 0.  1.
</event>
<event>
 7    1  0.6370239E-006  0.1601592E+03  0.7818608E-02  0.1349655E+00
          2   -1    0    0  502    0  0.00000000000E+00  0.00000000000E+00  0.49856374637E+03  0.49856374637E+03  0.00000000000E+00 0. -1.
          1   -1    0    0  501    0 -0.00000000000E+00 -0.00000000000E+00 -0.77949864961E+03  0.77949864961E+03  0.00000000000E+00 0. -1.
         25    2    1    2    0    0  0.13859391144E+02 -0.17803713534E+03  0.32703071751E+03  0.39301589980E+03  0.12499241184E+03 0.  0.
          2    1    1    2  501    0  0.13737870265E+02  0.15918439928E+03 -0.73578338710E+03  0.75293133471E+03  0.00000000000E+00 0. -1.
          1    1    1    2  502    0 -0.27597261409E+02  0.18852736057E+02  0.12781776636E+03  0.13211516147E+03  0.00000000000E+00 0. -1.
         22    1    3    3    0    0 -0.43466462571E+01  0.16683670071E+02  0.84597794931E+01  0.19204323727E+02  0.00000000000E+00 0. -1.
         22    1    3    3    0    0  0.18206037401E+02 -0.19472080541E+03  0.31857093802E+03  0.37381157607E+03  0.00000000000E+00 0. -1.
</event>
<event>
 7    1  0.6370239E-006  0.7850089E+02  0.7818608E-02  0.1422101E+00
          2   -1    0    0  502    0  0.00000000000E+00  0.00000000000E+00  0.96345537466E+03  0.96345537466E+03  0.00000000000E+00 0. -1.
          1   -1    0    0  501    0 -0.00000000000E+00 -0.00000000000E+00 -0.27699537530E+03  0.27699537530E+03  0.00000000000E+00 0. -1.
         25    2    1    2    0    0 -0.99897133910E+00  0.58879273604E+02 -0.10374204702E+03  0.17278579561E+03  0.12499900816E+03 0.  0.
          2    1    1    2  501    0 -0.28538633506E+02 -0.82701336909E+02 -0.12450607252E+03  0.15217005889E+03  0.00000000000E+00 0. -1.
          1    1    1    2  502    0  0.29537604845E+02  0.23822063305E+02  0.91470811890E+03  0.91549489545E+03  0.00000000000E+00 0. -1.
         22    1    3    3    0    0 -0.33284912410E+02  0.17689080935E+02 -0.11345846065E+03  0.11955589183E+03  0.00000000000E+00 0.  1.
         22    1    3    3    0    0  0.32285941071E+02  0.41190192669E+02  0.97164136282E+01  0.53229903783E+02  0.00000000000E+00 0.  1.
</event>
<event>
 7    1  0.6370239E-006  0.6004685E+02  0.7818608E-02  0.1491886E+00
          2   -1    0    0  502    0  0.00000000000E+00  0.00000000000E+00  0.12729238634E+03  0.12729238634E+03  0.00000000000E+00 0. -1.
          1   -1    0    0  501    0 -0.00000000000E+00 -0.00000000000E+00 -0.11116741192E+04  0.11116741192E+04  0.00000000000E+00 0. -1.
         25    2    1    2    0    0  0.12003867518E+02 -0.30037266405E+02 -0.17259939550E+03  0.21554825414E+03  0.12499667326E+03 0.  0.
          2    1    1    2  501    0 -0.31079749476E+02  0.52943117470E+02 -0.91445117223E+03  0.91650961310E+03  0.00000000000E+00 0. -1.
          1    1    1    2  502    0  0.19075881958E+02 -0.22905851065E+02  0.10266883488E+03  0.10690863829E+03  0.00000000000E+00 0. -1.
         22    1    3    3    0    0 -0.22456949168E+02 -0.66890845015E+02 -0.61782895219E+02  0.93786064287E+02  0.00000000000E+00 0.  1.
         22    1    3    3    0    0  0.34460816686E+02  0.36853578610E+02 -0.11081650028E+03  0.12176218985E+03  0.00000000000E+00 0.  1.
</event>
<event>
 7    1  0.6370239E-006  0.2794346E+02  0.7818608E-02  0.1625988E+00
          2   -1    0    0  502    0  0.00000000000E+00  0.00000000000E+00  0.15264725708E+04  0.15264725708E+04  0.00000000000E+00 0. -1.
          1   -1    0    0  501    0 -0.00000000000E+00 -0.00000000000E+00 -0.82148715621E+03  0.82148715621E+03  0.00000000000E+00 0. -1.
         25    2    1    2    0    0  0.77676911023E+01  0.21459933464E+02 -0.23710193306E+03  0.26900739435E+03  0.12500714293E+03 0.  0.
          2    1    1    2  501    0 -0.28141240041E+02 -0.32868829637E+01 -0.56795598185E+03  0.56866222867E+03  0.00000000000E+00 0. -1.
          1    1    1    2  502    0  0.20373548938E+02 -0.18173050501E+02  0.15100433295E+04  0.15102901040E+04  0.00000000000E+00 0. -1.
         22    1    3    3    0    0 -0.16463636480E+02  0.55021487541E+02 -0.46311116481E+02  0.73777604509E+02  0.00000000000E+00 0. -1.
         22    1    3    3    0    0  0.24231327582E+02 -0.33561554077E+02 -0.19079081658E+03  0.19522978984E+03  0.00000000000E+00 0. -1.
</event>
<event>
 7    1  0.6370239E-006  0.2137611E+03  0.7818608E-02  0.1337194E+00
          2   -1    0    0  502    0  0.00000000000E+00  0.00000000000E+00  0.28320033168E+04  0.28320033168E+04  0.00000000000E+00 0. -1.
          1   -1    0    0  501    0 -0.00000000000E+00 -0.00000000000E+00 -0.93850935371E+02  0.93850935371E+02  0.00000000000E+00 0. -1.
         25    2    1    2    0    0 -0.21456917840E+03 -0.10177209171E+03  0.36809964823E+03  0.45554427912E+03  0.12500299295E+03 0.  0.
          2    1    1    2  501    0  0.20004980729E+02  0.19418866226E+02 -0.41239587589E+02  0.49779465686E+02  0.00000000000E+00 0. -1.
          1    1    1    2  502    0  0.19456419767E+03  0.82353225479E+02  0.24112923207E+04  0.24205305073E+04  0.00000000000E+00 0. -1.
         22    1    3    3    0    0  0.97401263272E+01 -0.28856585526E+02  0.26164012572E+02  0.40151315582E+02  0.00000000000E+00 0. -1.
         22    1    3    3    0    0 -0.22430930473E+03 -0.72915506179E+02  0.34193563565E+03  0.41539296354E+03  0.00000000000E+00 0. -1.
</event>
<event>
 7    1  0.6370239E-006  0.2616078E+02  0.7818608E-02  0.1651034E+00
          2   -1    0    0  502    0  0.00000000000E+00  0.00000000000E+00  0.56910831975E+03  0.56910831975E+03  0.00000000000E+00 0. -1.
          1   -1    0    0  501    0 -0.00000000000E+00 -0.00000000000E+00 -0.78136224038E+02  0.78136224038E+02  0.00000000000E+00 0. -1.
         25    2    1    2    0    0  0.33143823324E+01 -0.12183752916E+02  0.26271577696E+03  0.29121424096E+03  0.12500690264E+03 0.  0.
          2    1    1    2  501    0  0.22860955517E+02  0.12718616617E+02 -0.60591793798E+02  0.65998120969E+02  0.00000000000E+00 0. -1.
          1    1    1    2  502    0 -0.26175337849E+02 -0.53486370071E+00  0.28884811255E+03  0.29003218186E+03  0.00000000000E+00 0. -1.
         22    1    3    3    0    0 -0.57863753096E+01  0.17085276616E+02 -0.73033957484E+01  0.19460945653E+02  0.00000000000E+00 0. -1.
         22    1    3    3    0    0  0.91007576420E+01 -0.29269029532E+02  0.27001917271E+03  0.27175329531E+03  0.00000000000E+00 0. -1.
</event>
<event>
 7    1  0.6370239E-006  0.1001642E+03  0.7818608E-02  0.1432887E+00
          2   -1    0    0  502    0  0.00000000000E+00  0.00000000000E+00  0.71707406687E+03  0.71707406687E+03  0.00000000000E+00 0. -1.
          1   -1    0    0  501    0 -0.00000000000E+00 -0.00000000000E+00 -0.47863959843E+03  0.47863959843E+03  0.00000000000E+00 0. -1.
         25    2    1    2    0    0 -0.12003506829E+03  0.83963618994E+01 -0.18729262712E+03  0.25530803247E+03  0.12499898703E+03 0.  0.
          2    1    1    2  501    0  0.93712811727E+02 -0.15993778972E+02 -0.24827133882E+03  0.26585061544E+03  0.00000000000E+00 0. -1.
          1    1    1    2  502    0  0.26322256561E+02  0.75974170731E+01  0.67399843438E+03  0.67455501739E+03  0.00000000000E+00 0. -1.
         22    1    3    3    0    0 -0.20591411586E+00  0.84724610191E+01  0.16698045901E+02  0.18725643734E+02  0.00000000000E+00 0. -1.
         22    1    3    3    0    0 -0.11982915417E+03 -0.76099119701E-01 -0.20399067303E+03  0.23658238874E+03  0.00000000000E+00 0. -1.
</event>
<event>
 7    1  0.6370239E-006  0.1461364E+03  0.7818608E-02  0.1281565E+00
          2   -1    0    0  502    0  0.00000000000E+00  0.00000000000E+00  0.22098107438E+04  0.22098107438E+04  0.00000000000E+00 0. -1.
          1   -1    0    0  501    0 -0.00000000000E+00 -0.00000000000E+00 -0.69935623016E+02  0.69935623016E+02  0.00000000000E+00 0. -1.
         25    2    1    2    0    0 -0.90970251212E+02 -0.49548721775E+02  0.21295992945E+03  0.26778257076E+03  0.12499964488E+03 0.  0.
          2    1    1    2  501    0 -0.53088000729E+01 -0.67400194162E+02 -0.10687712585E+02  0.68448496927E+02  0.00000000000E+00 0. -1.
          1    1    1    2  502    0  0.96279051285E+02  0.11694891594E+03  0.19376029040E+04  0.19435152992E+04  0.00000000000E+00 0. -1.
         22    1    3    3    0    0 -0.58295981626E+02 -0.77553788542E+02  0.73170731160E+02  0.12151941199E+03  0.00000000000E+00 0.  1.
         22    1    3    3    0    0 -0.32674269586E+02  0.28005066767E+02  0.13978919829E+03  0.14626315878E+03  0.00000000000E+00 0.  1.
</event>
<event>
 7    1  0.6370239E-006  0.1704284E+03  0.7818608E-02  0.1229107E+00
          2   -1    0    0  502    0  0.00000000000E+00  0.00000000000E+00  0.12310194839E+04  0.12310194839E+04  0.00000000000E+00 0. -1.
          1   -1    0    0  501    0 -0.00000000000E+00 -0.00000000000E+00 -0.43350322777E+03  0.43350322777E+03  0.00000000000E+00 0. -1.
         25    2    1    2    0    0 -0.11571398365E+03 -0.13089440721E+03  0.60790580381E+02  0.22325467805E+03  0.12499633898E+03 0.  0.
          2    1    1    2  501    0  0.89217732481E+02 -0.39277340878E+02 -0.33854124395E+03  0.35229630590E+03  0.00000000000E+00 0. -1.
          1    1    1    2  502    0  0.26496251168E+02  0.17017174808E+03  0.10752669197E+04  0.10889717277E+04  0.00000000000E+00 0. -1.
         22    1    3    3    0    0 -0.26778175579E+02  0.88115572500E+01  0.49865796690E+02  0.57282736562E+02  0.00000000000E+00 0.  1.
         22    1    3    3    0    0 -0.88935808070E+02 -0.13970596446E+03  0.10924783691E+02  0.16597194149E+03  0.00000000000E+00 0.  1.
</event>
<event>
 7    1  0.6370239E-006  0.5791097E+02  0.7818608E-02  0.1486928E+00
          2   -1    0    0  502    0  0.00000000000E+00  0.00000000000E+00  0.78131260784E+03  0.78131260784E+03  0.00000000000E+00 0. -1.
          1   -1    0    0  501    0 -0.00000000000E+00 -0.00000000000E+00 -0.41408479426E+03  0.41408479426E+03  0.00000000000E+00 0. -1.
         25    2    1    2    0    0  0.85590766932E+02  0.23845454258E+02  0.53699965457E+02  0.16249292910E+03  0.12500352253E+03 0.  0.
          2    1    1    2  501    0 -0.56117561792E+02 -0.11394005818E+02 -0.35702538493E+03  0.36158834273E+03  0.00000000000E+00 0. -1.
          1    1    1    2  502    0 -0.29473205140E+02 -0.12451448440E+02  0.67055323306E+03  0.67131613027E+03  0.00000000000E+00 0. -1.
         22    1    3    3    0    0  0.71429117549E+02  0.73035327867E+02  0.34623968355E+02  0.10786610744E+03  0.00000000000E+00 0.  1.
         22    1    3    3    0    0  0.14161649382E+02 -0.49189873609E+02  0.19075997102E+02  0.54626821657E+02  0.00000000000E+00 0.  1.
</event>
<event>
 7    1  0.6370239E-006  0.1270413E+03  0.7818608E-02  0.1293227E+00
          2   -1    0    0  502    0  0.00000000000E+00  0.00000000000E+00  0.21109441090E+04  0.21109441090E+04  0.00000000000E+00 0. -1.
          1   -1    0    0  501    0 -0.00000000000E+00 -0.00000000000E+00 -0.51340004398E+03  0.51340004398E+03  0.00000000000E+00 0. -1.
         25    2    1    2    0    0  0.70489320479E+02 -0.25770896140E+02  0.36542866096E+03  0.39344183943E+03  0.12500196548E+03 0.  0.
          2    1    1    2  501    0  0.67152577458E+02  0.18645963366E+02 -0.49420190678E+03  0.49909184052E+03  0.00000000000E+00 0. -1.
          1    1    1    2  502    0 -0.13764189794E+03  0.71249327747E+01  0.17263173109E+04  0.17318104730E+04  0.00000000000E+00 0. -1.
         22    1    3    3    0    0  0.24556438194E+02 -0.15916692621E+02  0.46659423965E+01  0.29633271490E+02  0.00000000000E+00 0.  1.
         22    1    3    3    0    0  0.45932882285E+02 -0.98542035197E+01  0.36076271856E+03  0.36380856794E+03  0.00000000000E+00 0.  1.
</event>
<event>
 7    1  0.6370239E-006  0.1279031E+03  0.7818608E-02  0.1266785E+00
          2   -1    0    0  502    0  0.00000000000E+00  0.00000000000E+00  0.80110243379E+03  0.80110243379E+03  0.00000000000E+00 0. -1.
          1   -1    0    0  501    0 -0.00000000000E+00 -0.00000000000E+00 -0.72513377879E+03  0.72513377879E+03  0.00000000000E+00 0. -1.
         25    2    1    2    0    0  0.34395986176E+02  0.33288690406E+02  0.94688668426E+02  0.16395832331E+03  0.12500066832E+03 0.  0.
          2    1    1    2  501    0 -0.12156993683E+03 -0.51371379970E+02 -0.68118741901E+03  0.69385486093E+03  0.00000000000E+00 0. -1.
          1    1    1    2  502    0  0.87173950653E+02  0.18082689564E+02  0.66246740559E+03  0.66842302833E+03  0.00000000000E+00 0. -1.
         22    1    3    3    0    0  0.58811089089E+02  0.61053219333E+02  0.94546752635E+02  0.12698554337E+03  0.00000000000E+00 0. -1.
         22    1    3    3    0    0 -0.24415102912E+02 -0.27764528928E+02  0.14191579106E+00  0.36972779945E+02  0.00000000000E+00 0. -1.
</event>
<event>
 7    1  0.6370239E-006  0.4702050E+02  0.7818608E-02  0.1527916E+00
          2   -1    0    0  502    0  0.00000000000E+00  0.00000000000E+00  0.36446692101E+03  0.36446692101E+03  0.00000000000E+00 0. -1.
          1   -1    0    0  501    0 -0.00000000000E+00 -0.00000000000E+00 -0.20790248064E+03  0.20790248064E+03  0.00000000000E+00 0. -1.
         25    2    1    2    0    0 -0.29180312614E+01 -0.66180430972E+02 -0.39830774059E+02  0.14696805048E+03  0.12499901179E+03 0.  0.
          2    1    1    2  501    0 -0.15780680639E+02  0.42955589929E+02 -0.10917588103E+03  0.11837899132E+03  0.00000000000E+00 0. -1.
          1    1    1    2  502    0  0.18698711901E+02  0.23224841043E+02  0.30557109546E+03  0.30702235985E+03  0.00000000000E+00 0. -1.
         22    1    3    3    0    0  0.41471802484E+01 -0.11312653066E+02  0.44505016724E+02  0.46107176633E+02  0.00000000000E+00 0.  1.
         22    1    3    3    0    0 -0.70652115098E+01 -0.54867777906E+02 -0.84335790784E+02  0.10086087385E+03  0.00000000000E+00 0.  1.
</event>
<event>
 7    1  0.6370239E-006  0.9907563E+02  0.7818608E-02  0.1366785E+00
          2   -1    0    0  502    0  0.00000000000E+00  0.00000000000E+00  0.57904117551E+03  0.57904117551E+03  0.00000000000E+00 0. -1.
          1   -1    0    0  501    0 -0.00000000000E+00 -0.00000000000E+00 -0.17225175878E+03  0.17225175878E+03  0.00000000000E+00 0. -1.
         25    2    1    2    0    0 -0.69584194048E+02 -0.24985249071E+02 -0.23214429272E+02  0.14707247586E+03  0.12500072279E+03 0.  0.
          2    1    1    2  501    0  0.97342212407E+02  0.62622740102E+02 -0.47003744533E+02  0.12492584158E+03  0.00000000000E+00 0. -1.
          1    1    1    2  502    0 -0.27758018359E+02 -0.37637491030E+02  0.47700759054E+03  0.47929461685E+03  0.00000000000E+00 0. -1.
         22    1    3    3    0    0 -0.89177053555E+02 -0.44026373159E+02 -0.47776731739E+02  0.11033351490E+03  0.00000000000E+00 0. -1.
         22    1    3    3    0    0  0.19592859507E+02  0.19041124088E+02  0.24562302467E+02  0.36738960963E+02  0.00000000000E+00 0. -1.
</event>
<event>
 7    1  0.6370239E-006  0.7052603E+02  0.7818608E-02  0.1451351E+00
          2   -1    0    0  502    0  0.00000000000E+00  0.00000000000E+00  0.12901405156E+03  0.12901405156E+03  0.00000000000E+00 0. -1.
          1   -1    0    0  501    0 -0.00000000000E+00 -0.00000000000E+00 -0.13139712384E+04  0.13139712384E+04  0.00000000000E+00 0. -1.
         25    2    1    2    0    0 -0.36744509954E+02  0.53403398962E+01  0.13499995084E+01  0.13040523319E+03  0.12500009641E+03 0.  0.
          2    1    1    2  501    0  0.70288817717E+02 -0.10302350891E+02 -0.12438027995E+04  0.12458298682E+04  0.00000000000E+00 0. -1.
          1    1    1    2  502    0 -0.33544307763E+02  0.49620109948E+01  0.57495613202E+02  0.66750188568E+02  0.00000000000E+00 0. -1.
         22    1    3    3    0    0 -0.12489014580E+02 -0.12264536322E+02  0.61100988246E+02  0.63558831810E+02  0.00000000000E+00 0. -1.
         22    1    3    3    0    0 -0.24255495375E+02  0.17604876218E+02 -0.59750988738E+02  0.66846401382E+02  0.00000000000E+00 0. -1.
</event>
<event>
 7    1  0.6370239E-006  0.1919651E+03  0.7818608E-02  0.1169159E+00
          2   -1    0    0  502    0  0.00000000000E+00  0.00000000000E+00  0.37698992467E+04  0.37698992467E+04  0.00000000000E+00 0. -1.
          1   -1    0    0  501    0 -0.00000000000E+00 -0.00000000000E+00 -0.98821725762E+03  0.98821725762E+03  0.00000000000E+00 0. -1.
         25    2    1    2    0    0 -0.30228424164E+03 -0.15052865423E+03  0.86764722739E+03  0.93939923952E+03  0.12499832611E+03 0.  0.
          2    1    1    2  501    0  0.12648412581E+03  0.10777928731E+03 -0.94220807373E+03  0.95675005255E+03  0.00000000000E+00 0. -1.
          1    1    1    2  502    0  0.17580011583E+03  0.42749366915E+02  0.28562428354E+04  0.28619672123E+04  0.00000000000E+00 0. -1.
         22    1    3    3    0    0 -0.26129917534E+03 -0.14415664943E+03  0.61743917476E+03  0.68577659127E+03  0.00000000000E+00 0.  1.
         22    1    3    3    0    0 -0.40985066302E+02 -0.63720047963E+01  0.25020805264E+03  0.25362264826E+03  0.00000000000E+00 0.  1.
</event>
<event>
 7    1  0.6370239E-006  0.1654303E+03  0.7818608E-02  0.1300570E+00
          2   -1    0    0  502    0  0.00000000000E+00  0.00000000000E+00  0.29308034389E+03  0.29308034389E+03  0.00000000000E+00 0. -1.
          1   -1    0    0  501    0 -0.00000000000E+00 -0.00000000000E+00 -0.50869661909E+03  0.50869661909E+03  0.00000000000E+00 0. -1.
         25    2    1    2    0    0 -0.16631850841E+03 -0.10663146038E+03  0.60976611142E+02  0.24160956120E+03  0.12499967350E+03 0.  0.
          2    1    1    2  501    0  0.48627496946E+02  0.11639995280E+02 -0.37591576618E+03  0.37922656316E+03  0.00000000000E+00 0. -1.
          1    1    1    2  502    0  0.11769101146E+03  0.94991465099E+02  0.99322879841E+02  0.18094083862E+03  0.00000000000E+00 0. -1.
         22    1    3    3    0    0 -0.25996259433E+02  0.20589953729E+02 -0.16411615053E+02  0.37001254137E+02  0.00000000000E+00 0. -1.
         22    1    3    3    0    0 -0.14032224897E+03 -0.12722141411E+03  0.77388226195E+02  0.20460830706E+03  0.00000000000E+00 0. -1.
</event>
<event>
 7    1  0.6370239E-006  0.5721013E+02  0.7818608E-02  0.1437523E+00
          2   -1    0    0  502    0  0.00000000000E+00  0.00000000000E+00  0.24034248227E+03  0.24034248227E+03  0.00000000000E+00 0. -1.
          1   -1    0    0  501    0 -0.00000000000E+00 -0.00000000000E+00 -0.11724815850E+04  0.11724815850E+04  0.00000000000E+00 0. -1.
         25    2    1    2    0    0  0.18834954992E+02  0.44200052007E+02  0.24525097258E+02  0.13614428733E+03  0.12500154579E+03 0.  0.
          2    1    1    2  501    0 -0.45383211186E+02  0.92788366007E+01 -0.11106026011E+04  0.11115682031E+04  0.00000000000E+00 0. -1.
          1    1    1    2  502    0  0.26548256194E+02 -0.53478888607E+02  0.15393840115E+03  0.16511157677E+03  0.00000000000E+00 0. -1.
         22    1    3    3    0    0 -0.28940694148E+02 -0.24041503197E+02  0.35978079950E+02  0.52057467194E+02  0.00000000000E+00 0. -1.
         22    1    3    3    0    0  0.47775649140E+02  0.68241555204E+02 -0.11452982692E+02  0.84086820132E+02  0.00000000000E+00 0. -1.
</event>
<event>
 7    1  0.6370239E-006  0.6079286E+02  0.7818608E-02  0.1478704E+00
          2   -1    0    0  502    0  0.00000000000E+00  0.00000000000E+00  0.28777715107E+02  0.28777715107E+02  0.00000000000E+00 0. -1.
          1   -1    0    0  501    0 -0.00000000000E+00 -0.00000000000E+00 -0.11130103557E+04  0.11130103557E+04  0.00000000000E+00 0. -1.
         25    2    1    2    0    0 -0.41837397838E+02  0.30615513862E+01 -0.21913382881E+03  0.25574059500E+03  0.12499550412E+03 0.  0.
          2    1    1    2  501    0 -0.28331834465E+02 -0.15499362266E+02 -0.74985460082E+03  0.75054969552E+03  0.00000000000E+00 0. -1.
          1    1    1    2  502    0  0.70169232303E+02  0.12437810880E+02 -0.11524421098E+03  0.13549778030E+03  0.00000000000E+00 0. -1.
         22    1    3    3    0    0  0.18731443818E+02  0.42087974812E+02 -0.14591495107E+03  0.15301450113E+03  0.00000000000E+00 0.  1.
         22    1    3    3    0    0 -0.60568841656E+02 -0.39026423425E+02 -0.73218877742E+02  0.10272609387E+03  0.00000000000E+00 0.  1.
</event>
<event>
 7    1  0.6370239E-006  0.5697661E+02  0.7818608E-02  0.1473690E+00
          2   -1    0    0  502    0  0.00000000000E+00  0.00000000000E+00  0.22705589173E+04  0.22705589173E+04  0.00000000000E+00 0. -1.
          1   -1    0    0  501    0 -0.00000000000E+00 -0.00000000000E+00 -0.74333597258E+03  0.74333597258E+03  0.00000000000E+00 0. -1.
         25    2    1    2    0    0  0.15001683719E+02  0.85117000464E+02  0.86658135954E+03  0.87980540410E+03  0.12499736833E+03 0.  0.
          2    1    1    2  501    0  0.70737407120E+01 -0.34998421234E+02 -0.73575425409E+03  0.73662015293E+03  0.00000000000E+00 0. -1.
          1    1    1    2  502    0 -0.22075424431E+02 -0.50118579230E+02  0.13963958392E+04  0.13974693328E+04  0.00000000000E+00 0. -1.
         22    1    3    3    0    0 -0.48266318028E+02  0.56417691965E+02  0.58904883961E+03  0.59370963347E+03  0.00000000000E+00 0.  1.
         22    1    3    3    0    0  0.63268001747E+02  0.28699308500E+02  0.27753251993E+03  0.28609577063E+03  0.00000000000E+00 0.  1.
</event>
<event>
 7    1  0.6370239E-006  0.6181980E+02  0.7818608E-02  0.1510496E+00
          2   -1    0    0  502    0  0.00000000000E+00  0.00000000000E+00  0.60856633935E+03  0.60856633935E+03  0.00000000000E+00 0. -1.
          1   -1    0    0  501    0 -0.00000000000E+00 -0.00000000000E+00 -0.98086118385E+03  0.98086118385E+03  0.00000000000E+00 0. -1.
         25    2    1    2    0    0 -0.33114946462E+02  0.16765987255E+02  0.24728874295E+03  0.27956185729E+03  0.12500164661E+03 0.  0.
          2    1    1    2  501    0  0.58244799067E+02 -0.20997459781E+02 -0.96325900473E+03  0.96524673536E+03  0.00000000000E+00 0. -1.
          1    1    1    2  502    0 -0.25129852605E+02  0.42314725255E+01  0.34367541728E+03  0.34461893055E+03  0.00000000000E+00 0. -1.
         22    1    3    3    0    0  0.35067769456E+02  0.34262418827E+02  0.49714777815E+02  0.69822782326E+02  0.00000000000E+00 0.  1.
         22    1    3    3    0    0 -0.68182715918E+02 -0.17496431572E+02  0.19757396514E+03  0.20973907497E+03  0.00000000000E+00 0.  1.
</event>
<event>
 7    1  0.6370239E-006  0.1682183E+03  0.7818608E-02  0.1308297E+00
          2   -1    0    0  502    0  0.00000000000E+00  0.00000000000E+00  0.16427377714E+04  0.16427377714E+04  0.00000000000E+00 0. -1.
          1   -1    0    0  501    0 -0.00000000000E+00 -0.00000000000E+00 -0.14988428999E+04  0.14988428999E+04  0.00000000000E+00 0. -1.
         25    2    1    2    0    0 -0.13080308069E+03 -0.92227586248E+02 -0.39104297841E+03  0.44062982166E+03  0.12499862077E+03 0.  0.
          2    1    1    2  501    0  0.24759188225E+02 -0.38547957794E+02 -0.10781385121E+04  0.10791114927E+04  0.00000000000E+00 0. -1.
          1    1    1    2  502    0  0.10604389247E+03  0.13077554404E+03  0.16130763620E+04  0.16218393569E+04  0.00000000000E+00 0. -1.
         22    1    3    3    0    0 -0.13398058697E+03 -0.10774312861E+03 -0.28079047582E+03  0.32924560856E+03  0.00000000000E+00 0. -1.
         22    1    3    3    0    0  0.31775062764E+01  0.15515542365E+02 -0.11025250259E+03  0.11138421310E+03  0.00000000000E+00 0. -1.
</event>
<event>
 7    1  0.6370239E-006  0.6755504E+02  0.7818608E-02  0.1371180E+00
          2   -1    0    0  502    0  0.00000000000E+00  0.00000000000E+00  0.33065283241E+04  0.33065283241E+04  0.00000000000E+00 0. -1.
          1   -1    0    0  501    0 -0.00000000000E+00 -0.00000000000E+00 -0.89137155264E+03  0.89137155264E+03  0.00000000000E+00 0. -1.
         25    2    1    2    0    0 -0.32869514341E+02 -0.50746051704E+02  0.11139444291E+03  0.17801351979E+03  0.12499809831E+03 0.  0.
          2    1    1    2  501    0 -0.34891815809E+02  0.56179701058E+02 -0.85642167339E+03  0.85897129188E+03  0.00000000000E+00 0. -1.
          1    1    1    2  502    0  0.67761330151E+02 -0.54336493540E+01  0.31601840019E+04  0.31609150650E+04  0.00000000000E+00 0. -1.
         22    1    3    3    0    0  0.54487770899E+01 -0.46661714433E+02 -0.12211519887E+02  0.48539942146E+02  0.00000000000E+00 0. -1.
         22    1    3    3    0    0 -0.38318291431E+02 -0.40843372715E+01  0.12360596279E+03  0.12947357764E+03  0.00000000000E+00 0. -1.
</event>
<event>
 7    1  0.6370239E-006  0.9139309E+02  0.7818608E-02  0.1429010E+00
          2   -1    0    0  502    0  0.00000000000E+00  0.00000000000E+00  0.23776516576E+03  0.23776516576E+03  0.00000000000E+00 0. -1.
          1   -1    0    0  501    0 -0.00000000000E+00 -0.00000000000E+00 -0.12233500067E+03  0.12233500067E+03  0.00000000000E+00 0. -1.
         25    2    1    2    0    0 -0.72567555054E+02  0.51458362664E+02  0.30109220463E+02  0.15636489505E+03  0.12501760722E+03 0.  0.
          2    1    1    2  501    0  0.90200613043E+02 -0.26058585036E+02 -0.18250632898E+02  0.95646672961E+02  0.00000000000E+00 0. -1.
          1    1    1    2  502    0 -0.17633057989E+02 -0.25399777629E+02  0.10357157752E+03  0.10808859842E+03  0.00000000000E+00 0. -1.
         22    1    3    3    0    0 -0.40885690711E+02  0.87029626732E+02  0.45402867272E+02  0.10633539387E+03  0.00000000000E+00 0.  1.
         22    1    3    3    0    0 -0.31681864343E+02 -0.35571264067E+02 -0.15293646809E+02  0.50029501180E+02  0.00000000000E+00 0.  1.
</event>
<event>
 7    1  0.6370239E-006  0.9174785E+02  0.7818608E-02  0.1308622E+00
          2   -1    0    0  502    0  0.00000000000E+00  0.00000000000E+00  0.67279930277E+02  0.67279930277E+02  0.00000000000E+00 0. -1.
          1   -1    0    0  501    0 -0.00000000000E+00 -0.00000000000E+00 -0.11402244401E+04  0.11402244401E+04  0.00000000000E+00 0. -1.
         25    2    1    2    0    0  0.63102955701E+01 -0.32684054985E+01 -0.34999706088E+03  0.37171644194E+03  0.12499867313E+03 0.  0.
          2    1    1    2  501    0 -0.31219107468E+02 -0.86273031814E+02 -0.73621007478E+03  0.74190494196E+03  0.00000000000E+00 0. -1.
          1    1    1    2  502    0  0.24908811898E+02  0.89541437313E+02  0.13262625833E+02  0.93882986479E+02  0.00000000000E+00 0. -1.
         22    1    3    3    0    0  0.38187167485E+02  0.14616596286E+02 -0.32470089123E+03  0.32726529516E+03  0.00000000000E+00 0. -1.
         22    1    3    3    0    0 -0.31876871915E+02 -0.17885001784E+02 -0.25296169641E+02  0.44451146784E+02  0.00000000000E+00 0. -1.
</event>
<event>
 7    1  0.6370239E-006  0.3180560E+02  0.7818608E-02  0.1604054E+00
          2   -1    0    0  502    0  0.00000000000E+00  0.00000000000E+00  0.14660047875E+04  0.14660047875E+04  0.00000000000E+00 0. -1.
          1   -1    0    0  501    0 -0.00000000000E+00 -0.00000000000E+00 -0.85579032987E+03  0.85579032987E+03  0.00000000000E+00 0. -1.
         25    2    1    2    0    0 -0.16829169630E+01 -0.25057104937E+02  0.59760746977E+03  0.61105478236E+03  0.12499027326E+03 0.  0.
          2    1    1    2  501    0  0.26933445194E+02  0.44629167154E+01 -0.84853902321E+03  0.84897809277E+03  0.00000000000E+00 0. -1.
          1    1    1    2  502    0 -0.25250528231E+02  0.20594188221E+02  0.86114601103E+03  0.86176224220E+03  0.00000000000E+00 0. -1.
         22    1    3    3    0    0 -0.23992376262E+02 -0.52291390239E+02  0.54327898002E+03  0.54631682543E+03  0.00000000000E+00 0.  1.
         22    1    3    3    0    0  0.22309459299E+02  0.27234285302E+02  0.54328489748E+02  0.64737956937E+02  0.00000000000E+00 0.  1.
</event>
<event>
 7    1  0.6370239E-006  0.1064978E+03  0.7818608E-02  0.1272620E+00
          2   -1    0    0  502    0  0.00000000000E+00  0.00000000000E+00  0.23282812552E+04  0.23282812552E+04  0.00000000000E+00 0. -1.
          1   -1    0    0  501    0 -0.00000000000E+00 -0.00000000000E+00 -0.37708632809E+03  0.37708632809E+03  0.00000000000E+00 0. -1.
         25    2    1    2    0    0  0.11579886610E+03  0.12003849445E+03  0.23653375658E+02  0.20976950677E+03  0.12500058500E+03 0.  0.
          2    1    1    2  501    0 -0.99913638626E+02 -0.15150215674E+02 -0.27372150324E+03  0.29178026930E+03  0.00000000000E+00 0. -1.
          1    1    1    2  502    0 -0.15885227475E+02 -0.10488827878E+03  0.22012630547E+04  0.22038178072E+04  0.00000000000E+00 0. -1.
         22    1    3    3    0    0  0.11666143439E+03  0.36536883837E+02 -0.24658243004E+01  0.12227393199E+03  0.00000000000E+00 0. -1.
         22    1    3    3    0    0 -0.86256829199E+00  0.83501610616E+02  0.26119199958E+02  0.87495574779E+02  0.00000000000E+00 0. -1.
</event>
<event>
 7    1  0.6370239E-006  0.1397647E+03  0.7818608E-02  0.1345743E+00
          2   -1    0    0  502    0  0.00000000000E+00  0.00000000000E+00  0.19032372564E+04  0.19032372564E+04  0.00000000000E+00 0. -1.
          1   -1    0    0  501    0 -0.00000000000E+00 -0.00000000000E+00 -0.15955329917E+03  0.15955329917E+03  0.00000000000E+00 0. -1.
         25    2    1    2    0    0  0.10240131974E+03 -0.10019096872E+03  0.10485260093E+04  0.10656246693E+04  0.12499953312E+03 0.  0.
          2    1    1    2  501    0 -0.12305216840E+03  0.66397761136E+02 -0.11805093090E+03  0.18299322697E+03  0.00000000000E+00 0. -1.
          1    1    1    2  502    0  0.20650848666E+02  0.33793207580E+02  0.81320887887E+03  0.81417265927E+03  0.00000000000E+00 0. -1.
         22    1    3    3    0    0  0.54794782582E+02 -0.57887147035E+02  0.20895546697E+03  0.22364207378E+03  0.00000000000E+00 0. -1.
         22    1    3    3    0    0  0.47606537156E+02 -0.42303821681E+02  0.83957054230E+03  0.84198259555E+03  0.00000000000E+00 0. -1.
</event>
<event>
 7    1  0.6370239E-006  0.4331082E+02  0.7818608E-02  0.1533536E+00
          2   -1    0    0  502    0  0.00000000000E+00  0.00000000000E+00  0.22298577693E+03  0.22298577693E+03  0.00000000000E+00 0. -1.
          1   -1    0    0  501    0 -0.00000000000E+00 -0.00000000000E+00 -0.16762825809E+03  0.16762825809E+03  0.00000000000E+00 0. -1.
         25    2    1    2    0    0 -0.35203792028E+02 -0.62828041725E+02 -0.62364124752E+01  0.14439756232E+03  0.12500037346E+03 0.  0.
          2    1    1    2  501    0  0.87045623700E+01  0.29954472262E+02 -0.86640901833E+02  0.92085208828E+02  0.00000000000E+00 0. -1.
          1    1    1    2  502    0  0.26499229658E+02  0.32873569463E+02  0.14823483315E+03  0.15413126386E+03  0.00000000000E+00 0. -1.
         22    1    3    3    0    0 -0.51904580996E+01 -0.96363038790E+02 -0.17329023354E+02  0.98046270457E+02  0.00000000000E+00 0. -1.
         22    1    3    3    0    0 -0.30013333928E+02  0.33534997066E+02  0.11092610879E+02  0.46351291867E+02  0.00000000000E+00 0. -1.
</event>
<event>
 7    1  0.6370239E-006  0.1635259E+03  0.7818608E-02  0.1289829E+00
          2   -1    0    0  502    0  0.00000000000E+00  0.00000000000E+00  0.12103133859E+04  0.12103133859E+04  0.00000000000E+00 0. -1.
          1   -1    0    0  501    0 -0.00000000000E+00 -0.00000000000E+00 -0.26527324173E+03  0.26527324173E+03  0.00000000000E+00 0. -1.
         25    2    1    2    0    0  0.12781849120E+03 -0.71248475326E+02  0.25911383142E+03  0.32276790376E+03  0.12500092053E+03 0.  0.
          2    1    1    2  501    0 -0.14007787360E+02 -0.54106498256E+02 -0.22216030317E+03  0.22908280504E+03  0.00000000000E+00 0. -1.
          1    1    1    2  502    0 -0.11381070384E+03  0.12535497358E+03  0.90808661588E+03  0.92373591879E+03  0.00000000000E+00 0. -1.
         22    1    3    3    0    0  0.13765333489E+03 -0.26101104392E+02  0.22605923077E+03  0.26595579346E+03  0.00000000000E+00 0. -1.
         22    1    3    3    0    0 -0.98348436884E+01 -0.45147370934E+02  0.33054600656E+02  0.56812110304E+02  0.00000000000E+00 0. -1.
</event>
<event>
 7    1  0.6370239E-006  0.9391602E+02  0.7818608E-02  0.1335895E+00
          2   -1    0    0  502    0  0.00000000000E+00  0.00000000000E+00  0.22274481543E+04  0.22274481543E+04  0.00000000000E+00 0. -1.
          1   -1    0    0  501    0 -0.00000000000E+00 -0.00000000000E+00 -0.82497436662E+03  0.82497436662E+03  0.00000000000E+00 0. -1.
         25    2    1    2    0    0  0.10171876146E+02 -0.10850059075E+03  0.18129307412E+03  0.24569963924E+03  0.12500115496E+03 0.  0.
          2    1    1    2  501    0  0.47784663448E+02  0.80932289739E+02 -0.78947165881E+03  0.79504648270E+03  0.00000000000E+00 0. -1.
          1    1    1    2  502    0 -0.57956539594E+02  0.27568301011E+02  0.20106523724E+04  0.20116763990E+04  0.00000000000E+00 0. -1.
         22    1    3    3    0    0 -0.42858331264E+02 -0.69551350389E+02  0.15427602688E+03  0.17457181722E+03  0.00000000000E+00 0.  1.
         22    1    3    3    0    0  0.53030207411E+02 -0.38949240360E+02  0.27017047242E+02  0.71127822013E+02  0.00000000000E+00 0.  1.
</event>
<event>
 7    1  0.6370239E-006  0.6474929E+02  0.7818608E-02  0.1479388E+00
          2   -1    0    0  502    0  0.00000000000E+00  0.00000000000E+00  0.26676469504E+04  0.26676469504E+04  0.00000000000E+00 0. -1.
          1   -1    0    0  501    0 -0.00000000000E+00 -0.00000000000E+00 -0.15549139277E+03  0.15549139277E+03  0.00000000000E+00 0. -1.
         25    2    1    2    0    0  0.48842973709E+02  0.33168291157E+02 -0.15257427578E+02  0.13907518496E+03  0.12499338525E+03 0.  0.
          2    1    1    2  501    0  0.15557450960E+02 -0.25854807277E+02 -0.75000367898E+02  0.80842813686E+02  0.00000000000E+00 0. -1.
          1    1    1    2  502    0 -0.64400424669E+02 -0.73134838802E+01  0.26024133531E+04  0.26032203445E+04  0.00000000000E+00 0. -1.
         22    1    3    3    0    0  0.68523014972E+02  0.17822818284E+02 -0.56693773495E+02  0.90704136541E+02  0.00000000000E+00 0. -1.
         22    1    3    3    0    0 -0.19680041263E+02  0.15345472874E+02  0.41436345917E+02  0.48371048415E+02  0.00000000000E+00 0. -1.
</event>
<event>
 7    1  0.6370239E-006  0.1637887E+03  0.7818608E-02  0.1320880E+00
          2   -1    0    0  502    0  0.00000000000E+00  0.00000000000E+00  0.32561005932E+03  0.32561005932E+03  0.00000000000E+00 0. -1.
          1   -1    0    0  501    0 -0.00000000000E+00 -0.00000000000E+00 -0.56061795879E+03  0.56061795879E+03  0.00000000000E+00 0. -1.
         25    2    1    2    0    0  0.11568276028E+03  0.96531732059E+02 -0.18841742500E+03  0.27171110444E+03  0.12499968765E+03 0.  0.
          2    1    1    2  501    0  0.33721273599E+02 -0.25055217880E+02 -0.30484031849E+03  0.30772147798E+03  0.00000000000E+00 0. -1.
          1    1    1    2  502    0 -0.14940403388E+03 -0.71476514179E+02  0.25824984402E+03  0.30679543568E+03  0.00000000000E+00 0. -1.
         22    1    3    3    0    0  0.13727450115E+03  0.79834507342E+02 -0.18561030681E+03  0.24427243648E+03  0.00000000000E+00 0. -1.
         22    1    3    3    0    0 -0.21591740872E+02  0.16697224716E+02 -0.28071181924E+01  0.27438667964E+02  0.00000000000E+00 0. -1.
</event>
<event>
 7    1  0.6370239E-006  0.2880253E+02  0.7818608E-02  0.1627685E+00
          2   -1    0    0  502    0  0.00000000000E+00  0.00000000000E+00  0.12363376046E+04  0.12363376046E+04  0.00000000000E+00 0. -1.
          1   -1    0    0  501    0 -0.00000000000E+00 -0.00000000000E+00 -0.59295693220E+02  0.59295693220E+02  0.00000000000E+00 0. -1.
         25    2    1    2    0    0 -0.29894694699E+02 -0.32296372294E+02  0.36447039612E+03  0.38781458197E+03  0.12499892763E+03 0.  0.
          2    1    1    2  501    0  0.39527644996E+01  0.28443350937E+02 -0.43075347638E+02  0.51770011917E+02  0.00000000000E+00 0. -1.
          1    1    1    2  502    0  0.25941930199E+02  0.38530213562E+01  0.85564686286E+03  0.85604870389E+03  0.00000000000E+00 0. -1.
         22    1    3    3    0    0 -0.45250610920E+02  0.36691043144E+02  0.12100542044E+03  0.13429877964E+03  0.00000000000E+00 0. -1.
         22    1    3    3    0    0  0.15355916222E+02 -0.68987415438E+02  0.24346497568E+03  0.25351580234E+03  0.00000000000E+00 0. -1.
</event>
<event>
 7    1  0.6370239E-006  0.2093086E+03  0.7818608E-02  0.1308741E+00
          2   -1    0    0  502    0  0.00000000000E+00  0.00000000000E+00  0.24232638791E+04  0.24232638791E+04  0.00000000000E+00 0. -1.
          1   -1    0    0  501    0 -0.00000000000E+00 -0.00000000000E+00 -0.45702880671E+03  0.45702880671E+03  0.00000000000E+00 0. -1.
         25    2    1    2    0    0 -0.13529520084E+03  0.20157253261E+03  0.43936954049E+03  0.51730649196E+03  0.12499654494E+03 0.  0.
          2    1    1    2  501    0  0.10776891584E+03 -0.17734150769E+03 -0.39212199603E+03  0.44364829464E+03  0.00000000000E+00 0. -1.
          1    1    1    2  502    0  0.27526285004E+02 -0.24231024920E+02  0.19189875279E+04  0.19193378992E+04  0.00000000000E+00 0. -1.
         22    1    3    3    0    0 -0.40443290454E+02 -0.63484702688E+01  0.10109158493E+03  0.10906636219E+03  0.00000000000E+00 0. -1.
         22    1    3    3    0    0 -0.94851910386E+02  0.20792100288E+03  0.33827795556E+03  0.40824012977E+03  0.00000000000E+00 0. -1.
</event>
<event>
 7    1  0.6370239E-006  0.1510932E+03  0.7818608E-02  0.1267591E+00
          2   -1    0    0  502    0  0.00000000000E+00  0.00000000000E+00  0.68999156265E+03  0.68999156265E+03  0.00000000000E+00 0. -1.
          1   -1    0    0  501    0 -0.00000000000E+00 -0.00000000000E+00 -0.25956904441E+03  0.25956904441E+03  0.00000000000E+00 0. -1.
         25    2    1    2    0    0 -0.11686711159E+03 -0.93601353337E+02  0.19985685097E+03  0.27926107087E+03  0.12499939882E+03 0.  0.
          2    1    1    2  501    0  0.55522710850E+02 -0.50088826634E+02 -0.19932940992E+03  0.21289404791E+03  0.00000000000E+00 0. -1.
          1    1    1    2  502    0  0.61344400741E+02  0.14369017997E+03  0.42989507719E+03  0.45740548829E+03  0.00000000000E+00 0. -1.
         22    1    3    3    0    0  0.24906455977E+02 -0.21525292607E+00  0.20063243798E+02  0.31982989774E+02  0.00000000000E+00 0.  1.
         22    1    3    3    0    0 -0.14177356757E+03 -0.93386100411E+02  0.17979360717E+03  0.24727808110E+03  0.00000000000E+00 0.  1.
</event>
<event>
 7    1  0.6370239E-006  0.1296315E+03  0.7818608E-02  0.1290125E+00
          2   -1    0    0  502    0  0.00000000000E+00  0.00000000000E+00  0.37371556307E+03  0.37371556307E+03  0.00000000000E+00 0. -1.
          1   -1    0    0  501    0 -0.00000000000E+00 -0.00000000000E+00 -0.62754244971E+03  0.62754244971E+03  0.00000000000E+00 0. -1.
         25    2    1    2    0    0  0.65091257045E+02 -0.48688435861E+02 -0.42634115859E+02  0.15508005992E+03  0.12499888647E+03 0.  0.
          2    1    1    2  501    0  0.48727748904E+01 -0.70139555642E+02 -0.51119197333E+03  0.51600439416E+03  0.00000000000E+00 0. -1.
          1    1    1    2  502    0 -0.69964031936E+02  0.11882799150E+03  0.29999920255E+03  0.33017355869E+03  0.00000000000E+00 0. -1.
         22    1    3    3    0    0  0.28947807872E+02 -0.89783127210E+02 -0.25195921871E+02  0.97641282208E+02  0.00000000000E+00 0. -1.
         22    1    3    3    0    0  0.36143449173E+02  0.41094691349E+02 -0.17438193987E+02  0.57438777710E+02  0.00000000000E+00 0. -1.
</event>
<event>
 7    1  0.6370239E-006  0.7379978E+02  0.7818608E-02  0.1501258E+00
          2   -1    0    0  502    0  0.00000000000E+00  0.00000000000E+00  0.48930091477E+03  0.48930091477E+03  0.00000000000E+00 0. -1.
          1   -1    0    0  501    0 -0.00000000000E+00 -0.00000000000E+00 -0.18276373417E+03  0.18276373417E+03  0.00000000000E+00 0. -1.
         25    2    1    2    0    0  0.32068550836E+02 -0.51764557876E+02  0.17029077694E+03  0.21984633847E+03  0.12500200968E+03 0.  0.
          2    1    1    2  501    0 -0.54766221900E+02  0.50476135995E+02 -0.14873007546E+03  0.16633645034E+03  0.00000000000E+00 0. -1.
          1    1    1    2  502    0  0.22697671064E+02  0.12884218808E+01  0.28497647911E+03  0.28588186013E+03  0.00000000000E+00 0. -1.
         22    1    3    3    0    0 -0.30430529344E+02 -0.56647210410E+02  0.13080955154E+03  0.14576029067E+03  0.00000000000E+00 0. -1.
         22    1    3    3    0    0  0.62499080180E+02  0.48826525340E+01  0.39481225403E+02  0.74086047798E+02  0.00000000000E+00 0. -1.
</event>
<event>
 7    1  0.6370239E-006  0.1337069E+03  0.7818608E-02  0.1303717E+00
          2   -1    0    0  502    0  0.00000000000E+00  0.00000000000E+00  0.12893261493E+04  0.12893261493E+04  0.00000000000E+00 0. -1.
          1   -1    0    0  501    0 -0.00000000000E+00 -0.00000000000E+00 -0.79889047170E+03  0.79889047170E+03  0.00000000000E+00 0. -1.
         25    2    1    2    0    0  0.12226335859E+03  0.55924693174E+02 -0.22405864965E+02  0.18493648928E+03  0.12499432836E+03 0.  0.
          2    1    1    2  501    0 -0.13461706901E+03  0.28934171470E+01 -0.68794109005E+03  0.70099434413E+03  0.00000000000E+00 0. -1.
          1    1    1    2  502    0  0.12353710421E+02 -0.58818110321E+02  0.12007826326E+04  0.12022857876E+04  0.00000000000E+00 0. -1.
         22    1    3    3    0    0  0.80973109806E+02  0.17992910702E+02 -0.72184500042E+02  0.10995904416E+03  0.00000000000E+00 0. -1.
         22    1    3    3    0    0  0.41290248786E+02  0.37931782471E+02  0.49778635077E+02  0.74977445118E+02  0.00000000000E+00 0. -1.
</event>
<event>
 7    1  0.6370239E-006  0.5382938E+02  0.7818608E-02  0.1452325E+00
          2   -1    0    0  502    0  0.00000000000E+00  0.00000000000E+00  0.19445446092E+03  0.19445446092E+03  0.00000000000E+00 0. -1.
          1   -1    0    0  501    0 -0.00000000000E+00 -0.00000000000E+00 -0.87437357762E+03  0.87437357762E+03  0.00000000000E+00 0. -1.
         25    2    1    2    0    0  0.56042843799E+01  0.13799388355E+02 -0.87714296074E+02  0.15342653087E+03  0.12499628601E+03 0.  0.
          2    1    1    2  501    0 -0.17971027024E+02  0.40283654803E+02 -0.74837285757E+03  0.74967170455E+03  0.00000000000E+00 0. -1.
          1    1    1    2  502    0  0.12366742644E+02 -0.54083043158E+02  0.15616803695E+03  0.16572980313E+03  0.00000000000E+00 0. -1.
         22    1    3    3    0    0  0.38134565607E+02  0.57721211885E+02 -0.62508494235E+02  0.93237842355E+02  0.00000000000E+00 0. -1.
         22    1    3    3    0    0 -0.32530281227E+02 -0.43921823530E+02 -0.25205801839E+02  0.60188688516E+02  0.00000000000E+00 0. -1.
</event>
<event>
 7    1  0.6370239E-006  0.7236807E+02  0.7818608E-02  0.1384153E+00
          2   -1    0    0  502    0  0.00000000000E+00  0.00000000000E+00  0.31373541043E+03  0.31373541043E+03  0.00000000000E+00 0. -1.
          1   -1    0    0  501    0 -0.00000000000E+00 -0.00000000000E+00 -0.13530492845E+04  0.13530492845E+04  0.00000000000E+00 0. -1.
         25    2    1    2    0    0  0.55410821777E+02 -0.10661026870E+03 -0.25235357389E+03  0.30617510749E+03  0.12499904653E+03 0.  0.
          2    1    1    2  501    0 -0.42112087355E+02  0.36174780095E+02 -0.10685747282E+04  0.10700158841E+04  0.00000000000E+00 0. -1.
          1    1    1    2  502    0 -0.13298734422E+02  0.70435488603E+02  0.28161442795E+03  0.29059370334E+03  0.00000000000E+00 0. -1.
         22    1    3    3    0    0  0.64812820183E+02 -0.12882501181E+03 -0.18457417805E+03  0.23423110923E+03  0.00000000000E+00 0.  1.
         22    1    3    3    0    0 -0.94019984063E+01  0.22214743117E+02 -0.67779395839E+02  0.71943998263E+02  0.00000000000E+00 0.  1.
</event>
<event>
 7    1  0.6370239E-006  0.8405932E+02  0.7818608E-02  0.1454479E+00
          2   -1    0    0  502    0  0.00000000000E+00  0.00000000000E+00  0.26142692254E+03  0.26142692254E+03  0.00000000000E+00 0. -1.
          1   -1    0    0  501    0 -0.00000000000E+00 -0.00000000000E+00 -0.84801939749E+03  0.84801939749E+03  0.00000000000E+00 0. -1.
         25    2    1    2    0    0 -0.99847921829E+02 -0.21641233892E+02 -0.15081099165E+03  0.22092232134E+03  0.12499906547E+03 0.  0.
          2    1    1    2  501    0  0.16442195981E+02  0.22421916081E+02 -0.65416407637E+03  0.65475470746E+03  0.00000000000E+00 0. -1.
          1    1    1    2  502    0  0.83405725848E+02 -0.78068218991E+00  0.21838259306E+03  0.23376929123E+03  0.00000000000E+00 0. -1.
         22    1    3    3    0    0 -0.10851055227E+03 -0.23299382785E+02 -0.53488038625E+02  0.12320053355E+03  0.00000000000E+00 0. -1.
         22    1    3    3    0    0  0.86626304367E+01  0.16581488937E+01 -0.97322953026E+02  0.97721787793E+02  0.00000000000E+00 0. -1.
</event>
<event>
 7    1  0.6370239E-006  0.6047236E+02  0.7818608E-02  0.1446541E+00
          2   -1    0    0  502    0  0.00000000000E+00  0.00000000000E+00  0.39225437318E+03  0.39225437318E+03  0.00000000000E+00 0. -1.
          1   -1    0    0  501    0 -0.00000000000E+00 -0.00000000000E+00 -0.23546832558E+03  0.23546832558E+03  0.00000000000E+00 0. -1.
         25    2    1    2    0    0 -0.13831798107E+02  0.21704423527E+02  0.22655878465E+03  0.26003615234E+03  0.12501006752E+03 0.  0.
          2    1    1    2  501    0  0.54301159933E+02 -0.28124268552E+02 -0.21149564841E+03  0.22015903285E+03  0.00000000000E+00 0. -1.
          1    1    1    2  502    0 -0.40469361826E+02  0.64198450252E+01  0.14172291136E+03  0.14752751357E+03  0.00000000000E+00 0. -1.
         22    1    3    3    0    0  0.27458193735E+02  0.61632195700E+02  0.95368344072E+02  0.11682294724E+03  0.00000000000E+00 0. -1.
         22    1    3    3    0    0 -0.41289991842E+02 -0.39927772173E+02  0.13119044058E+03  0.14321320510E+03  0.00000000000E+00 0. -1.
</event>
<event>
 7    1  0.6370239E-006  0.1714174E+03  0.7818608E-02  0.1391138E+00
          2   -1    0    0  502    0  0.00000000000E+00  0.00000000000E+00  0.57283931277E+03  0.57283931277E+03  0.00000000000E+00 0. -1.
          1   -1    0    0  501    0 -0.00000000000E+00 -0.00000000000E+00 -0.82464080243E+03  0.82464080243E+03  0.00000000000E+00 0. -1.
         25    2    1    2    0    0  0.20840151622E+02 -0.16308317459E+03  0.18295785247E+03  0.27591581580E+03  0.12500211147E+03 0.  0.
          2    1    1    2  501    0 -0.45480110880E+00  0.17175698147E+03 -0.76831221462E+03  0.78727652490E+03  0.00000000000E+00 0. -1.
          1    1    1    2  502    0 -0.20385350513E+02 -0.86738068810E+01  0.33355287248E+03  0.33428777451E+03  0.00000000000E+00 0. -1.
         22    1    3    3    0    0 -0.78188868005E+01 -0.27755047536E+02 -0.16471269694E+02  0.33208137254E+02  0.00000000000E+00 0.  1.
         22    1    3    3    0    0  0.28659038422E+02 -0.13532812705E+03  0.19942912217E+03  0.24270767854E+03  0.00000000000E+00 0.  1.
</event>
<event>
 7    1  0.6370239E-006  0.9282257E+02  0.7818608E-02  0.1315286E+00
          2   -1    0    0  502    0  0.00000000000E+00  0.00000000000E+00  0.74512442567E+03  0.74512442567E+03  0.00000000000E+00 0. -1.
          1   -1    0    0  501    0 -0.00000000000E+00 -0.00000000000E+00 -0.60502474452E+02  0.60502474452E+02  0.00000000000E+00 0. -1.
         25    2    1    2    0    0 -0.13642181628E+03  0.53272435943E+02  0.31971466060E+03  0.37321737428E+03  0.12499951948E+03 0.  0.
          2    1    1    2  501    0  0.58909757654E+02 -0.61425064545E+02  0.32687005721E+02  0.91169284544E+02  0.00000000000E+00 0. -1.
          1    1    1    2  502    0  0.77512058627E+02  0.81526286021E+01  0.33222028490E+03  0.34124024130E+03  0.00000000000E+00 0. -1.
         22    1    3    3    0    0 -0.13102781506E+03  0.17216817546E+02  0.15124227481E+03  0.20084554467E+03  0.00000000000E+00 0. -1.
         22    1    3    3    0    0 -0.53940012225E+01  0.36055618397E+02  0.16847238579E+03  0.17237182960E+03  0.00000000000E+00 0. -1.
</event>
<event>
 7    1  0.6370239E-006  0.1074544E+03  0.7818608E-02  0.1373137E+00
          2   -1    0    0  502    0  0.00000000000E+00  0.00000000000E+00  0.12972960255E+03  0.12972960255E+03  0.00000000000E+00 0. -1.
          1   -1    0    0  501    0 -0.00000000000E+00 -0.00000000000E+00 -0.72590253538E+03  0.72590253538E+03  0.00000000000E+00 0. -1.
         25    2    1    2    0    0  0.63210517227E+02  0.28069555121E+02  0.45517366387E+02  0.14991763310E+03  0.12497998504E+03 0.  0.
          2    1    1    2  501    0 -0.95221752333E+02 -0.53544659470E+02 -0.65394549258E+03  0.66300748106E+03  0.00000000000E+00 0. -1.
          1    1    1    2  502    0  0.32011235106E+02  0.25475104349E+02  0.12255193370E+02  0.42707023768E+02  0.00000000000E+00 0. -1.
         22    1    3    3    0    0  0.23161689649E+02  0.85232944245E+01  0.86146829493E+02  0.89612424624E+02  0.00000000000E+00 0. -1.
         22    1    3    3    0    0  0.40048827578E+02  0.19546260697E+02 -0.40629463107E+02  0.60305208481E+02  0.00000000000E+00 0. -1.
</event>
<event>
 7    1  0.7372450E-006  0.6811679E+02  0.7818608E-02  0.1445162E+00
          2   -1    0    0  502    0  0.00000000000E+00  0.00000000000E+00  0.17636529226E+04  0.17636529226E+04  0.00000000000E+00 0. -1.
          1   -1    0    0  501    0 -0.00000000000E+00 -0.00000000000E+00 -0.55469759258E+03  0.55469759258E+03  0.00000000000E+00 0. -1.
         25    2    1    2    0    0 -0.13319023287E+02  0.86845435790E+02 -0.16288006663E+03  0.22332654827E+03  0.12500121981E+03 0.  0.
          2    1    1    2  501    0  0.30225281045E+02 -0.20905522632E+02 -0.35999009413E+03  0.36186112856E+03  0.00000000000E+00 0. -1.
          1    1    1    2  502    0 -0.16906257759E+02 -0.65939913158E+02  0.17318254908E+04  0.17331628384E+04  0.00000000000E+00 0. -1.
         22    1    3    3    0    0  0.53889824204E+01  0.11189398082E+03 -0.88901843659E+02  0.14301343252E+03  0.00000000000E+00 0.  1.
         22    1    3    3    0    0 -0.18708005707E+02 -0.25048545034E+02 -0.73978222975E+02  0.80313115743E+02  0.00000000000E+00 0.  1.
</event>
<event>
 7    1  0.6370239E-006  0.6145173E+02  0.7818608E-02  0.1427781E+00
          2   -1    0    0  502    0  0.00000000000E+00  0.00000000000E+00  0.49291710291E+03  0.49291710291E+03  0.00000000000E+00 0. -1.
          1   -1    0    0  501    0 -0.00000000000E+00 -0.00000000000E+00 -0.87886632998E+02  0.87886632998E+02  0.00000000000E+00 0. -1.
         25    2    1    2    0    0  0.17993375680E+02  0.59779050626E+02  0.19123160900E+03  0.23683668458E+03  0.12499916167E+03 0.  0.
          2    1    1    2  501    0 -0.54366725508E+02 -0.30942859240E+02 -0.47519877413E+02  0.78557877579E+02  0.00000000000E+00 0. -1.
          1    1    1    2  502    0  0.36373349828E+02 -0.28836191387E+02  0.26131873832E+03  0.26540917375E+03  0.00000000000E+00 0. -1.
         22    1    3    3    0    0  0.69275040290E+02  0.54547832166E+02  0.12035562799E+03  0.14919776939E+03  0.00000000000E+00 0.  1.
         22    1    3    3    0    0 -0.51281664611E+02  0.52312184609E+01  0.70875981010E+02  0.87638915192E+02  0.00000000000E+00 0.  1.
</event>
<event>
 7    1  0.6370239E-006  0.1185625E+03  0.7818608E-02  0.1268813E+00
          2   -1    0    0  502    0  0.00000000000E+00  0.00000000000E+00  0.21396570769E+04  0.21396570769E+04  0.00000000000E+00 0. -1.
          1   -1    0    0  501    0 -0.00000000000E+00 -0.00000000000E+00 -0.48871788061E+03  0.48871788061E+03  0.00000000000E+00 0. -1.
         25    2    1    2    0    0  0.53132849333E+02  0.18574077039E+03  0.50210902723E+03  0.55232429017E+03  0.12500365124E+03 0.  0.
          2    1    1    2  501    0  0.12580753944E+02 -0.93328213394E+02 -0.45680769356E+03  0.46641365726E+03  0.00000000000E+00 0. -1.
          1    1    1    2  502    0 -0.65713603277E+02 -0.92412556992E+02  0.16056378626E+04  0.16096370100E+04  0.00000000000E+00 0. -1.
         22    1    3    3    0    0  0.47738509853E+02  0.20480002410E+03  0.46012148916E+03  0.50589900176E+03  0.00000000000E+00 0. -1.
         22    1    3    3    0    0  0.53943394807E+01 -0.19059253716E+02  0.41987538070E+02  0.46425288409E+02  0.00000000000E+00 0. -1.
</event>
<event>
 7    1  0.6370239E-006  0.1314454E+03  0.7818608E-02  0.1337132E+00
          2   -1    0    0  502    0  0.00000000000E+00  0.00000000000E+00  0.64477687506E+03  0.64477687506E+03  0.00000000000E+00 0. -1.
          1   -1    0    0  501    0 -0.00000000000E+00 -0.00000000000E+00 -0.12540730230E+04  0.12540730230E+04  0.00000000000E+00 0. -1.
         25    2    1    2    0    0  0.41281731955E+02  0.16636920636E+03  0.46521609106E+03  0.51131072669E+03  0.12501901306E+03 0.  0.
          2    1    1    2  501    0 -0.49013507933E+02 -0.12166911778E+03 -0.12241596233E+04  0.12311671217E+04  0.00000000000E+00 0. -1.
          1    1    1    2  502    0  0.77317759780E+01 -0.44700088575E+02  0.14964738433E+03  0.15637204967E+03  0.00000000000E+00 0. -1.
         22    1    3    3    0    0  0.85073162403E+01  0.87670784252E+02  0.38255820340E+03  0.39256759905E+03  0.00000000000E+00 0.  1.
         22    1    3    3    0    0  0.32774415715E+02  0.78698422104E+02  0.82657887665E+02  0.11874312763E+03  0.00000000000E+00 0.  1.
</event>
<event>
 7    1  0.6370239E-006  0.7929182E+02  0.7818608E-02  0.1441831E+00
          2   -1    0    0  502    0  0.00000000000E+00  0.00000000000E+00  0.23211219917E+04  0.23211219917E+04  0.00000000000E+00 0. -1.
          1   -1    0    0  501    0 -0.00000000000E+00 -0.00000000000E+00 -0.20001697054E+02  0.20001697054E+02  0.00000000000E+00 0. -1.
         25    2    1    2    0    0  0.98988675557E+02  0.36270216815E+02  0.70387227381E+03  0.72261674184E+03  0.12499796490E+03 0.  0.
          2    1    1    2  501    0 -0.72329155967E+02 -0.17922895620E+02  0.12236382554E+03  0.14326773116E+03  0.00000000000E+00 0. -1.
          1    1    1    2  502    0 -0.26659519590E+02 -0.18347321195E+02  0.14748841953E+04  0.14752392157E+04  0.00000000000E+00 0. -1.
         22    1    3    3    0    0  0.47082404264E+02 -0.43220323630E+02  0.20288615169E+03  0.21271469088E+03  0.00000000000E+00 0. -1.
         22    1    3    3    0    0  0.51906271293E+02  0.79490540445E+02  0.50098612212E+03  0.50990205096E+03  0.00000000000E+00 0. -1.
</event>
<event>
 7    1  0.6370239E-006  0.9931747E+02  0.7818608E-02  0.1344939E+00
          2   -1    0    0  502    0  0.00000000000E+00  0.00000000000E+00  0.21084812395E+03  0.21084812395E+03  0.00000000000E+00 0. -1.
          1   -1    0    0  501    0 -0.00000000000E+00 -0.00000000000E+00 -0.89668764043E+03  0.89668764043E+03  0.00000000000E+00 0. -1.
         25    2    1    2    0    0 -0.36233106000E+01  0.13712916025E+03 -0.19020161432E+03  0.26574364390E+03  0.12500198082E+03 0.  0.
          2    1    1    2  501    0 -0.31724854456E+02 -0.46290331574E+02 -0.65369289706E+03  0.65609729831E+03  0.00000000000E+00 0. -1.
          1    1    1    2  502    0  0.35348165056E+02 -0.90838828677E+02  0.15805499490E+03  0.18569482217E+03  0.00000000000E+00 0. -1.
         22    1    3    3    0    0 -0.80646889444E+01 -0.23507954339E+02 -0.23695709215E+02  0.34338750126E+02  0.00000000000E+00 0.  1.
         22    1    3    3    0    0  0.44413783443E+01  0.16063711459E+03 -0.16650590511E+03  0.23140489377E+03  0.00000000000E+00 0.  1.
</event>
<event>
 7    1  0.6370239E-006  0.1617795E+03  0.7818608E-02  0.1382605E+00
          2   -1    0    0  502    0  0.00000000000E+00  0.00000000000E+00  0.90182328467E+03  0.90182328467E+03  0.00000000000E+00 0. -1.
          1   -1    0    0  501    0 -0.00000000000E+00 -0.00000000000E+00 -0.45116919425E+03  0.45116919425E+03  0.00000000000E+00 0. -1.
         25    2    1    2    0    0 -0.12930054304E+03  0.75401532391E+02  0.43984026493E+02  0.19991704826E+03  0.12501283966E+03 0.  0.
          2    1    1    2  501    0  0.69271903910E+00  0.25138234621E+02 -0.36422187537E+03  0.36508900996E+03  0.00000000000E+00 0. -1.
          1    1    1    2  502    0  0.12860782400E+03 -0.10053976701E+03  0.77089193929E+03  0.78798642070E+03  0.00000000000E+00 0. -1.
         22    1    3    3    0    0 -0.58386893172E+02  0.77368042216E+02 -0.25908589882E+02  0.10032994708E+03  0.00000000000E+00 0.  1.
         22    1    3    3    0    0 -0.70913649867E+02 -0.19665098244E+01  0.69892616375E+02  0.99587101183E+02  0.00000000000E+00 0.  1.
</event>
<event>
 7    1  0.6370239E-006  0.9715506E+02  0.7818608E-02  0.1320268E+00
          2   -1    0    0  502    0  0.00000000000E+00  0.00000000000E+00  0.19861752525E+04  0.19861752525E+04  0.00000000000E+00 0. -1.
          1   -1    0    0  501    0 -0.00000000000E+00 -0.00000000000E+00 -0.33091206312E+03  0.33091206312E+03  0.00000000000E+00 0. -1.
         25    2    1    2    0    0  0.15900977879E+03  0.46298284778E+02 -0.24225382964E+02  0.20889406751E+03  0.12498888484E+03 0.  0.
          2    1    1    2  501    0 -0.63633493917E+02 -0.31966559223E+02 -0.20717192801E+03  0.21906914482E+03  0.00000000000E+00 0. -1.
          1    1    1    2  502    0 -0.95376284876E+02 -0.14331725554E+02  0.18866605004E+04  0.18891241033E+04  0.00000000000E+00 0. -1.
         22    1    3    3    0    0  0.13807729910E+03  0.80814598606E+02 -0.41033720744E+02  0.16516690381E+03  0.00000000000E+00 0.  1.
         22    1    3    3    0    0  0.20932479691E+02 -0.34516313828E+02  0.16808337780E+02  0.43727163699E+02  0.00000000000E+00 0.  1.
</event>
<event>
 7    1  0.6370239E-006  0.2967761E+03  0.7818608E-02  0.1207660E+00
          2   -1    0    0  502    0  0.00000000000E+00  0.00000000000E+00  0.22538620278E+04  0.22538620278E+04  0.00000000000E+00 0. -1.
          1   -1    0    0  501    0 -0.00000000000E+00 -0.00000000000E+00 -0.29918636202E+03  0.29918636202E+03  0.00000000000E+00 0. -1.
         25    2    1    2    0    0 -0.30222388437E+03 -0.19450359400E+03  0.29195502579E+03  0.47961588314E+03  0.12499093534E+03 0.  0.
          2    1    1    2  501    0  0.60031202088E+02  0.36314611204E+02 -0.18777943943E+03  0.20045850963E+03  0.00000000000E+00 0. -1.
          1    1    1    2  502    0  0.24219268228E+03  0.15818898279E+03  0.18505000794E+04  0.18729739970E+04  0.00000000000E+00 0. -1.
         22    1    3    3    0    0 -0.22437173939E+03 -0.19156919595E+03  0.18849265861E+03  0.35010129480E+03  0.00000000000E+00 0.  1.
         22    1    3    3    0    0 -0.77852144983E+02 -0.29343980484E+01  0.10346236718E+03  0.12951458834E+03  0.00000000000E+00 0.  1.
</event>
<event>
 7    1  0.6370239E-006  0.7564239E+02  0.7818608E-02  0.1377832E+00
          2   -1    0    0  502    0  0.00000000000E+00  0.00000000000E+00  0.20115823417E+04  0.20115823417E+04  0.00000000000E+00 0. -1.
          1   -1    0    0  501    0 -0.00000000000E+00 -0.00000000000E+00 -0.78465634876E+03  0.78465634876E+03  0.00000000000E+00 0. -1.
         25    2    1    2    0    0  0.11080713352E+02 -0.22392661182E+02  0.12225476338E+04  0.12291749688E+04  0.12499669397E+03 0.  0.
          2    1    1    2  501    0 -0.63990614284E+02  0.40488143508E+02 -0.77850839888E+03  0.78218246951E+03  0.00000000000E+00 0. -1.
          1    1    1    2  502    0  0.52909900932E+02 -0.18095482326E+02  0.78288675806E+03  0.78488125219E+03  0.00000000000E+00 0. -1.
         22    1    3    3    0    0 -0.50218293538E+01 -0.64553363859E+02  0.38454727513E+03  0.38996020613E+03  0.00000000000E+00 0. -1.
         22    1    3    3    0    0  0.16102542706E+02  0.42160702677E+02  0.83800035865E+03  0.83921476264E+03  0.00000000000E+00 0. -1.
</event>
<event>
 7    1  0.6370239E-006  0.8496693E+02  0.7818608E-02  0.1318377E+00
          2   -1    0    0  502    0  0.00000000000E+00  0.00000000000E+00  0.22557334121E+04  0.22557334121E+04  0.00000000000E+00 0. -1.
          1   -1    0    0  501    0 -0.00000000000E+00 -0.00000000000E+00 -0.67440315199E+02  0.67440315199E+02  0.00000000000E+00 0. -1.
         25    2    1    2    0    0  0.13889429771E+03  0.36111953230E+02  0.30122445632E+03  0.35630982201E+03  0.12499926830E+03 0.  0.
          2    1    1    2  501    0 -0.58391196339E+02 -0.58726088159E+02  0.50287201913E+01  0.82967302398E+02  0.00000000000E+00 0. -1.
          1    1    1    2  502    0 -0.80503101374E+02  0.22614134929E+02  0.18820399204E+04  0.18838966029E+04  0.00000000000E+00 0. -1.
         22    1    3    3    0    0 -0.15728357018E+02  0.18039206689E+02  0.97014528749E+01  0.25824646761E+02  0.00000000000E+00 0. -1.
         22    1    3    3    0    0  0.15462265473E+03  0.18072746541E+02  0.29152300344E+03  0.33048517525E+03  0.00000000000E+00 0. -1.
</event>
<event>
 7    1  0.6370239E-006  0.4851679E+02  0.7818608E-02  0.1461352E+00
          2   -1    0    0  502    0  0.00000000000E+00  0.00000000000E+00  0.20063859293E+04  0.20063859293E+04  0.00000000000E+00 0. -1.
          1   -1    0    0  501    0 -0.00000000000E+00 -0.00000000000E+00 -0.40884178036E+03  0.40884178036E+03  0.00000000000E+00 0. -1.
         25    2    1    2    0    0 -0.16700791731E+02 -0.12153563077E+02 -0.38130918564E+02  0.13230594789E+03  0.12499708540E+03 0.  0.
          2    1    1    2  501    0  0.29960526566E+02 -0.34668670958E+02 -0.32169750384E+03  0.32494435504E+03  0.00000000000E+00 0. -1.
          1    1    1    2  502    0 -0.13259734835E+02  0.46822234035E+02  0.19573725714E+04  0.19579774067E+04  0.00000000000E+00 0. -1.
         22    1    3    3    0    0  0.46151455283E+02 -0.17016387534E+01  0.15820073100E+02  0.48817282924E+02  0.00000000000E+00 0.  1.
         22    1    3    3    0    0 -0.62852247015E+02 -0.10451924324E+02 -0.53950991664E+02  0.83488664970E+02  0.00000000000E+00 0.  1.
</event>
<event>
 7    1  0.6370239E-006  0.5737344E+02  0.7818608E-02  0.1493622E+00
          2   -1    0    0  502    0  0.00000000000E+00  0.00000000000E+00  0.11493151178E+04  0.11493151178E+04  0.00000000000E+00 0. -1.
          1   -1    0    0  501    0 -0.00000000000E+00 -0.00000000000E+00 -0.67739154464E+03  0.67739154464E+03  0.00000000000E+00 0. -1.
         25    2    1    2    0    0 -0.80039612201E+02  0.19934119662E+02 -0.86236261148E+02  0.17281341108E+03  0.12499629460E+03 0.  0.
          2    1    1    2  501    0  0.56604711751E+02  0.89384413345E-01 -0.54618900610E+03  0.54911431575E+03  0.00000000000E+00 0. -1.
          1    1    1    2  502    0  0.23434900450E+02 -0.20023504075E+02  0.11043488404E+04  0.11047789356E+04  0.00000000000E+00 0. -1.
         22    1    3    3    0    0 -0.87730529710E+02  0.23965040456E+02 -0.49657436298E+01  0.91080336061E+02  0.00000000000E+00 0.  1.
         22    1    3    3    0    0  0.76909175091E+01 -0.40309207949E+01 -0.81270517518E+02  0.81733075020E+02  0.00000000000E+00 0.  1.
</event>
<event>
 7    1  0.6370239E-006  0.6998223E+02  0.7818608E-02  0.1456766E+00
          2   -1    0    0  502    0  0.00000000000E+00  0.00000000000E+00  0.56946541686E+03  0.56946541686E+03  0.00000000000E+00 0. -1.
          1   -1    0    0  501    0 -0.00000000000E+00 -0.00000000000E+00 -0.28778252802E+03  0.28778252802E+03  0.00000000000E+00 0. -1.
         25    2    1    2    0    0  0.79667249512E+02  0.36955913204E+02 -0.83834260383E+01  0.15299718752E+03  0.12500098956E+03 0.  0.
          2    1    1    2  501    0 -0.10308155877E+02 -0.31184145253E+02 -0.20333215725E+03  0.20596765563E+03  0.00000000000E+00 0. -1.
          1    1    1    2  502    0 -0.69359093636E+02 -0.57717679515E+01  0.49339847213E+03  0.49828310173E+03  0.00000000000E+00 0. -1.
         22    1    3    3    0    0  0.93914330710E+02  0.56182452172E+02 -0.37157570142E+02  0.11557272370E+03  0.00000000000E+00 0. -1.
         22    1    3    3    0    0 -0.14247081197E+02 -0.19226538967E+02  0.28774144104E+02  0.37424463820E+02  0.00000000000E+00 0. -1.
</event>
<event>
 7    1  0.6370239E-006  0.6932283E+02  0.7818608E-02  0.1436949E+00
          2   -1    0    0  502    0  0.00000000000E+00  0.00000000000E+00  0.22525179758E+04  0.22525179758E+04  0.00000000000E+00 0. -1.
          1   -1    0    0  501    0 -0.00000000000E+00 -0.00000000000E+00 -0.40979713002E+03  0.40979713002E+03  0.00000000000E+00 0. -1.
         25    2    1    2    0    0 -0.23719206110E+02  0.89252534190E+02 -0.89535350472E+02  0.17935802500E+03  0.12499642615E+03 0.  0.
          2    1    1    2  501    0 -0.17954368511E+02 -0.33936600623E+02 -0.27346594000E+03  0.27614791788E+03  0.00000000000E+00 0. -1.
          1    1    1    2  502    0  0.41673574621E+02 -0.55315933566E+02  0.22057221362E+04  0.22068091629E+04  0.00000000000E+00 0. -1.
         22    1    3    3    0    0  0.14234979840E+02  0.44425341408E+02 -0.10811718848E+03  0.11775216369E+03  0.00000000000E+00 0. -1.
         22    1    3    3    0    0 -0.37954185950E+02  0.44827192781E+02  0.18581838005E+02  0.61605861307E+02  0.00000000000E+00 0. -1.
</event>
<event>
 7    1  0.6370239E-006  0.4220389E+02  0.7818608E-02  0.1508723E+00
          2   -1    0    0  502    0  0.00000000000E+00  0.00000000000E+00  0.10899567289E+04  0.10899567289E+04  0.00000000000E+00 0. -1.
          1   -1    0    0  501    0 -0.00000000000E+00 -0.00000000000E+00 -0.58243509152E+03  0.58243509152E+03  0.00000000000E+00 0. -1.
         25    2    1    2    0    0 -0.59388423913E+02  0.48465829320E+02 -0.11163604681E+03  0.18429172961E+03  0.12499965259E+03 0.  0.
          2    1    1    2  501    0  0.37284274405E+02 -0.17827368947E+02 -0.43314868967E+03  0.43511575421E+03  0.00000000000E+00 0. -1.
          1    1    1    2  502    0  0.22104149508E+02 -0.30638460373E+02  0.10523063739E+04  0.10529843366E+04  0.00000000000E+00 0. -1.
         22    1    3    3    0    0 -0.38483589932E+02 -0.33618361313E+02 -0.10143838096E+02  0.52096817203E+02  0.00000000000E+00 0. -1.
         22    1    3    3    0    0 -0.20904833981E+02  0.82084190633E+02 -0.10149220871E+03  0.13219491240E+03  0.00000000000E+00 0. -1.
</event>
<event>
 7    1  0.6370239E-006  0.8761708E+02  0.7818608E-02  0.1383436E+00
          2   -1    0    0  502    0  0.00000000000E+00  0.00000000000E+00  0.24376557130E+03  0.24376557130E+03  0.00000000000E+00 0. -1.
          1   -1    0    0  501    0 -0.00000000000E+00 -0.00000000000E+00 -0.89927239712E+03  0.89927239712E+03  0.00000000000E+00 0. -1.
         25    2    1    2    0    0 -0.17754889038E+02 -0.42826609027E+02 -0.73736873217E+02  0.15235667098E+03  0.12500429670E+03 0.  0.
          2    1    1    2  501    0 -0.40221287588E+01 -0.45945806972E+02 -0.77529005491E+03  0.77666071353E+03  0.00000000000E+00 0. -1.
          1    1    1    2  502    0  0.21777017797E+02  0.88772415999E+02  0.19352010231E+03  0.21402058392E+03  0.00000000000E+00 0. -1.
         22    1    3    3    0    0  0.30778221086E+02 -0.56838830678E+02 -0.78419566112E+02  0.10162470131E+03  0.00000000000E+00 0.  1.
         22    1    3    3    0    0 -0.48533110125E+02  0.14012221651E+02  0.46826928951E+01  0.50731969671E+02  0.00000000000E+00 0.  1.
</event>
<event>
 7    1  0.9245437E-006  0.1088692E+03  0.7818608E-02  0.1364476E+00
          2   -1    0    0  502    0  0.00000000000E+00  0.00000000000E+00  0.18928582201E+04  0.18928582201E+04  0.00000000000E+00 0. -1.
          1   -1    0    0  501    0 -0.00000000000E+00 -0.00000000000E+00 -0.92082628853E+03  0.92082628853E+03  0.00000000000E+00 0. -1.
         25    2    1    2    0    0  0.61043115080E+02 -0.25645382920E+02 -0.10656965593E+03  0.17710197455E+03  0.12499628099E+03 0.  0.
          2    1    1    2  501    0  0.41910499538E+02 -0.11218555551E+02 -0.77677520482E+03  0.77798590269E+03  0.00000000000E+00 0. -1.
          1    1    1    2  502    0 -0.10295361462E+03  0.36863938471E+02  0.18553767923E+04  0.18585966313E+04  0.00000000000E+00 0. -1.
         22    1    3    3    0    0 -0.34221852564E+02  0.10629137968E+02 -0.11295313378E+02  0.37572568067E+02  0.00000000000E+00 0. -1.
         22    1    3    3    0    0  0.95264967644E+02 -0.36274520888E+02 -0.95274342554E+02  0.13952940649E+03  0.00000000000E+00 0. -1.
</event>
<event>
 7    1  0.6370239E-006  0.1335311E+03  0.7818608E-02  0.1278838E+00
          2   -1    0    0  502    0  0.00000000000E+00  0.00000000000E+00  0.19769674770E+04  0.19769674770E+04  0.00000000000E+00 0. -1.
          1   -1    0    0  501    0 -0.00000000000E+00 -0.00000000000E+00 -0.37406303221E+02  0.37406303221E+02  0.00000000000E+00 0. -1.
         25    2    1    2    0    0 -0.53615049261E+02  0.10564801274E+03  0.51046639704E+03  0.53873687544E+03  0.12500160939E+03 0.  0.
          2    1    1    2  501    0  0.67374384024E+02  0.35027883313E+02  0.53716581829E+02  0.93014683762E+02  0.00000000000E+00 0. -1.
          1    1    1    2  502    0 -0.13759334763E+02 -0.14067589605E+03  0.13753781949E+04  0.13826222210E+04  0.00000000000E+00 0. -1.
         22    1    3    3    0    0 -0.59556880830E+02 -0.18533272339E+00  0.26054826519E+03  0.26726850712E+03  0.00000000000E+00 0.  1.
         22    1    3    3    0    0  0.59418315693E+01  0.10583334546E+03  0.24991813185E+03  0.27146836832E+03  0.00000000000E+00 0.  1.
</event>
<event>
 7    1  0.6370239E-006  0.1570014E+03  0.7818608E-02  0.1326436E+00
          2   -1    0    0  502    0  0.00000000000E+00  0.00000000000E+00  0.23418832479E+04  0.23418832479E+04  0.00000000000E+00 0. -1.
          1   -1    0    0  501    0 -0.00000000000E+00 -0.00000000000E+00 -0.23114684904E+03  0.23114684904E+03  0.00000000000E+00 0. -1.
         25    2    1    2    0    0 -0.35974250484E+02 -0.17671613848E+03  0.47204986606E+03  0.52055562666E+03  0.12499737639E+03 0.  0.
          2    1    1    2  501    0  0.35174806226E+02  0.22426909923E+02 -0.20152938660E+03  0.20580166895E+03  0.00000000000E+00 0. -1.
          1    1    1    2  502    0  0.79944425783E+00  0.15428922855E+03  0.18402159194E+04  0.18466728014E+04  0.00000000000E+00 0. -1.
         22    1    3    3    0    0 -0.59323730976E+02 -0.93412084210E+02  0.14584635957E+03  0.18307452890E+03  0.00000000000E+00 0. -1.
         22    1    3    3    0    0  0.23349480492E+02 -0.83304054268E+02  0.32620350649E+03  0.33748109775E+03  0.00000000000E+00 0. -1.
</event>
<event>
 7    1  0.6370239E-006  0.6417170E+02  0.7818608E-02  0.1476029E+00
          2   -1    0    0  502    0  0.00000000000E+00  0.00000000000E+00  0.41933094345E+03  0.41933094345E+03  0.00000000000E+00 0. -1.
          1   -1    0    0  501    0 -0.00000000000E+00 -0.00000000000E+00 -0.85247640232E+02  0.85247640232E+02  0.00000000000E+00 0. -1.
         25    2    1    2    0    0 -0.25301334121E+01 -0.69029346162E+02  0.10511227774E+03  0.17732832949E+03  0.12500117321E+03 0.  0.
          2    1    1    2  501    0  0.29348835042E+02  0.10526781995E+02 -0.39983257129E+02  0.50703334291E+02  0.00000000000E+00 0. -1.
          1    1    1    2  502    0 -0.26818701630E+02  0.58502564167E+02  0.26895428260E+03  0.27654691989E+03  0.00000000000E+00 0. -1.
         22    1    3    3    0    0  0.55787505272E+01  0.27940422492E+02 -0.65301248835E+01  0.29230672204E+02  0.00000000000E+00 0. -1.
         22    1    3    3    0    0 -0.81088839392E+01 -0.96969768654E+02  0.11164240262E+03  0.14809765729E+03  0.00000000000E+00 0. -1.
</event>
<event>
 7    1  0.6370239E-006  0.2144406E+03  0.7818608E-02  0.1198090E+00
          2   -1    0    0  502    0  0.00000000000E+00  0.00000000000E+00  0.14612290907E+04  0.14612290907E+04  0.00000000000E+00 0. -1.
          1   -1    0    0  501    0 -0.00000000000E+00 -0.00000000000E+00 -0.84568974135E+03  0.84568974135E+03  0.00000000000E+00 0. -1.
         25    2    1    2    0    0  0.26153172475E+03  0.39688052788E+02  0.38158382065E+03  0.48083790998E+03  0.12499959560E+03 0.  0.
          2    1    1    2  501    0 -0.20675767259E+03  0.53017593927E+02 -0.77884948119E+03  0.80756802487E+03  0.00000000000E+00 0. -1.
          1    1    1    2  502    0 -0.54774052162E+02 -0.92705646715E+02  0.10128050099E+04  0.10185128972E+04  0.00000000000E+00 0. -1.
         22    1    3    3    0    0  0.29314023028E+02  0.15742237508E+02 -0.27267285957E+00  0.33274680139E+02  0.00000000000E+00 0. -1.
         22    1    3    3    0    0  0.23221770173E+03  0.23945815279E+02  0.38185649351E+03  0.44756322984E+03  0.00000000000E+00 0. -1.
</event>
<event>
 7    1  0.6370239E-006  0.8620475E+02  0.7818608E-02  0.1477877E+00
          2   -1    0    0  502    0  0.00000000000E+00  0.00000000000E+00  0.15488703073E+04  0.15488703073E+04  0.00000000000E+00 0. -1.
          1   -1    0    0  501    0 -0.00000000000E+00 -0.00000000000E+00 -0.36078572156E+03  0.36078572156E+03  0.00000000000E+00 0. -1.
         25    2    1    2    0    0  0.46630793324E+02 -0.58134813696E+02  0.84903162402E+03  0.86141382427E+03  0.12499996246E+03 0.  0.
          2    1    1    2  501    0 -0.68744739520E+02  0.52155076615E+02 -0.34915156562E+03  0.35965651252E+03  0.00000000000E+00 0. -1.
          1    1    1    2  502    0  0.22113946196E+02  0.59797370808E+01  0.68820452737E+03  0.68858569210E+03  0.00000000000E+00 0. -1.
         22    1    3    3    0    0  0.39473692311E+02 -0.18553626853E+02  0.78217453983E+03  0.78338969882E+03  0.00000000000E+00 0.  1.
         22    1    3    3    0    0  0.71571010130E+01 -0.39581186843E+02  0.66857084186E+02  0.78024125453E+02  0.00000000000E+00 0.  1.
</event>
<event>
 7    1  0.6370239E-006  0.9902368E+02  0.7818608E-02  0.1353152E+00
          2   -1    0    0  502    0  0.00000000000E+00  0.00000000000E+00  0.23490082242E+03  0.23490082242E+03  0.00000000000E+00 0. -1.
          1   -1    0    0  501    0 -0.00000000000E+00 -0.00000000000E+00 -0.23068603249E+03  0.23068603249E+03  0.00000000000E+00 0. -1.
         25    2    1    2    0    0  0.38486337616E+02  0.87827560934E+02  0.13932880020E+02  0.15815901460E+03  0.12500108044E+03 0.  0.
          2    1    1    2  501    0 -0.50566063171E+02  0.14009958567E+02 -0.13540255315E+03  0.14521383228E+03  0.00000000000E+00 0. -1.
          1    1    1    2  502    0  0.12079725554E+02 -0.10183751950E+03  0.12568446306E+03  0.16221400804E+03  0.00000000000E+00 0. -1.
         22    1    3    3    0    0  0.11872467929E+02  0.29709279529E+02  0.67539575193E+02  0.74734135454E+02  0.00000000000E+00 0.  1.
         22    1    3    3    0    0  0.26613869687E+02  0.58118281405E+02 -0.53606695173E+02  0.83424879146E+02  0.00000000000E+00 0.  1.
</event>
<event>
 7    1  0.6370239E-006  0.5418353E+02  0.7818608E-02  0.1506053E+00
          2   -1    0    0  502    0  0.00000000000E+00  0.00000000000E+00  0.72683405813E+03  0.72683405813E+03  0.00000000000E+00 0. -1.
          1   -1    0    0  501    0 -0.00000000000E+00 -0.00000000000E+00 -0.34264121127E+03  0.34264121127E+03  0.00000000000E+00 0. -1.
         25    2    1    2    0    0  0.81210423325E+02  0.20023074417E+02  0.15102723670E+03  0.21314534883E+03  0.12500262852E+03 0.  0.
          2    1    1    2  501    0 -0.51658975884E+02 -0.15055318187E+02 -0.30884212306E+03  0.31349444871E+03  0.00000000000E+00 0. -1.
          1    1    1    2  502    0 -0.29551447441E+02 -0.49677562296E+01  0.54200773322E+03  0.54283547186E+03  0.00000000000E+00 0. -1.
         22    1    3    3    0    0 -0.27893277019E+02 -0.21716412075E+01  0.70176296944E+02  0.75547756956E+02  0.00000000000E+00 0. -1.
         22    1    3    3    0    0  0.10910370034E+03  0.22194715624E+02  0.80850939751E+02  0.13759759187E+03  0.00000000000E+00 0. -1.
</event>
<event>
 7    1  0.6370239E-006  0.4384746E+02  0.7818608E-02  0.1509510E+00
          2   -1    0    0  502    0  0.00000000000E+00  0.00000000000E+00  0.65576352424E+03  0.65576352424E+03  0.00000000000E+00 0. -1.
          1   -1    0    0  501    0 -0.00000000000E+00 -0.00000000000E+00 -0.11036223953E+04  0.11036223953E+04  0.00000000000E+00 0. -1.
         25    2    1    2    0    0 -0.58521809717E+02  0.43776873275E+02 -0.37952833740E+03  0.40621363515E+03  0.12500616644E+03 0.  0.
          2    1    1    2  501    0  0.23255125351E+02 -0.35744715902E+02 -0.70960169622E+03  0.71088188390E+03  0.00000000000E+00 0. -1.
          1    1    1    2  502    0  0.35266684366E+02 -0.80321573731E+01  0.64127116258E+03  0.64229040047E+03  0.00000000000E+00 0. -1.
         22    1    3    3    0    0 -0.43609024634E+02 -0.31658291845E+02 -0.24860847006E+03  0.25438192911E+03  0.00000000000E+00 0. -1.
         22    1    3    3    0    0 -0.14912785082E+02  0.75435165120E+02 -0.13091986734E+03  0.15183170604E+03  0.00000000000E+00 0. -1.
</event>
<event>
 7    1  0.6370239E-006  0.4652994E+03  0.7818608E-02  0.1048176E+00
          2   -1    0    0  502    0  0.00000000000E+00  0.00000000000E+00  0.82957066705E+03  0.82957066705E+03  0.00000000000E+00 0. -1.
          1   -1    0    0  501    0 -0.00000000000E+00 -0.00000000000E+00 -0.14157785728E+04  0.14157785728E+04  0.00000000000E+00 0. -1.
         25    2    1    2    0    0 -0.20940518586E+03 -0.72080712594E+02 -0.33960583566E+03  0.42426796859E+03  0.12500009824E+03 0.  0.
          2    1    1    2  501    0  0.59666071688E+03 -0.18586626047E+03 -0.85256661143E+03  0.10570809358E+04  0.00000000000E+00 0. -1.
          1    1    1    2  502    0 -0.38725553102E+03  0.25794697306E+03  0.60596454136E+03  0.76400033547E+03  0.00000000000E+00 0. -1.
         22    1    3    3    0    0 -0.12590011739E+03 -0.34579664708E+02 -0.90460824384E+02  0.15883876579E+03  0.00000000000E+00 0.  1.
         22    1    3    3    0    0 -0.83505068471E+02 -0.37501047887E+02 -0.24914501128E+03  0.26542920280E+03  0.00000000000E+00 0.  1.
</event>
<event>
 7    1  0.6370239E-006  0.1415279E+03  0.7818608E-02  0.1281446E+00
          2   -1    0    0  502    0  0.00000000000E+00  0.00000000000E+00  0.32258821346E+03  0.32258821346E+03  0.00000000000E+00 0. -1.
          1   -1    0    0  501    0 -0.00000000000E+00 -0.00000000000E+00 -0.15867650826E+04  0.15867650826E+04  0.00000000000E+00 0. -1.
         25    2    1    2    0    0 -0.73456041645E+02 -0.74408781803E+02 -0.42319326467E+02  0.16836500825E+03  0.12499357482E+03 0.  0.
          2    1    1    2  501    0 -0.67113716594E+02  0.19500711403E+02 -0.14585797804E+04  0.14602532330E+04  0.00000000000E+00 0. -1.
          1    1    1    2  502    0  0.14056975824E+03  0.54908070400E+02  0.23672223777E+03  0.28073505478E+03  0.00000000000E+00 0. -1.
         22    1    3    3    0    0 -0.19280112705E+02 -0.10071864788E+03 -0.22768867899E+02  0.10504470535E+03  0.00000000000E+00 0. -1.
         22    1    3    3    0    0 -0.54175928940E+02  0.26309866075E+02 -0.19550458569E+02  0.63320302902E+02  0.00000000000E+00 0. -1.
</event>
<event>
 7    1  0.6370239E-006  0.1399092E+03  0.7818608E-02  0.1332632E+00
          2   -1    0    0  502    0  0.00000000000E+00  0.00000000000E+00  0.26827080482E+04  0.26827080482E+04  0.00000000000E+00 0. -1.
          1   -1    0    0  501    0 -0.00000000000E+00 -0.00000000000E+00 -0.10252898218E+04  0.10252898218E+04  0.00000000000E+00 0. -1.
         25    2    1    2    0    0 -0.37558577226E+02  0.13408293504E+03 -0.32759389877E+03  0.37726815441E+03  0.12499847051E+03 0.  0.
          2    1    1    2  501    0  0.78787234221E+02 -0.11780077384E+03 -0.66520904146E+03  0.68013786796E+03  0.00000000000E+00 0. -1.
          1    1    1    2  502    0 -0.41228656996E+02 -0.16282161203E+02  0.26502211666E+04  0.26505918477E+04  0.00000000000E+00 0. -1.
         22    1    3    3    0    0 -0.93962169955E+01  0.10620966075E+03 -0.31950570994E+03  0.33682737361E+03  0.00000000000E+00 0. -1.
         22    1    3    3    0    0 -0.28162360230E+02  0.27873274295E+02 -0.80881888349E+01  0.40440780807E+02  0.00000000000E+00 0. -1.
</event>
<event>
 7    1  0.6370239E-006  0.4375135E+02  0.7818608E-02  0.1493474E+00
          2   -1    0    0  502    0  0.00000000000E+00  0.00000000000E+00  0.11419564931E+04  0.11419564931E+04  0.00000000000E+00 0. -1.
          1   -1    0    0  501    0 -0.00000000000E+00 -0.00000000000E+00 -0.49178277181E+03  0.49178277181E+03  0.00000000000E+00 0. -1.
         25    2    1    2    0    0  0.33695197051E+02 -0.31730428232E+02  0.19901017690E+03  0.23952430207E+03  0.12499861756E+03 0.  0.
          2    1    1    2  501    0 -0.38594233876E+02 -0.12154437586E+02 -0.47012786438E+03  0.47186592810E+03  0.00000000000E+00 0. -1.
          1    1    1    2  502    0  0.48990368254E+01  0.43884865818E+02  0.92129140875E+03  0.92234903472E+03  0.00000000000E+00 0. -1.
         22    1    3    3    0    0 -0.38081506704E+01  0.37536514077E+02  0.17360143871E+02  0.41531512082E+02  0.00000000000E+00 0.  1.
         22    1    3    3    0    0  0.37503347721E+02 -0.69266942309E+02  0.18165003303E+03  0.19799278999E+03  0.00000000000E+00 0.  1.
</event>
<event>
 7    1  0.7226203E-006  0.8898453E+02  0.7818608E-02  0.1307091E+00
          2   -1    0    0  502    0  0.00000000000E+00  0.00000000000E+00  0.10943423931E+04  0.10943423931E+04  0.00000000000E+00 0. -1.
          1   -1    0    0  501    0 -0.00000000000E+00 -0.00000000000E+00 -0.19707838878E+04  0.19707838878E+04  0.00000000000E+00 0. -1.
         25    2    1    2    0    0 -0.31779952176E+01 -0.12017963576E+02 -0.29552926956E+03  0.32111738641E+03  0.12499718230E+03 0.  0.
          2    1    1    2  501    0  0.87903476578E+02  0.39217959047E+02 -0.16592330785E+04  0.16620227070E+04  0.00000000000E+00 0. -1.
          1    1    1    2  502    0 -0.84725481360E+02 -0.27199995471E+02  0.10783208535E+04  0.10819861875E+04  0.00000000000E+00 0. -1.
         22    1    3    3    0    0  0.45278566149E+02  0.35371438502E+02 -0.14808867093E+03  0.15884439452E+03  0.00000000000E+00 0.  1.
         22    1    3    3    0    0 -0.48456561367E+02 -0.47389402078E+02 -0.14744059864E+03  0.16227299188E+03  0.00000000000E+00 0.  1.
</event>
<event>
 7    1  0.6370239E-006  0.1147136E+03  0.7818608E-02  0.1295051E+00
          2   -1    0    0  502    0  0.00000000000E+00  0.00000000000E+00  0.17584935856E+04  0.17584935856E+04  0.00000000000E+00 0. -1.
          1   -1    0    0  501    0 -0.00000000000E+00 -0.00000000000E+00 -0.36490829344E+03  0.36490829344E+03  0.00000000000E+00 0. -1.
         25    2    1    2    0    0  0.55547570575E+02 -0.21535559013E+01  0.10995928633E+04  0.11080694585E+04  0.12499315777E+03 0.  0.
          2    1    1    2  501    0 -0.97981254218E+02 -0.60756940043E+02 -0.34916887675E+03  0.36770998958E+03  0.00000000000E+00 0. -1.
          1    1    1    2  502    0  0.42433683643E+02  0.62910495945E+02  0.64316130557E+03  0.64762243089E+03  0.00000000000E+00 0. -1.
         22    1    3    3    0    0  0.58704544010E+02 -0.48434961517E+02  0.41600213173E+03  0.42290654120E+03  0.00000000000E+00 0. -1.
         22    1    3    3    0    0 -0.31569734344E+01  0.46281405615E+02  0.68359073160E+03  0.68516291735E+03  0.00000000000E+00 0. -1.
</event>
<event>
 7    1  0.6370239E-006  0.7825014E+02  0.7818608E-02  0.1437623E+00
          2   -1    0    0  502    0  0.00000000000E+00  0.00000000000E+00  0.17754015245E+04  0.17754015245E+04  0.00000000000E+00 0. -1.
          1   -1    0    0  501    0 -0.00000000000E+00 -0.00000000000E+00 -0.61250933705E+02  0.61250933705E+02  0.00000000000E+00 0. -1.
         25    2    1    2    0    0 -0.51796902751E+01  0.67805671013E+02  0.12153003858E+03  0.18713697121E+03  0.12500502992E+03 0.  0.
          2    1    1    2  501    0  0.38293695432E+02 -0.74785672572E+02  0.34177507717E+02  0.90705049284E+02  0.00000000000E+00 0. -1.
          1    1    1    2  502    0 -0.33114005157E+02  0.69800015589E+01  0.15584430445E+04  0.15588104377E+04  0.00000000000E+00 0. -1.
         22    1    3    3    0    0  0.89386821784E+00  0.59112548839E+02  0.14759630090E+03  0.15899610206E+03  0.00000000000E+00 0. -1.
         22    1    3    3    0    0 -0.60735584930E+01  0.86931221736E+01 -0.26066262316E+02  0.28140869159E+02  0.00000000000E+00 0. -1.
</event>
<event>
 7    1  0.6370239E-006  0.9646239E+02  0.7818608E-02  0.1439882E+00
          2   -1    0    0  502    0  0.00000000000E+00  0.00000000000E+00  0.23600668362E+03  0.23600668362E+03  0.00000000000E+00 0. -1.
          1   -1    0    0  501    0 -0.00000000000E+00 -0.00000000000E+00 -0.18355949529E+04  0.18355949529E+04  0.00000000000E+00 0. -1.
         25    2    1    2    0    0 -0.11261316760E+02  0.10247005721E+03 -0.58459998729E+02  0.17226548122E+03  0.12502357654E+03 0.  0.
          2    1    1    2  501    0  0.25923284522E+02 -0.75199369350E+01 -0.17072335763E+04  0.17074469392E+04  0.00000000000E+00 0. -1.
          1    1    1    2  502    0 -0.14661967762E+02 -0.94950120276E+02  0.16610530578E+03  0.19188921607E+03  0.00000000000E+00 0. -1.
         22    1    3    3    0    0 -0.13756410453E+02  0.56419089965E+02  0.35171336342E+02  0.67892381319E+02  0.00000000000E+00 0. -1.
         22    1    3    3    0    0  0.24950936929E+01  0.46050967246E+02 -0.93631335071E+02  0.10437309991E+03  0.00000000000E+00 0. -1.
</event>
<event>
 7    1  0.6370239E-006  0.6606627E+02  0.7818608E-02  0.1410826E+00
          2   -1    0    0  502    0  0.00000000000E+00  0.00000000000E+00  0.16088629117E+03  0.16088629117E+03  0.00000000000E+00 0. -1.
          1   -1    0    0  501    0 -0.00000000000E+00 -0.00000000000E+00 -0.57297463523E+03  0.57297463523E+03  0.00000000000E+00 0. -1.
         25    2    1    2    0    0  0.10325281271E+03 -0.43655155885E+02 -0.14580396836E+03  0.22237807769E+03  0.12500518500E+03 0.  0.
          2    1    1    2  501    0 -0.47757695315E+02  0.11804075611E+02 -0.37883472548E+03  0.38201555321E+03  0.00000000000E+00 0. -1.
          1    1    1    2  502    0 -0.55495117396E+02  0.31851080273E+02  0.11255034978E+03  0.12946729551E+03  0.00000000000E+00 0. -1.
         22    1    3    3    0    0  0.21242840152E+02  0.98010582294E+01  0.19370570218E+02  0.30373310500E+02  0.00000000000E+00 0. -1.
         22    1    3    3    0    0  0.82009972559E+02 -0.53456214114E+02 -0.16517453858E+03  0.19200476719E+03  0.00000000000E+00 0. -1.
</event>
<event>
 7    1  0.6370239E-006  0.2009859E+03  0.7818608E-02  0.1249610E+00
          2   -1    0    0  502    0  0.00000000000E+00  0.00000000000E+00  0.10435712650E+03  0.10435712650E+03  0.00000000000E+00 0. -1.
          1   -1    0    0  501    0 -0.00000000000E+00 -0.00000000000E+00 -0.31054199352E+04  0.31054199352E+04  0.00000000000E+00 0. -1.
         25    2    1    2    0    0 -0.17379564462E+02  0.14778027673E+03 -0.15715574464E+04  0.15835276867E+04  0.12500427185E+03 0.  0.
          2    1    1    2  501    0 -0.48908587466E+02  0.45949495274E+02 -0.14196713797E+04  0.14212565681E+04  0.00000000000E+00 0. -1.
          1    1    1    2  502    0  0.66288151928E+02 -0.19372977201E+03 -0.98339826374E+01  0.20499280686E+03  0.00000000000E+00 0. -1.
         22    1    3    3    0    0  0.54044376824E+02  0.56180605631E+02 -0.59394208106E+03  0.59903610139E+03  0.00000000000E+00 0.  1.
         22    1    3    3    0    0 -0.71423941286E+02  0.91599671103E+02 -0.97761536530E+03  0.98449158534E+03  0.00000000000E+00 0.  1.
</event>
<event>
 7    1  0.6370239E-006  0.4462959E+02  0.7818608E-02  0.1480425E+00
          2   -1    0    0  502    0  0.00000000000E+00  0.00000000000E+00  0.10365070592E+04  0.10365070592E+04  0.00000000000E+00 0. -1.
          1   -1    0    0  501    0 -0.00000000000E+00 -0.00000000000E+00 -0.91182419463E+02  0.91182419463E+02  0.00000000000E+00 0. -1.
         25    2    1    2    0    0  0.20473018118E+01 -0.47980712624E+02  0.32519696009E+03  0.35168813931E+03  0.12500057699E+03 0.  0.
          2    1    1    2  501    0 -0.38344032467E+02  0.20453983770E+02 -0.71070016432E+02  0.83304126629E+02  0.00000000000E+00 0. -1.
          1    1    1    2  502    0  0.36296730655E+02  0.27526728855E+02  0.69119769605E+03  0.69269721270E+03  0.00000000000E+00 0. -1.
         22    1    3    3    0    0  0.38341993973E+02 -0.76289922057E+02  0.24179336628E+03  0.25642599846E+03  0.00000000000E+00 0.  1.
         22    1    3    3    0    0 -0.36294692161E+02  0.28309209433E+02  0.83403593809E+02  0.95262140843E+02  0.00000000000E+00 0.  1.
</event>
<event>
 7    1  0.6370239E-006  0.6220909E+02  0.7818608E-02  0.1442470E+00
          2   -1    0    0  502    0  0.00000000000E+00  0.00000000000E+00  0.27959683417E+04  0.27959683417E+04  0.00000000000E+00 0. -1.
          1   -1    0    0  501    0 -0.00000000000E+00 -0.00000000000E+00 -0.33735390002E+02  0.33735390002E+02  0.00000000000E+00 0. -1.
         25    2    1    2    0    0 -0.33452962239E+02 -0.81865519428E+02  0.18496238609E+04  0.18559510423E+04  0.12499912242E+03 0.  0.
          2    1    1    2  501    0  0.45017118730E+02  0.42474085429E+02  0.16960417635E+01  0.61914985823E+02  0.00000000000E+00 0. -1.
          1    1    1    2  502    0 -0.11564156491E+02  0.39391434000E+02  0.91091304909E+03  0.91183770365E+03  0.00000000000E+00 0. -1.
         22    1    3    3    0    0 -0.11329227054E+02 -0.10114323264E+03  0.87718739360E+03  0.88307192707E+03  0.00000000000E+00 0. -1.
         22    1    3    3    0    0 -0.22123735185E+02  0.19277713212E+02  0.97243646729E+03  0.97287911521E+03  0.00000000000E+00 0. -1.
</event>
<event>
 7    1  0.6370239E-006  0.6323287E+02  0.7818608E-02  0.1494216E+00
          2   -1    0    0  502    0  0.00000000000E+00  0.00000000000E+00  0.11713566042E+04  0.11713566042E+04  0.00000000000E+00 0. -1.
          1   -1    0    0  501    0 -0.00000000000E+00 -0.00000000000E+00 -0.52886591041E+02  0.52886591041E+02  0.00000000000E+00 0. -1.
         25    2    1    2    0    0  0.52225796119E+02  0.22633276547E+02  0.69011290034E+03  0.70364949183E+03  0.12500797236E+03 0.  0.
          2    1    1    2  501    0 -0.73313432664E+01  0.26870891641E+02 -0.39309053967E+02  0.48176707395E+02  0.00000000000E+00 0. -1.
          1    1    1    2  502    0 -0.44894452853E+02 -0.49504168188E+02  0.46766616675E+03  0.47241699598E+03  0.00000000000E+00 0. -1.
         22    1    3    3    0    0 -0.27738290671E+02 -0.12081759495E+02  0.38891281058E+03  0.39008788229E+03  0.00000000000E+00 0. -1.
         22    1    3    3    0    0  0.79964086791E+02  0.34715036043E+02  0.30120008977E+03  0.31356160954E+03  0.00000000000E+00 0. -1.
</event>
<event>
 7    1  0.6370239E-006  0.1041824E+03  0.7818608E-02  0.1349868E+00
          2   -1    0    0  502    0  0.00000000000E+00  0.00000000000E+00  0.15777561158E+04  0.15777561158E+04  0.00000000000E+00 0. -1.
          1   -1    0    0  501    0 -0.00000000000E+00 -0.00000000000E+00 -0.11661706982E+04  0.11661706982E+04  0.00000000000E+00 0. -1.
         25    2    1    2    0    0 -0.69990454946E+02  0.29799603119E+01  0.60837584555E+03  0.62502645979E+03  0.12501744698E+03 0.  0.
          2    1    1    2  501    0 -0.47741574413E+02  0.18736478617E+02 -0.11535451031E+04  0.11546846403E+04  0.00000000000E+00 0. -1.
          1    1    1    2  502    0  0.11773202936E+03 -0.21716438928E+02  0.95675467522E+03  0.96421571395E+03  0.00000000000E+00 0. -1.
         22    1    3    3    0    0 -0.55362881323E+02 -0.12183937771E+02  0.59948328611E+03  0.60215754359E+03  0.00000000000E+00 0. -1.
         22    1    3    3    0    0 -0.14627573623E+02  0.15163898083E+02  0.88925594325E+01  0.22868916206E+02  0.00000000000E+00 0. -1.
</event>
<event>
 7    1  0.6370239E-006  0.7539582E+02  0.7818608E-02  0.1376401E+00
          2   -1    0    0  502    0  0.00000000000E+00  0.00000000000E+00  0.24974503523E+03  0.24974503523E+03  0.00000000000E+00 0. -1.
          1   -1    0    0  501    0 -0.00000000000E+00 -0.00000000000E+00 -0.95789790500E+03  0.95789790500E+03  0.00000000000E+00 0. -1.
         25    2    1    2    0    0 -0.12238657656E+03  0.19931276982E+02  0.18532796993E+03  0.25563008332E+03  0.12499821252E+03 0.  0.
          2    1    1    2  501    0  0.74371380010E+02  0.10343337922E+02 -0.89207825880E+03  0.89523276673E+03  0.00000000000E+00 0. -1.
          1    1    1    2  502    0  0.48015196554E+02 -0.30274614904E+02 -0.14025809052E+01  0.56780090180E+02  0.00000000000E+00 0. -1.
         22    1    3    3    0    0 -0.21596319704E+02  0.17387008675E+02 -0.14881720496E+02  0.31467041493E+02  0.00000000000E+00 0.  1.
         22    1    3    3    0    0 -0.10079025686E+03  0.25442683073E+01  0.20020969043E+03  0.22416304182E+03  0.00000000000E+00 0.  1.
</event>
<event>
 7    1  0.6370239E-006  0.1128092E+03  0.7818608E-02  0.1442671E+00
          2   -1    0    0  502    0  0.00000000000E+00  0.00000000000E+00  0.23963240450E+03  0.23963240450E+03  0.00000000000E+00 0. -1.
          1   -1    0    0  501    0 -0.00000000000E+00 -0.00000000000E+00 -0.58663169947E+03  0.58663169947E+03  0.00000000000E+00 0. -1.
         25    2    1    2    0    0  0.12456258121E+03 -0.11130515895E+02  0.14224378320E+03  0.22693221702E+03  0.12500084896E+03 0.  0.
          2    1    1    2  501    0 -0.11219924442E+03 -0.77943478033E+01 -0.53585333670E+03  0.54752919626E+03  0.00000000000E+00 0. -1.
          1    1    1    2  502    0 -0.12363336794E+02  0.18924863698E+02  0.46610258528E+02  0.51802690690E+02  0.00000000000E+00 0. -1.
         22    1    3    3    0    0  0.33044671732E+02  0.20865053801E+02  0.12171188965E+03  0.12783225290E+03  0.00000000000E+00 0. -1.
         22    1    3    3    0    0  0.91517909479E+02 -0.31995569695E+02  0.20531893552E+02  0.99099964119E+02  0.00000000000E+00 0. -1.
</event>
<event>
 7    1  0.6370239E-006  0.1144928E+03  0.7818608E-02  0.1285986E+00
          2   -1    0    0  502    0  0.00000000000E+00  0.00000000000E+00  0.16853737858E+04  0.16853737858E+04  0.00000000000E+00 0. -1.
          1   -1    0    0  501    0 -0.00000000000E+00 -0.00000000000E+00 -0.26455933814E+03  0.26455933814E+03  0.00000000000E+00 0. -1.
         25    2    1    2    0    0 -0.79441880289E+02  0.13650496180E+03  0.47484199278E+03  0.51579504152E+03  0.12499995925E+03 0.  0.
          2    1    1    2  501    0 -0.16684221472E+00 -0.11388236214E+03 -0.22926430651E+03  0.25599090313E+03  0.00000000000E+00 0. -1.
          1    1    1    2  502    0  0.79608722504E+02 -0.22622599662E+02  0.11752367614E+04  0.11781471793E+04  0.00000000000E+00 0. -1.
         22    1    3    3    0    0 -0.10724458756E+03  0.66881930679E+02  0.29196563392E+03  0.31814859044E+03  0.00000000000E+00 0.  1.
         22    1    3    3    0    0  0.27802707269E+02  0.69623031125E+02  0.18287635886E+03  0.19764645108E+03  0.00000000000E+00 0.  1.
</event>
<event>
 7    1  0.6370239E-006  0.7196920E+02  0.7818608E-02  0.1503251E+00
          2   -1    0    0  502    0  0.00000000000E+00  0.00000000000E+00  0.18899711363E+04  0.18899711363E+04  0.00000000000E+00 0. -1.
          1   -1    0    0  501    0 -0.00000000000E+00 -0.00000000000E+00 -0.14537886133E+04  0.14537886133E+04  0.00000000000E+00 0. -1.
         25    2    1    2    0    0 -0.22901599929E+02  0.61287232665E+02  0.13938340159E+04  0.14009565197E+04  0.12500119179E+03 0.  0.
          2    1    1    2  501    0  0.45271332320E+02 -0.55955197819E+02 -0.14490652593E+04  0.14508516821E+04  0.00000000000E+00 0. -1.
          1    1    1    2  502    0 -0.22369732391E+02 -0.53320348466E+01  0.49141376648E+03  0.49195154782E+03  0.00000000000E+00 0. -1.
         22    1    3    3    0    0 -0.51896587107E+02  0.48002325024E+02  0.37391550250E+03  0.38053946178E+03  0.00000000000E+00 0. -1.
         22    1    3    3    0    0  0.28994987178E+02  0.13284907641E+02  0.10199185134E+04  0.10204170579E+04  0.00000000000E+00 0. -1.
</event>
<event>
 7    1  0.6370239E-006  0.1121573E+03  0.7818608E-02  0.1427650E+00
          2   -1    0    0  502    0  0.00000000000E+00  0.00000000000E+00  0.21079674212E+04  0.21079674212E+04  0.00000000000E+00 0. -1.
          1   -1    0    0  501    0 -0.00000000000E+00 -0.00000000000E+00 -0.12629911151E+03  0.12629911151E+03  0.00000000000E+00 0. -1.
         25    2    1    2    0    0  0.47875398214E+02 -0.10405007352E+03  0.26734454401E+03  0.31656897060E+03  0.12499734550E+03 0.  0.
          2    1    1    2  501    0 -0.23071220191E+02  0.10978127036E+03 -0.70629871788E+02  0.13256239026E+03  0.00000000000E+00 0. -1.
          1    1    1    2  502    0 -0.24804178023E+02 -0.57311968351E+01  0.17849536374E+04  0.17851351718E+04  0.00000000000E+00 0. -1.
         22    1    3    3    0    0 -0.17903959278E+02 -0.86483098116E+02  0.20904112677E+03  0.22693186356E+03  0.00000000000E+00 0. -1.
         22    1    3    3    0    0  0.65779357493E+02 -0.17566975409E+02  0.58303417241E+02  0.89637107044E+02  0.00000000000E+00 0. -1.
</event>
<event>
 7    1  0.6370239E-006  0.1122618E+03  0.7818608E-02  0.1277617E+00
          2   -1    0    0  502    0  0.00000000000E+00  0.00000000000E+00  0.32803572221E+03  0.32803572221E+03  0.00000000000E+00 0. -1.
          1   -1    0    0  501    0 -0.00000000000E+00 -0.00000000000E+00 -0.17651339004E+03  0.17651339004E+03  0.00000000000E+00 0. -1.
         25    2    1    2    0    0  0.83755813261E+02 -0.99619291426E+01  0.99511538524E+01  0.15112296655E+03  0.12499939707E+03 0.  0.
          2    1    1    2  501    0 -0.11658349563E+03 -0.75319180414E+02 -0.44807628039E+02  0.14585065622E+03  0.00000000000E+00 0. -1.
          1    1    1    2  502    0  0.32827682364E+02  0.85281109557E+02  0.18637880635E+03  0.20757548948E+03  0.00000000000E+00 0. -1.
         22    1    3    3    0    0  0.34809940108E+02 -0.57539407865E+02  0.38094346041E+02  0.77289679700E+02  0.00000000000E+00 0.  1.
         22    1    3    3    0    0  0.48945873152E+02  0.47577478723E+02 -0.28143192189E+02  0.73833286848E+02  0.00000000000E+00 0.  1.
</event>
<event>
 7    1  0.6370239E-006  0.6156276E+02  0.7818608E-02  0.1400146E+00
          2   -1    0    0  502    0  0.00000000000E+00  0.00000000000E+00  0.12361887125E+02  0.12361887125E+02  0.00000000000E+00 0. -1.
          1   -1    0    0  501    0 -0.00000000000E+00 -0.00000000000E+00 -0.15978153556E+04  0.15978153556E+04  0.00000000000E+00 0. -1.
         25    2    1    2    0    0 -0.13966224309E+02  0.24844066618E+02 -0.71309455831E+03  0.72452840741E+03  0.12500112392E+03 0.  0.
          2    1    1    2  501    0 -0.57335193059E+02  0.29959956262E+01 -0.59992981717E+03  0.60267079396E+03  0.00000000000E+00 0. -1.
          1    1    1    2  502    0  0.71301417368E+02 -0.27840062244E+02 -0.27242909296E+03  0.28297804133E+03  0.00000000000E+00 0. -1.
         22    1    3    3    0    0 -0.26025823438E+02  0.17048309351E+02 -0.37261655326E+02  0.48542963393E+02  0.00000000000E+00 0.  1.
         22    1    3    3    0    0  0.12059599129E+02  0.77957572665E+01 -0.67583290298E+03  0.67598544401E+03  0.00000000000E+00 0.  1.
</event>
<event>
 7    1  0.6370239E-006  0.7058971E+02  0.7818608E-02  0.1366622E+00
          2   -1    0    0  502    0  0.00000000000E+00  0.00000000000E+00  0.11088277650E+04  0.11088277650E+04  0.00000000000E+00 0. -1.
          1   -1    0    0  501    0 -0.00000000000E+00 -0.00000000000E+00 -0.30158335994E+04  0.30158335994E+04  0.00000000000E+00 0. -1.
         25    2    1    2    0    0  0.17657675348E+02  0.66235530074E+02  0.39895283694E+03  0.42365994712E+03  0.12500178299E+03 0.  0.
          2    1    1    2  501    0  0.46715943377E+02 -0.52963879523E+02 -0.30015153844E+04  0.30023461084E+04  0.00000000000E+00 0. -1.
          1    1    1    2  502    0 -0.64373618726E+02 -0.13271650551E+02  0.69555671306E+03  0.69865530885E+03  0.00000000000E+00 0. -1.
         22    1    3    3    0    0  0.39759195847E+02  0.93383919706E+02  0.34260740223E+03  0.35732503715E+03  0.00000000000E+00 0. -1.
         22    1    3    3    0    0 -0.22101520499E+02 -0.27148389632E+02  0.56345434711E+02  0.66334909970E+02  0.00000000000E+00 0. -1.
</event>
<event>
 7    1  0.6370239E-006  0.9546500E+02  0.7818608E-02  0.1309234E+00
          2   -1    0    0  502    0  0.00000000000E+00  0.00000000000E+00  0.10731176035E+04  0.10731176035E+04  0.00000000000E+00 0. -1.
          1   -1    0    0  501    0 -0.00000000000E+00 -0.00000000000E+00 -0.18974787444E+03  0.18974787444E+03  0.00000000000E+00 0. -1.
         25    2    1    2    0    0  0.41443764596E+02 -0.14233561213E+02 -0.23417922485E+02  0.13451619509E+03  0.12500411097E+03 0.  0.
          2    1    1    2  501    0 -0.77295048777E+02 -0.74243849347E+02 -0.82010565272E+02  0.13495334952E+03  0.00000000000E+00 0. -1.
          1    1    1    2  502    0  0.35851284181E+02  0.88477410560E+02  0.98879821682E+03  0.99339593332E+03  0.00000000000E+00 0. -1.
         22    1    3    3    0    0  0.11080594868E+02  0.49911299433E+02 -0.35882416480E+02  0.62461709920E+02  0.00000000000E+00 0.  1.
         22    1    3    3    0    0  0.30363169728E+02 -0.64144860646E+02  0.12464493995E+02  0.72054485175E+02  0.00000000000E+00 0.  1.
</event>
<event>
 7    1  0.6370239E-006  0.8211726E+02  0.7818608E-02  0.1325286E+00
          2   -1    0    0  502    0  0.00000000000E+00  0.00000000000E+00  0.11892476601E+04  0.11892476601E+04  0.00000000000E+00 0. -1.
          1   -1    0    0  501    0 -0.00000000000E+00 -0.00000000000E+00 -0.75110719431E+03  0.75110719431E+03  0.00000000000E+00 0. -1.
         25    2    1    2    0    0  0.89179693703E+02 -0.10418992242E+02 -0.96161608531E+02  0.18147280655E+03  0.12499500547E+03 0.  0.
          2    1    1    2  501    0 -0.55764885122E+02 -0.62899376438E+02 -0.60797908446E+03  0.61376267490E+03  0.00000000000E+00 0. -1.
          1    1    1    2  502    0 -0.33414808582E+02  0.73318368680E+02  0.11422811587E+04  0.11451193729E+04  0.00000000000E+00 0. -1.
         22    1    3    3    0    0 -0.73183077532E+01  0.57559227157E+01 -0.82096550718E+02  0.82622829257E+02  0.00000000000E+00 0.  1.
         22    1    3    3    0    0  0.96498001456E+02 -0.16174914958E+02 -0.14065057813E+02  0.98849977290E+02  0.00000000000E+00 0.  1.
</event>
<event>
 7    1  0.6370239E-006  0.7714565E+02  0.7818608E-02  0.1350703E+00
          2   -1    0    0  502    0  0.00000000000E+00  0.00000000000E+00  0.22644573063E+04  0.22644573063E+04  0.00000000000E+00 0. -1.
          1   -1    0    0  501    0 -0.00000000000E+00 -0.00000000000E+00 -0.24076009455E+03  0.24076009455E+03  0.00000000000E+00 0. -1.
         25    2    1    2    0    0  0.46210045480E+01 -0.14004062827E+03  0.13891209054E+03  0.23356826915E+03  0.12499934483E+03 0.  0.
          2    1    1    2  501    0  0.16519203784E+02  0.66755213803E+02 -0.18659568422E+03  0.19886450672E+03  0.00000000000E+00 0. -1.
          1    1    1    2  502    0 -0.21140208332E+02  0.73285414468E+02  0.20713808054E+04  0.20727846250E+04  0.00000000000E+00 0. -1.
         22    1    3    3    0    0 -0.27749665748E+02 -0.15095621366E+03  0.11030347441E+03  0.18900973218E+03  0.00000000000E+00 0.  1.
         22    1    3    3    0    0  0.32370670296E+02  0.10915585394E+02  0.28608616134E+02  0.44558536971E+02  0.00000000000E+00 0.  1.
</event>
<event>
 7    1  0.6370239E-006  0.1603667E+03  0.7818608E-02  0.1261801E+00
          2   -1    0    0  502    0  0.00000000000E+00  0.00000000000E+00  0.36833387397E+03  0.36833387397E+03  0.00000000000E+00 0. -1.
          1   -1    0    0  501    0 -0.00000000000E+00 -0.00000000000E+00 -0.12732764386E+04  0.12732764386E+04  0.00000000000E+00 0. -1.
         25    2    1    2    0    0  0.11312986328E+03 -0.25856533390E+02 -0.23483033616E+03  0.29022287362E+03  0.12496840923E+03 0.  0.
          2    1    1    2  501    0 -0.17282801753E+03 -0.18789455616E+02 -0.99907320150E+03  0.10140857110E+04  0.00000000000E+00 0. -1.
          1    1    1    2  502    0  0.59698154253E+02  0.44645989006E+02  0.32896097300E+03  0.33730172800E+03  0.00000000000E+00 0. -1.
         22    1    3    3    0    0  0.76494109505E+02 -0.54855343882E+02 -0.22295866692E+03  0.24201451340E+03  0.00000000000E+00 0. -1.
         22    1    3    3    0    0  0.36635753775E+02  0.28998810492E+02 -0.11871669245E+02  0.48208360221E+02  0.00000000000E+00 0. -1.
</event>
<event>
 7    1  0.6370239E-006  0.5864378E+02  0.7818608E-02  0.1434277E+00
          2   -1    0    0  502    0  0.00000000000E+00  0.00000000000E+00  0.44019396851E+03  0.44019396851E+03  0.00000000000E+00 0. -1.
          1   -1    0    0  501    0 -0.00000000000E+00 -0.00000000000E+00 -0.50170215557E+03  0.50170215557E+03  0.00000000000E+00 0. -1.
         25    2    1    2    0    0 -0.10035611973E+02 -0.70793575223E+02  0.33738980776E+03  0.36683557462E+03  0.12499605044E+03 0.  0.
          2    1    1    2  501    0  0.43764018849E+02  0.39065869329E+02 -0.47897749955E+03  0.48255660452E+03  0.00000000000E+00 0. -1.
          1    1    1    2  502    0 -0.33728406876E+02  0.31727705894E+02  0.80079504735E+02  0.92503944944E+02  0.00000000000E+00 0. -1.
         22    1    3    3    0    0  0.28086362910E+01  0.36024071417E+02  0.75206698019E+02  0.83436620175E+02  0.00000000000E+00 0. -1.
         22    1    3    3    0    0 -0.12844248264E+02 -0.10681764664E+03  0.26218310974E+03  0.28339895444E+03  0.00000000000E+00 0. -1.
</event>
<event>
 7    1  0.6370239E-006  0.6866707E+02  0.7818608E-02  0.1460344E+00
          2   -1    0    0  502    0  0.00000000000E+00  0.00000000000E+00  0.28270825313E+03  0.28270825313E+03  0.00000000000E+00 0. -1.
          1   -1    0    0  501    0 -0.00000000000E+00 -0.00000000000E+00 -0.17224562459E+04  0.17224562459E+04  0.00000000000E+00 0. -1.
         25    2    1    2    0    0  0.70973109174E+02 -0.65754678471E+02 -0.67104050877E+03  0.68940625302E+03  0.12499902931E+03 0.  0.
          2    1    1    2  501    0 -0.31000973562E+02  0.10124238227E+02 -0.10376837501E+04  0.10381960922E+04  0.00000000000E+00 0. -1.
          1    1    1    2  502    0 -0.39972135613E+02  0.55630440243E+02  0.26897626611E+03  0.27756215383E+03  0.00000000000E+00 0. -1.
         22    1    3    3    0    0  0.80047357608E+02  0.44726029141E+01 -0.45636476072E+03  0.46335340558E+03  0.00000000000E+00 0. -1.
         22    1    3    3    0    0 -0.90742484331E+01 -0.70227281385E+02 -0.21467574805E+03  0.22605284744E+03  0.00000000000E+00 0. -1.
</event>
<event>
 7    1  0.6370239E-006  0.2633061E+03  0.7818608E-02  0.1240566E+00
          2   -1    0    0  502    0  0.00000000000E+00  0.00000000000E+00  0.58393780689E+03  0.58393780689E+03  0.00000000000E+00 0. -1.
          1   -1    0    0  501    0 -0.00000000000E+00 -0.00000000000E+00 -0.36897447315E+03  0.36897447315E+03  0.00000000000E+00 0. -1.
         25    2    1    2    0    0  0.21610111146E+03  0.16078686249E+03  0.54625149945E+02  0.30192896896E+03  0.12500035908E+03 0.  0.
          2    1    1    2  501    0  0.22720444397E+02 -0.51302515028E+02 -0.19848464466E+03  0.20626274702E+03  0.00000000000E+00 0. -1.
          1    1    1    2  502    0 -0.23882155585E+03 -0.10948434746E+03  0.35882282846E+03  0.44472056406E+03  0.00000000000E+00 0. -1.
         22    1    3    3    0    0  0.15945913432E+03  0.90337691564E+02 -0.20469840739E+02  0.18441021776E+03  0.00000000000E+00 0. -1.
         22    1    3    3    0    0  0.56641977135E+02  0.70449170921E+02  0.75094990684E+02  0.11751875120E+03  0.00000000000E+00 0. -1.
</event>
<event>
 7    1  0.6370239E-006  0.1675407E+03  0.7818608E-02  0.1252164E+00
          2   -1    0    0  502    0  0.00000000000E+00  0.00000000000E+00  0.70535533816E+03  0.70535533816E+03  0.00000000000E+00 0. -1.
          1   -1    0    0  501    0 -0.00000000000E+00 -0.00000000000E+00 -0.70460091025E+03  0.70460091025E+03  0.00000000000E+00 0. -1.
         25    2    1    2    0    0  0.19327823913E+03  0.14369137580E+03  0.51377905902E+02  0.27616769417E+03  0.12500086755E+03 0.  0.
          2    1    1    2  501    0 -0.13291508626E+03 -0.93539393689E+02 -0.57809644268E+03  0.60050939657E+03  0.00000000000E+00 0. -1.
          1    1    1    2  502    0 -0.60363152870E+02 -0.50151982108E+02  0.52747296468E+03  0.53327915767E+03  0.00000000000E+00 0. -1.
         22    1    3    3    0    0  0.68063189227E+02  0.14447956464E+02  0.65635004158E+02  0.95651946894E+02  0.00000000000E+00 0.  1.
         22    1    3    3    0    0  0.12521504991E+03  0.12924341933E+03 -0.14257098256E+02  0.18051574727E+03  0.00000000000E+00 0.  1.
</event>
<event>
 7    1  0.6370239E-006  0.1501704E+03  0.7818608E-02  0.1352706E+00
          2   -1    0    0  502    0  0.00000000000E+00  0.00000000000E+00  0.70319142507E+03  0.70319142507E+03  0.00000000000E+00 0. -1.
          1   -1    0    0  501    0 -0.00000000000E+00 -0.00000000000E+00 -0.27450867719E+04  0.27450867719E+04  0.00000000000E+00 0. -1.
         25    2    1    2    0    0 -0.56810718237E+02  0.11924090107E+03  0.31113518667E+03  0.36038159555E+03  0.12499575925E+03 0.  0.
          2    1    1    2  501    0  0.34903430100E+02 -0.14619126308E+03 -0.27175615986E+04  0.27217147494E+04  0.00000000000E+00 0. -1.
          1    1    1    2  502    0  0.21907288137E+02  0.26950362009E+02  0.36453106514E+03  0.36618185200E+03  0.00000000000E+00 0. -1.
         22    1    3    3    0    0  0.35938695726E+02  0.82088010569E+01  0.72004463883E+02  0.80892626885E+02  0.00000000000E+00 0.  1.
         22    1    3    3    0    0 -0.92749413963E+02  0.11103210002E+03  0.23913072279E+03  0.27948896866E+03  0.00000000000E+00 0.  1.
</event>
<event>
 7    1  0.6370239E-006  0.3926056E+02  0.7818608E-02  0.1615429E+00
          2   -1    0    0  502    0  0.00000000000E+00  0.00000000000E+00  0.14597674649E+04  0.14597674649E+04  0.00000000000E+00 0. -1.
          1   -1    0    0  501    0 -0.00000000000E+00 -0.00000000000E+00 -0.60643078651E+02  0.60643078651E+02  0.00000000000E+00 0. -1.
         25    2    1    2    0    0 -0.30583607069E+02 -0.19937833201E+02  0.45307743501E+03  0.47142005823E+03  0.12499933989E+03 0.  0.
          2    1    1    2  501    0  0.13402488191E+02 -0.15737726699E+02 -0.48986558963E+02  0.53169405586E+02  0.00000000000E+00 0. -1.
          1    1    1    2  502    0  0.17181118878E+02  0.35675559900E+02  0.99503351024E+03  0.99582107977E+03  0.00000000000E+00 0. -1.
         22    1    3    3    0    0  0.41442322339E+02  0.21919823745E+02  0.15801534939E+03  0.16482352804E+03  0.00000000000E+00 0.  1.
         22    1    3    3    0    0 -0.72025929408E+02 -0.41857656946E+02  0.29506208562E+03  0.30659653019E+03  0.00000000000E+00 0.  1.
</event>
<event>
 7    1  0.6370239E-006  0.8634249E+02  0.7818608E-02  0.1408876E+00
          2   -1    0    0  502    0  0.00000000000E+00  0.00000000000E+00  0.18269150931E+03  0.18269150931E+03  0.00000000000E+00 0. -1.
          1   -1    0    0  501    0 -0.00000000000E+00 -0.00000000000E+00 -0.10865674197E+04  0.10865674197E+04  0.00000000000E+00 0. -1.
         25    2    1    2    0    0  0.36301190740E+02  0.11709132126E+03 -0.28213956166E+03  0.33204812380E+03  0.12500028119E+03 0.  0.
          2    1    1    2  501    0 -0.57088683470E+01 -0.37790796924E+02 -0.76751329299E+03  0.76846430654E+03  0.00000000000E+00 0. -1.
          1    1    1    2  502    0 -0.30592322393E+02 -0.79300524332E+02  0.14577694425E+03  0.16874649870E+03  0.00000000000E+00 0. -1.
         22    1    3    3    0    0  0.41875972851E+02  0.11209091400E+03 -0.29434002416E+03  0.31773262333E+03  0.00000000000E+00 0.  1.
         22    1    3    3    0    0 -0.55747821105E+01  0.50004072538E+01  0.12200462502E+02  0.14315500464E+02  0.00000000000E+00 0.  1.
</event>
<event>
 7    1  0.7853791E-006  0.1224373E+03  0.7818608E-02  0.1305976E+00
          2   -1    0    0  502    0  0.00000000000E+00  0.00000000000E+00  0.64612655715E+03  0.64612655715E+03  0.00000000000E+00 0. -1.
          1   -1    0    0  501    0 -0.00000000000E+00 -0.00000000000E+00 -0.13884515668E+04  0.13884515668E+04  0.00000000000E+00 0. -1.
         25    2    1    2    0    0 -0.78075285712E+02 -0.22088721231E+01 -0.24853608827E+03  0.28895805930E+03  0.12500377397E+03 0.  0.
          2    1    1    2  501    0 -0.30750470375E+02 -0.56460127932E+02 -0.11126624030E+04  0.11145182638E+04  0.00000000000E+00 0. -1.
          1    1    1    2  502    0  0.10882575609E+03  0.58669000055E+02  0.61887348159E+03  0.63110180080E+03  0.00000000000E+00 0. -1.
         22    1    3    3    0    0 -0.10699411865E+03 -0.78868880262E+00 -0.13759352420E+03  0.17429957361E+03  0.00000000000E+00 0.  1.
         22    1    3    3    0    0  0.28918832943E+02 -0.14201833205E+01 -0.11094256407E+03  0.11465848570E+03  0.00000000000E+00 0.  1.
</event>
<event>
 7    1  0.6370239E-006  0.5439817E+02  0.7818608E-02  0.1547581E+00
          2   -1    0    0  502    0  0.00000000000E+00  0.00000000000E+00  0.34022469121E+03  0.34022469121E+03  0.00000000000E+00 0. -1.
          1   -1    0    0  501    0 -0.00000000000E+00 -0.00000000000E+00 -0.32161321658E+03  0.32161321658E+03  0.00000000000E+00 0. -1.
         25    2    1    2    0    0 -0.71471621145E+02 -0.22627919460E+02 -0.93265808842E+02  0.17304145973E+03  0.12499848127E+03 0.  0.
          2    1    1    2  501    0  0.18215351727E+02  0.13491229091E+02 -0.18533309930E+03  0.18671413979E+03  0.00000000000E+00 0. -1.
          1    1    1    2  502    0  0.53256269418E+02  0.91366903687E+01  0.29721038277E+03  0.30208230827E+03  0.00000000000E+00 0. -1.
         22    1    3    3    0    0 -0.21680832300E+02 -0.71172873006E+02 -0.34566181251E+02  0.82039363889E+02  0.00000000000E+00 0.  1.
         22    1    3    3    0    0 -0.49790788845E+02  0.48544953545E+02 -0.58699627590E+02  0.91002095843E+02  0.00000000000E+00 0.  1.
</event>
<event>
 7    1  0.6370239E-006  0.9428634E+02  0.7818608E-02  0.1349052E+00
          2   -1    0    0  502    0  0.00000000000E+00  0.00000000000E+00  0.37423065691E+03  0.37423065691E+03  0.00000000000E+00 0. -1.
          1   -1    0    0  501    0 -0.00000000000E+00 -0.00000000000E+00 -0.58899206989E+03  0.58899206989E+03  0.00000000000E+00 0. -1.
         25    2    1    2    0    0 -0.62264134925E+02 -0.59606069491E+01 -0.40242457545E+02  0.14545044650E+03  0.12499610260E+03 0.  0.
          2    1    1    2  501    0 -0.13664474629E+02 -0.55405486470E+02 -0.48703275255E+03  0.49036454588E+03  0.00000000000E+00 0. -1.
          1    1    1    2  502    0  0.75928609554E+02  0.61366093419E+02  0.31251379711E+03  0.32740773442E+03  0.00000000000E+00 0. -1.
         22    1    3    3    0    0 -0.22657791497E+02 -0.64897527180E+02 -0.21166334751E+02  0.71924114707E+02  0.00000000000E+00 0.  1.
         22    1    3    3    0    0 -0.39606343429E+02  0.58936920231E+02 -0.19076122794E+02  0.73526331793E+02  0.00000000000E+00 0.  1.
</event>
<event>
 7    1  0.6370239E-006  0.1536641E+03  0.7818608E-02  0.1274918E+00
          2   -1    0    0  502    0  0.00000000000E+00  0.00000000000E+00  0.11939119657E+04  0.11939119657E+04  0.00000000000E+00 0. -1.
          1   -1    0    0  501    0 -0.00000000000E+00 -0.00000000000E+00 -0.93264662301E+03  0.93264662301E+03  0.00000000000E+00 0. -1.
         25    2    1    2    0    0 -0.19468160411E+01  0.12136691199E+03 -0.31043288765E+03  0.35598991935E+03  0.12500610994E+03 0.  0.
          2    1    1    2  501    0  0.65776747014E+02  0.19149193700E+02 -0.59236787606E+03  0.59631616836E+03  0.00000000000E+00 0. -1.
          1    1    1    2  502    0 -0.63829930973E+02 -0.14051610569E+03  0.11640661064E+04  0.11742525010E+04  0.00000000000E+00 0. -1.
         22    1    3    3    0    0  0.24342632029E+02  0.13518490353E+03 -0.28693693340E+03  0.31811998620E+03  0.00000000000E+00 0. -1.
         22    1    3    3    0    0 -0.26289448070E+02 -0.13817991536E+02 -0.23495954257E+02  0.37869933145E+02  0.00000000000E+00 0. -1.
</event>
<event>
 7    1  0.6370239E-006  0.5155302E+02  0.7818608E-02  0.1539161E+00
          2   -1    0    0  502    0  0.00000000000E+00  0.00000000000E+00  0.32016956985E+03  0.32016956985E+03  0.00000000000E+00 0. -1.
          1   -1    0    0  501    0 -0.00000000000E+00 -0.00000000000E+00 -0.90141037446E+03  0.90141037446E+03  0.00000000000E+00 0. -1.
         25    2    1    2    0    0 -0.87478248819E+01  0.32775026308E+02 -0.35715791426E+03  0.37991870561E+03  0.12500288142E+03 0.  0.
          2    1    1    2  501    0 -0.54988207365E+01 -0.53633726874E+02 -0.53098811713E+03  0.53371827234E+03  0.00000000000E+00 0. -1.
          1    1    1    2  502    0  0.14246645618E+02  0.20858700566E+02  0.30690522679E+03  0.30794296636E+03  0.00000000000E+00 0. -1.
         22    1    3    3    0    0  0.36253391528E+02 -0.26971952690E+02 -0.21041351764E+03  0.21521069452E+03  0.00000000000E+00 0. -1.
         22    1    3    3    0    0 -0.45001216410E+02  0.59746978999E+02 -0.14674439662E+03  0.16470801109E+03  0.00000000000E+00 0. -1.
</event>
<event>
 7    1  0.6370239E-006  0.9056538E+02  0.7818608E-02  0.1445960E+00
          2   -1    0    0  502    0  0.00000000000E+00  0.00000000000E+00  0.14094633411E+04  0.14094633411E+04  0.00000000000E+00 0. -1.
          1   -1    0    0  501    0 -0.00000000000E+00 -0.00000000000E+00 -0.11879060579E+03  0.11879060579E+03  0.00000000000E+00 0. -1.
         25    2    1    2    0    0  0.18723008746E+02  0.11438027334E+03  0.31108978044E+03  0.35473195593E+03  0.12499804430E+03 0.  0.
          2    1    1    2  501    0 -0.55048087271E+01 -0.26920994419E+02 -0.93165451130E+02  0.97133125883E+02  0.00000000000E+00 0. -1.
          1    1    1    2  502    0 -0.13218200019E+02 -0.87459278925E+02  0.10727484061E+04  0.10763888651E+04  0.00000000000E+00 0. -1.
         22    1    3    3    0    0  0.53004183972E+01 -0.23983154017E+02  0.18341221389E+02  0.30654306611E+02  0.00000000000E+00 0. -1.
         22    1    3    3    0    0  0.13422590349E+02  0.13836342736E+03  0.29274855905E+03  0.32407764932E+03  0.00000000000E+00 0. -1.
</event>
<event>
 7    1  0.6370239E-006  0.1049313E+03  0.7818608E-02  0.1298163E+00
          2   -1    0    0  502    0  0.00000000000E+00  0.00000000000E+00  0.10329077260E+04  0.10329077260E+04  0.00000000000E+00 0. -1.
          1   -1    0    0  501    0 -0.00000000000E+00 -0.00000000000E+00 -0.24832833241E+04  0.24832833241E+04  0.00000000000E+00 0. -1.
         25    2    1    2    0    0 -0.35290182119E+02 -0.81181732108E+02  0.69429159604E+03  0.71098588790E+03  0.12499696745E+03 0.  0.
          2    1    1    2  501    0 -0.80044529260E+02 -0.94433179178E+01 -0.24579570109E+04  0.24592781400E+04  0.00000000000E+00 0. -1.
          1    1    1    2  502    0  0.11533471138E+03  0.90625050026E+02  0.31328981673E+03  0.34592702208E+03  0.00000000000E+00 0. -1.
         22    1    3    3    0    0  0.25117287154E+02 -0.87879663651E+02  0.37654693468E+03  0.38748071876E+03  0.00000000000E+00 0.  1.
         22    1    3    3    0    0 -0.60407469273E+02  0.66979315428E+01  0.31774466137E+03  0.32350516914E+03  0.00000000000E+00 0.  1.
</event>
<event>
 7    1  0.6370239E-006  0.5741459E+02  0.7818608E-02  0.1508280E+00
          2   -1    0    0  502    0  0.00000000000E+00  0.00000000000E+00  0.11933880441E+03  0.11933880441E+03  0.00000000000E+00 0. -1.
          1   -1    0    0  501    0 -0.00000000000E+00 -0.00000000000E+00 -0.80490469164E+03  0.80490469164E+03  0.00000000000E+00 0. -1.
         25    2    1    2    0    0 -0.79834551540E+02  0.21546634683E+02 -0.44166788154E+03  0.46640403098E+03  0.12499755773E+03 0.  0.
          2    1    1    2  501    0  0.27800292394E+02  0.17374777018E+01 -0.34266840970E+03  0.34379865342E+03  0.00000000000E+00 0. -1.
          1    1    1    2  502    0  0.52034259145E+02 -0.23284112385E+02  0.98770404012E+02  0.11404081166E+03  0.00000000000E+00 0. -1.
         22    1    3    3    0    0 -0.78643529878E+02  0.62691631715E+02 -0.23403090058E+03  0.25472633925E+03  0.00000000000E+00 0. -1.
         22    1    3    3    0    0 -0.11910216615E+01 -0.41144997032E+02 -0.20763698096E+03  0.21167769173E+03  0.00000000000E+00 0. -1.
</event>
<event>
 7    1  0.6370239E-006  0.9816071E+02  0.7818608E-02  0.1327147E+00
          2   -1    0    0  502    0  0.00000000000E+00  0.00000000000E+00  0.17175351630E+04  0.17175351630E+04  0.00000000000E+00 0. -1.
          1   -1    0    0  501    0 -0.00000000000E+00 -0.00000000000E+00 -0.12073066403E+03  0.12073066403E+03  0.00000000000E+00 0. -1.
         25    2    1    2    0    0 -0.50565395428E+02 -0.52277856196E+02  0.76432316138E+02  0.16357497056E+03  0.12500015431E+03 0.  0.
          2    1    1    2  501    0  0.10849395194E+03  0.20020830625E+02 -0.36652711369E+02  0.11625486018E+03  0.00000000000E+00 0. -1.
          1    1    1    2  502    0 -0.57928556509E+02  0.32257025571E+02  0.15570248942E+04  0.15584359963E+04  0.00000000000E+00 0. -1.
         22    1    3    3    0    0 -0.26785784314E+02 -0.52733358528E+02  0.10854511655E+03  0.12361362251E+03  0.00000000000E+00 0.  1.
         22    1    3    3    0    0 -0.23779611114E+02  0.45550233125E+00 -0.32112800414E+02  0.39961348045E+02  0.00000000000E+00 0.  1.
</event>
<event>
 7    1  0.6370239E-006  0.8977039E+02  0.7818608E-02  0.1343961E+00
          2   -1    0    0  502    0  0.00000000000E+00  0.00000000000E+00  0.31261842319E+03  0.31261842319E+03  0.00000000000E+00 0. -1.
          1   -1    0    0  501    0 -0.00000000000E+00 -0.00000000000E+00 -0.14957463295E+03  0.14957463295E+03  0.00000000000E+00 0. -1.
         25    2    1    2    0    0  0.67962599204E+02  0.36303798032E+02  0.62621892267E+02  0.15963461909E+03  0.12499931832E+03 0.  0.
          2    1    1    2  501    0  0.26807466214E+02 -0.56582021743E+02 -0.77694424316E+02  0.99782708918E+02  0.00000000000E+00 0. -1.
          1    1    1    2  502    0 -0.94770065418E+02  0.20278223711E+02  0.17811632229E+03  0.20277572814E+03  0.00000000000E+00 0. -1.
         22    1    3    3    0    0  0.94837263364E+02  0.81744536340E+01  0.12228099485E+02  0.95971113527E+02  0.00000000000E+00 0.  1.
         22    1    3    3    0    0 -0.26874664159E+02  0.28129344398E+02  0.50393792782E+02  0.63663505566E+02  0.00000000000E+00 0.  1.
</event>
<event>
 7    1  0.6370239E-006  0.1397501E+03  0.7818608E-02  0.1227246E+00
          2   -1    0    0  502    0  0.00000000000E+00  0.00000000000E+00  0.31422323068E+03  0.31422323068E+03  0.00000000000E+00 0. -1.
          1   -1    0    0  501    0 -0.00000000000E+00 -0.00000000000E+00 -0.10298070380E+04  0.10298070380E+04  0.00000000000E+00 0. -1.
         25    2    1    2    0    0 -0.35750476286E+02 -0.62728315624E+02 -0.33578307149E+02  0.14820516119E+03  0.12499731580E+03 0.  0.
          2    1    1    2  501    0  0.14867382208E+03  0.18727738947E+02 -0.91820296658E+03  0.93035010690E+03  0.00000000000E+00 0. -1.
          1    1    1    2  502    0 -0.11292334580E+03  0.44000576677E+02  0.23619746644E+03  0.26547500057E+03  0.00000000000E+00 0. -1.
         22    1    3    3    0    0 -0.28274255969E+01 -0.26669856634E+02  0.46926758305E+02  0.54049942029E+02  0.00000000000E+00 0. -1.
         22    1    3    3    0    0 -0.32923050690E+02 -0.36058458990E+02 -0.80505065454E+02  0.94155219161E+02  0.00000000000E+00 0. -1.
</event>
<event>
 7    1  0.6370239E-006  0.9546828E+02  0.7818608E-02  0.1377270E+00
          2   -1    0    0  502    0  0.00000000000E+00  0.00000000000E+00  0.12432028534E+04  0.12432028534E+04  0.00000000000E+00 0. -1.
          1   -1    0    0  501    0 -0.00000000000E+00 -0.00000000000E+00 -0.47601427938E+02  0.47601427938E+02  0.00000000000E+00 0. -1.
         25    2    1    2    0    0  0.88496825164E+02  0.10207986443E+03  0.22203174943E+03  0.28839946478E+03  0.12499666692E+03 0.  0.
          2    1    1    2  501    0 -0.36857754357E+02 -0.24953305763E+02  0.28641910898E+02  0.52929392445E+02  0.00000000000E+00 0. -1.
          1    1    1    2  502    0 -0.51639070807E+02 -0.77126558665E+02  0.94492776513E+03  0.94947542412E+03  0.00000000000E+00 0. -1.
         22    1    3    3    0    0 -0.79415184639E+00  0.78713614978E+02  0.50240967894E+02  0.93384253036E+02  0.00000000000E+00 0. -1.
         22    1    3    3    0    0  0.89290977010E+02  0.23366249450E+02  0.17179078154E+03  0.19501521174E+03  0.00000000000E+00 0. -1.
</event>
<event>
 7    1  0.9090952E-006  0.1033309E+03  0.7818608E-02  0.1335819E+00
          2   -1    0    0  502    0  0.00000000000E+00  0.00000000000E+00  0.94322368627E+03  0.94322368627E+03  0.00000000000E+00 0. -1.
          1   -1    0    0  501    0 -0.00000000000E+00 -0.00000000000E+00 -0.17107520518E+04  0.17107520518E+04  0.00000000000E+00 0. -1.
         25    2    1    2    0    0  0.26373822180E+02 -0.15142819117E+03 -0.10368977859E+04  0.10556558555E+04  0.12500476506E+03 0.  0.
          2    1    1    2  501    0  0.14321906589E+02  0.56585900480E+02 -0.66033245480E+03  0.66290725747E+03  0.00000000000E+00 0. -1.
          1    1    1    2  502    0 -0.40695728769E+02  0.94842290692E+02  0.92970187518E+03  0.93541262508E+03  0.00000000000E+00 0. -1.
         22    1    3    3    0    0 -0.32781061312E+02 -0.46152826245E+02 -0.14565061510E+03  0.15626510496E+03  0.00000000000E+00 0. -1.
         22    1    3    3    0    0  0.59154883492E+02 -0.10527536493E+03 -0.89124717077E+03  0.89939075051E+03  0.00000000000E+00 0. -1.
</event>
<event>
 7    1  0.6370239E-006  0.3287310E+02  0.7818608E-02  0.1628447E+00
          2   -1    0    0  502    0  0.00000000000E+00  0.00000000000E+00  0.26092193657E+03  0.26092193657E+03  0.00000000000E+00 0. -1.
          1   -1    0    0  501    0 -0.00000000000E+00 -0.00000000000E+00 -0.81884320519E+03  0.81884320519E+03  0.00000000000E+00 0. -1.
         25    2    1    2    0    0  0.21273632601E+02  0.23221357091E+02  0.67860317040E+01  0.12908425188E+03  0.12499957995E+03 0.  0.
          2    1    1    2  501    0 -0.32743110763E+02 -0.34264620364E+01 -0.75665689052E+03  0.75737276286E+03  0.00000000000E+00 0. -1.
          1    1    1    2  502    0  0.11469478162E+02 -0.19794895055E+02  0.19194959019E+03  0.19330812703E+03  0.00000000000E+00 0. -1.
         22    1    3    3    0    0  0.29724407566E+02 -0.46313326517E+02  0.18515192378E+02  0.58062698585E+02  0.00000000000E+00 0.  1.
         22    1    3    3    0    0 -0.84507749652E+01  0.69534683608E+02 -0.11729160674E+02  0.71021553292E+02  0.00000000000E+00 0.  1.
</event>
<event>
 7    1  0.6370239E-006  0.1258250E+03  0.7818608E-02  0.1330464E+00
          2   -1    0    0  502    0  0.00000000000E+00  0.00000000000E+00  0.95196437184E+03  0.95196437184E+03  0.00000000000E+00 0. -1.
          1   -1    0    0  501    0 -0.00000000000E+00 -0.00000000000E+00 -0.51091697356E+03  0.51091697356E+03  0.00000000000E+00 0. -1.
         25    2    1    2    0    0 -0.51397140938E+02 -0.14566455091E+03 -0.54262994860E+02  0.20598307961E+03  0.12499891594E+03 0.  0.
          2    1    1    2  501    0 -0.22615279678E+02  0.44857530983E+02 -0.37464595100E+03  0.37799899148E+03  0.00000000000E+00 0. -1.
          1    1    1    2  502    0  0.74012420615E+02  0.10080701993E+03  0.86995634414E+03  0.87889927431E+03  0.00000000000E+00 0. -1.
         22    1    3    3    0    0 -0.54899035191E+02 -0.10269502863E+02  0.88700863452E+01  0.56551261575E+02  0.00000000000E+00 0. -1.
         22    1    3    3    0    0  0.35018942532E+01 -0.13539504805E+03 -0.63133081206E+02  0.14943181803E+03  0.00000000000E+00 0. -1.
</event>
<event>
 7    1  0.6370239E-006  0.1537137E+03  0.7818608E-02  0.1307163E+00
          2   -1    0    0  502    0  0.00000000000E+00  0.00000000000E+00  0.10478740928E+04  0.10478740928E+04  0.00000000000E+00 0. -1.
          1   -1    0    0  501    0 -0.00000000000E+00 -0.00000000000E+00 -0.93066818143E+02  0.93066818143E+02  0.00000000000E+00 0. -1.
         25    2    1    2    0    0  0.83578768083E+02 -0.87968268088E+02  0.13862661963E+03  0.22263329721E+03  0.12499767475E+03 0.  0.
          2    1    1    2  501    0  0.50651272200E+02  0.83943027265E+00 -0.28823137718E+02  0.58284039724E+02  0.00000000000E+00 0. -1.
          1    1    1    2  502    0 -0.13423004028E+03  0.87128837815E+02  0.84500379272E+03  0.86002357399E+03  0.00000000000E+00 0. -1.
         22    1    3    3    0    0  0.10886228783E+03 -0.91234411276E+02  0.13659205223E+03  0.19705863149E+03  0.00000000000E+00 0.  1.
         22    1    3    3    0    0 -0.25283519751E+02  0.32661431877E+01  0.20345674034E+01  0.25574665723E+02  0.00000000000E+00 0.  1.
</event>
<event>
 7    1  0.6370239E-006  0.6905111E+02  0.7818608E-02  0.1446339E+00
          2   -1    0    0  502    0  0.00000000000E+00  0.00000000000E+00  0.35155455381E+03  0.35155455381E+03  0.00000000000E+00 0. -1.
          1   -1    0    0  501    0 -0.00000000000E+00 -0.00000000000E+00 -0.31665249644E+03  0.31665249644E+03  0.00000000000E+00 0. -1.
         25    2    1    2    0    0  0.65806231371E+02  0.77399929216E+02 -0.57885423581E+02  0.17116453239E+03  0.12500146301E+03 0.  0.
          2    1    1    2  501    0 -0.45502581895E+02 -0.47746548515E+02 -0.19560180804E+03  0.20642258879E+03  0.00000000000E+00 0. -1.
          1    1    1    2  502    0 -0.20303649477E+02 -0.29653380701E+02  0.28838928899E+03  0.29061992907E+03  0.00000000000E+00 0. -1.
         22    1    3    3    0    0 -0.27248704385E+02  0.40512194798E+02  0.10494421752E+02  0.49938589346E+02  0.00000000000E+00 0.  1.
         22    1    3    3    0    0  0.93054935756E+02  0.36887734418E+02 -0.68379845333E+02  0.12122594304E+03  0.00000000000E+00 0.  1.
</event>
<event>
 7    1  0.6370239E-006  0.6015929E+02  0.7818608E-02  0.1492727E+00
          2   -1    0    0  502    0  0.00000000000E+00  0.00000000000E+00  0.78213044779E+03  0.78213044779E+03  0.00000000000E+00 0. -1.
          1   -1    0    0  501    0 -0.00000000000E+00 -0.00000000000E+00 -0.21688300001E+03  0.21688300001E+03  0.00000000000E+00 0. -1.
         25    2    1    2    0    0 -0.80075637991E+02 -0.11911757819E+02  0.26250363529E+02  0.15122856183E+03  0.12500799396E+03 0.  0.
          2    1    1    2  501    0  0.20950952483E+02  0.20881377208E+02 -0.15167311146E+03  0.15453060236E+03  0.00000000000E+00 0. -1.
          1    1    1    2  502    0  0.59124685508E+02 -0.89696193897E+01  0.69067019571E+03  0.69325428362E+03  0.00000000000E+00 0. -1.
         22    1    3    3    0    0 -0.10088588424E+03 -0.44396279510E+02  0.22221361983E+02  0.11244011829E+03  0.00000000000E+00 0.  1.
         22    1    3    3    0    0  0.20810246252E+02  0.32484521691E+02  0.40290015466E+01  0.38788443537E+02  0.00000000000E+00 0.  1.
</event>
<event>
 7    1  0.6370239E-006  0.9434938E+02  0.7818608E-02  0.1370084E+00
          2   -1    0    0  502    0  0.00000000000E+00  0.00000000000E+00  0.13835901215E+04  0.13835901215E+04  0.00000000000E+00 0. -1.
          1   -1    0    0  501    0 -0.00000000000E+00 -0.00000000000E+00 -0.87537792242E+02  0.87537792242E+02  0.00000000000E+00 0. -1.
         25    2    1    2    0    0  0.83092908919E+02  0.65547945473E+02  0.38048167043E+03  0.41423941050E+03  0.12500809179E+03 0.  0.
          2    1    1    2  501    0 -0.92401875341E+02 -0.18680469288E+02 -0.38348994261E+02  0.10177284441E+03  0.00000000000E+00 0. -1.
          1    1    1    2  502    0  0.93089664219E+01 -0.46867476185E+02  0.95391965306E+03  0.95511565880E+03  0.00000000000E+00 0. -1.
         22    1    3    3    0    0 -0.14621758381E+02 -0.16043237544E+02  0.12927398927E+02  0.25264578604E+02  0.00000000000E+00 0.  1.
         22    1    3    3    0    0  0.97714667300E+02  0.81591183017E+02  0.36755427150E+03  0.38897483190E+03  0.00000000000E+00 0.  1.
</event>
<event>
 7    1  0.6370239E-006  0.1323142E+03  0.7818608E-02  0.1276848E+00
          2   -1    0    0  502    0  0.00000000000E+00  0.00000000000E+00  0.15826855229E+04  0.15826855229E+04  0.00000000000E+00 0. -1.
          1   -1    0    0  501    0 -0.00000000000E+00 -0.00000000000E+00 -0.11759568287E+04  0.11759568287E+04  0.00000000000E+00 0. -1.
         25    2    1    2    0    0 -0.17353125474E+03 -0.34181651209E+02 -0.10041820519E+03  0.23872565932E+03  0.12499857134E+03 0.  0.
          2    1    1    2  501    0  0.45081834003E+02  0.63780106269E+02 -0.10019922844E+04  0.10050317467E+04  0.00000000000E+00 0. -1.
          1    1    1    2  502    0  0.12844942073E+03 -0.29598455060E+02  0.15091391838E+04  0.15148849456E+04  0.00000000000E+00 0. -1.
         22    1    3    3    0    0 -0.64734646112E+02 -0.14403921510E+02  0.25584341051E+02  0.71081684484E+02  0.00000000000E+00 0.  1.
         22    1    3    3    0    0 -0.10879660862E+03 -0.19777729699E+02 -0.12600254624E+03  0.16764397484E+03  0.00000000000E+00 0.  1.
</event>
<event>
 7    1  0.6370239E-006  0.2452845E+03  0.7818608E-02  0.1201756E+00
          2   -1    0    0  502    0  0.00000000000E+00  0.00000000000E+00  0.52446219633E+03  0.52446219633E+03  0.00000000000E+00 0. -1.
          1   -1    0    0  501    0 -0.00000000000E+00 -0.00000000000E+00 -0.11164902031E+04  0.11164902031E+04  0.00000000000E+00 0. -1.
         25    2    1    2    0    0 -0.18691840796E+03  0.15956633666E+03 -0.23117411725E+03  0.35981365765E+03  0.12499795485E+03 0.  0.
          2    1    1    2  501    0 -0.46081441253E+02 -0.77846731027E+02 -0.78508691874E+03  0.79028164773E+03  0.00000000000E+00 0. -1.
          1    1    1    2  502    0  0.23299984921E+03 -0.81719605630E+02  0.42423302923E+03  0.49085709404E+03  0.00000000000E+00 0. -1.
         22    1    3    3    0    0 -0.56247571275E+02  0.12207802055E+03 -0.15029227691E+03  0.20162986107E+03  0.00000000000E+00 0. -1.
         22    1    3    3    0    0 -0.13067083668E+03  0.37488316103E+02 -0.80881840349E+02  0.15818379658E+03  0.00000000000E+00 0. -1.
</event>
<event>
 7    1  0.6370239E-006  0.1362344E+03  0.7818608E-02  0.1258944E+00
          2   -1    0    0  502    0  0.00000000000E+00  0.00000000000E+00  0.17243984260E+03  0.17243984260E+03  0.00000000000E+00 0. -1.
          1   -1    0    0  501    0 -0.00000000000E+00 -0.00000000000E+00 -0.68594668883E+03  0.68594668883E+03  0.00000000000E+00 0. -1.
         25    2    1    2    0    0 -0.21386052340E+03  0.99788211757E+01 -0.10205885788E+03  0.26809349903E+03  0.12498885313E+03 0.  0.
          2    1    1    2  501    0  0.12739897103E+03  0.15891598996E+02 -0.46699374587E+03  0.48432034793E+03  0.00000000000E+00 0. -1.
          1    1    1    2  502    0  0.86461552365E+02 -0.25870420172E+02  0.55545757521E+02  0.10597268448E+03  0.00000000000E+00 0. -1.
         22    1    3    3    0    0  0.13169588399E+02  0.66769200114E+01  0.68425960339E+01  0.16273919009E+02  0.00000000000E+00 0.  1.
         22    1    3    3    0    0 -0.22703011180E+03  0.33019011644E+01 -0.10890145392E+03  0.25181958002E+03  0.00000000000E+00 0.  1.
</event>
<event>
 7    1  0.6370239E-006  0.7652416E+02  0.7818608E-02  0.1378452E+00
          2   -1    0    0  502    0  0.00000000000E+00  0.00000000000E+00  0.17156810550E+04  0.17156810550E+04  0.00000000000E+00 0. -1.
          1   -1    0    0  501    0 -0.00000000000E+00 -0.00000000000E+00 -0.37699739633E+03  0.37699739633E+03  0.00000000000E+00 0. -1.
         25    2    1    2    0    0  0.10374446262E+03 -0.67905360418E+02  0.10345259581E+03  0.20421012340E+03  0.12500113368E+03 0.  0.
          2    1    1    2  501    0 -0.53909852303E+02  0.10870815786E+02 -0.32337755097E+03  0.32802055924E+03  0.00000000000E+00 0. -1.
          1    1    1    2  502    0 -0.49834610319E+02  0.57034544632E+02  0.15586086138E+04  0.15604477687E+04  0.00000000000E+00 0. -1.
         22    1    3    3    0    0  0.24530528405E+02 -0.35306641393E+02 -0.25062540293E+02  0.49763808900E+02  0.00000000000E+00 0. -1.
         22    1    3    3    0    0  0.79213934216E+02 -0.32598719024E+02  0.12851513610E+03  0.15444631450E+03  0.00000000000E+00 0. -1.
</event>
<event>
 7    1  0.6370239E-006  0.1234375E+03  0.7818608E-02  0.1340483E+00
          2   -1    0    0  502    0  0.00000000000E+00  0.00000000000E+00  0.19799942906E+04  0.19799942906E+04  0.00000000000E+00 0. -1.
          1   -1    0    0  501    0 -0.00000000000E+00 -0.00000000000E+00 -0.57927399126E+03  0.57927399126E+03  0.00000000000E+00 0. -1.
         25    2    1    2    0    0  0.21691969969E+02  0.16439814368E+03 -0.79575111497E+01  0.20781443953E+03  0.12500491226E+03 0.  0.
          2    1    1    2  501    0  0.99130806290E+01 -0.45863348420E+02 -0.46821293164E+03  0.47055824852E+03  0.00000000000E+00 0. -1.
          1    1    1    2  502    0 -0.31605050598E+02 -0.11853479526E+03  0.18768907421E+04  0.18808955938E+04  0.00000000000E+00 0. -1.
         22    1    3    3    0    0 -0.45498579673E+02  0.10867222369E+03 -0.20636362446E+02  0.11960615540E+03  0.00000000000E+00 0.  1.
         22    1    3    3    0    0  0.67190549642E+02  0.55725919990E+02  0.12678851296E+02  0.88208284135E+02  0.00000000000E+00 0.  1.
</event>
<event>
 7    1  0.6370239E-006  0.1786443E+03  0.7818608E-02  0.1352142E+00
          2   -1    0    0  502    0  0.00000000000E+00  0.00000000000E+00  0.33690006926E+04  0.33690006926E+04  0.00000000000E+00 0. -1.
          1   -1    0    0  501    0 -0.00000000000E+00 -0.00000000000E+00 -0.84133331395E+02  0.84133331395E+02  0.00000000000E+00 0. -1.
         25    2    1    2    0    0  0.19924397538E+03  0.23538788473E+02  0.13984737815E+04  0.14183112984E+04  0.12500314219E+03 0.  0.
          2    1    1    2  501    0 -0.17699779977E+03 -0.44157964103E+01  0.31664981909E+02  0.17986214571E+03  0.00000000000E+00 0. -1.
          1    1    1    2  502    0 -0.22246175615E+02 -0.19122992063E+02  0.18547285979E+04  0.18549605799E+04  0.00000000000E+00 0. -1.
         22    1    3    3    0    0  0.15364553285E+03  0.66951233153E+02  0.11414561790E+04  0.11536947715E+04  0.00000000000E+00 0.  1.
         22    1    3    3    0    0  0.45598442528E+02 -0.43412444680E+02  0.25701760249E+03  0.26461652690E+03  0.00000000000E+00 0.  1.
</event>
<event>
 7    1  0.6370239E-006  0.2567962E+03  0.7818608E-02  0.1218914E+00
          2   -1    0    0  502    0  0.00000000000E+00  0.00000000000E+00  0.75973258466E+03  0.75973258466E+03  0.00000000000E+00 0. -1.
          1   -1    0    0  501    0 -0.00000000000E+00 -0.00000000000E+00 -0.34930994967E+03  0.34930994967E+03  0.00000000000E+00 0. -1.
         25    2    1    2    0    0  0.25133263587E+03  0.97939262687E+02  0.13357703360E+03  0.32592716565E+03  0.12500200149E+03 0.  0.
          2    1    1    2  501    0 -0.20459133047E+03 -0.15263996117E+03 -0.18528589259E+03  0.31541628404E+03  0.00000000000E+00 0. -1.
          1    1    1    2  502    0 -0.46741305404E+02  0.54700698482E+02  0.46213149398E+03  0.46769908464E+03  0.00000000000E+00 0. -1.
         22    1    3    3    0    0  0.23962610510E+03  0.64353186047E+02  0.78268192797E+02  0.26016900815E+03  0.00000000000E+00 0.  1.
         22    1    3    3    0    0  0.11706530770E+02  0.33586076640E+02  0.55308840803E+02  0.65758157500E+02  0.00000000000E+00 0.  1.
</event>
<event>
 7    1  0.6370239E-006  0.7137353E+02  0.7818608E-02  0.1373345E+00
          2   -1    0    0  502    0  0.00000000000E+00  0.00000000000E+00  0.10358142402E+04  0.10358142402E+04  0.00000000000E+00 0. -1.
          1   -1    0    0  501    0 -0.00000000000E+00 -0.00000000000E+00 -0.24004972568E+02  0.24004972568E+02  0.00000000000E+00 0. -1.
         25    2    1    2    0    0  0.26091038831E+02 -0.35173077740E+01  0.41845962407E+03  0.43752313586E+03  0.12499969470E+03 0.  0.
          2    1    1    2  501    0 -0.86121192747E+02  0.16821756566E+02  0.14305603147E+03  0.16782389422E+03  0.00000000000E+00 0. -1.
          1    1    1    2  502    0  0.60030153916E+02 -0.13304448792E+02  0.45029361207E+03  0.45447218266E+03  0.00000000000E+00 0. -1.
         22    1    3    3    0    0  0.47210517637E+02 -0.33937046967E+02  0.91082908075E+02  0.10805855947E+03  0.00000000000E+00 0.  1.
         22    1    3    3    0    0 -0.21119478806E+02  0.30419739193E+02  0.32737671599E+03  0.32946457638E+03  0.00000000000E+00 0.  1.
</event>
<event>
 7    1  0.6370239E-006  0.4833518E+02  0.7818608E-02  0.1568528E+00
          2   -1    0    0  502    0  0.00000000000E+00  0.00000000000E+00  0.54549111405E+03  0.54549111405E+03  0.00000000000E+00 0. -1.
          1   -1    0    0  501    0 -0.00000000000E+00 -0.00000000000E+00 -0.36465962269E+03  0.36465962269E+03  0.00000000000E+00 0. -1.
         25    2    1    2    0    0 -0.41870137631E+02 -0.14915672141E+02 -0.28743168926E+03  0.31656637166E+03  0.12498682320E+03 0.  0.
          2    1    1    2  501    0  0.89053844481E+01 -0.20478602616E+02 -0.59529443130E+02  0.63580135550E+02  0.00000000000E+00 0. -1.
          1    1    1    2  502    0  0.32964753183E+02  0.35394274757E+02  0.52779262375E+03  0.53000422953E+03  0.00000000000E+00 0. -1.
         22    1    3    3    0    0 -0.75052544385E+02  0.22693616169E+02 -0.13526899904E+03  0.15635084501E+03  0.00000000000E+00 0. -1.
         22    1    3    3    0    0  0.33182406753E+02 -0.37609288311E+02 -0.15216269022E+03  0.16021552665E+03  0.00000000000E+00 0. -1.
</event>
<event>
 7    1  0.6370239E-006  0.6275136E+02  0.7818608E-02  0.1539242E+00
          2   -1    0    0  502    0  0.00000000000E+00  0.00000000000E+00  0.12394836126E+04  0.12394836126E+04  0.00000000000E+00 0. -1.
          1   -1    0    0  501    0 -0.00000000000E+00 -0.00000000000E+00 -0.14632796083E+04  0.14632796083E+04  0.00000000000E+00 0. -1.
         25    2    1    2    0    0  0.50591566984E+02  0.65932776752E+02  0.76796846165E+03  0.78250152257E+03  0.12500574799E+03 0.  0.
          2    1    1    2  501    0 -0.40816348383E+02 -0.47639750261E+02 -0.14551052376E+04  0.14564569244E+04  0.00000000000E+00 0. -1.
          1    1    1    2  502    0 -0.97752186014E+01 -0.18293026491E+02  0.46334078028E+03  0.46380477400E+03  0.00000000000E+00 0. -1.
         22    1    3    3    0    0  0.40974297583E+02  0.31676709744E+02  0.72440642032E+03  0.72625544321E+03  0.00000000000E+00 0.  1.
         22    1    3    3    0    0  0.96172694012E+01  0.34256067008E+02  0.43562041340E+02  0.56246079359E+02  0.00000000000E+00 0.  1.
</event>
<event>
 7    1  0.6370239E-006  0.8725104E+02  0.7818608E-02  0.1325867E+00
          2   -1    0    0  502    0  0.00000000000E+00  0.00000000000E+00  0.64924601534E+03  0.64924601534E+03  0.00000000000E+00 0. -1.
          1   -1    0    0  501    0 -0.00000000000E+00 -0.00000000000E+00 -0.69948471679E+03  0.69948471679E+03  0.00000000000E+00 0. -1.
         25    2    1    2    0    0  0.47160256722E+02 -0.12940384193E+03  0.16245630856E+03  0.24696271462E+03  0.12501634333E+03 0.  0.
          2    1    1    2  501    0 -0.66003929117E+02  0.56351056216E+02 -0.65113052886E+03  0.65688882302E+03  0.00000000000E+00 0. -1.
          1    1    1    2  502    0  0.18843672395E+02  0.73052785712E+02  0.43843551885E+03  0.44487919448E+03  0.00000000000E+00 0. -1.
         22    1    3    3    0    0  0.45284417809E+02 -0.15051378477E+03  0.16206542863E+03  0.22576598738E+03  0.00000000000E+00 0.  1.
         22    1    3    3    0    0  0.18758389134E+01  0.21109942843E+02  0.39087993461E+00  0.21196727237E+02  0.00000000000E+00 0.  1.
</event>
<event>
 7    1  0.6370239E-006  0.1332739E+03  0.7818608E-02  0.1379488E+00
          2   -1    0    0  502    0  0.00000000000E+00  0.00000000000E+00  0.16273274151E+04  0.16273274151E+04  0.00000000000E+00 0. -1.
          1   -1    0    0  501    0 -0.00000000000E+00 -0.00000000000E+00 -0.21426085791E+04  0.21426085791E+04  0.00000000000E+00 0. -1.
         25    2    1    2    0    0 -0.17293317228E+02  0.10157339991E+03 -0.77569052052E+02  0.17960550487E+03  0.12499986061E+03 0.  0.
          2    1    1    2  501    0  0.44627969874E+00  0.31308006887E+02 -0.20110537541E+04  0.20112974898E+04  0.00000000000E+00 0. -1.
          1    1    1    2  502    0  0.16847037529E+02 -0.13288140680E+03  0.15733416421E+04  0.15790329996E+04  0.00000000000E+00 0. -1.
         22    1    3    3    0    0 -0.13980002722E+02  0.22331509298E+02 -0.94843541640E+02  0.98434923551E+02  0.00000000000E+00 0. -1.
         22    1    3    3    0    0 -0.33133145059E+01  0.79241890615E+02  0.17274489589E+02  0.81170581320E+02  0.00000000000E+00 0. -1.
</event>
<event>
 7    1  0.6370239E-006  0.4218778E+02  0.7818608E-02  0.1505150E+00
          2   -1    0    0  502    0  0.00000000000E+00  0.00000000000E+00  0.80592945819E+03  0.80592945819E+03  0.00000000000E+00 0. -1.
          1   -1    0    0  501    0 -0.00000000000E+00 -0.00000000000E+00 -0.12237453370E+04  0.12237453370E+04  0.00000000000E+00 0. -1.
         25    2    1    2    0    0 -0.22155291446E+02 -0.37376610073E+02 -0.29488198900E+03  0.32321507842E+03  0.12499892626E+03 0.  0.
          2    1    1    2  501    0  0.42513673162E+02  0.44352926137E+01 -0.91372337819E+03  0.91472263342E+03  0.00000000000E+00 0. -1.
          1    1    1    2  502    0 -0.20358381716E+02  0.32941317459E+02  0.79078948841E+03  0.79173708331E+03  0.00000000000E+00 0. -1.
         22    1    3    3    0    0 -0.15660496440E+02  0.15553446052E+02 -0.25665425500E+03  0.25760156724E+03  0.00000000000E+00 0.  1.
         22    1    3    3    0    0 -0.64947950059E+01 -0.52930056125E+02 -0.38227733994E+02  0.65613511184E+02  0.00000000000E+00 0.  1.
</event>
<event>
 7    1  0.6370239E-006  0.5139951E+02  0.7818608E-02  0.1504036E+00
          2   -1    0    0  502    0  0.00000000000E+00  0.00000000000E+00  0.18107097410E+04  0.18107097410E+04  0.00000000000E+00 0. -1.
          1   -1    0    0  501    0 -0.00000000000E+00 -0.00000000000E+00 -0.62771022887E+03  0.62771022887E+03  0.00000000000E+00 0. -1.
         25    2    1    2    0    0 -0.35416411112E+02  0.26768809291E+02  0.95253041221E+02  0.16330634457E+03  0.12499971595E+03 0.  0.
          2    1    1    2  501    0  0.51533440031E+02  0.90752158369E+00 -0.59241201877E+03  0.59464991299E+03  0.00000000000E+00 0. -1.
          1    1    1    2  502    0 -0.16117028919E+02 -0.27676330875E+02  0.16801584897E+04  0.16804637123E+04  0.00000000000E+00 0. -1.
         22    1    3    3    0    0 -0.33135565388E+02  0.21352104128E+01 -0.24347298532E+02  0.41174212353E+02  0.00000000000E+00 0. -1.
         22    1    3    3    0    0 -0.22808457242E+01  0.24633598879E+02  0.11960033975E+03  0.12213213222E+03  0.00000000000E+00 0. -1.
</event>
<event>
 7    1  0.6370239E-006  0.4103319E+02  0.7818608E-02  0.1513513E+00
          2   -1    0    0  502    0  0.00000000000E+00  0.00000000000E+00  0.10309819122E+04  0.10309819122E+04  0.00000000000E+00 0. -1.
          1   -1    0    0  501    0 -0.00000000000E+00 -0.00000000000E+00 -0.79700297955E+02  0.79700297955E+02  0.00000000000E+00 0. -1.
         25    2    1    2    0    0 -0.16141495912E+02 -0.10235229989E+02  0.89969720424E+02  0.15519573824E+03  0.12500343496E+03 0.  0.
          2    1    1    2  501    0 -0.18871703428E+02  0.32541972267E+02 -0.39018573319E+02  0.54199356206E+02  0.00000000000E+00 0. -1.
          1    1    1    2  502    0  0.35013199341E+02 -0.22306742278E+02  0.90033046714E+03  0.90128711571E+03  0.00000000000E+00 0. -1.
         22    1    3    3    0    0 -0.43713760476E+02  0.17846435381E+02  0.10335288788E+03  0.11362749466E+03  0.00000000000E+00 0. -1.
         22    1    3    3    0    0  0.27572264564E+02 -0.28081665370E+02 -0.13383167453E+02  0.41568243578E+02  0.00000000000E+00 0. -1.
</event>
<event>
 7    1  0.6370239E-006  0.7710909E+02  0.7818608E-02  0.1395450E+00
          2   -1    0    0  502    0  0.00000000000E+00  0.00000000000E+00  0.67969912549E+03  0.67969912549E+03  0.00000000000E+00 0. -1.
          1   -1    0    0  501    0 -0.00000000000E+00 -0.00000000000E+00 -0.31617124322E+03  0.31617124322E+03  0.00000000000E+00 0. -1.
         25    2    1    2    0    0 -0.67669661193E+02  0.40392938935E+02  0.35934220307E+02  0.15207577548E+03  0.12500000295E+03 0.  0.
          2    1    1    2  501    0  0.77621799045E+02  0.61350991914E+01 -0.25122950976E+03  0.26301910520E+03  0.00000000000E+00 0. -1.
          1    1    1    2  502    0 -0.99521378520E+01 -0.46528038126E+02  0.57882317172E+03  0.58077548803E+03  0.00000000000E+00 0. -1.
         22    1    3    3    0    0  0.17082489965E+02 -0.97142375183E+01 -0.28347319673E+02  0.34492729765E+02  0.00000000000E+00 0. -1.
         22    1    3    3    0    0 -0.84752151157E+02  0.50107176453E+02  0.64281539981E+02  0.11758304572E+03  0.00000000000E+00 0. -1.
</event>
<event>
 7    1  0.6370239E-006  0.6142876E+02  0.7818608E-02  0.1392140E+00
          2   -1    0    0  502    0  0.00000000000E+00  0.00000000000E+00  0.66165682721E+02  0.66165682721E+02  0.00000000000E+00 0. -1.
          1   -1    0    0  501    0 -0.00000000000E+00 -0.00000000000E+00 -0.33153402844E+03  0.33153402844E+03  0.00000000000E+00 0. -1.
         25    2    1    2    0    0 -0.49256062139E+02  0.50554993205E+02 -0.17227153955E+03  0.22424090911E+03  0.12499813992E+03 0.  0.
          2    1    1    2  501    0 -0.10259813256E+02 -0.65346651520E+02 -0.90474603772E+02  0.11207632471E+03  0.00000000000E+00 0. -1.
          1    1    1    2  502    0  0.59515875394E+02  0.14791658315E+02 -0.26222024013E+01  0.61382477346E+02  0.00000000000E+00 0. -1.
         22    1    3    3    0    0 -0.21913433411E+02  0.41913276916E+02 -0.18637647904E+03  0.19228393923E+03  0.00000000000E+00 0. -1.
         22    1    3    3    0    0 -0.27342628728E+02  0.86417162893E+01  0.14104939488E+02  0.31956969883E+02  0.00000000000E+00 0. -1.
</event>
<event>
 7    1  0.6370239E-006  0.1831856E+03  0.7818608E-02  0.1186916E+00
          2   -1    0    0  502    0  0.00000000000E+00  0.00000000000E+00  0.87981198619E+03  0.87981198619E+03  0.00000000000E+00 0. -1.
          1   -1    0    0  501    0 -0.00000000000E+00 -0.00000000000E+00 -0.16256220692E+03  0.16256220692E+03  0.00000000000E+00 0. -1.
         25    2    1    2    0    0 -0.24401152874E+01 -0.78540712486E+02  0.27739973819E+03  0.31424484706E+03  0.12499844590E+03 0.  0.
          2    1    1    2  501    0 -0.62569047369E+02  0.20538908543E+03 -0.47893776502E+02  0.21998494478E+03  0.00000000000E+00 0. -1.
          1    1    1    2  502    0  0.65009162657E+02 -0.12684837294E+03  0.48774381758E+03  0.50814440126E+03  0.00000000000E+00 0. -1.
         22    1    3    3    0    0  0.29177466367E+01 -0.97107918462E+02  0.27842986857E+03  0.29489261229E+03  0.00000000000E+00 0.  1.
         22    1    3    3    0    0 -0.53578619241E+01  0.18567205975E+02 -0.10301303760E+01  0.19352234773E+02  0.00000000000E+00 0.  1.
</event>
<event>
 7    1  0.6370239E-006  0.3887324E+02  0.7818608E-02  0.1580032E+00
          2   -1    0    0  502    0  0.00000000000E+00  0.00000000000E+00  0.97795684907E+03  0.97795684907E+03  0.00000000000E+00 0. -1.
          1   -1    0    0  501    0 -0.00000000000E+00 -0.00000000000E+00 -0.56711383513E+03  0.56711383513E+03  0.00000000000E+00 0. -1.
         25    2    1    2    0    0 -0.44072412415E+02  0.26647528992E+02  0.14314214210E+03  0.19688826315E+03  0.12499138763E+03 0.  0.
          2    1    1    2  501    0  0.38825074815E+02 -0.13366499325E+01 -0.53933519593E+03  0.54073249083E+03  0.00000000000E+00 0. -1.
          1    1    1    2  502    0  0.52473376003E+01 -0.25310879060E+02  0.80703606777E+03  0.80744993023E+03  0.00000000000E+00 0. -1.
         22    1    3    3    0    0 -0.61024278708E+02 -0.71333092121E+01  0.14938993493E+02  0.63229899722E+02  0.00000000000E+00 0. -1.
         22    1    3    3    0    0  0.16951866293E+02  0.33780838204E+02  0.12820314861E+03  0.13365836343E+03  0.00000000000E+00 0. -1.
</event>
<event>
 7    1  0.6370239E-006  0.1367671E+03  0.7818608E-02  0.1296684E+00
          2   -1    0    0  502    0  0.00000000000E+00  0.00000000000E+00  0.80747188187E+03  0.80747188187E+03  0.00000000000E+00 0. -1.
          1   -1    0    0  501    0 -0.00000000000E+00 -0.00000000000E+00 -0.30471259563E+03  0.30471259563E+03  0.00000000000E+00 0. -1.
         25    2    1    2    0    0 -0.30494528625E+01  0.12195832336E+03  0.45357381714E+03  0.48604278373E+03  0.12500099288E+03 0.  0.
          2    1    1    2  501    0 -0.59601482924E+02 -0.12418698714E+03 -0.26879754133E+03  0.30203784989E+03  0.00000000000E+00 0. -1.
          1    1    1    2  502    0  0.62650935786E+02  0.22286637809E+01  0.31798301043E+03  0.32410384388E+03  0.00000000000E+00 0. -1.
         22    1    3    3    0    0  0.77318648568E+01  0.83985267392E+01 -0.57390913941E+01  0.12777094959E+02  0.00000000000E+00 0. -1.
         22    1    3    3    0    0 -0.10781317719E+02  0.11355979662E+03  0.45931290854E+03  0.47326568877E+03  0.00000000000E+00 0. -1.
</event>
<event>
 7    1  0.6370239E-006  0.8754650E+02  0.7818608E-02  0.1398549E+00
          2   -1    0    0  502    0  0.00000000000E+00  0.00000000000E+00  0.10562224381E+04  0.10562224381E+04  0.00000000000E+00 0. -1.
          1   -1    0    0  501    0 -0.00000000000E+00 -0.00000000000E+00 -0.53275608341E+02  0.53275608341E+02  0.00000000000E+00 0. -1.
         25    2    1    2    0    0 -0.29608057087E+02 -0.50426293015E+02  0.28870646039E+03  0.31999103916E+03  0.12499358703E+03 0.  0.
          2    1    1    2  501    0  0.22895971123E+02  0.90759163650E+02  0.22121092767E+02  0.96181048161E+02  0.00000000000E+00 0. -1.
          1    1    1    2  502    0  0.67120859641E+01 -0.40332870635E+02  0.69211927665E+03  0.69332595917E+03  0.00000000000E+00 0. -1.
         22    1    3    3    0    0 -0.33912573053E+02  0.33776117474E+02  0.63489781548E+02  0.79510006186E+02  0.00000000000E+00 0. -1.
         22    1    3    3    0    0  0.43045159657E+01 -0.84202410489E+02  0.22521667884E+03  0.24048103297E+03  0.00000000000E+00 0. -1.
</event>
<event>
 7    1  0.6370239E-006  0.1340912E+03  0.7818608E-02  0.1294202E+00
          2   -1    0    0  502    0  0.00000000000E+00  0.00000000000E+00  0.17979418170E+04  0.17979418170E+04  0.00000000000E+00 0. -1.
          1   -1    0    0  501    0 -0.00000000000E+00 -0.00000000000E+00 -0.12622925889E+04  0.12622925889E+04  0.00000000000E+00 0. -1.
         25    2    1    2    0    0  0.12308335276E+03 -0.13561386348E+03  0.90362018825E+02  0.23943435904E+03  0.12499154430E+03 0.  0.
          2    1    1    2  501    0 -0.11259797030E+02  0.64456561590E+02 -0.11841622882E+04  0.11859686995E+04  0.00000000000E+00 0. -1.
          1    1    1    2  502    0 -0.11182355573E+03  0.71157301894E+02  0.16294494975E+04  0.16348313473E+04  0.00000000000E+00 0. -1.
         22    1    3    3    0    0  0.25566065098E+02  0.16114725438E+02 -0.11451671512E+02  0.32317933736E+02  0.00000000000E+00 0.  1.
         22    1    3    3    0    0  0.97517287660E+02 -0.15172858892E+03  0.10181369034E+03  0.20711642530E+03  0.00000000000E+00 0.  1.
</event>
<event>
 7    1  0.6370239E-006  0.4982563E+02  0.7818608E-02  0.1465698E+00
          2   -1    0    0  502    0  0.00000000000E+00  0.00000000000E+00  0.61472982192E+03  0.61472982192E+03  0.00000000000E+00 0. -1.
          1   -1    0    0  501    0 -0.00000000000E+00 -0.00000000000E+00 -0.60595155116E+02  0.60595155116E+02  0.00000000000E+00 0. -1.
         25    2    1    2    0    0  0.25341658547E+02  0.72615875766E+01  0.38311388698E+02  0.13338024895E+03  0.12501039154E+03 0.  0.
          2    1    1    2  501    0 -0.37948850835E+02 -0.55465860677E+02  0.85522836291E+02  0.10876917076E+03  0.00000000000E+00 0. -1.
          1    1    1    2  502    0  0.12607192289E+02  0.48204273100E+02  0.43030044181E+03  0.43317555733E+03  0.00000000000E+00 0. -1.
         22    1    3    3    0    0 -0.25735096077E+02  0.48126430929E+02 -0.51934692752E+01  0.54821716931E+02  0.00000000000E+00 0. -1.
         22    1    3    3    0    0  0.51076754624E+02 -0.40864843353E+02  0.43504857974E+02  0.78558532016E+02  0.00000000000E+00 0. -1.
</event>
<event>
 7    1  0.6370239E-006  0.2943972E+03  0.7818608E-02  0.1167473E+00
          2   -1    0    0  502    0  0.00000000000E+00  0.00000000000E+00  0.93817270446E+03  0.93817270446E+03  0.00000000000E+00 0. -1.
          1   -1    0    0  501    0 -0.00000000000E+00 -0.00000000000E+00 -0.13502070491E+04  0.13502070491E+04  0.00000000000E+00 0. -1.
         25    2    1    2    0    0 -0.29215557286E+03  0.18721058348E+03  0.12075687150E+03  0.38808490854E+03  0.12499997160E+03 0.  0.
          2    1    1    2  501    0  0.10650503165E+03  0.29344717967E+02 -0.11841111345E+04  0.11892533848E+04  0.00000000000E+00 0. -1.
          1    1    1    2  502    0  0.18565054121E+03 -0.21655530144E+03  0.65131991843E+03  0.71104146024E+03  0.00000000000E+00 0. -1.
         22    1    3    3    0    0 -0.27035663584E+03  0.11905730809E+03  0.11228509236E+03  0.31603052877E+03  0.00000000000E+00 0.  1.
         22    1    3    3    0    0 -0.21798937024E+02  0.68153275386E+02  0.84717791362E+01  0.72054379763E+02  0.00000000000E+00 0.  1.
</event>
<event>
 7    1  0.6370239E-006  0.7538113E+02  0.7818608E-02  0.1438365E+00
          2   -1    0    0  502    0  0.00000000000E+00  0.00000000000E+00  0.10167132451E+04  0.10167132451E+04  0.00000000000E+00 0. -1.
          1   -1    0    0  501    0 -0.00000000000E+00 -0.00000000000E+00 -0.66915359473E+03  0.66915359473E+03  0.00000000000E+00 0. -1.
         25    2    1    2    0    0 -0.57803720361E+02  0.67814845612E+02  0.16495598223E+03  0.22533544857E+03  0.12500185973E+03 0.  0.
          2    1    1    2  501    0  0.23082954213E+02 -0.71676602893E+02 -0.63637160931E+03  0.64081134768E+03  0.00000000000E+00 0. -1.
          1    1    1    2  502    0  0.34720766148E+02  0.38617572808E+01  0.81897527746E+03  0.81972004359E+03  0.00000000000E+00 0. -1.
         22    1    3    3    0    0  0.17782722712E+02 -0.21873774227E+02  0.78268305817E+01  0.29256563416E+02  0.00000000000E+00 0.  1.
         22    1    3    3    0    0 -0.75586443073E+02  0.89688619838E+02  0.15712915165E+03  0.19607888515E+03  0.00000000000E+00 0.  1.
</event>
<event>
 7    1  0.6370239E-006  0.1001807E+03  0.7818608E-02  0.1466966E+00
          2   -1    0    0  502    0  0.00000000000E+00  0.00000000000E+00  0.77747121859E+03  0.77747121859E+03  0.00000000000E+00 0. -1.
          1   -1    0    0  501    0 -0.00000000000E+00 -0.00000000000E+00 -0.59906355025E+03  0.59906355025E+03  0.00000000000E+00 0. -1.
         25    2    1    2    0    0 -0.66556180762E+02  0.68961426291E+02 -0.25500947416E+03  0.29973345460E+03  0.12499963352E+03 0.  0.
          2    1    1    2  501    0  0.13760846170E+02  0.16270107654E+02 -0.31800602476E+03  0.31871916960E+03  0.00000000000E+00 0. -1.
          1    1    1    2  502    0  0.52795334593E+02 -0.85231533944E+02  0.75142316725E+03  0.75808214464E+03  0.00000000000E+00 0. -1.
         22    1    3    3    0    0  0.72083626781E+00  0.37969453306E+02 -0.20924662222E+03  0.21266487227E+03  0.00000000000E+00 0.  1.
         22    1    3    3    0    0 -0.67277017030E+02  0.30991972985E+02 -0.45762851937E+02  0.87068582321E+02  0.00000000000E+00 0.  1.
</event>
<event>
 7    1  0.6370239E-006  0.4965218E+02  0.7818608E-02  0.1461825E+00
          2   -1    0    0  502    0  0.00000000000E+00  0.00000000000E+00  0.69685346213E+03  0.69685346213E+03  0.00000000000E+00 0. -1.
          1   -1    0    0  501    0 -0.00000000000E+00 -0.00000000000E+00 -0.14310978065E+03  0.14310978065E+03  0.00000000000E+00 0. -1.
         25    2    1    2    0    0 -0.76760684271E+02  0.17484521812E+02  0.46481021849E+03  0.48771964887E+03  0.12499602204E+03 0.  0.
          2    1    1    2  501    0  0.35497723020E+02 -0.34463829481E+02 -0.12461815238E+03  0.13408030349E+03  0.00000000000E+00 0. -1.
          1    1    1    2  502    0  0.41262961251E+02  0.16979307669E+02  0.21355161537E+03  0.21816329042E+03  0.00000000000E+00 0. -1.
         22    1    3    3    0    0 -0.49307361128E+02  0.17395999020E+02  0.51134443448E+02  0.73133904244E+02  0.00000000000E+00 0. -1.
         22    1    3    3    0    0 -0.27453323143E+02  0.88522792262E-01  0.41367577504E+03  0.41458574462E+03  0.00000000000E+00 0. -1.
</event>
<event>
 7    1  0.6370239E-006  0.7411748E+02  0.7818608E-02  0.1452701E+00
          2   -1    0    0  502    0  0.00000000000E+00  0.00000000000E+00  0.10388454629E+04  0.10388454629E+04  0.00000000000E+00 0. -1.
          1   -1    0    0  501    0 -0.00000000000E+00 -0.00000000000E+00 -0.12386668225E+03  0.12386668225E+03  0.00000000000E+00 0. -1.
         25    2    1    2    0    0  0.51711382804E+02 -0.56943153094E+02  0.64546144602E+02  0.16033525128E+03  0.12499839289E+03 0.  0.
          2    1    1    2  501    0 -0.23012247080E+02  0.70979493561E+02 -0.57301730851E+02  0.94080499469E+02  0.00000000000E+00 0. -1.
          1    1    1    2  502    0 -0.28699135724E+02 -0.14036340466E+02  0.90773436687E+03  0.90829639438E+03  0.00000000000E+00 0. -1.
         22    1    3    3    0    0  0.59336792785E+02  0.21917050633E+02  0.47981350658E+02  0.79394093593E+02  0.00000000000E+00 0. -1.
         22    1    3    3    0    0 -0.76254099812E+01 -0.78860203727E+02  0.16564793944E+02  0.80941157687E+02  0.00000000000E+00 0. -1.
</event>
<event>
 7    1  0.6370239E-006  0.8814804E+02  0.7818608E-02  0.1424754E+00
          2   -1    0    0  502    0  0.00000000000E+00  0.00000000000E+00  0.36197794750E+02  0.36197794750E+02  0.00000000000E+00 0. -1.
          1   -1    0    0  501    0 -0.00000000000E+00 -0.00000000000E+00 -0.15544001927E+04  0.15544001927E+04  0.00000000000E+00 0. -1.
         25    2    1    2    0    0 -0.45542575662E+02  0.71038650959E+02 -0.32816819364E+03  0.36116415252E+03  0.12499826246E+03 0.  0.
          2    1    1    2  501    0  0.16800316182E+02 -0.87484303032E+02 -0.11928758445E+04  0.11961975315E+04  0.00000000000E+00 0. -1.
          1    1    1    2  502    0  0.28742259480E+02  0.16445652073E+02  0.28416401463E+01  0.33236303508E+02  0.00000000000E+00 0. -1.
         22    1    3    3    0    0 -0.82929065439E+02  0.76731872547E+02 -0.24362932258E+03  0.26855214946E+03  0.00000000000E+00 0.  1.
         22    1    3    3    0    0  0.37386489777E+02 -0.56932215882E+01 -0.84538871063E+02  0.92612003059E+02  0.00000000000E+00 0.  1.
</event>
<event>
 7    1  0.6370239E-006  0.4811596E+02  0.7818608E-02  0.1487524E+00
          2   -1    0    0  502    0  0.00000000000E+00  0.00000000000E+00  0.38333642721E+03  0.38333642721E+03  0.00000000000E+00 0. -1.
          1   -1    0    0  501    0 -0.00000000000E+00 -0.00000000000E+00 -0.12901003385E+03  0.12901003385E+03  0.00000000000E+00 0. -1.
         25    2    1    2    0    0  0.24764637623E+02  0.46588516339E+01  0.17450652612E+03  0.21613076260E+03  0.12499994683E+03 0.  0.
          2    1    1    2  501    0 -0.37612905813E+02  0.31473285131E+02 -0.10051861437E+03  0.11184493817E+03  0.00000000000E+00 0. -1.
          1    1    1    2  502    0  0.12848268189E+02 -0.36132136765E+02  0.18033848160E+03  0.18437076029E+03  0.00000000000E+00 0. -1.
         22    1    3    3    0    0  0.46739378199E+02 -0.38682793796E+02  0.38875121265E+02  0.72056943202E+02  0.00000000000E+00 0.  1.
         22    1    3    3    0    0 -0.21974740575E+02  0.43341645430E+02  0.13563140486E+03  0.14407381940E+03  0.00000000000E+00 0.  1.
</event>
<event>
 7    1  0.6370239E-006  0.6059890E+02  0.7818608E-02  0.1470889E+00
          2   -1    0    0  502    0  0.00000000000E+00  0.00000000000E+00  0.19607344939E+03  0.19607344939E+03  0.00000000000E+00 0. -1.
          1   -1    0    0  501    0 -0.00000000000E+00 -0.00000000000E+00 -0.64995980781E+03  0.64995980781E+03  0.00000000000E+00 0. -1.
         25    2    1    2    0    0 -0.26260400095E+02 -0.21168093615E+02 -0.11057012893E+03  0.17026296396E+03  0.12500410668E+03 0.  0.
          2    1    1    2  501    0 -0.11949539458E+01 -0.34229229549E+02 -0.50319176147E+03  0.50435604178E+03  0.00000000000E+00 0. -1.
          1    1    1    2  502    0  0.27455354041E+02  0.55397323165E+02  0.15987553198E+03  0.17141425146E+03  0.00000000000E+00 0. -1.
         22    1    3    3    0    0 -0.22933570501E+02  0.19810159181E+02 -0.12350062341E+03  0.12716444096E+03  0.00000000000E+00 0. -1.
         22    1    3    3    0    0 -0.33268295937E+01 -0.40978252796E+02  0.12930494483E+02  0.43098523001E+02  0.00000000000E+00 0. -1.
</event>
<event>
 7    1  0.6370239E-006  0.5365699E+02  0.7818608E-02  0.1436153E+00
          2   -1    0    0  502    0  0.00000000000E+00  0.00000000000E+00  0.54876805686E+02  0.54876805686E+02  0.00000000000E+00 0. -1.
          1   -1    0    0  501    0 -0.00000000000E+00 -0.00000000000E+00 -0.91372170494E+03  0.91372170494E+03  0.00000000000E+00 0. -1.
         25    2    1    2    0    0 -0.11736114587E+02  0.23312410115E+02 -0.10419417917E+03  0.16480800948E+03  0.12499619260E+03 0.  0.
          2    1    1    2  501    0 -0.33969256831E+02 -0.43338889759E+02 -0.75179459773E+03  0.75380852141E+03  0.00000000000E+00 0. -1.
          1    1    1    2  502    0  0.45705371419E+02  0.20026479644E+02 -0.28561223521E+01  0.49981979736E+02  0.00000000000E+00 0. -1.
         22    1    3    3    0    0 -0.39344896026E+01 -0.25876117337E+02  0.18725411790E+02  0.32182210981E+02  0.00000000000E+00 0. -1.
         22    1    3    3    0    0 -0.78016249847E+01  0.49188527453E+02 -0.12291959096E+03  0.13262579850E+03  0.00000000000E+00 0. -1.
</event>
<event>
 7    1  0.6370239E-006  0.7899823E+02  0.7818608E-02  0.1390012E+00
          2   -1    0    0  502    0  0.00000000000E+00  0.00000000000E+00  0.27919340372E+03  0.27919340372E+03  0.00000000000E+00 0. -1.
          1   -1    0    0  501    0 -0.00000000000E+00 -0.00000000000E+00 -0.13628506480E+04  0.13628506480E+04  0.00000000000E+00 0. -1.
         25    2    1    2    0    0  0.75905046688E+02  0.56946843679E+02 -0.26784608425E+03  0.31043854408E+03  0.12500418267E+03 0.  0.
          2    1    1    2  501    0 -0.78297036265E+02 -0.84973827923E+01 -0.10699671434E+04  0.10728617429E+04  0.00000000000E+00 0. -1.
          1    1    1    2  502    0  0.23919895768E+01 -0.48449460887E+02  0.25415598341E+03  0.25874376471E+03  0.00000000000E+00 0. -1.
         22    1    3    3    0    0  0.14412901635E+02 -0.28454094587E+02 -0.12501901222E+02  0.34258791083E+02  0.00000000000E+00 0. -1.
         22    1    3    3    0    0  0.61492145053E+02  0.85400938266E+02 -0.25534418302E+03  0.27617975300E+03  0.00000000000E+00 0. -1.
</event>
<event>
 7    1  0.6370239E-006  0.3534110E+02  0.7818608E-02  0.1594454E+00
          2   -1    0    0  502    0  0.00000000000E+00  0.00000000000E+00  0.96400827731E+03  0.96400827731E+03  0.00000000000E+00 0. -1.
          1   -1    0    0  501    0 -0.00000000000E+00 -0.00000000000E+00 -0.23621669970E+03  0.23621669970E+03  0.00000000000E+00 0. -1.
         25    2    1    2    0    0 -0.61189081964E+01 -0.14622845305E+02  0.18081747380E+03  0.22038674523E+03  0.12499635995E+03 0.  0.
          2    1    1    2  501    0  0.32146503736E+02  0.15091028858E+02 -0.21475148777E+03  0.21766795435E+03  0.00000000000E+00 0. -1.
          1    1    1    2  502    0 -0.26027595539E+02 -0.46818355364E+00  0.76172559158E+03  0.76217027743E+03  0.00000000000E+00 0. -1.
         22    1    3    3    0    0  0.24404842063E+02  0.37158261133E+02  0.14209177235E+03  0.14888386231E+03  0.00000000000E+00 0. -1.
         22    1    3    3    0    0 -0.30523750260E+02 -0.51781106438E+02  0.38725701454E+02  0.71502882928E+02  0.00000000000E+00 0. -1.
</event>
<event>
 7    1  0.6370239E-006  0.1358355E+03  0.7818608E-02  0.1235430E+00
          2   -1    0    0  502    0  0.00000000000E+00  0.00000000000E+00  0.21131981746E+03  0.21131981746E+03  0.00000000000E+00 0. -1.
          1   -1    0    0  501    0 -0.00000000000E+00 -0.00000000000E+00 -0.14654034784E+04  0.14654034784E+04  0.00000000000E+00 0. -1.
         25    2    1    2    0    0 -0.12558824896E+03 -0.19272486704E+03 -0.10925454598E+03  0.28367995161E+03  0.12498990549E+03 0.  0.
          2    1    1    2  501    0  0.37770685947E+02  0.10820184509E+03 -0.12357054593E+04  0.12410085601E+04  0.00000000000E+00 0. -1.
          1    1    1    2  502    0  0.87817563013E+02  0.84523021959E+02  0.90876344393E+02  0.15203478413E+03  0.00000000000E+00 0. -1.
         22    1    3    3    0    0 -0.12461587852E+02 -0.37881195188E+02  0.27243086937E+02  0.48295568187E+02  0.00000000000E+00 0.  1.
         22    1    3    3    0    0 -0.11312666111E+03 -0.15484367186E+03 -0.13649763291E+03  0.23538438342E+03  0.00000000000E+00 0.  1.
</event>
<event>
 7    1  0.6370239E-006  0.9050009E+02  0.7818608E-02  0.1342052E+00
          2   -1    0    0  502    0  0.00000000000E+00  0.00000000000E+00  0.18983086708E+04  0.18983086708E+04  0.00000000000E+00 0. -1.
          1   -1    0    0  501    0 -0.00000000000E+00 -0.00000000000E+00 -0.58066053093E+03  0.58066053093E+03  0.00000000000E+00 0. -1.
         25    2    1    2    0    0 -0.77093253507E+02  0.34870959447E+02  0.98694191713E+02  0.18034709919E+03  0.12500071663E+03 0.  0.
          2    1    1    2  501    0  0.87010331864E+02  0.27482792144E+02 -0.53540627747E+03  0.54312612133E+03  0.00000000000E+00 0. -1.
          1    1    1    2  502    0 -0.99170783574E+01 -0.62353751591E+02  0.17543602256E+04  0.17554959812E+04  0.00000000000E+00 0. -1.
         22    1    3    3    0    0 -0.27577581325E+01  0.56191496104E+02  0.16825889077E+01  0.56284283506E+02  0.00000000000E+00 0. -1.
         22    1    3    3    0    0 -0.74335495374E+02 -0.21320536657E+02  0.97011602806E+02  0.12406281568E+03  0.00000000000E+00 0. -1.
</event>
<event>
 7    1  0.6370239E-006  0.1148402E+03  0.7818608E-02  0.1374226E+00
          2   -1    0    0  502    0  0.00000000000E+00  0.00000000000E+00  0.30262489993E+03  0.30262489993E+03  0.00000000000E+00 0. -1.
          1   -1    0    0  501    0 -0.00000000000E+00 -0.00000000000E+00 -0.62379020392E+03  0.62379020392E+03  0.00000000000E+00 0. -1.
         25    2    1    2    0    0 -0.20754294458E+02  0.13310231551E+03 -0.15093150527E+02  0.18438932103E+03  0.12499860553E+03 0.  0.
          2    1    1    2  501    0  0.31493829478E+02 -0.21152833337E+02 -0.50878941870E+03  0.51020189752E+03  0.00000000000E+00 0. -1.
          1    1    1    2  502    0 -0.10739535020E+02 -0.11194948217E+03  0.20271726523E+03  0.23182388530E+03  0.00000000000E+00 0. -1.
         22    1    3    3    0    0 -0.18187884926E+02 -0.44014283689E+01 -0.40426859635E+02  0.44547757628E+02  0.00000000000E+00 0.  1.
         22    1    3    3    0    0 -0.25664095315E+01  0.13750374388E+03  0.25333709107E+02  0.13984156340E+03  0.00000000000E+00 0.  1.
</event>
<event>
 7    1  0.6370239E-006  0.8073036E+02  0.7818608E-02  0.1371583E+00
          2   -1    0    0  502    0  0.00000000000E+00  0.00000000000E+00  0.18560934114E+04  0.18560934114E+04  0.00000000000E+00 0. -1.
          1   -1    0    0  501    0 -0.00000000000E+00 -0.00000000000E+00 -0.27792757714E+02  0.27792757714E+02  0.00000000000E+00 0. -1.
         25    2    1    2    0    0 -0.35221095915E+02  0.21985065660E+02  0.73501433800E+03  0.74672247790E+03  0.12499805288E+03 0.  0.
          2    1    1    2  501    0  0.38278788664E+02 -0.77056455812E+02  0.66105262835E+02  0.10850285166E+03  0.00000000000E+00 0. -1.
          1    1    1    2  502    0 -0.30576927483E+01  0.55071390152E+02  0.10271810528E+04  0.10286608395E+04  0.00000000000E+00 0. -1.
         22    1    3    3    0    0 -0.27913063280E+02 -0.44439146092E+01  0.30157008376E+02  0.41331980753E+02  0.00000000000E+00 0.  1.
         22    1    3    3    0    0 -0.73080326354E+01  0.26428980270E+02  0.70485732963E+03  0.70539049715E+03  0.00000000000E+00 0.  1.
</event>
<event>
 7    1  0.6370239E-006  0.4331408E+02  0.7818608E-02  0.1530049E+00
          2   -1    0    0  502    0  0.00000000000E+00  0.00000000000E+00  0.22403691555E+03  0.22403691555E+03  0.00000000000E+00 0. -1.
          1   -1    0    0  501    0 -0.00000000000E+00 -0.00000000000E+00 -0.57132123619E+03  0.57132123619E+03  0.00000000000E+00 0. -1.
         25    2    1    2    0    0 -0.55338202085E+02 -0.11217892025E+02 -0.17749855076E+03  0.22431920008E+03  0.12500084117E+03 0.  0.
          2    1    1    2  501    0  0.15426521062E+02  0.27939450096E+02 -0.36737906196E+03  0.36876274973E+03  0.00000000000E+00 0. -1.
          1    1    1    2  502    0  0.39911681023E+02 -0.16721558071E+02  0.19759329208E+03  0.20227620192E+03  0.00000000000E+00 0. -1.
         22    1    3    3    0    0 -0.50417703103E+02 -0.64212301173E+02 -0.86823144643E+02  0.11917811399E+03  0.00000000000E+00 0. -1.
         22    1    3    3    0    0 -0.49204989817E+01  0.52994409148E+02 -0.90675406115E+02  0.10514108610E+03  0.00000000000E+00 0. -1.
</event>
<event>
 7    1  0.6370239E-006  0.6445398E+02  0.7818608E-02  0.1467751E+00
          2   -1    0    0  502    0  0.00000000000E+00  0.00000000000E+00  0.10264105741E+02  0.10264105741E+02  0.00000000000E+00 0. -1.
          1   -1    0    0  501    0 -0.00000000000E+00 -0.00000000000E+00 -0.20571348195E+04  0.20571348195E+04  0.00000000000E+00 0. -1.
         25    2    1    2    0    0  0.22782590349E+02  0.27023962115E+02 -0.62106130121E+03  0.63449859132E+03  0.12498792569E+03 0.  0.
          2    1    1    2  501    0 -0.42635468297E+02 -0.53301855306E+02 -0.13268500905E+04  0.13286045437E+04  0.00000000000E+00 0. -1.
          1    1    1    2  502    0  0.19852877948E+02  0.26277893191E+02 -0.98959321979E+02  0.10429579014E+03  0.00000000000E+00 0. -1.
         22    1    3    3    0    0 -0.19282988990E+02  0.40923840204E+02 -0.54188716060E+03  0.54377227696E+03  0.00000000000E+00 0. -1.
         22    1    3    3    0    0  0.42065579339E+02 -0.13899878089E+02 -0.79174140611E+02  0.90726314361E+02  0.00000000000E+00 0. -1.
</event>
<event>
 7    1  0.7428087E-006  0.1463860E+03  0.7818608E-02  0.1336575E+00
          2   -1    0    0  502    0  0.00000000000E+00  0.00000000000E+00  0.16857827573E+04  0.16857827573E+04  0.00000000000E+00 0. -1.
          1   -1    0    0  501    0 -0.00000000000E+00 -0.00000000000E+00 -0.85629808255E+03  0.85629808255E+03  0.00000000000E+00 0. -1.
         25    2    1    2    0    0  0.44081981740E+01 -0.15274585382E+03 -0.20388017460E+03  0.28380119802E+03  0.12500106532E+03 0.  0.
          2    1    1    2  501    0  0.38843257407E+02  0.12908083866E+02 -0.60851399331E+03  0.60988908608E+03  0.00000000000E+00 0. -1.
          1    1    1    2  502    0 -0.43251455581E+02  0.13983776995E+03  0.16418788427E+04  0.16483905557E+04  0.00000000000E+00 0. -1.
         22    1    3    3    0    0 -0.43415765412E+02 -0.65758494368E+02 -0.31457308587E+02  0.84844979412E+02  0.00000000000E+00 0.  1.
         22    1    3    3    0    0  0.47823963586E+02 -0.86987359449E+02 -0.17242286602E+03  0.19895621861E+03  0.00000000000E+00 0.  1.
</event>
<event>
 7    1  0.6370239E-006  0.2110568E+03  0.7818608E-02  0.1363918E+00
          2   -1    0    0  502    0  0.00000000000E+00  0.00000000000E+00  0.53007066569E+03  0.53007066569E+03  0.00000000000E+00 0. -1.
          1   -1    0    0  501    0 -0.00000000000E+00 -0.00000000000E+00 -0.68801406132E+03  0.68801406132E+03  0.00000000000E+00 0. -1.
         25    2    1    2    0    0 -0.15353743051E+03 -0.12515309730E+03  0.58418046133E+02  0.24140296859E+03  0.12500273917E+03 0.  0.
          2    1    1    2  501    0 -0.37549987703E+01 -0.22168488719E+02 -0.56573757955E+03  0.56618420220E+03  0.00000000000E+00 0. -1.
          1    1    1    2  502    0  0.15729242928E+03  0.14732158602E+03  0.34937613778E+03  0.41049755623E+03  0.00000000000E+00 0. -1.
         22    1    3    3    0    0  0.27597373929E+01 -0.17133941414E+02 -0.27792844110E+02  0.32766297969E+02  0.00000000000E+00 0.  1.
         22    1    3    3    0    0 -0.15629716790E+03 -0.10801915589E+03  0.86210890243E+02  0.20863667062E+03  0.00000000000E+00 0.  1.
</event>
<event>
 7    1  0.6370239E-006  0.1990651E+03  0.7818608E-02  0.1349584E+00
          2   -1    0    0  502    0  0.00000000000E+00  0.00000000000E+00  0.12057355334E+04  0.12057355334E+04  0.00000000000E+00 0. -1.
          1   -1    0    0  501    0 -0.00000000000E+00 -0.00000000000E+00 -0.30047343582E+03  0.30047343582E+03  0.00000000000E+00 0. -1.
         25    2    1    2    0    0 -0.19477950186E+03 -0.55786353078E+02  0.77634436011E+03  0.81202592908E+03  0.12499748990E+03 0.  0.
          2    1    1    2  501    0  0.18234780229E+03  0.79648567605E+02 -0.24706918576E+03  0.31723461015E+03  0.00000000000E+00 0. -1.
          1    1    1    2  502    0  0.12431699567E+02 -0.23862214527E+02  0.37598692321E+03  0.37694842997E+03  0.00000000000E+00 0. -1.
         22    1    3    3    0    0 -0.32761290539E+02 -0.47531435864E+00  0.24434942622E+02  0.40872906704E+02  0.00000000000E+00 0. -1.
         22    1    3    3    0    0 -0.16201821132E+03 -0.55311038719E+02  0.75190941749E+03  0.77115302237E+03  0.00000000000E+00 0. -1.
</event>
<event>
 7    1  0.6370239E-006  0.7694751E+02  0.7818608E-02  0.1513697E+00
          2   -1    0    0  502    0  0.00000000000E+00  0.00000000000E+00  0.21645839139E+04  0.21645839139E+04  0.00000000000E+00 0. -1.
          1   -1    0    0  501    0 -0.00000000000E+00 -0.00000000000E+00 -0.18281495540E+03  0.18281495540E+03  0.00000000000E+00 0. -1.
         25    2    1    2    0    0  0.29580642211E+02  0.87559117070E+02  0.90921844682E+03  0.92241212535E+03  0.12499732634E+03 0.  0.
          2    1    1    2  501    0  0.15688494463E+01 -0.19973924352E+02 -0.17453580609E+03  0.17568200406E+03  0.00000000000E+00 0. -1.
          1    1    1    2  502    0 -0.31149491657E+02 -0.67585192718E+02  0.12470863177E+04  0.12493047399E+04  0.00000000000E+00 0. -1.
         22    1    3    3    0    0  0.68597631978E+02  0.60502978809E+02  0.76795389202E+03  0.77338181115E+03  0.00000000000E+00 0. -1.
         22    1    3    3    0    0 -0.39016989767E+02  0.27056138261E+02  0.14126455480E+03  0.14903031420E+03  0.00000000000E+00 0. -1.
</event>
<event>
 7    1  0.6370239E-006  0.6583475E+02  0.7818608E-02  0.1376534E+00
          2   -1    0    0  502    0  0.00000000000E+00  0.00000000000E+00  0.61845693056E+03  0.61845693056E+03  0.00000000000E+00 0. -1.
          1   -1    0    0  501    0 -0.00000000000E+00 -0.00000000000E+00 -0.19495692997E+04  0.19495692997E+04  0.00000000000E+00 0. -1.
         25    2    1    2    0    0  0.67952438284E+02 -0.11092679592E+03 -0.19077272462E+03  0.26256673630E+03  0.12499908252E+03 0.  0.
          2    1    1    2  501    0 -0.36685562307E+02  0.53580170032E+02 -0.17204543132E+04  0.17216793282E+04  0.00000000000E+00 0. -1.
          1    1    1    2  502    0 -0.31266875977E+02  0.57346625888E+02  0.58011466875E+03  0.58378016576E+03  0.00000000000E+00 0. -1.
         22    1    3    3    0    0  0.38906192583E+02 -0.12398236975E+03 -0.93152199241E+02  0.15988324507E+03  0.00000000000E+00 0. -1.
         22    1    3    3    0    0  0.29046245701E+02  0.13055573828E+02 -0.97620525375E+02  0.10268349123E+03  0.00000000000E+00 0. -1.
</event>
<event>
 7    1  0.6370239E-006  0.1034297E+03  0.7818608E-02  0.1345714E+00
          2   -1    0    0  502    0  0.00000000000E+00  0.00000000000E+00  0.19407068619E+03  0.19407068619E+03  0.00000000000E+00 0. -1.
          1   -1    0    0  501    0 -0.00000000000E+00 -0.00000000000E+00 -0.41135007182E+03  0.41135007182E+03  0.00000000000E+00 0. -1.
         25    2    1    2    0    0 -0.62229675467E+02 -0.81672171426E+02 -0.31014023754E+03  0.34979235776E+03  0.12499940204E+03 0.  0.
          2    1    1    2  501    0  0.10354089570E+03  0.47631069036E+02 -0.33170619873E+02  0.11870015098E+03  0.00000000000E+00 0. -1.
          1    1    1    2  502    0 -0.41311220234E+02  0.34041102391E+02  0.12603147178E+03  0.13692824927E+03  0.00000000000E+00 0. -1.
         22    1    3    3    0    0 -0.75491562653E+02 -0.18136797965E+02 -0.83398286443E+02  0.11394381797E+03  0.00000000000E+00 0. -1.
         22    1    3    3    0    0  0.13261887185E+02 -0.63535373462E+02 -0.22674195110E+03  0.23584853979E+03  0.00000000000E+00 0. -1.
</event>
<event>
 7    1  0.6370239E-006  0.1440104E+03  0.7818608E-02  0.1359374E+00
          2   -1    0    0  502    0  0.00000000000E+00  0.00000000000E+00  0.74584917309E+03  0.74584917309E+03  0.00000000000E+00 0. -1.
          1   -1    0    0  501    0 -0.00000000000E+00 -0.00000000000E+00 -0.53405266107E+03  0.53405266107E+03  0.00000000000E+00 0. -1.
         25    2    1    2    0    0 -0.11648172429E+03  0.75477081887E+02  0.30325911173E+03  0.35616895818E+03  0.12500182376E+03 0.  0.
          2    1    1    2  501    0  0.14098314214E+02  0.31193641618E+02 -0.49385317022E+03  0.49503813942E+03  0.00000000000E+00 0. -1.
          1    1    1    2  502    0  0.10238341008E+03 -0.10667072351E+03  0.40239057051E+03  0.42869473656E+03  0.00000000000E+00 0. -1.
         22    1    3    3    0    0 -0.61762232050E+02  0.81440693232E+02  0.90874407677E+02  0.13676738570E+03  0.00000000000E+00 0.  1.
         22    1    3    3    0    0 -0.54719492245E+02 -0.59636113452E+01  0.21238470405E+03  0.21940157248E+03  0.00000000000E+00 0.  1.
</event>
<event>
 7    1  0.6370239E-006  0.5520059E+02  0.7818608E-02  0.1512641E+00
          2   -1    0    0  502    0  0.00000000000E+00  0.00000000000E+00  0.58560859384E+03  0.58560859384E+03  0.00000000000E+00 0. -1.
          1   -1    0    0  501    0 -0.00000000000E+00 -0.00000000000E+00 -0.51516955318E+03  0.51516955318E+03  0.00000000000E+00 0. -1.
         25    2    1    2    0    0  0.44251816371E+02 -0.12719204716E+02  0.41488510874E+03  0.43574702814E+03  0.12500327059E+03 0.  0.
          2    1    1    2  501    0 -0.53492548923E+02 -0.13848013729E+02 -0.50197678445E+03  0.50500882408E+03  0.00000000000E+00 0. -1.
          1    1    1    2  502    0  0.92407325523E+01  0.26567218445E+02  0.15753071637E+03  0.16002229480E+03  0.00000000000E+00 0. -1.
         22    1    3    3    0    0  0.20782985882E+02  0.56458392279E+02  0.18647677396E+03  0.19594149583E+03  0.00000000000E+00 0.  1.
         22    1    3    3    0    0  0.23468830489E+02 -0.69177596994E+02  0.22840833478E+03  0.23980553231E+03  0.00000000000E+00 0.  1.
</event>
<event>
 7    1  0.6370239E-006  0.9278964E+02  0.7818608E-02  0.1366025E+00
          2   -1    0    0  502    0  0.00000000000E+00  0.00000000000E+00  0.17329488449E+03  0.17329488449E+03  0.00000000000E+00 0. -1.
          1   -1    0    0  501    0 -0.00000000000E+00 -0.00000000000E+00 -0.63179203645E+03  0.63179203645E+03  0.00000000000E+00 0. -1.
         25    2    1    2    0    0 -0.30412747053E+02  0.12046814093E+03 -0.11971144485E+03  0.21304680469E+03  0.12498240995E+03 0.  0.
          2    1    1    2  501    0 -0.95023355429E+01 -0.89939531349E+02 -0.45580314796E+03  0.46468906095E+03  0.00000000000E+00 0. -1.
          1    1    1    2  502    0  0.39915082596E+02 -0.30528609583E+02  0.11701744085E+03  0.12735105530E+03  0.00000000000E+00 0. -1.
         22    1    3    3    0    0  0.37383808855E+02  0.75260609929E+02 -0.24099384479E+02  0.87421329798E+02  0.00000000000E+00 0. -1.
         22    1    3    3    0    0 -0.67796555909E+02  0.45207531003E+02 -0.95612060374E+02  0.12562547489E+03  0.00000000000E+00 0. -1.
</event>
<event>
 7    1  0.6370239E-006  0.2778244E+03  0.7818608E-02  0.1304247E+00
          2   -1    0    0  502    0  0.00000000000E+00  0.00000000000E+00  0.16052310909E+04  0.16052310909E+04  0.00000000000E+00 0. -1.
          1   -1    0    0  501    0 -0.00000000000E+00 -0.00000000000E+00 -0.74317590179E+03  0.74317590179E+03  0.00000000000E+00 0. -1.
         25    2    1    2    0    0  0.71486945036E+02  0.29155358760E+03  0.53813663765E+03  0.62875349906E+03  0.12500417608E+03 0.  0.
          2    1    1    2  501    0 -0.50170983125E+02 -0.27220979443E+03 -0.67020473562E+03  0.72511356861E+03  0.00000000000E+00 0. -1.
          1    1    1    2  502    0 -0.21315961911E+02 -0.19343793169E+02  0.99412328707E+03  0.99453992502E+03  0.00000000000E+00 0. -1.
         22    1    3    3    0    0  0.16541853103E+02  0.26013991592E+03  0.41014965112E+03  0.48597237069E+03  0.00000000000E+00 0.  1.
         22    1    3    3    0    0  0.54945091934E+02  0.31413671679E+02  0.12798698653E+03  0.14278112837E+03  0.00000000000E+00 0.  1.
</event>
<event>
 7    1  0.6370239E-006  0.3167272E+02  0.7818608E-02  0.1594422E+00
          2   -1    0    0  502    0  0.00000000000E+00  0.00000000000E+00  0.18279448019E+03  0.18279448019E+03  0.00000000000E+00 0. -1.
          1   -1    0    0  501    0 -0.00000000000E+00 -0.00000000000E+00 -0.45807740621E+03  0.45807740621E+03  0.00000000000E+00 0. -1.
         25    2    1    2    0    0  0.49618887269E+02 -0.12413390013E+02  0.35122661952E+02  0.13954589937E+03  0.12499332151E+03 0.  0.
          2    1    1    2  501    0 -0.30213964195E+02 -0.92084180973E+01 -0.40302297523E+03  0.40425882447E+03  0.00000000000E+00 0. -1.
          1    1    1    2  502    0 -0.19404923074E+02  0.21621808110E+02  0.92617387257E+02  0.97067162562E+02  0.00000000000E+00 0. -1.
         22    1    3    3    0    0  0.90968022257E+02 -0.19355212020E+02  0.21458792353E+02  0.95447813359E+02  0.00000000000E+00 0.  1.
         22    1    3    3    0    0 -0.41349134988E+02  0.69418220071E+01  0.13663869598E+02  0.44098086007E+02  0.00000000000E+00 0.  1.
</event>
<event>
 7    1  0.6370239E-006  0.1221308E+03  0.7818608E-02  0.1367112E+00
          2   -1    0    0  502    0  0.00000000000E+00  0.00000000000E+00  0.38798965816E+04  0.38798965816E+04  0.00000000000E+00 0. -1.
          1   -1    0    0  501    0 -0.00000000000E+00 -0.00000000000E+00 -0.13955791979E+03  0.13955791979E+03  0.00000000000E+00 0. -1.
         25    2    1    2    0    0 -0.94781229477E+02 -0.74736891952E+02  0.19912284398E+04  0.19987955166E+04  0.12499493243E+03 0.  0.
          2    1    1    2  501    0  0.11460043750E+03  0.42508215445E+02 -0.10803335102E+03  0.16313005115E+03  0.00000000000E+00 0. -1.
          1    1    1    2  502    0 -0.19819208019E+02  0.32228676507E+02  0.18571435730E+04  0.18575289336E+04  0.00000000000E+00 0. -1.
         22    1    3    3    0    0 -0.11379616948E+03 -0.56536269942E+02  0.18877561077E+04  0.18920277588E+04  0.00000000000E+00 0.  1.
         22    1    3    3    0    0  0.19014940006E+02 -0.18200622010E+02  0.10347233215E+03  0.10676775780E+03  0.00000000000E+00 0.  1.
</event>
<event>
 7    1  0.6370239E-006  0.1648382E+03  0.7818608E-02  0.1316532E+00
          2   -1    0    0  502    0  0.00000000000E+00  0.00000000000E+00  0.13964322261E+04  0.13964322261E+04  0.00000000000E+00 0. -1.
          1   -1    0    0  501    0 -0.00000000000E+00 -0.00000000000E+00 -0.10953259019E+03  0.10953259019E+03  0.00000000000E+00 0. -1.
         25    2    1    2    0    0  0.19817775045E+03  0.16437395791E+02  0.49075297536E+03  0.54406553094E+03  0.12499684150E+03 0.  0.
          2    1    1    2  501    0 -0.15982917457E+03  0.38831173861E+01 -0.46339434775E+01  0.15994348088E+03  0.00000000000E+00 0. -1.
          1    1    1    2  502    0 -0.38348575883E+02 -0.20320513177E+02  0.80078060403E+03  0.80195580447E+03  0.00000000000E+00 0. -1.
         22    1    3    3    0    0  0.23085318074E+02  0.30153104583E+02  0.20626739730E+03  0.20973407166E+03  0.00000000000E+00 0. -1.
         22    1    3    3    0    0  0.17509243238E+03 -0.13715708792E+02  0.28448557806E+03  0.33433145928E+03  0.00000000000E+00 0. -1.
</event>
<event>
 7    1  0.6370239E-006  0.2519118E+02  0.7818608E-02  0.1673666E+00
          2   -1    0    0  502    0  0.00000000000E+00  0.00000000000E+00  0.20171497235E+03  0.20171497235E+03  0.00000000000E+00 0. -1.
          1   -1    0    0  501    0 -0.00000000000E+00 -0.00000000000E+00 -0.80100849967E+02  0.80100849967E+02  0.00000000000E+00 0. -1.
         25    2    1    2    0    0 -0.37253465352E+02  0.45190392007E+01 -0.67589010143E+01  0.13068522689E+03  0.12499881355E+03 0.  0.
          2    1    1    2  501    0  0.20656225295E+02  0.11595609959E+02  0.32774088509E+01  0.23913996374E+02  0.00000000000E+00 0. -1.
          1    1    1    2  502    0  0.16597240057E+02 -0.16114649160E+02  0.12509561455E+03  0.12721659905E+03  0.00000000000E+00 0. -1.
         22    1    3    3    0    0 -0.27287743081E+02 -0.58275981766E+02 -0.16329690039E+02  0.66388024146E+02  0.00000000000E+00 0.  1.
         22    1    3    3    0    0 -0.99657222715E+01  0.62795020967E+02  0.95707890249E+01  0.64297202747E+02  0.00000000000E+00 0.  1.
</event>
<event>
 7    1  0.6370239E-006  0.1717411E+03  0.7818608E-02  0.1190615E+00
          2   -1    0    0  502    0  0.00000000000E+00  0.00000000000E+00  0.31999893949E+03  0.31999893949E+03  0.00000000000E+00 0. -1.
          1   -1    0    0  501    0 -0.00000000000E+00 -0.00000000000E+00 -0.81162524882E+03  0.81162524882E+03  0.00000000000E+00 0. -1.
         25    2    1    2    0    0  0.10697878685E+03 -0.11032951829E+03  0.32979309563E+02  0.20081715812E+03  0.12499133047E+03 0.  0.
          2    1    1    2  501    0 -0.11226211685E+03 -0.93241334609E+02 -0.66670528828E+03  0.68249005178E+03  0.00000000000E+00 0. -1.
          1    1    1    2  502    0  0.52833300046E+01  0.20357085290E+03  0.14209966939E+03  0.24831697841E+03  0.00000000000E+00 0. -1.
         22    1    3    3    0    0  0.54924856399E+02 -0.13101962507E+03  0.22788059732E+02  0.14388251342E+03  0.00000000000E+00 0.  1.
         22    1    3    3    0    0  0.52053930449E+02  0.20690106773E+02  0.10191249831E+02  0.56934644696E+02  0.00000000000E+00 0.  1.
</event>
<event>
 7    1  0.6370239E-006  0.9453248E+02  0.7818608E-02  0.1362459E+00
          2   -1    0    0  502    0  0.00000000000E+00  0.00000000000E+00  0.11915390021E+04  0.11915390021E+04  0.00000000000E+00 0. -1.
          1   -1    0    0  501    0 -0.00000000000E+00 -0.00000000000E+00 -0.75504832554E+03  0.75504832554E+03  0.00000000000E+00 0. -1.
         25    2    1    2    0    0 -0.59501973853E+02 -0.11322972671E+02  0.29526630581E+03  0.32631435353E+03  0.12502068378E+03 0.  0.
          2    1    1    2  501    0  0.90391629736E+02 -0.29026415354E+02 -0.73573880096E+03  0.74183877140E+03  0.00000000000E+00 0. -1.
          1    1    1    2  502    0 -0.30889655883E+02  0.40349388025E+02  0.87696317167E+03  0.87843420267E+03  0.00000000000E+00 0. -1.
         22    1    3    3    0    0 -0.75963464990E+02 -0.26376891458E+02  0.93516192503E+02  0.12333477481E+03  0.00000000000E+00 0.  1.
         22    1    3    3    0    0  0.16461491137E+02  0.15053918787E+02  0.20175011330E+03  0.20297957872E+03  0.00000000000E+00 0.  1.
</event>
<event>
 7    1  0.6370239E-006  0.8559831E+02  0.7818608E-02  0.1442731E+00
          2   -1    0    0  502    0  0.00000000000E+00  0.00000000000E+00  0.27883268583E+04  0.27883268583E+04  0.00000000000E+00 0. -1.
          1   -1    0    0  501    0 -0.00000000000E+00 -0.00000000000E+00 -0.10783006781E+04  0.10783006781E+04  0.00000000000E+00 0. -1.
         25    2    1    2    0    0  0.38959897754E+02 -0.99545454923E+02  0.51966005142E+03  0.54507111908E+03  0.12501513742E+03 0.  0.
          2    1    1    2  501    0 -0.24908673900E+02  0.16318514186E+02 -0.10645973977E+04  0.10650137816E+04  0.00000000000E+00 0. -1.
          1    1    1    2  502    0 -0.14051223854E+02  0.83226940736E+02  0.22549635265E+04  0.22565426356E+04  0.00000000000E+00 0. -1.
         22    1    3    3    0    0  0.17958549982E+02 -0.10262682964E+03  0.20747353817E+03  0.23216383163E+03  0.00000000000E+00 0. -1.
         22    1    3    3    0    0  0.21001347772E+02  0.30813747221E+01  0.31218651326E+03  0.31290728745E+03  0.00000000000E+00 0. -1.
</event>
<event>
 7    1  0.6370239E-006  0.7808838E+02  0.7818608E-02  0.1396778E+00
          2   -1    0    0  502    0  0.00000000000E+00  0.00000000000E+00  0.15212685981E+03  0.15212685981E+03  0.00000000000E+00 0. -1.
          1   -1    0    0  501    0 -0.00000000000E+00 -0.00000000000E+00 -0.15017634359E+04  0.15017634359E+04  0.00000000000E+00 0. -1.
         25    2    1    2    0    0  0.87753606094E+02 -0.55708619042E+02 -0.49994124005E+03  0.52570967303E+03  0.12500108481E+03 0.  0.
          2    1    1    2  501    0 -0.75254331659E+02  0.10931082322E+02 -0.98354859222E+03  0.98648392600E+03  0.00000000000E+00 0. -1.
          1    1    1    2  502    0 -0.12499274435E+02  0.44777536720E+02  0.13385325618E+03  0.14169669667E+03  0.00000000000E+00 0. -1.
         22    1    3    3    0    0  0.94723400025E+02 -0.58236832901E+02 -0.22801779914E+03  0.25368517486E+03  0.00000000000E+00 0. -1.
         22    1    3    3    0    0 -0.69697939301E+01  0.25282138591E+01 -0.27192344091E+03  0.27202449818E+03  0.00000000000E+00 0. -1.
</event>
<event>
 7    1  0.6370239E-006  0.7215547E+02  0.7818608E-02  0.1369383E+00
          2   -1    0    0  502    0  0.00000000000E+00  0.00000000000E+00  0.35239242137E+03  0.35239242137E+03  0.00000000000E+00 0. -1.
          1   -1    0    0  501    0 -0.00000000000E+00 -0.00000000000E+00 -0.34368617420E+03  0.34368617420E+03  0.00000000000E+00 0. -1.
         25    2    1    2    0    0  0.80268409549E+02  0.10366741494E+03 -0.10651418463E+03  0.21014515282E+03  0.12500305290E+03 0.  0.
          2    1    1    2  501    0 -0.47584834346E+02 -0.41049549847E+02 -0.17567913511E+03  0.18658119014E+03  0.00000000000E+00 0. -1.
          1    1    1    2  502    0 -0.32683575204E+02 -0.62617865098E+02  0.29089956691E+03  0.29935225261E+03  0.00000000000E+00 0. -1.
         22    1    3    3    0    0 -0.20584578925E+02 -0.23011209120E+01  0.10118330599E+02  0.23052129210E+02  0.00000000000E+00 0.  1.
         22    1    3    3    0    0  0.10085298847E+03  0.10596853586E+03 -0.11663251523E+03  0.18709302361E+03  0.00000000000E+00 0.  1.
</event>
<event>
 7    1  0.6370239E-006  0.1119557E+03  0.7818608E-02  0.1403893E+00
          2   -1    0    0  502    0  0.00000000000E+00  0.00000000000E+00  0.36180286340E+04  0.36180286340E+04  0.00000000000E+00 0. -1.
          1   -1    0    0  501    0 -0.00000000000E+00 -0.00000000000E+00 -0.16669484520E+02  0.16669484520E+02  0.00000000000E+00 0. -1.
         25    2    1    2    0    0 -0.93841968128E+02 -0.48416179878E+02  0.10684493849E+04  0.10809070275E+04  0.12500189062E+03 0.  0.
          2    1    1    2  501    0  0.84478174967E+02  0.77601388414E+02  0.30796191733E+03  0.32863213485E+03  0.00000000000E+00 0. -1.
          1    1    1    2  502    0  0.93637931607E+01 -0.29185208536E+02  0.22249478473E+04  0.22251589561E+04  0.00000000000E+00 0. -1.
         22    1    3    3    0    0 -0.10373423933E+03 -0.52333489696E+02  0.54034569104E+03  0.55269616642E+03  0.00000000000E+00 0. -1.
         22    1    3    3    0    0  0.98922711984E+01  0.39173098178E+01  0.52810369384E+03  0.52821086111E+03  0.00000000000E+00 0. -1.
</event>
<event>
 7    1  0.6370239E-006  0.3249780E+02  0.7818608E-02  0.1623591E+00
          2   -1    0    0  502    0  0.00000000000E+00  0.00000000000E+00  0.99162581155E+03  0.99162581155E+03  0.00000000000E+00 0. -1.
          1   -1    0    0  501    0 -0.00000000000E+00 -0.00000000000E+00 -0.11539159046E+04  0.11539159046E+04  0.00000000000E+00 0. -1.
         25    2    1    2    0    0  0.61887033316E+01 -0.15086114039E+02  0.82676795970E+02  0.15075711056E+03  0.12500545150E+03 0.  0.
          2    1    1    2  501    0 -0.29889773061E+02  0.12862905843E+02 -0.11194773657E+04  0.11199501887E+04  0.00000000000E+00 0. -1.
          1    1    1    2  502    0  0.23701069729E+02  0.22232081967E+01  0.87451047662E+03  0.87483441695E+03  0.00000000000E+00 0. -1.
         22    1    3    3    0    0 -0.32016858609E+02  0.42394646292E+02  0.17789174460E+02  0.56025351381E+02  0.00000000000E+00 0. -1.
         22    1    3    3    0    0  0.38205561941E+02 -0.57480760331E+02  0.64887621509E+02  0.94731759176E+02  0.00000000000E+00 0. -1.
</event>
<event>
 7    1  0.6370239E-006  0.6563314E+02  0.7818608E-02  0.1398217E+00
          2   -1    0    0  502    0  0.00000000000E+00  0.00000000000E+00  0.39825741910E+03  0.39825741910E+03  0.00000000000E+00 0. -1.
          1   -1    0    0  501    0 -0.00000000000E+00 -0.00000000000E+00 -0.10410263406E+04  0.10410263406E+04  0.00000000000E+00 0. -1.
         25    2    1    2    0    0 -0.56924565055E+02  0.83076225691E+02 -0.44404310102E+03  0.47216648606E+03  0.12499939846E+03 0.  0.
          2    1    1    2  501    0 -0.20819873632E+01 -0.54643246415E+02 -0.57883185128E+03  0.58140909101E+03  0.00000000000E+00 0. -1.
          1    1    1    2  502    0  0.59006552418E+02 -0.28432979276E+02  0.38010603078E+03  0.38570818266E+03  0.00000000000E+00 0. -1.
         22    1    3    3    0    0 -0.54291719117E+02 -0.80904903732E+01 -0.81033502170E+02  0.97874793860E+02  0.00000000000E+00 0.  1.
         22    1    3    3    0    0 -0.26328459381E+01  0.91166716064E+02 -0.36300959885E+03  0.37429169220E+03  0.00000000000E+00 0.  1.
</event>
<event>
 7    1  0.6370239E-006  0.5404786E+02  0.7818608E-02  0.1481606E+00
          2   -1    0    0  502    0  0.00000000000E+00  0.00000000000E+00  0.20842441520E+04  0.20842441520E+04  0.00000000000E+00 0. -1.
          1   -1    0    0  501    0 -0.00000000000E+00 -0.00000000000E+00 -0.65989606555E+03  0.65989606555E+03  0.00000000000E+00 0. -1.
         25    2    1    2    0    0  0.54518772794E+02  0.62743566275E+02  0.17351749531E+04  0.17416561921E+04  0.12500048713E+03 0.  0.
          2    1    1    2  501    0 -0.21450844434E+02 -0.49591219803E+02 -0.65462392224E+03  0.65684998848E+03  0.00000000000E+00 0. -1.
          1    1    1    2  502    0 -0.33067928360E+02 -0.13152346472E+02  0.34379705550E+03  0.34563403692E+03  0.00000000000E+00 0. -1.
         22    1    3    3    0    0  0.35970893863E+02  0.57459501594E+02  0.35889863214E+03  0.36524475038E+03  0.00000000000E+00 0. -1.
         22    1    3    3    0    0  0.18547878932E+02  0.52840646805E+01  0.13762763210E+04  0.13764114417E+04  0.00000000000E+00 0. -1.
</event>
<event>
 7    1  0.6370239E-006  0.1012718E+03  0.7818608E-02  0.1405815E+00
          2   -1    0    0  502    0  0.00000000000E+00  0.00000000000E+00  0.89208577997E+03  0.89208577997E+03  0.00000000000E+00 0. -1.
          1   -1    0    0  501    0 -0.00000000000E+00 -0.00000000000E+00 -0.55400250033E+03  0.55400250033E+03  0.00000000000E+00 0. -1.
         25    2    1    2    0    0  0.49359667904E+02 -0.63781920028E+02 -0.13883567325E+03  0.20349605784E+03  0.12502316286E+03 0.  0.
          2    1    1    2  501    0 -0.44255654703E+02  0.96765498326E+02 -0.37511001295E+03  0.38990979271E+03  0.00000000000E+00 0. -1.
          1    1    1    2  502    0 -0.51040132007E+01 -0.32983578298E+02  0.85202896583E+03  0.85268242975E+03  0.00000000000E+00 0. -1.
         22    1    3    3    0    0  0.50149097478E+02  0.20420724620E+02 -0.93021665413E+02  0.10763349018E+03  0.00000000000E+00 0.  1.
         22    1    3    3    0    0 -0.78942957381E+00 -0.84202644647E+02 -0.45814007832E+02  0.95862567660E+02  0.00000000000E+00 0.  1.
</event>
<event>
 7    1  0.6370239E-006  0.5068920E+02  0.7818608E-02  0.1460653E+00
          2   -1    0    0  502    0  0.00000000000E+00  0.00000000000E+00  0.35165995690E+03  0.35165995690E+03  0.00000000000E+00 0. -1.
          1   -1    0    0  501    0 -0.00000000000E+00 -0.00000000000E+00 -0.58177475055E+03  0.58177475055E+03  0.00000000000E+00 0. -1.
         25    2    1    2    0    0  0.35107892672E+02  0.81005170612E+02 -0.45287818652E+02  0.15959555923E+03  0.12500141685E+03 0.  0.
          2    1    1    2  501    0 -0.33586618585E+02 -0.36951407420E+02 -0.47637130909E+03  0.47898130609E+03  0.00000000000E+00 0. -1.
          1    1    1    2  502    0 -0.15212740874E+01 -0.44053763192E+02  0.29154433409E+03  0.29485784213E+03  0.00000000000E+00 0. -1.
         22    1    3    3    0    0 -0.20841374188E+02  0.16695080509E+02 -0.66579616668E+02  0.71735165344E+02  0.00000000000E+00 0.  1.
         22    1    3    3    0    0  0.55949266861E+02  0.64310090103E+02  0.21291798016E+02  0.87860393887E+02  0.00000000000E+00 0.  1.
</event>
<event>
 7    1  0.6370239E-006  0.6047003E+02  0.7818608E-02  0.1451029E+00
          2   -1    0    0  502    0  0.00000000000E+00  0.00000000000E+00  0.18640229543E+04  0.18640229543E+04  0.00000000000E+00 0. -1.
          1   -1    0    0  501    0 -0.00000000000E+00 -0.00000000000E+00 -0.13153028310E+03  0.13153028310E+03  0.00000000000E+00 0. -1.
         25    2    1    2    0    0  0.47630370781E+01  0.56212126941E+02  0.58199297310E+03  0.59793234018E+03  0.12499909183E+03 0.  0.
          2    1    1    2  501    0 -0.42310861671E+02 -0.43497879835E+02 -0.11578132692E+03  0.13071950975E+03  0.00000000000E+00 0. -1.
          1    1    1    2  502    0  0.37547824593E+02 -0.12714247105E+02  0.12662810250E+04  0.12669013875E+04  0.00000000000E+00 0. -1.
         22    1    3    3    0    0  0.13887313478E+02 -0.10413392133E+02  0.65175995655E+01  0.18541178912E+02  0.00000000000E+00 0. -1.
         22    1    3    3    0    0 -0.91242764002E+01  0.66625519074E+02  0.57547537353E+03  0.57939116127E+03  0.00000000000E+00 0. -1.
</event>
<event>
 7    1  0.6370239E-006  0.1297282E+03  0.7818608E-02  0.1339164E+00
          2   -1    0    0  502    0  0.00000000000E+00  0.00000000000E+00  0.46171935827E+03  0.46171935827E+03  0.00000000000E+00 0. -1.
          1   -1    0    0  501    0 -0.00000000000E+00 -0.00000000000E+00 -0.59956336538E+03  0.59956336538E+03  0.00000000000E+00 0. -1.
         25    2    1    2    0    0  0.83212866563E+02 -0.15127567404E+03 -0.17744684813E+03  0.27734536971E+03  0.12499743785E+03 0.  0.
          2    1    1    2  501    0 -0.25938275509E+02  0.36968238116E+02 -0.36080099523E+03  0.36361628528E+03  0.00000000000E+00 0. -1.
          1    1    1    2  502    0 -0.57274591054E+02  0.11430743592E+03  0.40040383624E+03  0.42032106866E+03  0.00000000000E+00 0. -1.
         22    1    3    3    0    0  0.52536921725E+02 -0.77444154380E+01 -0.95431922016E+02  0.10921243452E+03  0.00000000000E+00 0.  1.
         22    1    3    3    0    0  0.30675944838E+02 -0.14353125860E+03 -0.82014926113E+02  0.16813293518E+03  0.00000000000E+00 0.  1.
</event>
<event>
 7    1  0.6370239E-006  0.7630035E+02  0.7818608E-02  0.1357486E+00
          2   -1    0    0  502    0  0.00000000000E+00  0.00000000000E+00  0.14886974307E+03  0.14886974307E+03  0.00000000000E+00 0. -1.
          1   -1    0    0  501    0 -0.00000000000E+00 -0.00000000000E+00 -0.10898686656E+04  0.10898686656E+04  0.00000000000E+00 0. -1.
         25    2    1    2    0    0 -0.19553036711E+02  0.46943599995E+02 -0.20406107081E+03  0.24464909413E+03  0.12500494316E+03 0.  0.
          2    1    1    2  501    0  0.62839428173E+02  0.18985880513E+02 -0.85203628014E+03  0.85456133780E+03  0.00000000000E+00 0. -1.
          1    1    1    2  502    0 -0.43286391463E+02 -0.65929480507E+02  0.11509842838E+03  0.13952797677E+03  0.00000000000E+00 0. -1.
         22    1    3    3    0    0  0.66009873195E+01  0.73907570911E+02 -0.58988746300E+02  0.94792268997E+02  0.00000000000E+00 0.  1.
         22    1    3    3    0    0 -0.26154024030E+02 -0.26963970916E+02 -0.14507232451E+03  0.14985682513E+03  0.00000000000E+00 0.  1.
</event>
<event>
 7    1  0.6370239E-006  0.1352985E+03  0.7818608E-02  0.1390528E+00
          2   -1    0    0  502    0  0.00000000000E+00  0.00000000000E+00  0.39863932497E+02  0.39863932497E+02  0.00000000000E+00 0. -1.
          1   -1    0    0  501    0 -0.00000000000E+00 -0.00000000000E+00 -0.16558565182E+04  0.16558565182E+04  0.00000000000E+00 0. -1.
         25    2    1    2    0    0  0.13099267340E+03 -0.52154271881E+02 -0.11162806398E+04  0.11320717337E+04  0.12499917971E+03 0.  0.
          2    1    1    2  501    0  0.17395548240E+01  0.28152169436E+02 -0.38656146536E+03  0.38758913452E+03  0.00000000000E+00 0. -1.
          1    1    1    2  502    0 -0.13273222822E+03  0.24002102445E+02 -0.11315048055E+03  0.17605958247E+03  0.00000000000E+00 0. -1.
         22    1    3    3    0    0  0.52581578285E+02  0.40058807642E+02 -0.45947731535E+03  0.46420785620E+03  0.00000000000E+00 0. -1.
         22    1    3    3    0    0  0.78411095111E+02 -0.92213079522E+02 -0.65680332445E+03  0.66786387751E+03  0.00000000000E+00 0. -1.
</event>
<event>
 7    1  0.6370239E-006  0.3005565E+02  0.7818608E-02  0.1610628E+00
          2   -1    0    0  502    0  0.00000000000E+00  0.00000000000E+00  0.89949711974E+03  0.89949711974E+03  0.00000000000E+00 0. -1.
          1   -1    0    0  501    0 -0.00000000000E+00 -0.00000000000E+00 -0.28163400808E+02  0.28163400808E+02  0.00000000000E+00 0. -1.
         25    2    1    2    0    0 -0.13345889845E+02  0.20541264872E+02  0.48901125820E+03  0.50532918371E+03  0.12500206768E+03 0.  0.
          2    1    1    2  501    0 -0.13608029156E+02 -0.27266495345E+02 -0.76108979937E+01  0.31409648106E+02  0.00000000000E+00 0. -1.
          1    1    1    2  502    0  0.26953919001E+02  0.67252304730E+01  0.38993335872E+03  0.39092168873E+03  0.00000000000E+00 0. -1.
         22    1    3    3    0    0  0.55681961950E+02  0.12394288699E+02  0.24936317986E+03  0.25580479813E+03  0.00000000000E+00 0. -1.
         22    1    3    3    0    0 -0.69027851795E+02  0.81469761733E+01  0.23964807834E+03  0.24952438558E+03  0.00000000000E+00 0. -1.
</event>
<event>
 7    1  0.6370239E-006  0.1013908E+03  0.7818608E-02  0.1436370E+00
          2   -1    0    0  502    0  0.00000000000E+00  0.00000000000E+00  0.11345547478E+04  0.11345547478E+04  0.00000000000E+00 0. -1.
          1   -1    0    0  501    0 -0.00000000000E+00 -0.00000000000E+00 -0.27984457502E+03  0.27984457502E+03  0.00000000000E+00 0. -1.
         25    2    1    2    0    0 -0.10599997340E+03 -0.51085343383E+02 -0.13549833534E+03  0.21869970658E+03  0.12499622438E+03 0.  0.
          2    1    1    2  501    0  0.24709227386E+02 -0.91952610525E+01 -0.98668280495E+02  0.10212995799E+03  0.00000000000E+00 0. -1.
          1    1    1    2  502    0  0.81290746015E+02  0.60280604435E+02  0.10888767886E+04  0.10935696583E+04  0.00000000000E+00 0. -1.
         22    1    3    3    0    0  0.22554687589E+02 -0.18972380687E+02 -0.58351979669E+02  0.65372920177E+02  0.00000000000E+00 0. -1.
         22    1    3    3    0    0 -0.12855466099E+03 -0.32112962696E+02 -0.77146355676E+02  0.15332678640E+03  0.00000000000E+00 0. -1.
</event>
<event>
 7    1  0.6370239E-006  0.7577723E+02  0.7818608E-02  0.1433237E+00
          2   -1    0    0  502    0  0.00000000000E+00  0.00000000000E+00  0.17421137367E+03  0.17421137367E+03  0.00000000000E+00 0. -1.
          1   -1    0    0  501    0 -0.00000000000E+00 -0.00000000000E+00 -0.16005837653E+03  0.16005837653E+03  0.00000000000E+00 0. -1.
         25    2    1    2    0    0  0.62288552324E+02 -0.78341079237E+00  0.31065256774E+02  0.14307479015E+03  0.12499947166E+03 0.  0.
          2    1    1    2  501    0 -0.71515701565E+02 -0.34136127860E+02 -0.83702504080E+02  0.11526439166E+03  0.00000000000E+00 0. -1.
          1    1    1    2  502    0  0.92271492409E+01  0.34919538652E+02  0.66790244444E+02  0.75930568388E+02  0.00000000000E+00 0. -1.
         22    1    3    3    0    0  0.71305109909E+02 -0.47244420268E+02  0.40780271739E+02  0.94760141983E+02  0.00000000000E+00 0.  1.
         22    1    3    3    0    0 -0.90165575847E+01  0.46461009475E+02 -0.97150149650E+01  0.48314648171E+02  0.00000000000E+00 0.  1.
</event>
<event>
 7    1  0.6370239E-006  0.5331620E+02  0.7818608E-02  0.1463661E+00
          2   -1    0    0  502    0  0.00000000000E+00  0.00000000000E+00  0.82185928763E+03  0.82185928763E+03  0.00000000000E+00 0. -1.
          1   -1    0    0  501    0 -0.00000000000E+00 -0.00000000000E+00 -0.30278492173E+03  0.30278492173E+03  0.00000000000E+00 0. -1.
         25    2    1    2    0    0  0.38348118299E+02 -0.17266655424E+02 -0.49200112691E+02  0.14078721995E+03  0.12502669573E+03 0.  0.
          2    1    1    2  501    0 -0.17332316941E+02  0.52476771214E+02 -0.20356274855E+03  0.21093130001E+03  0.00000000000E+00 0. -1.
          1    1    1    2  502    0 -0.21015801358E+02 -0.35210115791E+02  0.77183722713E+03  0.77292568941E+03  0.00000000000E+00 0. -1.
         22    1    3    3    0    0  0.31230474641E+02 -0.64822655481E+02  0.52622036908E-01  0.71953609909E+02  0.00000000000E+00 0.  1.
         22    1    3    3    0    0  0.71176436581E+01  0.47556000057E+02 -0.49252734728E+02  0.68833610038E+02  0.00000000000E+00 0.  1.
</event>
<event>
 7    1  0.6370239E-006  0.6922153E+02  0.7818608E-02  0.1375883E+00
          2   -1    0    0  502    0  0.00000000000E+00  0.00000000000E+00  0.26372248697E+04  0.26372248697E+04  0.00000000000E+00 0. -1.
          1   -1    0    0  501    0 -0.00000000000E+00 -0.00000000000E+00 -0.54885353527E+02  0.54885353527E+02  0.00000000000E+00 0. -1.
         25    2    1    2    0    0  0.38654696306E+01  0.19306687595E+01  0.21964734511E+03  0.25276647815E+03  0.12500906737E+03 0.  0.
          2    1    1    2  501    0 -0.50627674067E+02  0.49107707687E+02 -0.49356511152E+01  0.70704235995E+02  0.00000000000E+00 0. -1.
          1    1    1    2  502    0  0.46762204436E+02 -0.51038376446E+02  0.23676278222E+04  0.23686395091E+04  0.00000000000E+00 0. -1.
         22    1    3    3    0    0 -0.34356994207E+02  0.51782763418E+02  0.11479340322E+03  0.13053498788E+03  0.00000000000E+00 0.  1.
         22    1    3    3    0    0  0.38222463837E+02 -0.49852094658E+02  0.10485394189E+03  0.12223149027E+03  0.00000000000E+00 0.  1.
</event>
<event>
 7    1  0.6370239E-006  0.3263651E+02  0.7818608E-02  0.1608231E+00
          2   -1    0    0  502    0  0.00000000000E+00  0.00000000000E+00  0.19357018063E+04  0.19357018063E+04  0.00000000000E+00 0. -1.
          1   -1    0    0  501    0 -0.00000000000E+00 -0.00000000000E+00 -0.21426748417E+03  0.21426748417E+03  0.00000000000E+00 0. -1.
         25    2    1    2    0    0 -0.48083482096E+01  0.24484414600E+02  0.62575635544E+02  0.14199635426E+03  0.12499859074E+03 0.  0.
          2    1    1    2  501    0 -0.24194789569E+02 -0.93830807492E+01 -0.17344595973E+03  0.17537654060E+03  0.00000000000E+00 0. -1.
          1    1    1    2  502    0  0.29003137779E+02 -0.15101333851E+02  0.18323046463E+04  0.18325963956E+04  0.00000000000E+00 0. -1.
         22    1    3    3    0    0  0.44199926191E+02  0.48434668814E+02  0.57503557256E+02  0.87213586760E+02  0.00000000000E+00 0.  1.
         22    1    3    3    0    0 -0.49008274400E+02 -0.23950254214E+02  0.50720782878E+01  0.54782767498E+02  0.00000000000E+00 0.  1.
</event>
<event>
 7    1  0.6370239E-006  0.1466830E+03  0.7818608E-02  0.1295620E+00
          2   -1    0    0  502    0  0.00000000000E+00  0.00000000000E+00  0.20312555408E+03  0.20312555408E+03  0.00000000000E+00 0. -1.
          1   -1    0    0  501    0 -0.00000000000E+00 -0.00000000000E+00 -0.95963712299E+03  0.95963712299E+03  0.00000000000E+00 0. -1.
         25    2    1    2    0    0  0.15876608564E+03 -0.72084427168E+02 -0.15902622585E+03  0.26705558109E+03  0.12500603303E+03 0.  0.
          2    1    1    2  501    0 -0.14329832081E+03  0.15114358252E+02 -0.73345521984E+03  0.74747535885E+03  0.00000000000E+00 0. -1.
          1    1    1    2  502    0 -0.15467764831E+02  0.56970068916E+02  0.13596987678E+03  0.14823173713E+03  0.00000000000E+00 0. -1.
         22    1    3    3    0    0  0.14461419318E+02 -0.66892801448E+02 -0.35857841077E+02  0.77262955554E+02  0.00000000000E+00 0.  1.
         22    1    3    3    0    0  0.14430466632E+03 -0.51916257198E+01 -0.12316838477E+03  0.18979262553E+03  0.00000000000E+00 0.  1.
</event>
<event>
 7    1  0.6370239E-006  0.9352799E+02  0.7818608E-02  0.1350858E+00
          2   -1    0    0  502    0  0.00000000000E+00  0.00000000000E+00  0.24664764170E+04  0.24664764170E+04  0.00000000000E+00 0. -1.
          1   -1    0    0  501    0 -0.00000000000E+00 -0.00000000000E+00 -0.16990852644E+02  0.16990852644E+02  0.00000000000E+00 0. -1.
         25    2    1    2    0    0  0.54508531522E+02 -0.72126083607E+02  0.93893931886E+03  0.95152742946E+03  0.12499621023E+03 0.  0.
          2    1    1    2  501    0 -0.50516679758E+02 -0.25634609456E+02  0.79858697523E+02  0.97910569939E+02  0.00000000000E+00 0. -1.
          1    1    1    2  502    0 -0.39918517635E+01  0.97760693063E+02  0.14306875479E+04  0.14340292702E+04  0.00000000000E+00 0. -1.
         22    1    3    3    0    0 -0.37601028585E+02 -0.32588073017E+02  0.21506008095E+03  0.22074115672E+03  0.00000000000E+00 0. -1.
         22    1    3    3    0    0  0.92109560107E+02 -0.39538010591E+02  0.72387923791E+03  0.73078627274E+03  0.00000000000E+00 0. -1.
</event>
<event>
 7    1  0.6370239E-006  0.6526505E+02  0.7818608E-02  0.1391664E+00
          2   -1    0    0  502    0  0.00000000000E+00  0.00000000000E+00  0.91509032982E+02  0.91509032982E+02  0.00000000000E+00 0. -1.
          1   -1    0    0  501    0 -0.00000000000E+00 -0.00000000000E+00 -0.90523278134E+03  0.90523278134E+03  0.00000000000E+00 0. -1.
         25    2    1    2    0    0 -0.55537508848E+01 -0.13619237228E+02 -0.14208795058E+03  0.18981207457E+03  0.12499324054E+03 0.  0.
          2    1    1    2  501    0 -0.44896505565E+02 -0.36627834908E+02 -0.71905197906E+03  0.72138272997E+03  0.00000000000E+00 0. -1.
          1    1    1    2  502    0  0.50450256450E+02  0.50247072136E+02  0.47416181290E+02  0.85547009780E+02  0.00000000000E+00 0. -1.
         22    1    3    3    0    0 -0.26924963606E+02  0.14616980691E+00 -0.15769863929E+03  0.15998073592E+03  0.00000000000E+00 0.  1.
         22    1    3    3    0    0  0.21371212721E+02 -0.13765407035E+02  0.15610688707E+02  0.29831338655E+02  0.00000000000E+00 0.  1.
</event>
<event>
 7    1  0.6370239E-006  0.1385939E+03  0.7818608E-02  0.1407799E+00
          2   -1    0    0  502    0  0.00000000000E+00  0.00000000000E+00  0.98970719864E+02  0.98970719864E+02  0.00000000000E+00 0. -1.
          1   -1    0    0  501    0 -0.00000000000E+00 -0.00000000000E+00 -0.70035768150E+03  0.70035768150E+03  0.00000000000E+00 0. -1.
         25    2    1    2    0    0 -0.72246659699E+02  0.12361511118E+03 -0.43478752358E+03  0.47451560821E+03  0.12499838488E+03 0.  0.
          2    1    1    2  501    0 -0.16380642611E+02 -0.17556760329E+02 -0.18395288694E+03  0.18551342242E+03  0.00000000000E+00 0. -1.
          1    1    1    2  502    0  0.88627302310E+02 -0.10605835085E+03  0.17353448881E+02  0.13929937074E+03  0.00000000000E+00 0. -1.
         22    1    3    3    0    0 -0.91811125612E+02  0.89923714825E+02 -0.40660558243E+03  0.42643130389E+03  0.00000000000E+00 0.  1.
         22    1    3    3    0    0  0.19564465914E+02  0.33691396352E+02 -0.28181941147E+02  0.48084304315E+02  0.00000000000E+00 0.  1.
</event>
<event>
 7    1  0.6370239E-006  0.6666910E+02  0.7818608E-02  0.1407577E+00
          2   -1    0    0  502    0  0.00000000000E+00  0.00000000000E+00  0.10522913659E+04  0.10522913659E+04  0.00000000000E+00 0. -1.
          1   -1    0    0  501    0 -0.00000000000E+00 -0.00000000000E+00 -0.34304056895E+03  0.34304056895E+03  0.00000000000E+00 0. -1.
         25    2    1    2    0    0  0.19951286967E+02 -0.13670208992E+02 -0.42651353783E+02  0.13427163027E+03  0.12499921700E+03 0.  0.
          2    1    1    2  501    0 -0.69936323050E+02  0.15026575963E+02 -0.24891769146E+03  0.25899209329E+03  0.00000000000E+00 0. -1.
          1    1    1    2  502    0  0.49985036083E+02 -0.13563669707E+01  0.10008198422E+04  0.10020682113E+04  0.00000000000E+00 0. -1.
         22    1    3    3    0    0 -0.32059553481E+02  0.40121860182E+02 -0.86367468471E+01  0.52078517932E+02  0.00000000000E+00 0.  1.
         22    1    3    3    0    0  0.52010840449E+02 -0.53792069174E+02 -0.34014606936E+02  0.82193112335E+02  0.00000000000E+00 0.  1.
</event>
<event>
 7    1  0.6370239E-006  0.3204438E+03  0.7818608E-02  0.1258249E+00
          2   -1    0    0  502    0  0.00000000000E+00  0.00000000000E+00  0.28320733351E+03  0.28320733351E+03  0.00000000000E+00 0. -1.
          1   -1    0    0  501    0 -0.00000000000E+00 -0.00000000000E+00 -0.21636619699E+04  0.21636619699E+04  0.00000000000E+00 0. -1.
         25    2    1    2    0    0  0.17529141109E+03  0.29054970916E+03 -0.31497840446E+03  0.47956505174E+03  0.12500012514E+03 0.  0.
          2    1    1    2  501    0 -0.13688650692E+03 -0.28636567151E+03 -0.17501166425E+04  0.17786656448E+04  0.00000000000E+00 0. -1.
          1    1    1    2  502    0 -0.38404904167E+02 -0.41840376451E+01  0.18464041051E+03  0.18863860694E+03  0.00000000000E+00 0. -1.
         22    1    3    3    0    0  0.11230658729E+03  0.77716724701E+02 -0.15102307256E+03  0.20361882843E+03  0.00000000000E+00 0. -1.
         22    1    3    3    0    0  0.62984823796E+02  0.21283298446E+03 -0.16395533190E+03  0.27594622331E+03  0.00000000000E+00 0. -1.
</event>
<event>
 7    1  0.6370239E-006  0.5689733E+02  0.7818608E-02  0.1446545E+00
          2   -1    0    0  502    0  0.00000000000E+00  0.00000000000E+00  0.25923926397E+04  0.25923926397E+04  0.00000000000E+00 0. -1.
          1   -1    0    0  501    0 -0.00000000000E+00 -0.00000000000E+00 -0.35035806392E+03  0.35035806392E+03  0.00000000000E+00 0. -1.
         25    2    1    2    0    0 -0.79579550115E+02 -0.37569451906E+02 -0.10191117920E+03  0.18372720789E+03  0.12500171984E+03 0.  0.
          2    1    1    2  501    0  0.36170034745E+02  0.41050629718E+02 -0.20374368606E+03  0.21096188097E+03  0.00000000000E+00 0. -1.
          1    1    1    2  502    0  0.43409515371E+02 -0.34811778127E+01  0.25476894410E+04  0.25480616148E+04  0.00000000000E+00 0. -1.
         22    1    3    3    0    0  0.20017689792E+01  0.40132928249E+02 -0.25336072107E+02  0.47503426810E+02  0.00000000000E+00 0. -1.
         22    1    3    3    0    0 -0.81581319094E+02 -0.77702380154E+02 -0.76575107090E+02  0.13622378108E+03  0.00000000000E+00 0. -1.
</event>
<event>
 7    1  0.6370239E-006  0.1937633E+03  0.7818608E-02  0.1326435E+00
          2   -1    0    0  502    0  0.00000000000E+00  0.00000000000E+00  0.16870940011E+03  0.16870940011E+03  0.00000000000E+00 0. -1.
          1   -1    0    0  501    0 -0.00000000000E+00 -0.00000000000E+00 -0.93923570878E+03  0.93923570878E+03  0.00000000000E+00 0. -1.
         25    2    1    2    0    0  0.16998675412E+03  0.71970586437E+02 -0.41716396141E+03  0.47299643656E+03  0.12499838563E+03 0.  0.
          2    1    1    2  501    0 -0.19528998120E+03 -0.49558286897E+02 -0.47114183739E+03  0.51241470655E+03  0.00000000000E+00 0. -1.
          1    1    1    2  502    0  0.25303227075E+02 -0.22412299540E+02  0.11777949013E+03  0.12253396577E+03  0.00000000000E+00 0. -1.
         22    1    3    3    0    0  0.16262339503E+03  0.31211514897E+02 -0.24356000168E+03  0.29451995127E+03  0.00000000000E+00 0. -1.
         22    1    3    3    0    0  0.73633590890E+01  0.40759071540E+02 -0.17360395973E+03  0.17847648530E+03  0.00000000000E+00 0. -1.
</event>
<event>
 7    1  0.6370239E-006  0.7599566E+02  0.7818608E-02  0.1373736E+00
          2   -1    0    0  502    0  0.00000000000E+00  0.00000000000E+00  0.38831971478E+03  0.38831971478E+03  0.00000000000E+00 0. -1.
          1   -1    0    0  501    0 -0.00000000000E+00 -0.00000000000E+00 -0.11059672667E+04  0.11059672667E+04  0.00000000000E+00 0. -1.
         25    2    1    2    0    0 -0.19601582599E+02 -0.16240693726E+02  0.12793327379E+02  0.12820769761E+03  0.12500224929E+03 0.  0.
          2    1    1    2  501    0  0.76633714169E+02  0.84525435563E+01 -0.10442209048E+04  0.10470632596E+04  0.00000000000E+00 0. -1.
          1    1    1    2  502    0 -0.57032131570E+02  0.77881501694E+01  0.31378002550E+03  0.31901602423E+03  0.00000000000E+00 0. -1.
         22    1    3    3    0    0 -0.28939136464E+02 -0.67562284820E+02 -0.34294448288E+01  0.73579188914E+02  0.00000000000E+00 0. -1.
         22    1    3    3    0    0  0.93375538654E+01  0.51321591094E+02  0.16222772208E+02  0.54628508699E+02  0.00000000000E+00 0. -1.
</event>
<event>
 7    1  0.6370239E-006  0.1467569E+03  0.7818608E-02  0.1277858E+00
          2   -1    0    0  502    0  0.00000000000E+00  0.00000000000E+00  0.14009718995E+04  0.14009718995E+04  0.00000000000E+00 0. -1.
          1   -1    0    0  501    0 -0.00000000000E+00 -0.00000000000E+00 -0.58143678288E+03  0.58143678288E+03  0.00000000000E+00 0. -1.
         25    2    1    2    0    0 -0.64176819244E+02  0.52689037293E+02 -0.71938582465E+02  0.16641685508E+03  0.12499844490E+03 0.  0.
          2    1    1    2  501    0 -0.29500359277E+02  0.63194829602E+02 -0.45549633294E+03  0.46080447806E+03  0.00000000000E+00 0. -1.
          1    1    1    2  502    0  0.93677178521E+02 -0.11588386690E+03  0.13469700320E+04  0.13551873493E+04  0.00000000000E+00 0. -1.
         22    1    3    3    0    0 -0.30625619083E+02 -0.10265872184E+02  0.28598772298E+02  0.43141702016E+02  0.00000000000E+00 0. -1.
         22    1    3    3    0    0 -0.33551200162E+02  0.62954909477E+02 -0.10053735476E+03  0.12327515306E+03  0.00000000000E+00 0. -1.
</event>
<event>
 7    1  0.6370239E-006  0.7347166E+02  0.7818608E-02  0.1485310E+00
          2   -1    0    0  502    0  0.00000000000E+00  0.00000000000E+00  0.11395476990E+04  0.11395476990E+04  0.00000000000E+00 0. -1.
          1   -1    0    0  501    0 -0.00000000000E+00 -0.00000000000E+00 -0.88251400497E+03  0.88251400497E+03  0.00000000000E+00 0. -1.
         25    2    1    2    0    0  0.12416713632E+02 -0.96174257458E+02 -0.41292139258E+02  0.16350411460E+03  0.12499956860E+03 0.  0.
          2    1    1    2  501    0 -0.11039324159E+02  0.22993691819E+02 -0.77866491200E+03  0.77908255129E+03  0.00000000000E+00 0. -1.
          1    1    1    2  502    0 -0.13773894732E+01  0.73180565639E+02  0.10769907453E+04  0.10794750381E+04  0.00000000000E+00 0. -1.
         22    1    3    3    0    0  0.47998950900E+02 -0.82699502891E+02 -0.67725980748E+02  0.11717472225E+03  0.00000000000E+00 0.  1.
         22    1    3    3    0    0 -0.35582237268E+02 -0.13474754568E+02  0.26433841489E+02  0.46329392350E+02  0.00000000000E+00 0.  1.
</event>
<event>
 7    1  0.6370239E-006  0.8862358E+02  0.7818608E-02  0.1319573E+00
          2   -1    0    0  502    0  0.00000000000E+00  0.00000000000E+00  0.98581565136E+03  0.98581565136E+03  0.00000000000E+00 0. -1.
          1   -1    0    0  501    0 -0.00000000000E+00 -0.00000000000E+00 -0.94842700432E+03  0.94842700432E+03  0.00000000000E+00 0. -1.
         25    2    1    2    0    0 -0.85116722140E+02 -0.14292331989E+03 -0.31922950376E+03  0.38105701420E+03  0.12500016098E+03 0.  0.
          2    1    1    2  501    0  0.44894378999E+02  0.64459651449E+02 -0.59365556274E+03  0.59883009201E+03  0.00000000000E+00 0. -1.
          1    1    1    2  502    0  0.40222343142E+02  0.78463668441E+02  0.95027371353E+03  0.95435554946E+03  0.00000000000E+00 0. -1.
         22    1    3    3    0    0 -0.88334387826E+02 -0.16026635593E+03 -0.25126830301E+03  0.31084405899E+03  0.00000000000E+00 0.  1.
         22    1    3    3    0    0  0.32176656860E+01  0.17343036036E+02 -0.67961200749E+02  0.70212955205E+02  0.00000000000E+00 0.  1.
</event>
<event>
 7    1  0.6370239E-006  0.1905313E+03  0.7818608E-02  0.1191165E+00
          2   -1    0    0  502    0  0.00000000000E+00  0.00000000000E+00  0.33958514179E+03  0.33958514179E+03  0.00000000000E+00 0. -1.
          1   -1    0    0  501    0 -0.00000000000E+00 -0.00000000000E+00 -0.78845986242E+03  0.78845986242E+03  0.00000000000E+00 0. -1.
         25    2    1    2    0    0 -0.95090570081E+02 -0.23095685957E+03 -0.57336566303E+03  0.63777465109E+03  0.12500013816E+03 0.  0.
          2    1    1    2  501    0 -0.75902664354E+00  0.14203342464E+03 -0.13736140138E+03  0.19759105350E+03  0.00000000000E+00 0. -1.
          1    1    1    2  502    0  0.95849596725E+02  0.88923434939E+02  0.26185234378E+03  0.29267929960E+03  0.00000000000E+00 0. -1.
         22    1    3    3    0    0 -0.48582329048E+00  0.13642339110E+02 -0.57183503212E+02  0.58790326418E+02  0.00000000000E+00 0. -1.
         22    1    3    3    0    0 -0.94604746791E+02 -0.24459919868E+03 -0.51618215981E+03  0.57898432468E+03  0.00000000000E+00 0. -1.
</event>
<event>
 7    1  0.6370239E-006  0.4165346E+03  0.7818608E-02  0.1262871E+00
          2   -1    0    0  502    0  0.00000000000E+00  0.00000000000E+00  0.91530528875E+03  0.91530528875E+03  0.00000000000E+00 0. -1.
          1   -1    0    0  501    0 -0.00000000000E+00 -0.00000000000E+00 -0.60438047773E+03  0.60438047773E+03  0.00000000000E+00 0. -1.
         25    2    1    2    0    0 -0.14660885802E+03  0.37635961540E+03 -0.33927628523E+03  0.54208772743E+03  0.12493994218E+03 0.  0.
          2    1    1    2  501    0 -0.28183660782E+02  0.35114264961E+01 -0.10803273461E+03  0.11170371793E+03  0.00000000000E+00 0. -1.
          1    1    1    2  502    0  0.17479251880E+03 -0.37987104189E+03  0.75823383086E+03  0.86589432113E+03  0.00000000000E+00 0. -1.
         22    1    3    3    0    0 -0.10850021399E+03  0.11301783621E+03 -0.12910124010E+03  0.20300851690E+03  0.00000000000E+00 0. -1.
         22    1    3    3    0    0 -0.38108644026E+02  0.26334177919E+03 -0.21017504513E+03  0.33907921053E+03  0.00000000000E+00 0. -1.
</event>
<event>
 7    1  0.6370239E-006  0.6601353E+02  0.7818608E-02  0.1397133E+00
          2   -1    0    0  502    0  0.00000000000E+00  0.00000000000E+00  0.45264366495E+03  0.45264366495E+03  0.00000000000E+00 0. -1.
          1   -1    0    0  501    0 -0.00000000000E+00 -0.00000000000E+00 -0.37115320557E+03  0.37115320557E+03  0.00000000000E+00 0. -1.
         25    2    1    2    0    0  0.48338699331E+01 -0.32467089725E+02  0.21565685353E+03  0.25141550068E+03  0.12499758917E+03 0.  0.
          2    1    1    2  501    0 -0.31890179161E+02 -0.44611755380E+02 -0.34340801840E+03  0.34775890980E+03  0.00000000000E+00 0. -1.
          1    1    1    2  502    0  0.27056309228E+02  0.77078845105E+02  0.20924162425E+03  0.22462246003E+03  0.00000000000E+00 0. -1.
         22    1    3    3    0    0 -0.94576618945E+01 -0.50752602108E+02  0.22153810569E+03  0.22747396832E+03  0.00000000000E+00 0.  1.
         22    1    3    3    0    0  0.14291531828E+02  0.18285512382E+02 -0.58812521635E+01  0.23941532367E+02  0.00000000000E+00 0.  1.
</event>
<event>
 7    1  0.6370239E-006  0.3940554E+02  0.7818608E-02  0.1520591E+00
          2   -1    0    0  502    0  0.00000000000E+00  0.00000000000E+00  0.35399613929E+03  0.35399613929E+03  0.00000000000E+00 0. -1.
          1   -1    0    0  501    0 -0.00000000000E+00 -0.00000000000E+00 -0.14429235831E+04  0.14429235831E+04  0.00000000000E+00 0. -1.
         25    2    1    2    0    0 -0.47692349603E+02 -0.70082865287E+01 -0.78764917781E+03  0.79896178892E+03  0.12500014620E+03 0.  0.
          2    1    1    2  501    0  0.26560719292E+02 -0.26265238680E+02 -0.64796341214E+03  0.64903922689E+03  0.00000000000E+00 0. -1.
          1    1    1    2  502    0  0.21131630311E+02  0.33273525209E+02  0.34668514612E+03  0.34891870661E+03  0.00000000000E+00 0. -1.
         22    1    3    3    0    0 -0.76419954025E+01 -0.54501962995E+02 -0.18212021268E+03  0.19025413512E+03  0.00000000000E+00 0. -1.
         22    1    3    3    0    0 -0.40050354200E+02  0.47493676466E+02 -0.60552896514E+03  0.60870765380E+03  0.00000000000E+00 0. -1.
</event>
<event>
 7    1  0.6370239E-006  0.8795423E+02  0.7818608E-02  0.1369309E+00
          2   -1    0    0  502    0  0.00000000000E+00  0.00000000000E+00  0.22625672697E+04  0.22625672697E+04  0.00000000000E+00 0. -1.
          1   -1    0    0  501    0 -0.00000000000E+00 -0.00000000000E+00 -0.12528463343E+03  0.12528463343E+03  0.00000000000E+00 0. -1.
         25    2    1    2    0    0 -0.68762600365E+02 -0.99137745209E+02  0.38879532373E+03  0.42584327872E+03  0.12499642611E+03 0.  0.
          2    1    1    2  501    0  0.49444399862E+02  0.14713425001E+02 -0.99454939704E+02  0.11203802294E+03  0.00000000000E+00 0. -1.
          1    1    1    2  502    0  0.19318200503E+02  0.84424320208E+02  0.18479422523E+04  0.18499706015E+04  0.00000000000E+00 0. -1.
         22    1    3    3    0    0 -0.27155319565E+02 -0.85863676576E+02  0.36532864473E+03  0.37626453592E+03  0.00000000000E+00 0. -1.
         22    1    3    3    0    0 -0.41607280800E+02 -0.13274068633E+02  0.23466679003E+02  0.49578742795E+02  0.00000000000E+00 0. -1.
</event>
<event>
 7    1  0.6370239E-006  0.6376183E+02  0.7818608E-02  0.1424123E+00
          2   -1    0    0  502    0  0.00000000000E+00  0.00000000000E+00  0.68847641857E+02  0.68847641857E+02  0.00000000000E+00 0. -1.
          1   -1    0    0  501    0 -0.00000000000E+00 -0.00000000000E+00 -0.62216728320E+03  0.62216728320E+03  0.00000000000E+00 0. -1.
         25    2    1    2    0    0  0.28088347150E+02 -0.35807752718E+02 -0.26736272731E+03  0.29862772502E+03  0.12499815917E+03 0.  0.
          2    1    1    2  501    0 -0.68893275370E+02  0.14570161309E+02 -0.32469811302E+03  0.33224604978E+03  0.00000000000E+00 0. -1.
          1    1    1    2  502    0  0.40804928219E+02  0.21237591409E+02  0.38741198986E+02  0.60141150261E+02  0.00000000000E+00 0. -1.
         22    1    3    3    0    0  0.62345252878E+02 -0.61356146596E+02 -0.20647567547E+03  0.22424029933E+03  0.00000000000E+00 0.  1.
         22    1    3    3    0    0 -0.34256905727E+02  0.25548393878E+02 -0.60887051835E+02  0.74387425691E+02  0.00000000000E+00 0.  1.
</event>
<event>
 7    1  0.6370239E-006  0.3123838E+03  0.7818608E-02  0.1196515E+00
          2   -1    0    0  502    0  0.00000000000E+00  0.00000000000E+00  0.21286989557E+04  0.21286989557E+04  0.00000000000E+00 0. -1.
          1   -1    0    0  501    0 -0.00000000000E+00 -0.00000000000E+00 -0.66416023330E+03  0.66416023330E+03  0.00000000000E+00 0. -1.
         25    2    1    2    0    0 -0.24144015364E+03 -0.62458213958E+02  0.12617040426E+04  0.12921750793E+04  0.12499987315E+03 0.  0.
          2    1    1    2  501    0  0.31216056762E+03  0.36895903872E+02 -0.60901981343E+03  0.68535440529E+03  0.00000000000E+00 0. -1.
          1    1    1    2  502    0 -0.70720413978E+02  0.25562310086E+02  0.81185449326E+03  0.81532970440E+03  0.00000000000E+00 0. -1.
         22    1    3    3    0    0 -0.18735636330E+03 -0.98632145212E+02  0.89166092726E+03  0.91645508136E+03  0.00000000000E+00 0.  1.
         22    1    3    3    0    0 -0.54083790341E+02  0.36173931254E+02  0.37004311529E+03  0.37571999794E+03  0.00000000000E+00 0.  1.
</event>
<event>
 7    1  0.6370239E-006  0.1745311E+03  0.7818608E-02  0.1241858E+00
          2   -1    0    0  502    0  0.00000000000E+00  0.00000000000E+00  0.90143331695E+03  0.90143331695E+03  0.00000000000E+00 0. -1.
          1   -1    0    0  501    0 -0.00000000000E+00 -0.00000000000E+00 -0.82822416774E+02  0.82822416774E+02  0.00000000000E+00 0. -1.
         25    2    1    2    0    0 -0.26633628130E+02  0.16607013766E+03  0.15116846482E+03  0.25839764885E+03  0.12501519670E+03 0.  0.
          2    1    1    2  501    0  0.11017010588E+03 -0.16742379146E+03  0.43795434080E+03  0.48163490613E+03  0.00000000000E+00 0. -1.
          1    1    1    2  502    0 -0.83536477748E+02  0.13536537979E+01  0.22948809456E+03  0.24422317875E+03  0.00000000000E+00 0. -1.
         22    1    3    3    0    0 -0.76740221136E+02  0.96073531143E+02  0.79878120913E+02  0.14662775701E+03  0.00000000000E+00 0. -1.
         22    1    3    3    0    0  0.50106593006E+02  0.69996606519E+02  0.71290343907E+02  0.11176989184E+03  0.00000000000E+00 0. -1.
</event>
<event>
 7    1  0.6370239E-006  0.4296643E+02  0.7818608E-02  0.1502392E+00
          2   -1    0    0  502    0  0.00000000000E+00  0.00000000000E+00  0.14479809466E+03  0.14479809466E+03  0.00000000000E+00 0. -1.
          1   -1    0    0  501    0 -0.00000000000E+00 -0.00000000000E+00 -0.54287263331E+03  0.54287263331E+03  0.00000000000E+00 0. -1.
         25    2    1    2    0    0 -0.16610517982E+02  0.39004784313E+02 -0.11925592949E+03  0.17788668930E+03  0.12499766000E+03 0.  0.
          2    1    1    2  501    0 -0.25676945919E+02 -0.29016707265E+02 -0.38921790884E+03  0.39114173315E+03  0.00000000000E+00 0. -1.
          1    1    1    2  502    0  0.42287463901E+02 -0.99880770473E+01  0.11039929969E+03  0.11864230552E+03  0.00000000000E+00 0. -1.
         22    1    3    3    0    0  0.21323514919E+02 -0.30810418972E+02 -0.81948775061E+02  0.90108689590E+02  0.00000000000E+00 0. -1.
         22    1    3    3    0    0 -0.37934032901E+02  0.69815203285E+02 -0.37307154434E+02  0.87777999714E+02  0.00000000000E+00 0. -1.
</event>
<event>
 7    1  0.6370239E-006  0.5998747E+02  0.7818608E-02  0.1543494E+00
          2   -1    0    0  502    0  0.00000000000E+00  0.00000000000E+00  0.11834466610E+04  0.11834466610E+04  0.00000000000E+00 0. -1.
          1   -1    0    0  501    0 -0.00000000000E+00 -0.00000000000E+00 -0.20739061688E+04  0.20739061688E+04  0.00000000000E+00 0. -1.
         25    2    1    2    0    0 -0.19239738991E+02  0.36161517092E+02  0.57918982005E+02  0.14372181833E+03  0.12499411871E+03 0.  0.
          2    1    1    2  501    0  0.37289214733E+02 -0.47100197600E+02 -0.20304575976E+04  0.20313460980E+04  0.00000000000E+00 0. -1.
          1    1    1    2  502    0 -0.18049475741E+02  0.10938680507E+02  0.10820791078E+04  0.10822849134E+04  0.00000000000E+00 0. -1.
         22    1    3    3    0    0  0.30324156885E+02  0.63918060965E+02  0.14487997673E+02  0.72214784393E+02  0.00000000000E+00 0. -1.
         22    1    3    3    0    0 -0.49563895876E+02 -0.27756543873E+02  0.43430984332E+02  0.71507033936E+02  0.00000000000E+00 0. -1.
</event>
<event>
 7    1  0.6370239E-006  0.1293074E+03  0.7818608E-02  0.1304251E+00
          2   -1    0    0  502    0  0.00000000000E+00  0.00000000000E+00  0.17823268819E+03  0.17823268819E+03  0.00000000000E+00 0. -1.
          1   -1    0    0  501    0 -0.00000000000E+00 -0.00000000000E+00 -0.18644462828E+04  0.18644462828E+04  0.00000000000E+00 0. -1.
         25    2    1    2    0    0 -0.82658595575E+02 -0.16190001171E+03 -0.17558416093E+03  0.28195743499E+03  0.12500456138E+03 0.  0.
          2    1    1    2  501    0  0.40271241744E+02  0.46934100244E+02 -0.16049196680E+04  0.16061107445E+04  0.00000000000E+00 0. -1.
          1    1    1    2  502    0  0.42387353832E+02  0.11496591147E+03  0.94290234342E+02  0.15461079153E+03  0.00000000000E+00 0. -1.
         22    1    3    3    0    0 -0.99326938534E+02 -0.11946645673E+03 -0.77121841721E+02  0.17345274132E+03  0.00000000000E+00 0. -1.
         22    1    3    3    0    0  0.16668342958E+02 -0.42433554982E+02 -0.98462319205E+02  0.10850469367E+03  0.00000000000E+00 0. -1.
</event>
<event>
 7    1  0.6370239E-006  0.1517254E+03  0.7818608E-02  0.1328799E+00
          2   -1    0    0  502    0  0.00000000000E+00  0.00000000000E+00  0.52035071783E+03  0.52035071783E+03  0.00000000000E+00 0. -1.
          1   -1    0    0  501    0 -0.00000000000E+00 -0.00000000000E+00 -0.96352658737E+03  0.96352658737E+03  0.00000000000E+00 0. -1.
         25    2    1    2    0    0 -0.10474201241E+03  0.71791662094E+02  0.57261211313E+02  0.18714388930E+03  0.12497622602E+03 0.  0.
          2    1    1    2  501    0 -0.41025156647E+02 -0.10204806152E+02 -0.88233572013E+03  0.88334790687E+03  0.00000000000E+00 0. -1.
          1    1    1    2  502    0  0.14576716906E+03 -0.61586855942E+02  0.38189863927E+03  0.41338550903E+03  0.00000000000E+00 0. -1.
         22    1    3    3    0    0 -0.62569055681E+02 -0.10450086992E+02  0.69287163651E+02  0.93940417786E+02  0.00000000000E+00 0.  1.
         22    1    3    3    0    0 -0.42172956728E+02  0.82241749086E+02 -0.12025952338E+02  0.93203471510E+02  0.00000000000E+00 0.  1.
</event>
<event>
 7    1  0.6370239E-006  0.5367545E+03  0.7818608E-02  0.1169404E+00
          2   -1    0    0  502    0  0.00000000000E+00  0.00000000000E+00  0.12719940637E+04  0.12719940637E+04  0.00000000000E+00 0. -1.
          1   -1    0    0  501    0 -0.00000000000E+00 -0.00000000000E+00 -0.10555118957E+04  0.10555118957E+04  0.00000000000E+00 0. -1.
         25    2    1    2    0    0  0.35925135250E+03  0.45405630192E+03  0.18507586455E+03  0.62056913319E+03  0.12499725536E+03 0.  0.
          2    1    1    2  501    0 -0.46757030521E+02 -0.36415617462E+02 -0.75824733623E+03  0.76055988587E+03  0.00000000000E+00 0. -1.
          1    1    1    2  502    0 -0.31249432198E+03 -0.41764068446E+03  0.78965363966E+03  0.94637694034E+03  0.00000000000E+00 0. -1.
         22    1    3    3    0    0  0.35057460918E+03  0.45443313831E+03  0.19611289839E+03  0.60652477502E+03  0.00000000000E+00 0.  1.
         22    1    3    3    0    0  0.86767433247E+01 -0.37683639458E+00 -0.11037033845E+02  0.14044358173E+02  0.00000000000E+00 0.  1.
</event>
<event>
 7    1  0.6370239E-006  0.7487526E+02  0.7818608E-02  0.1453631E+00
          2   -1    0    0  502    0  0.00000000000E+00  0.00000000000E+00  0.25731991880E+02  0.25731991880E+02  0.00000000000E+00 0. -1.
          1   -1    0    0  501    0 -0.00000000000E+00 -0.00000000000E+00 -0.24751141961E+04  0.24751141961E+04  0.00000000000E+00 0. -1.
         25    2    1    2    0    0 -0.55964753418E+02  0.44633587185E+02 -0.12303230004E+04  0.12387280056E+04  0.12501270258E+03 0.  0.
          2    1    1    2  501    0 -0.17158671342E+02 -0.26308250507E+02 -0.11737391372E+04  0.11741593190E+04  0.00000000000E+00 0. -1.
          1    1    1    2  502    0  0.73123424760E+02 -0.18325336679E+02 -0.45320066527E+02  0.87958863357E+02  0.00000000000E+00 0. -1.
         22    1    3    3    0    0  0.48995314792E+01 -0.35298131253E+02 -0.53484649906E+03  0.53603240671E+03  0.00000000000E+00 0. -1.
         22    1    3    3    0    0 -0.60864284897E+02  0.79931718438E+02 -0.69547650136E+03  0.70269559892E+03  0.00000000000E+00 0. -1.
</event>
<event>
 7    1  0.6370239E-006  0.1417776E+03  0.7818608E-02  0.1217306E+00
          2   -1    0    0  502    0  0.00000000000E+00  0.00000000000E+00  0.16931230288E+04  0.16931230288E+04  0.00000000000E+00 0. -1.
          1   -1    0    0  501    0 -0.00000000000E+00 -0.00000000000E+00 -0.13531329963E+04  0.13531329963E+04  0.00000000000E+00 0. -1.
         25    2    1    2    0    0  0.93603052250E+02 -0.65328652757E+02 -0.37467133635E+02  0.17338085329E+03  0.12501107920E+03 0.  0.
          2    1    1    2  501    0  0.36736883905E+02  0.12735542923E+03 -0.12409675052E+04  0.12480261828E+04  0.00000000000E+00 0. -1.
          1    1    1    2  502    0 -0.13033993616E+03 -0.62026776472E+02  0.16184246714E+04  0.16248489890E+04  0.00000000000E+00 0. -1.
         22    1    3    3    0    0  0.47596812244E+02  0.58687356664E+01 -0.68061829619E+02  0.83260502312E+02  0.00000000000E+00 0.  1.
         22    1    3    3    0    0  0.46006240006E+02 -0.71197388423E+02  0.30594695983E+02  0.90120350976E+02  0.00000000000E+00 0.  1.
</event>
<event>
 7    1  0.6370239E-006  0.5845518E+02  0.7818608E-02  0.1548070E+00
          2   -1    0    0  502    0  0.00000000000E+00  0.00000000000E+00  0.51703487487E+03  0.51703487487E+03  0.00000000000E+00 0. -1.
          1   -1    0    0  501    0 -0.00000000000E+00 -0.00000000000E+00 -0.20130733009E+03  0.20130733009E+03  0.00000000000E+00 0. -1.
         25    2    1    2    0    0  0.36818949788E+02 -0.13371360546E+02  0.16175589028E+03  0.20814579595E+03  0.12500110394E+03 0.  0.
          2    1    1    2  501    0 -0.57786828526E+02  0.11784360047E+02 -0.17288323322E+03  0.18266581787E+03  0.00000000000E+00 0. -1.
          1    1    1    2  502    0  0.20967878738E+02  0.15870004984E+01  0.32685488771E+03  0.32753059114E+03  0.00000000000E+00 0. -1.
         22    1    3    3    0    0  0.81459902303E+02 -0.27813005865E+01  0.78926450461E+02  0.11345852061E+03  0.00000000000E+00 0.  1.
         22    1    3    3    0    0 -0.44640952516E+02 -0.10590059959E+02  0.82829439814E+02  0.94687275341E+02  0.00000000000E+00 0.  1.
</event>
<event>
 7    1  0.6370239E-006  0.5259011E+02  0.7818608E-02  0.1477416E+00
          2   -1    0    0  502    0  0.00000000000E+00  0.00000000000E+00  0.23871664034E+04  0.23871664034E+04  0.00000000000E+00 0. -1.
          1   -1    0    0  501    0 -0.00000000000E+00 -0.00000000000E+00 -0.32425557556E+02  0.32425557556E+02  0.00000000000E+00 0. -1.
         25    2    1    2    0    0 -0.76083715967E+01 -0.88225203589E+02  0.93962000738E+03  0.95202570305E+03  0.12500242853E+03 0.  0.
          2    1    1    2  501    0  0.10087507871E+02  0.50633516167E+02 -0.31460633755E+00  0.51629543399E+02  0.00000000000E+00 0. -1.
          1    1    1    2  502    0 -0.24791362743E+01  0.37591687422E+02  0.14154354448E+04  0.14159367145E+04  0.00000000000E+00 0. -1.
         22    1    3    3    0    0  0.28571461887E+02 -0.68243671052E+02  0.23903074214E+03  0.25021835017E+03  0.00000000000E+00 0. -1.
         22    1    3    3    0    0 -0.36179833483E+02 -0.19981532537E+02  0.70058926523E+03  0.70180735288E+03  0.00000000000E+00 0. -1.
</event>
<event>
 7    1  0.6370239E-006  0.5986214E+02  0.7818608E-02  0.1456433E+00
          2   -1    0    0  502    0  0.00000000000E+00  0.00000000000E+00  0.17138439165E+04  0.17138439165E+04  0.00000000000E+00 0. -1.
          1   -1    0    0  501    0 -0.00000000000E+00 -0.00000000000E+00 -0.77753550775E+02  0.77753550775E+02  0.00000000000E+00 0. -1.
         25    2    1    2    0    0  0.55608665798E+02  0.67773562129E+02  0.84785633543E+02  0.17464245966E+03  0.12500322245E+03 0.  0.
          2    1    1    2  501    0 -0.36814861385E+02 -0.11230503738E+02 -0.20780406971E+02  0.43741096772E+02  0.00000000000E+00 0. -1.
          1    1    1    2  502    0 -0.18793804413E+02 -0.56543058391E+02  0.15720851392E+04  0.15732139109E+04  0.00000000000E+00 0. -1.
         22    1    3    3    0    0  0.49608521767E+02  0.26592145117E+02  0.11170092084E+03  0.12508094711E+03  0.00000000000E+00 0.  1.
         22    1    3    3    0    0  0.60001440315E+01  0.41181417013E+02 -0.26915287296E+02  0.49561512545E+02  0.00000000000E+00 0.  1.
</event>
<event>
 7    1  0.6370239E-006  0.1626088E+03  0.7818608E-02  0.1233188E+00
          2   -1    0    0  502    0  0.00000000000E+00  0.00000000000E+00  0.13719033259E+04  0.13719033259E+04  0.00000000000E+00 0. -1.
          1   -1    0    0  501    0 -0.00000000000E+00 -0.00000000000E+00 -0.22242816032E+03  0.22242816032E+03  0.00000000000E+00 0. -1.
         25    2    1    2    0    0  0.47164217801E+02 -0.15416813744E+03  0.10157338381E+03  0.22789051150E+03  0.12499861956E+03 0.  0.
          2    1    1    2  501    0 -0.13224811214E+03  0.10561791457E+03 -0.11165097250E+03  0.20275760578E+03  0.00000000000E+00 0. -1.
          1    1    1    2  502    0  0.85083894337E+02  0.48550222866E+02  0.11595527542E+04  0.11636833689E+04  0.00000000000E+00 0. -1.
         22    1    3    3    0    0  0.70796493880E+02 -0.13604306273E+03  0.11834093577E+03  0.19371224933E+03  0.00000000000E+00 0. -1.
         22    1    3    3    0    0 -0.23632276080E+02 -0.18125074708E+02 -0.16767551966E+02  0.34178262167E+02  0.00000000000E+00 0. -1.
</event>
<event>
 7    1  0.6370239E-006  0.6302967E+02  0.7818608E-02  0.1418006E+00
          2   -1    0    0  502    0  0.00000000000E+00  0.00000000000E+00  0.14400256896E+03  0.14400256896E+03  0.00000000000E+00 0. -1.
          1   -1    0    0  501    0 -0.00000000000E+00 -0.00000000000E+00 -0.33279106491E+03  0.33279106491E+03  0.00000000000E+00 0. -1.
         25    2    1    2    0    0 -0.59175108026E+02 -0.92520740408E+02  0.20654297630E+02  0.16767317075E+03  0.12500364540E+03 0.  0.
          2    1    1    2  501    0  0.34825217099E+02  0.50260839449E+02 -0.24257173721E+03  0.25015993968E+03  0.00000000000E+00 0. -1.
          1    1    1    2  502    0  0.24349890928E+02  0.42259900959E+02  0.33128943634E+02  0.58960523434E+02  0.00000000000E+00 0. -1.
         22    1    3    3    0    0 -0.71621950514E+01 -0.70698960678E+02 -0.42656341149E+02  0.82880658293E+02  0.00000000000E+00 0. -1.
         22    1    3    3    0    0 -0.52012912975E+02 -0.21821779730E+02  0.63310638779E+02  0.84792512460E+02  0.00000000000E+00 0. -1.
</event>
<event>
 7    1  0.6370239E-006  0.1656280E+03  0.7818608E-02  0.1391359E+00
          2   -1    0    0  502    0  0.00000000000E+00  0.00000000000E+00  0.39260637948E+03  0.39260637948E+03  0.00000000000E+00 0. -1.
          1   -1    0    0  501    0 -0.00000000000E+00 -0.00000000000E+00 -0.99222904780E+03  0.99222904780E+03  0.00000000000E+00 0. -1.
         25    2    1    2    0    0 -0.13464551142E+03  0.53760297525E+02 -0.46215544309E+03  0.50023116455E+03  0.12499592423E+03 0.  0.
          2    1    1    2  501    0 -0.22887698938E+02 -0.70500347657E-01 -0.49221965147E+03  0.49275149622E+03  0.00000000000E+00 0. -1.
          1    1    1    2  502    0  0.15753321036E+03 -0.53689797178E+02  0.35475242625E+03  0.39185276650E+03  0.00000000000E+00 0. -1.
         22    1    3    3    0    0 -0.39589803672E+02 -0.30412880092E+01 -0.20074264436E+02  0.44492449699E+02  0.00000000000E+00 0. -1.
         22    1    3    3    0    0 -0.95055707748E+02  0.56801585535E+02 -0.44208117866E+03  0.45573871485E+03  0.00000000000E+00 0. -1.
</event>
<event>
 7    1  0.6370239E-006  0.8226121E+02  0.7818608E-02  0.1337220E+00
          2   -1    0    0  502    0  0.00000000000E+00  0.00000000000E+00  0.12793395953E+03  0.12793395953E+03  0.00000000000E+00 0. -1.
          1   -1    0    0  501    0 -0.00000000000E+00 -0.00000000000E+00 -0.10062745502E+04  0.10062745502E+04  0.00000000000E+00 0. -1.
         25    2    1    2    0    0  0.47508214197E+02  0.43580994713E+02 -0.10802436963E+03  0.17734511063E+03  0.12500276122E+03 0.  0.
          2    1    1    2  501    0 -0.82716493718E+02  0.19717663454E+02 -0.84707097814E+03  0.85132840114E+03  0.00000000000E+00 0. -1.
          1    1    1    2  502    0  0.35208279521E+02 -0.63298658168E+02  0.76754757053E+02  0.10553499800E+03  0.00000000000E+00 0. -1.
         22    1    3    3    0    0  0.16152173356E+02 -0.30970499863E+02 -0.87044113561E+02  0.93790949838E+02  0.00000000000E+00 0. -1.
         22    1    3    3    0    0  0.31356040841E+02  0.74551494576E+02 -0.20980256071E+02  0.83554160792E+02  0.00000000000E+00 0. -1.
</event>
<event>
 7    1  0.7320373E-006  0.8584351E+02  0.7818608E-02  0.1344900E+00
          2   -1    0    0  502    0  0.00000000000E+00  0.00000000000E+00  0.16623522733E+04  0.16623522733E+04  0.00000000000E+00 0. -1.
          1   -1    0    0  501    0 -0.00000000000E+00 -0.00000000000E+00 -0.55093967825E+03  0.55093967825E+03  0.00000000000E+00 0. -1.
         25    2    1    2    0    0  0.29037542621E+02  0.11246451961E+03 -0.37673763663E+02  0.17474501293E+03  0.12500024010E+03 0.  0.
          2    1    1    2  501    0 -0.63060850157E+02 -0.57140897484E+02 -0.43998997936E+03  0.44814387748E+03  0.00000000000E+00 0. -1.
          1    1    1    2  502    0  0.34023307536E+02 -0.55323622121E+02  0.15890763380E+04  0.15904030611E+04  0.00000000000E+00 0. -1.
         22    1    3    3    0    0  0.57656656783E+02  0.33231439331E+01 -0.10717204684E+02  0.58738333592E+02  0.00000000000E+00 0.  1.
         22    1    3    3    0    0 -0.28619114161E+02  0.10914137567E+03 -0.26956558979E+02  0.11600667934E+03  0.00000000000E+00 0.  1.
</event>
<event>
 7    1  0.6370239E-006  0.7534358E+02  0.7818608E-02  0.1365577E+00
          2   -1    0    0  502    0  0.00000000000E+00  0.00000000000E+00  0.96147909820E+03  0.96147909820E+03  0.00000000000E+00 0. -1.
          1   -1    0    0  501    0 -0.00000000000E+00 -0.00000000000E+00 -0.96013750557E+03  0.96013750557E+03  0.00000000000E+00 0. -1.
         25    2    1    2    0    0 -0.12700627709E+02  0.64459826614E+02  0.22242992095E+02  0.14295439553E+03  0.12499933325E+03 0.  0.
          2    1    1    2  501    0 -0.54879002252E+02 -0.29103410757E+02 -0.89705099124E+03  0.89919919611E+03  0.00000000000E+00 0. -1.
          1    1    1    2  502    0  0.67579629961E+02 -0.35356415857E+02  0.87614959178E+03  0.87946301213E+03  0.00000000000E+00 0. -1.
         22    1    3    3    0    0 -0.52799308663E+02 -0.62351881292E+01 -0.12417315993E+02  0.54597017343E+02  0.00000000000E+00 0.  1.
         22    1    3    3    0    0  0.40098680953E+02  0.70695014743E+02  0.34660308088E+02  0.88357378189E+02  0.00000000000E+00 0.  1.
</event>
<event>
 7    1  0.6370239E-006  0.6407169E+02  0.7818608E-02  0.1467005E+00
          2   -1    0    0  502    0  0.00000000000E+00  0.00000000000E+00  0.20339538283E+04  0.20339538283E+04  0.00000000000E+00 0. -1.
          1   -1    0    0  501    0 -0.00000000000E+00 -0.00000000000E+00 -0.19699110882E+04  0.19699110882E+04  0.00000000000E+00 0. -1.
         25    2    1    2    0    0  0.72925245457E+02  0.63571974525E+02  0.12287759361E+04  0.12389009097E+04  0.12500270247E+03 0.  0.
          2    1    1    2  501    0 -0.44702330696E+02 -0.45881682807E+02 -0.19639795158E+04  0.19650239097E+04  0.00000000000E+00 0. -1.
          1    1    1    2  502    0 -0.28222914761E+02 -0.17690291718E+02  0.79924631979E+03  0.79994009715E+03  0.00000000000E+00 0. -1.
         22    1    3    3    0    0  0.44734574325E+02 -0.32454082876E+02  0.55296359632E+03  0.55571862349E+03  0.00000000000E+00 0.  1.
         22    1    3    3    0    0  0.28190671132E+02  0.96026057400E+02  0.67581233979E+03  0.68318228625E+03  0.00000000000E+00 0.  1.
</event>
<event>
 7    1  0.6370239E-006  0.5351593E+02  0.7818608E-02  0.1433734E+00
          2   -1    0    0  502    0  0.00000000000E+00  0.00000000000E+00  0.10022477890E+04  0.10022477890E+04  0.00000000000E+00 0. -1.
          1   -1    0    0  501    0 -0.00000000000E+00 -0.00000000000E+00 -0.57763088087E+03  0.57763088087E+03  0.00000000000E+00 0. -1.
         25    2    1    2    0    0 -0.80121940837E+01 -0.76129979410E+02 -0.16808191017E+02  0.14753891465E+03  0.12500098812E+03 0.  0.
          2    1    1    2  501    0 -0.31476499704E+02  0.40065387531E+02 -0.49338115810E+03  0.49600501256E+03  0.00000000000E+00 0. -1.
          1    1    1    2  502    0  0.39488693788E+02  0.36064591878E+02  0.93480625725E+03  0.93633474266E+03  0.00000000000E+00 0. -1.
         22    1    3    3    0    0  0.48406791697E+02  0.38854460490E+01 -0.28869747659E+01  0.48648214733E+02  0.00000000000E+00 0. -1.
         22    1    3    3    0    0 -0.56418985781E+02 -0.80015425459E+02 -0.13921216252E+02  0.98890699916E+02  0.00000000000E+00 0. -1.
</event>
<event>
 7    1  0.6370239E-006  0.1586436E+03  0.7818608E-02  0.1266827E+00
          2   -1    0    0  502    0  0.00000000000E+00  0.00000000000E+00  0.58596031190E+03  0.58596031190E+03  0.00000000000E+00 0. -1.
          1   -1    0    0  501    0 -0.00000000000E+00 -0.00000000000E+00 -0.18814152691E+04  0.18814152691E+04  0.00000000000E+00 0. -1.
         25    2    1    2    0    0  0.18178295696E+03  0.69473543614E+02 -0.46266143933E+03  0.51725571987E+03  0.12500502230E+03 0.  0.
          2    1    1    2  501    0 -0.62827328284E+02  0.34651160983E+02 -0.13793215410E+04  0.13811864065E+04  0.00000000000E+00 0. -1.
          1    1    1    2  502    0 -0.11895562867E+03 -0.10412470460E+03  0.54652802312E+03  0.56893345460E+03  0.00000000000E+00 0. -1.
         22    1    3    3    0    0 -0.68851382409E+01  0.27404389631E+02 -0.12523353575E+03  0.12838163488E+03  0.00000000000E+00 0. -1.
         22    1    3    3    0    0  0.18866809520E+03  0.42069153983E+02 -0.33742790358E+03  0.38887408499E+03  0.00000000000E+00 0. -1.
</event>
<event>
 7    1  0.6370239E-006  0.8372834E+02  0.7818608E-02  0.1385895E+00
          2   -1    0    0  502    0  0.00000000000E+00  0.00000000000E+00  0.65037385068E+03  0.65037385068E+03  0.00000000000E+00 0. -1.
          1   -1    0    0  501    0 -0.00000000000E+00 -0.00000000000E+00 -0.78587081547E+02  0.78587081547E+02  0.00000000000E+00 0. -1.
         25    2    1    2    0    0  0.38647345135E+02  0.32646672708E+02  0.18436172276E+03  0.22841719824E+03  0.12500299638E+03 0.  0.
          2    1    1    2  501    0 -0.42102153833E+02 -0.79832381353E+02 -0.18282201738E+02  0.92087129232E+02  0.00000000000E+00 0. -1.
          1    1    1    2  502    0  0.34548086978E+01  0.47185708645E+02  0.40570724810E+03  0.40845660475E+03  0.00000000000E+00 0. -1.
         22    1    3    3    0    0  0.81040529763E+02  0.40564511325E+02  0.13801166964E+03  0.16510683814E+03  0.00000000000E+00 0. -1.
         22    1    3    3    0    0 -0.42393184627E+02 -0.79178386176E+01  0.46350053122E+02  0.63310360097E+02  0.00000000000E+00 0. -1.
</event>
<event>
 7    1  0.6370239E-006  0.7709823E+02  0.7818608E-02  0.1407005E+00
          2   -1    0    0  502    0  0.00000000000E+00  0.00000000000E+00  0.60729245826E+03  0.60729245826E+03  0.00000000000E+00 0. -1.
          1   -1    0    0  501    0 -0.00000000000E+00 -0.00000000000E+00 -0.32745850063E+02  0.32745850063E+02  0.00000000000E+00 0. -1.
         25    2    1    2    0    0 -0.10067033490E+02 -0.59887013605E+02  0.24891702429E+03  0.28508275422E+03  0.12499876884E+03 0.  0.
          2    1    1    2  501    0  0.38398184377E+02 -0.20299010784E+02  0.48665387397E+02  0.65228753880E+02  0.00000000000E+00 0. -1.
          1    1    1    2  502    0 -0.28331150886E+02  0.80186024389E+02  0.27696419651E+03  0.28972680022E+03  0.00000000000E+00 0. -1.
         22    1    3    3    0    0 -0.16457498166E+02  0.19373306912E+02  0.17395249949E+03  0.17580001805E+03  0.00000000000E+00 0. -1.
         22    1    3    3    0    0  0.63904646758E+01 -0.79260320517E+02  0.74964524797E+02  0.10928273617E+03  0.00000000000E+00 0. -1.
</event>
<event>
 7    1  0.6370239E-006  0.8048552E+02  0.7818608E-02  0.1472341E+00
          2   -1    0    0  502    0  0.00000000000E+00  0.00000000000E+00  0.13161720218E+04  0.13161720218E+04  0.00000000000E+00 0. -1.
          1   -1    0    0  501    0 -0.00000000000E+00 -0.00000000000E+00 -0.65041805271E+02  0.65041805271E+02  0.00000000000E+00 0. -1.
         25    2    1    2    0    0 -0.87853686854E+02  0.25519141748E+02  0.71207425406E+03  0.72872770601E+03  0.12499931729E+03 0.  0.
          2    1    1    2  501    0  0.68324253815E+02 -0.41948871962E+02 -0.27949687026E+02  0.84906398599E+02  0.00000000000E+00 0. -1.
          1    1    1    2  502    0  0.19529433039E+02  0.16429730214E+02  0.56700564945E+03  0.56757972241E+03  0.00000000000E+00 0. -1.
         22    1    3    3    0    0 -0.82655101361E+02  0.67198856604E+02  0.40419724100E+03  0.41799875806E+03  0.00000000000E+00 0. -1.
         22    1    3    3    0    0 -0.51985854928E+01 -0.41679714857E+02  0.30787701306E+03  0.31072894795E+03  0.00000000000E+00 0. -1.
</event>
<event>
 7    1  0.6370239E-006  0.1944511E+03  0.7818608E-02  0.1228976E+00
          2   -1    0    0  502    0  0.00000000000E+00  0.00000000000E+00  0.11618055121E+04  0.11618055121E+04  0.00000000000E+00 0. -1.
          1   -1    0    0  501    0 -0.00000000000E+00 -0.00000000000E+00 -0.11573611860E+04  0.11573611860E+04  0.00000000000E+00 0. -1.
         25    2    1    2    0    0 -0.25750662344E+03  0.25872130805E+02  0.21171259438E+03  0.35698083080E+03  0.12503624545E+03 0.  0.
          2    1    1    2  501    0  0.19074196683E+03  0.27625593728E+02 -0.10740433294E+04  0.10911987650E+04  0.00000000000E+00 0. -1.
          1    1    1    2  502    0  0.66764656609E+02 -0.53497724533E+02  0.86677506109E+03  0.87098710233E+03  0.00000000000E+00 0. -1.
         22    1    3    3    0    0 -0.23918534832E+03  0.14998595142E+02  0.22751836099E+03  0.33045301223E+03  0.00000000000E+00 0.  1.
         22    1    3    3    0    0 -0.18321275117E+02  0.10873535663E+02 -0.15805766613E+02  0.26527818568E+02  0.00000000000E+00 0.  1.
</event>
<event>
 7    1  0.6370239E-006  0.4291482E+02  0.7818608E-02  0.1587503E+00
          2   -1    0    0  502    0  0.00000000000E+00  0.00000000000E+00  0.71745270604E+03  0.71745270604E+03  0.00000000000E+00 0. -1.
          1   -1    0    0  501    0 -0.00000000000E+00 -0.00000000000E+00 -0.13276306755E+03  0.13276306755E+03  0.00000000000E+00 0. -1.
         25    2    1    2    0    0 -0.24361460105E+02 -0.48116609218E+02 -0.84381335424E+02  0.16017116836E+03  0.12500361829E+03 0.  0.
          2    1    1    2  501    0  0.67492580920E+01  0.34333860182E+02  0.19439410823E+02  0.40028204218E+02  0.00000000000E+00 0. -1.
          1    1    1    2  502    0  0.17612202013E+02  0.13782749036E+02  0.64963156309E+03  0.65001640102E+03  0.00000000000E+00 0. -1.
         22    1    3    3    0    0  0.40910574571E+02  0.23150058840E+01 -0.62669284202E+02  0.74876388444E+02  0.00000000000E+00 0.  1.
         22    1    3    3    0    0 -0.65272034676E+02 -0.50431615102E+02 -0.21712051222E+02  0.85294779916E+02  0.00000000000E+00 0.  1.
</event>
<event>
 7    1  0.6370239E-006  0.5892610E+02  0.7818608E-02  0.1519410E+00
          2   -1    0    0  502    0  0.00000000000E+00  0.00000000000E+00  0.11131520307E+04  0.11131520307E+04  0.00000000000E+00 0. -1.
          1   -1    0    0  501    0 -0.00000000000E+00 -0.00000000000E+00 -0.47786968814E+02  0.47786968814E+02  0.00000000000E+00 0. -1.
         25    2    1    2    0    0 -0.36376174831E+02 -0.26151511727E+02  0.81496862807E+03  0.82571504176E+03  0.12499735112E+03 0.  0.
          2    1    1    2  501    0  0.30873973715E+02  0.50720741788E+02 -0.20758658502E+02  0.62902446719E+02  0.00000000000E+00 0. -1.
          1    1    1    2  502    0  0.55022011165E+01 -0.24569230061E+02  0.27115509233E+03  0.27232151105E+03  0.00000000000E+00 0. -1.
         22    1    3    3    0    0  0.13299009785E+02 -0.31951558727E+02  0.69336929905E+03  0.69423249033E+03  0.00000000000E+00 0. -1.
         22    1    3    3    0    0 -0.49675184616E+02  0.58000470005E+01  0.12159932902E+03  0.13148255143E+03  0.00000000000E+00 0. -1.
</event>
<event>
 7    1  0.6370239E-006  0.6500450E+02  0.7818608E-02  0.1463928E+00
          2   -1    0    0  502    0  0.00000000000E+00  0.00000000000E+00  0.18728516638E+03  0.18728516638E+03  0.00000000000E+00 0. -1.
          1   -1    0    0  501    0 -0.00000000000E+00 -0.00000000000E+00 -0.93087030259E+03  0.93087030259E+03  0.00000000000E+00 0. -1.
         25    2    1    2    0    0 -0.30769223442E+02 -0.18564353883E+02 -0.29133054553E+02  0.13328514363E+03  0.12499925719E+03 0.  0.
          2    1    1    2  501    0  0.64107445825E+02  0.14650238074E+02 -0.84628245649E+03  0.84883354684E+03  0.00000000000E+00 0. -1.
          1    1    1    2  502    0 -0.33338222382E+02  0.39141158099E+01  0.13183037483E+03  0.13603677849E+03  0.00000000000E+00 0. -1.
         22    1    3    3    0    0  0.36648672358E+00  0.49733522701E+02 -0.30258952768E+02  0.58216508100E+02  0.00000000000E+00 0. -1.
         22    1    3    3    0    0 -0.31135710166E+02 -0.68297876585E+02  0.11258982148E+01  0.75068635530E+02  0.00000000000E+00 0. -1.
</event>
<event>
 7    1  0.6370239E-006  0.2780227E+03  0.7818608E-02  0.1227572E+00
          2   -1    0    0  502    0  0.00000000000E+00  0.00000000000E+00  0.74531105051E+03  0.74531105051E+03  0.00000000000E+00 0. -1.
          1   -1    0    0  501    0 -0.00000000000E+00 -0.00000000000E+00 -0.10054846112E+04  0.10054846112E+04  0.00000000000E+00 0. -1.
         25    2    1    2    0    0  0.81534217971E+02 -0.22151617892E+03  0.27957700970E+02  0.26855847318E+03  0.12499909700E+03 0.  0.
          2    1    1    2  501    0 -0.60276609110E+02  0.27838600786E+03 -0.86062355747E+03  0.90653458106E+03  0.00000000000E+00 0. -1.
          1    1    1    2  502    0 -0.21257608861E+02 -0.56869828939E+02  0.57249229586E+03  0.57570260743E+03  0.00000000000E+00 0. -1.
         22    1    3    3    0    0  0.10728829240E+03 -0.20152024131E+03  0.44174405562E+01  0.22834337986E+03  0.00000000000E+00 0. -1.
         22    1    3    3    0    0 -0.25754074429E+02 -0.19995937610E+02  0.23540260414E+02  0.40215093323E+02  0.00000000000E+00 0. -1.
</event>
<event>
 7    1  0.6370239E-006  0.1311519E+03  0.7818608E-02  0.1293077E+00
          2   -1    0    0  502    0  0.00000000000E+00  0.00000000000E+00  0.54411450857E+03  0.54411450857E+03  0.00000000000E+00 0. -1.
          1   -1    0    0  501    0 -0.00000000000E+00 -0.00000000000E+00 -0.66758305964E+03  0.66758305964E+03  0.00000000000E+00 0. -1.
         25    2    1    2    0    0 -0.45419497297E+02  0.10613433752E+03 -0.40119695414E+02  0.17481977422E+03  0.12499974066E+03 0.  0.
          2    1    1    2  501    0 -0.16272606619E+02 -0.13378025343E+03 -0.54953340079E+03  0.56581703096E+03  0.00000000000E+00 0. -1.
          1    1    1    2  502    0  0.61692103915E+02  0.27645915917E+02  0.46618454513E+03  0.47106076303E+03  0.00000000000E+00 0. -1.
         22    1    3    3    0    0 -0.17609809908E+02  0.82841172430E+01 -0.66863176078E+02  0.69637750672E+02  0.00000000000E+00 0. -1.
         22    1    3    3    0    0 -0.27809687389E+02  0.97850220275E+02  0.26743480664E+02  0.10518202355E+03  0.00000000000E+00 0. -1.
</event>
<event>
 7    1  0.6370239E-006  0.1104695E+03  0.7818608E-02  0.1297907E+00
          2   -1    0    0  502    0  0.00000000000E+00  0.00000000000E+00  0.15936472679E+04  0.15936472679E+04  0.00000000000E+00 0. -1.
          1   -1    0    0  501    0 -0.00000000000E+00 -0.00000000000E+00 -0.28062288626E+02  0.28062288626E+02  0.00000000000E+00 0. -1.
         25    2    1    2    0    0  0.77546854777E+02 -0.54049491432E+01  0.73901648462E+03  0.75353416552E+03  0.12500258363E+03 0.  0.
          2    1    1    2  501    0 -0.10340786296E+03 -0.66846966320E+02  0.18623836548E+03  0.22326314475E+03  0.00000000000E+00 0. -1.
          1    1    1    2  502    0  0.25861008182E+02  0.72251915463E+02  0.64033012918E+03  0.64491224626E+03  0.00000000000E+00 0. -1.
         22    1    3    3    0    0  0.90598277899E+02  0.37910181015E+01  0.28160672668E+03  0.29584585224E+03  0.00000000000E+00 0.  1.
         22    1    3    3    0    0 -0.13051423122E+02 -0.91959672447E+01  0.45740975793E+03  0.45768831328E+03  0.00000000000E+00 0.  1.
</event>
<event>
 7    1  0.6370239E-006  0.4953301E+02  0.7818608E-02  0.1450757E+00
          2   -1    0    0  502    0  0.00000000000E+00  0.00000000000E+00  0.21688142649E+04  0.21688142649E+04  0.00000000000E+00 0. -1.
          1   -1    0    0  501    0 -0.00000000000E+00 -0.00000000000E+00 -0.22872254607E+03  0.22872254607E+03  0.00000000000E+00 0. -1.
         25    2    1    2    0    0 -0.95931790989E+01 -0.97198619429E+02  0.10629683821E+03  0.19095420770E+03  0.12499956368E+03 0.  0.
          2    1    1    2  501    0  0.55563859574E+01  0.48172525641E+02 -0.18293495671E+03  0.18925291025E+03  0.00000000000E+00 0. -1.
          1    1    1    2  502    0  0.40367931415E+01  0.49026093788E+02  0.20167298373E+04  0.20173296930E+04  0.00000000000E+00 0. -1.
         22    1    3    3    0    0 -0.61639803045E+02 -0.69598770389E+02  0.37158996110E+02  0.10012115237E+03  0.00000000000E+00 0.  1.
         22    1    3    3    0    0  0.52046623946E+02 -0.27599849040E+02  0.69137842098E+02  0.90833055334E+02  0.00000000000E+00 0.  1.
</event>
<event>
 7    1  0.6370239E-006  0.4263016E+02  0.7818608E-02  0.1528195E+00
          2   -1    0    0  502    0  0.00000000000E+00  0.00000000000E+00  0.26142268819E+04  0.26142268819E+04  0.00000000000E+00 0. -1.
          1   -1    0    0  501    0 -0.00000000000E+00 -0.00000000000E+00 -0.70141579206E+03  0.70141579206E+03  0.00000000000E+00 0. -1.
         25    2    1    2    0    0  0.56394983999E+02  0.49197892899E+02  0.44751598903E+03  0.47063305773E+03  0.12499635080E+03 0.  0.
          2    1    1    2  501    0 -0.23851293890E+02 -0.22554726595E+02 -0.68926138863E+03  0.69004265214E+03  0.00000000000E+00 0. -1.
          1    1    1    2  502    0 -0.32543690109E+02 -0.26643166304E+02  0.21545564894E+04  0.21549669641E+04  0.00000000000E+00 0. -1.
         22    1    3    3    0    0  0.85641050784E+02  0.67567686045E+02  0.30271500156E+03  0.32177034348E+03  0.00000000000E+00 0. -1.
         22    1    3    3    0    0 -0.29246066785E+02 -0.18369793146E+02  0.14480098747E+03  0.14886271425E+03  0.00000000000E+00 0. -1.
</event>
<event>
 7    1  0.6370239E-006  0.5090311E+02  0.7818608E-02  0.1483241E+00
          2   -1    0    0  502    0  0.00000000000E+00  0.00000000000E+00  0.65071761382E+03  0.65071761382E+03  0.00000000000E+00 0. -1.
          1   -1    0    0  501    0 -0.00000000000E+00 -0.00000000000E+00 -0.53243469580E+03  0.53243469580E+03  0.00000000000E+00 0. -1.
         25    2    1    2    0    0  0.25321469906E+02 -0.25920645655E+02 -0.13419429901E+03  0.18694204712E+03  0.12500464945E+03 0.  0.
          2    1    1    2  501    0 -0.52665765849E+02  0.47291976849E+00 -0.36943847273E+03  0.37317380894E+03  0.00000000000E+00 0. -1.
          1    1    1    2  502    0  0.27344295943E+02  0.25447725886E+02  0.62191568977E+03  0.62303645355E+03  0.00000000000E+00 0. -1.
         22    1    3    3    0    0  0.68286269493E+02 -0.46356103627E+02 -0.87328168374E+02  0.12015869480E+03  0.00000000000E+00 0. -1.
         22    1    3    3    0    0 -0.42964799587E+02  0.20435457972E+02 -0.46866130640E+02  0.66783352321E+02  0.00000000000E+00 0. -1.
</event>
<event>
 7    1  0.6370239E-006  0.1735682E+03  0.7818608E-02  0.1377284E+00
          2   -1    0    0  502    0  0.00000000000E+00  0.00000000000E+00  0.22416361950E+03  0.22416361950E+03  0.00000000000E+00 0. -1.
          1   -1    0    0  501    0 -0.00000000000E+00 -0.00000000000E+00 -0.87730640446E+03  0.87730640446E+03  0.00000000000E+00 0. -1.
         25    2    1    2    0    0 -0.12147488973E+03 -0.13028209459E+03 -0.22584896104E+03  0.31362745900E+03  0.12499942733E+03 0.  0.
          2    1    1    2  501    0  0.21767206954E+02 -0.11199477347E+02 -0.56569648373E+03  0.56622588363E+03  0.00000000000E+00 0. -1.
          1    1    1    2  502    0  0.99707682772E+02  0.14148157193E+03  0.13840265980E+03  0.22161668133E+03  0.00000000000E+00 0. -1.
         22    1    3    3    0    0 -0.12293458615E+03 -0.10126422833E+03 -0.23435422673E+03  0.28335359535E+03  0.00000000000E+00 0. -1.
         22    1    3    3    0    0  0.14596964248E+01 -0.29017866260E+02  0.85052656921E+01  0.30273863652E+02  0.00000000000E+00 0. -1.
</event>
<event>
 7    1  0.6370239E-006  0.1522044E+03  0.7818608E-02  0.1316966E+00
          2   -1    0    0  502    0  0.00000000000E+00  0.00000000000E+00  0.19062583923E+04  0.19062583923E+04  0.00000000000E+00 0. -1.
          1   -1    0    0  501    0 -0.00000000000E+00 -0.00000000000E+00 -0.80745573504E+02  0.80745573504E+02  0.00000000000E+00 0. -1.
         25    2    1    2    0    0  0.85360976602E+02 -0.98038551971E+02  0.11088048124E+04  0.11233748591E+04  0.12499963258E+03 0.  0.
          2    1    1    2  501    0 -0.12978430391E+03  0.83253244976E+02  0.90851662151E+01  0.15445908385E+03  0.00000000000E+00 0. -1.
          1    1    1    2  502    0  0.44423327303E+02  0.14785306995E+02  0.70762284020E+03  0.70917002283E+03  0.00000000000E+00 0. -1.
         22    1    3    3    0    0  0.14316260147E+02 -0.90124213085E+02  0.84982883118E+03  0.85471420452E+03  0.00000000000E+00 0.  1.
         22    1    3    3    0    0  0.71044716455E+02 -0.79143388860E+01  0.25897598122E+03  0.26866065463E+03  0.00000000000E+00 0.  1.
</event>
<event>
 7    1  0.6370239E-006  0.1058215E+03  0.7818608E-02  0.1457150E+00
          2   -1    0    0  502    0  0.00000000000E+00  0.00000000000E+00  0.13583525016E+04  0.13583525016E+04  0.00000000000E+00 0. -1.
          1   -1    0    0  501    0 -0.00000000000E+00 -0.00000000000E+00 -0.11703880137E+04  0.11703880137E+04  0.00000000000E+00 0. -1.
         25    2    1    2    0    0  0.88457333167E+02 -0.17144768178E+02  0.55744416087E+03  0.57834877140E+03  0.12499866411E+03 0.  0.
          2    1    1    2  501    0  0.21267622520E+02 -0.41017412953E+01 -0.11558831819E+04  0.11560860981E+04  0.00000000000E+00 0. -1.
          1    1    1    2  502    0 -0.10972495569E+03  0.21246509473E+02  0.78640350898E+03  0.79430564583E+03  0.00000000000E+00 0. -1.
         22    1    3    3    0    0  0.96029922853E+01 -0.51313573729E+02  0.34901384647E+03  0.35289653631E+03  0.00000000000E+00 0.  1.
         22    1    3    3    0    0  0.78854340882E+02  0.34168805551E+02  0.20843031440E+03  0.22545223509E+03  0.00000000000E+00 0.  1.
</event>
<event>
 7    1  0.6370239E-006  0.8981210E+02  0.7818608E-02  0.1389641E+00
          2   -1    0    0  502    0  0.00000000000E+00  0.00000000000E+00  0.12864569563E+04  0.12864569563E+04  0.00000000000E+00 0. -1.
          1   -1    0    0  501    0 -0.00000000000E+00 -0.00000000000E+00 -0.53302733999E+03  0.53302733999E+03  0.00000000000E+00 0. -1.
         25    2    1    2    0    0 -0.65560970375E+02 -0.82617880917E+02  0.10406461097E+03  0.19385022156E+03  0.12499804023E+03 0.  0.
          2    1    1    2  501    0 -0.13500096060E+02  0.40609776702E+02 -0.48543010120E+03  0.48731282531E+03  0.00000000000E+00 0. -1.
          1    1    1    2  502    0  0.79061066435E+02  0.42008104215E+02  0.11347951065E+04  0.11383212494E+04  0.00000000000E+00 0. -1.
         22    1    3    3    0    0  0.15369383062E+02  0.24720775241E+02  0.17667566507E+02  0.34051102339E+02  0.00000000000E+00 0. -1.
         22    1    3    3    0    0 -0.80930353437E+02 -0.10733865616E+03  0.86397044463E+02  0.15979911922E+03  0.00000000000E+00 0. -1.
</event>
<event>
 7    1  0.6370239E-006  0.6052095E+02  0.7818608E-02  0.1444892E+00
          2   -1    0    0  502    0  0.00000000000E+00  0.00000000000E+00  0.15753469184E+03  0.15753469184E+03  0.00000000000E+00 0. -1.
          1   -1    0    0  501    0 -0.00000000000E+00 -0.00000000000E+00 -0.58035117769E+03  0.58035117769E+03  0.00000000000E+00 0. -1.
         25    2    1    2    0    0 -0.84126363922E+02  0.55079372304E+02 -0.52754161154E+02  0.16889015973E+03  0.12501960715E+03 0.  0.
          2    1    1    2  501    0  0.48203231187E+02 -0.34407913979E+02 -0.46324291980E+03  0.46701333898E+03  0.00000000000E+00 0. -1.
          1    1    1    2  502    0  0.35923132735E+02 -0.20671458325E+02  0.93180595101E+02  0.10198237082E+03  0.00000000000E+00 0. -1.
         22    1    3    3    0    0 -0.36536783627E+02  0.71826112948E+02 -0.78283242182E+02  0.11234853388E+03  0.00000000000E+00 0. -1.
         22    1    3    3    0    0 -0.47589580295E+02 -0.16746740644E+02  0.25529081028E+02  0.56541625844E+02  0.00000000000E+00 0. -1.
</event>
<event>
 7    1  0.6370239E-006  0.9108403E+02  0.7818608E-02  0.1329402E+00
          2   -1    0    0  502    0  0.00000000000E+00  0.00000000000E+00  0.21259321065E+04  0.21259321065E+04  0.00000000000E+00 0. -1.
          1   -1    0    0  501    0 -0.00000000000E+00 -0.00000000000E+00 -0.95985531403E+02  0.95985531403E+02  0.00000000000E+00 0. -1.
         25    2    1    2    0    0 -0.56280636902E+02  0.31417008691E+01  0.25806889517E+03  0.29223701139E+03  0.12500214317E+03 0.  0.
          2    1    1    2  501    0 -0.41592420030E+01  0.69924584469E+02 -0.61884181005E+02  0.93468704206E+02  0.00000000000E+00 0. -1.
          1    1    1    2  502    0  0.60439878905E+02 -0.73066285338E+02  0.18337618609E+04  0.18362119223E+04  0.00000000000E+00 0. -1.
         22    1    3    3    0    0 -0.27872419150E+02  0.54267043956E+02  0.20276067604E+03  0.21173964097E+03  0.00000000000E+00 0. -1.
         22    1    3    3    0    0 -0.28408217753E+02 -0.51125343087E+02  0.55308219132E+02  0.80497370424E+02  0.00000000000E+00 0. -1.
</event>
<event>
 7    1  0.6370239E-006  0.2298496E+03  0.7818608E-02  0.1211377E+00
          2   -1    0    0  502    0  0.00000000000E+00  0.00000000000E+00  0.18158264957E+03  0.18158264957E+03  0.00000000000E+00 0. -1.
          1   -1    0    0  501    0 -0.00000000000E+00 -0.00000000000E+00 -0.86843446859E+03  0.86843446859E+03  0.00000000000E+00 0. -1.
         25    2    1    2    0    0  0.16281725697E+03 -0.25541834361E+02 -0.29452339300E+03  0.35990369533E+03  0.12499918568E+03 0.  0.
          2    1    1    2  501    0  0.86865211795E+02 -0.58506027768E+01 -0.42727102018E+03  0.43605082187E+03  0.00000000000E+00 0. -1.
          1    1    1    2  502    0 -0.24968246876E+03  0.31392437137E+02  0.34942594163E+02  0.25406260096E+03  0.00000000000E+00 0. -1.
         22    1    3    3    0    0  0.15333670091E+03 -0.61924476551E+02 -0.26380988768E+03  0.31135581170E+03  0.00000000000E+00 0. -1.
         22    1    3    3    0    0  0.94805560544E+01  0.36382642190E+02 -0.30713505321E+02  0.48547883630E+02  0.00000000000E+00 0. -1.
</event>
<event>
 7    1  0.6370239E-006  0.1242590E+03  0.7818608E-02  0.1275425E+00
          2   -1    0    0  502    0  0.00000000000E+00  0.00000000000E+00  0.28000535158E+04  0.28000535158E+04  0.00000000000E+00 0. -1.
          1   -1    0    0  501    0 -0.00000000000E+00 -0.00000000000E+00 -0.80480853971E+03  0.80480853971E+03  0.00000000000E+00 0. -1.
         25    2    1    2    0    0 -0.11505777269E+03  0.13304304416E+03 -0.33984154170E+03  0.40256156464E+03  0.12499918882E+03 0.  0.
          2    1    1    2  501    0  0.83293197689E+02 -0.13044214081E+02 -0.42810224343E+03  0.43632492381E+03  0.00000000000E+00 0. -1.
          1    1    1    2  502    0  0.31764575003E+02 -0.11999883008E+03  0.27631887613E+04  0.27659755671E+04  0.00000000000E+00 0. -1.
         22    1    3    3    0    0 -0.11543847720E+03  0.15177766246E+03 -0.27203260374E+03  0.33221113518E+03  0.00000000000E+00 0.  1.
         22    1    3    3    0    0  0.38070450347E+00 -0.18734618298E+02 -0.67808937957E+02  0.70350429463E+02  0.00000000000E+00 0.  1.
</event>
<event>
 7    1  0.6370239E-006  0.6527462E+02  0.7818608E-02  0.1469712E+00
          2   -1    0    0  502    0  0.00000000000E+00  0.00000000000E+00  0.19857979936E+04  0.19857979936E+04  0.00000000000E+00 0. -1.
          1   -1    0    0  501    0 -0.00000000000E+00 -0.00000000000E+00 -0.53713897742E+02  0.53713897742E+02  0.00000000000E+00 0. -1.
         25    2    1    2    0    0 -0.74785262853E+02  0.27928236998E+02  0.81922453916E+03  0.83254247068E+03  0.12500119181E+03 0.  0.
          2    1    1    2  501    0  0.47373701625E+02 -0.44565921975E+02 -0.24244642348E+02  0.69413195358E+02  0.00000000000E+00 0. -1.
          1    1    1    2  502    0  0.27411561228E+02  0.16637684977E+02  0.11371041990E+04  0.11375562253E+04  0.00000000000E+00 0. -1.
         22    1    3    3    0    0 -0.89717595974E+01  0.22240355931E+02  0.21870833855E+02  0.32457037384E+02  0.00000000000E+00 0.  1.
         22    1    3    3    0    0 -0.65813503255E+02  0.56878810671E+01  0.79735370531E+03  0.80008543330E+03  0.00000000000E+00 0.  1.
</event>
<event>
 7    1  0.6370239E-006  0.5993250E+02  0.7818608E-02  0.1528768E+00
          2   -1    0    0  502    0  0.00000000000E+00  0.00000000000E+00  0.21057067279E+03  0.21057067279E+03  0.00000000000E+00 0. -1.
          1   -1    0    0  501    0 -0.00000000000E+00 -0.00000000000E+00 -0.12131673228E+04  0.12131673228E+04  0.00000000000E+00 0. -1.
         25    2    1    2    0    0 -0.48037416126E+02  0.42463357027E+02  0.12042327162E+03  0.18503441309E+03  0.12500095856E+03 0.  0.
          2    1    1    2  501    0  0.27444075546E+02 -0.53280629528E+02 -0.11777298386E+04  0.11792538215E+04  0.00000000000E+00 0. -1.
          1    1    1    2  502    0  0.20593340580E+02  0.10817272500E+02  0.54709917007E+02  0.59449760971E+02  0.00000000000E+00 0. -1.
         22    1    3    3    0    0 -0.74785848247E+02 -0.12813713046E+02  0.85801725687E+02  0.11453842356E+03  0.00000000000E+00 0. -1.
         22    1    3    3    0    0  0.26748432122E+02  0.55277070074E+02  0.34621545935E+02  0.70495989530E+02  0.00000000000E+00 0. -1.
</event>
<event>
 7    1  0.6370239E-006  0.5475680E+03  0.7818608E-02  0.1140122E+00
          2   -1    0    0  502    0  0.00000000000E+00  0.00000000000E+00  0.14670873180E+04  0.14670873180E+04  0.00000000000E+00 0. -1.
          1   -1    0    0  501    0 -0.00000000000E+00 -0.00000000000E+00 -0.26653610281E+04  0.26653610281E+04  0.00000000000E+00 0. -1.
         25    2    1    2    0    0 -0.49539850096E+03 -0.15155608913E+03 -0.32765809414E+03  0.62559782837E+03  0.12499557315E+03 0.  0.
          2    1    1    2  501    0 -0.49511989822E+02  0.65302908797E+02 -0.21301830422E+04  0.21317588279E+04  0.00000000000E+00 0. -1.
          1    1    1    2  502    0  0.54491049078E+03  0.86253180335E+02  0.12595674263E+04  0.13750916898E+04  0.00000000000E+00 0. -1.
         22    1    3    3    0    0 -0.36974308034E+03 -0.60314792701E+02 -0.20061774629E+03  0.42496505715E+03  0.00000000000E+00 0. -1.
         22    1    3    3    0    0 -0.12565542062E+03 -0.91241296430E+02 -0.12704034785E+03  0.20063277122E+03  0.00000000000E+00 0. -1.
</event>
<event>
 7    1  0.6370239E-006  0.6763139E+02  0.7818608E-02  0.1469061E+00
          2   -1    0    0  502    0  0.00000000000E+00  0.00000000000E+00  0.11432468098E+04  0.11432468098E+04  0.00000000000E+00 0. -1.
          1   -1    0    0  501    0 -0.00000000000E+00 -0.00000000000E+00 -0.31219322379E+02  0.31219322379E+02  0.00000000000E+00 0. -1.
         25    2    1    2    0    0  0.64491254234E+02  0.25284363222E+02  0.59692034446E+03  0.61378967037E+03  0.12500176368E+03 0.  0.
          2    1    1    2  501    0 -0.67819280478E+02  0.56301415885E+01  0.29661092205E+02  0.74235663192E+02  0.00000000000E+00 0. -1.
          1    1    1    2  502    0  0.33280262438E+01 -0.30914504811E+02  0.48544605071E+03  0.48644079857E+03  0.00000000000E+00 0. -1.
         22    1    3    3    0    0  0.86199177231E+02 -0.21203665657E+02  0.43385906348E+03  0.44284713001E+03  0.00000000000E+00 0.  1.
         22    1    3    3    0    0 -0.21707922997E+02  0.46488028880E+02  0.16306128098E+03  0.17094254036E+03  0.00000000000E+00 0.  1.
</event>
<event>
 7    1  0.6370239E-006  0.1575187E+03  0.7818608E-02  0.1255061E+00
          2   -1    0    0  502    0  0.00000000000E+00  0.00000000000E+00  0.27184333315E+04  0.27184333315E+04  0.00000000000E+00 0. -1.
          1   -1    0    0  501    0 -0.00000000000E+00 -0.00000000000E+00 -0.68542431210E+03  0.68542431210E+03  0.00000000000E+00 0. -1.
         25    2    1    2    0    0  0.90324468890E+02  0.93072343582E+02  0.83139892274E+02  0.19838831959E+03  0.12499885137E+03 0.  0.
          2    1    1    2  501    0 -0.15470109799E+03 -0.43740377756E+02 -0.61685689807E+03  0.63746222089E+03  0.00000000000E+00 0. -1.
          1    1    1    2  502    0  0.64376629098E+02 -0.49331965826E+02  0.25667260252E+04  0.25680071031E+04  0.00000000000E+00 0. -1.
         22    1    3    3    0    0 -0.14745743844E+02  0.64748634753E+02  0.97157665829E+01  0.67113476920E+02  0.00000000000E+00 0.  1.
         22    1    3    3    0    0  0.10507021273E+03  0.28323708828E+02  0.73424125691E+02  0.13127484267E+03  0.00000000000E+00 0.  1.
</event>
<event>
 7    1  0.6370239E-006  0.3375278E+03  0.7818608E-02  0.1244112E+00
          2   -1    0    0  502    0  0.00000000000E+00  0.00000000000E+00  0.16825049188E+03  0.16825049188E+03  0.00000000000E+00 0. -1.
          1   -1    0    0  501    0 -0.00000000000E+00 -0.00000000000E+00 -0.10768889228E+04  0.10768889228E+04  0.00000000000E+00 0. -1.
         25    2    1    2    0    0  0.17966748250E+03  0.25357487997E+03 -0.28797917232E+03  0.44174420314E+03  0.12500125317E+03 0.  0.
          2    1    1    2  501    0 -0.20576940938E+03 -0.28676983881E+03 -0.65821888925E+03  0.74688024238E+03  0.00000000000E+00 0. -1.
          1    1    1    2  502    0  0.26101926882E+02  0.33194958843E+02  0.37559630682E+02  0.56514969136E+02  0.00000000000E+00 0. -1.
         22    1    3    3    0    0  0.12386302192E+03  0.10907504903E+03 -0.21353614860E+03  0.26988349575E+03  0.00000000000E+00 0. -1.
         22    1    3    3    0    0  0.55804460579E+02  0.14449983094E+03 -0.74443023726E+02  0.17186070739E+03  0.00000000000E+00 0. -1.
</event>
<event>
 7    1  0.6370239E-006  0.6244788E+02  0.7818608E-02  0.1467161E+00
          2   -1    0    0  502    0  0.00000000000E+00  0.00000000000E+00  0.14413862642E+03  0.14413862642E+03  0.00000000000E+00 0. -1.
          1   -1    0    0  501    0 -0.00000000000E+00 -0.00000000000E+00 -0.10448201577E+04  0.10448201577E+04  0.00000000000E+00 0. -1.
         25    2    1    2    0    0  0.65960650375E+02 -0.13695629227E+02 -0.17945113051E+03  0.22883619526E+03  0.12499967344E+03 0.  0.
          2    1    1    2  501    0 -0.59412733779E+02 -0.19807022688E+02 -0.83704359303E+03  0.83938320672E+03  0.00000000000E+00 0. -1.
          1    1    1    2  502    0 -0.65479165957E+01  0.33502651916E+02  0.11581319227E+03  0.12073938214E+03  0.00000000000E+00 0. -1.
         22    1    3    3    0    0  0.94777617175E+02 -0.29782218071E+02 -0.16545091321E+03  0.19298648116E+03  0.00000000000E+00 0.  1.
         22    1    3    3    0    0 -0.28816966800E+02  0.16086588843E+02 -0.14000217301E+02  0.35849714094E+02  0.00000000000E+00 0.  1.
</event>
<event>
 7    1  0.6370239E-006  0.3212146E+02  0.7818608E-02  0.1600298E+00
          2   -1    0    0  502    0  0.00000000000E+00  0.00000000000E+00  0.25203025872E+03  0.25203025872E+03  0.00000000000E+00 0. -1.
          1   -1    0    0  501    0 -0.00000000000E+00 -0.00000000000E+00 -0.20613509415E+03  0.20613509415E+03  0.00000000000E+00 0. -1.
         25    2    1    2    0    0  0.11784217469E+02 -0.89730088913E+01  0.64708923916E+02  0.14153419301E+03  0.12500120114E+03 0.  0.
          2    1    1    2  501    0  0.19866223992E+02  0.19229087925E+02 -0.16469726371E+03  0.16700183637E+03  0.00000000000E+00 0. -1.
          1    1    1    2  502    0 -0.31650441461E+02 -0.10256079034E+02  0.14588350436E+03  0.14962932349E+03  0.00000000000E+00 0. -1.
         22    1    3    3    0    0  0.96062044172E+01 -0.62844532458E+02  0.93493312385E+01  0.64258263420E+02  0.00000000000E+00 0. -1.
         22    1    3    3    0    0  0.21780130518E+01  0.53871523567E+02  0.55359592678E+02  0.77275929588E+02  0.00000000000E+00 0. -1.
</event>
<event>
 7    1  0.6370239E-006  0.4629210E+02  0.7818608E-02  0.1471603E+00
          2   -1    0    0  502    0  0.00000000000E+00  0.00000000000E+00  0.14130363257E+04  0.14130363257E+04  0.00000000000E+00 0. -1.
          1   -1    0    0  501    0 -0.00000000000E+00 -0.00000000000E+00 -0.78689523583E+02  0.78689523583E+02  0.00000000000E+00 0. -1.
         25    2    1    2    0    0  0.12237656946E+02  0.69592827848E+02  0.71829477068E+03  0.73250713331E+03  0.12500560323E+03 0.  0.
          2    1    1    2  501    0  0.21778671400E+02 -0.40737058797E+02 -0.63322777001E+02  0.78381072807E+02  0.00000000000E+00 0. -1.
          1    1    1    2  502    0 -0.34016328346E+02 -0.28855769051E+02  0.67937480845E+03  0.68083764317E+03  0.00000000000E+00 0. -1.
         22    1    3    3    0    0 -0.50266150783E+02  0.54879576414E+02  0.28859699255E+03  0.29803804779E+03  0.00000000000E+00 0.  1.
         22    1    3    3    0    0  0.62503807728E+02  0.14713251435E+02  0.42969777813E+03  0.43446908553E+03  0.00000000000E+00 0.  1.
</event>
<event>
 7    1  0.6370239E-006  0.6177700E+02  0.7818608E-02  0.1538254E+00
          2   -1    0    0  502    0  0.00000000000E+00  0.00000000000E+00  0.21673995567E+03  0.21673995567E+03  0.00000000000E+00 0. -1.
          1   -1    0    0  501    0 -0.00000000000E+00 -0.00000000000E+00 -0.15697286085E+03  0.15697286085E+03  0.00000000000E+00 0. -1.
         25    2    1    2    0    0  0.24598010093E+02 -0.46019965940E+02 -0.49952927036E+02  0.14437109445E+03  0.12499927451E+03 0.  0.
          2    1    1    2  501    0 -0.14319032166E+02 -0.15639304939E+02 -0.51894453235E+02  0.56059404364E+02  0.00000000000E+00 0. -1.
          1    1    1    2  502    0 -0.10278977927E+02  0.61659270878E+02  0.16161447509E+03  0.17328231771E+03  0.00000000000E+00 0. -1.
         22    1    3    3    0    0  0.54683840712E+02 -0.76138078958E+01  0.20312364294E+02  0.58829283940E+02  0.00000000000E+00 0.  1.
         22    1    3    3    0    0 -0.30085830619E+02 -0.38406158044E+02 -0.70265291330E+02  0.85541810510E+02  0.00000000000E+00 0.  1.
</event>
<event>
 7    1  0.6370239E-006  0.1016342E+03  0.7818608E-02  0.1360990E+00
          2   -1    0    0  502    0  0.00000000000E+00  0.00000000000E+00  0.86780879424E+02  0.86780879424E+02  0.00000000000E+00 0. -1.
          1   -1    0    0  501    0 -0.00000000000E+00 -0.00000000000E+00 -0.85936923998E+03  0.85936923998E+03  0.00000000000E+00 0. -1.
         25    2    1    2    0    0  0.84525313943E+01 -0.84306188541E+02 -0.31873293752E+03  0.35269640614E+03  0.12500036292E+03 0.  0.
          2    1    1    2  501    0 -0.45943314445E+02 -0.13373793552E+02 -0.48258650100E+03  0.48495296416E+03  0.00000000000E+00 0. -1.
          1    1    1    2  502    0  0.37490783050E+02  0.97679982093E+02  0.28731077966E+02  0.10850074911E+03  0.00000000000E+00 0. -1.
         22    1    3    3    0    0 -0.30410517993E+02 -0.59743297315E+02 -0.60178011235E+02  0.90085815837E+02  0.00000000000E+00 0.  1.
         22    1    3    3    0    0  0.38863049387E+02 -0.24562891225E+02 -0.25855492628E+03  0.26261059030E+03  0.00000000000E+00 0.  1.
</event>
<event>
 7    1  0.6370239E-006  0.4896474E+02  0.7818608E-02  0.1494351E+00
          2   -1    0    0  502    0  0.00000000000E+00  0.00000000000E+00  0.48792010992E+03  0.48792010992E+03  0.00000000000E+00 0. -1.
          1   -1    0    0  501    0 -0.00000000000E+00 -0.00000000000E+00 -0.13842011430E+04  0.13842011430E+04  0.00000000000E+00 0. -1.
         25    2    1    2    0    0  0.73329701551E+02  0.87516827020E+00 -0.10058559165E+04  0.10162434398E+04  0.12500637181E+03 0.  0.
          2    1    1    2  501    0 -0.41107847322E+02  0.15034780212E+02 -0.37119498171E+03  0.37376679116E+03  0.00000000000E+00 0. -1.
          1    1    1    2  502    0 -0.32221854228E+02 -0.15909948482E+02  0.48076986512E+03  0.48211102203E+03  0.00000000000E+00 0. -1.
         22    1    3    3    0    0  0.32922063626E+02 -0.45259456214E+02 -0.78611610438E+03  0.78810583694E+03  0.00000000000E+00 0. -1.
         22    1    3    3    0    0  0.40407637925E+02  0.46134624484E+02 -0.21973981215E+03  0.22813760282E+03  0.00000000000E+00 0. -1.
</event>
<event>
 7    1  0.6370239E-006  0.6203638E+02  0.7818608E-02  0.1526186E+00
          2   -1    0    0  502    0  0.00000000000E+00  0.00000000000E+00  0.27425998601E+04  0.27425998601E+04  0.00000000000E+00 0. -1.
          1   -1    0    0  501    0 -0.00000000000E+00 -0.00000000000E+00 -0.51182624593E+02  0.51182624593E+02  0.00000000000E+00 0. -1.
         25    2    1    2    0    0 -0.94805499962E+01  0.47431507629E+02  0.10491242291E+03  0.17021227809E+03  0.12500389748E+03 0.  0.
          2    1    1    2  501    0  0.17900038496E+02  0.14218631748E+02 -0.10966042225E+02  0.25354189969E+02  0.00000000000E+00 0. -1.
          1    1    1    2  502    0 -0.84194884999E+01 -0.61650139377E+02  0.25974708549E+04  0.25982160167E+04  0.00000000000E+00 0. -1.
         22    1    3    3    0    0  0.46701786201E+02  0.49536429510E+02  0.88475507363E+02  0.11163704621E+03  0.00000000000E+00 0.  1.
         22    1    3    3    0    0 -0.56182336197E+02 -0.21049218809E+01  0.16436915548E+02  0.58575231877E+02  0.00000000000E+00 0.  1.
</event>
<event>
 7    1  0.6370239E-006  0.4773565E+02  0.7818608E-02  0.1521342E+00
          2   -1    0    0  502    0  0.00000000000E+00  0.00000000000E+00  0.37176065919E+03  0.37176065919E+03  0.00000000000E+00 0. -1.
          1   -1    0    0  501    0 -0.00000000000E+00 -0.00000000000E+00 -0.16685152561E+03  0.16685152561E+03  0.00000000000E+00 0. -1.
         25    2    1    2    0    0  0.74412390706E+02  0.50614119472E+01  0.35457667934E+02  0.14981270310E+03  0.12499511195E+03 0.  0.
          2    1    1    2  501    0 -0.29515336941E+02  0.83778591081E+01 -0.10550602373E+03  0.10987658841E+03  0.00000000000E+00 0. -1.
          1    1    1    2  502    0 -0.44897053765E+02 -0.13439271055E+02  0.27495748937E+03  0.27892289329E+03  0.00000000000E+00 0. -1.
         22    1    3    3    0    0  0.61190332006E+02  0.61931438207E+02  0.24041098921E+02  0.90320176077E+02  0.00000000000E+00 0.  1.
         22    1    3    3    0    0  0.13222058700E+02 -0.56870026260E+02  0.11416569012E+02  0.59492527019E+02  0.00000000000E+00 0.  1.
</event>
<event>
 7    1  0.1209186E-005  0.8085535E+02  0.7818608E-02  0.1498507E+00
          2   -1    0    0  502    0  0.00000000000E+00  0.00000000000E+00  0.12533056302E+04  0.12533056302E+04  0.00000000000E+00 0. -1.
          1   -1    0    0  501    0 -0.00000000000E+00 -0.00000000000E+00 -0.19112434404E+04  0.19112434404E+04  0.00000000000E+00 0. -1.
         25    2    1    2    0    0  0.24082370249E+02 -0.95120450031E+02 -0.99482632426E+03  0.10074386397E+04  0.12500134724E+03 0.  0.
          2    1    1    2  501    0  0.62617818470E+01  0.20198084259E+02 -0.90867784729E+03  0.90892387067E+03  0.00000000000E+00 0. -1.
          1    1    1    2  502    0 -0.30344152096E+02  0.74922365772E+02  0.12455663613E+04  0.12481865602E+04  0.00000000000E+00 0. -1.
         22    1    3    3    0    0  0.10269149462E+02  0.29023024747E+02 -0.29000756307E+03  0.29163706560E+03  0.00000000000E+00 0. -1.
         22    1    3    3    0    0  0.13813220786E+02 -0.12414347478E+03 -0.70481876119E+03  0.71580157412E+03  0.00000000000E+00 0. -1.
</event>
<event>
 7    1  0.6370239E-006  0.6657731E+02  0.7818608E-02  0.1415275E+00
          2   -1    0    0  502    0  0.00000000000E+00  0.00000000000E+00  0.17429903324E+04  0.17429903324E+04  0.00000000000E+00 0. -1.
          1   -1    0    0  501    0 -0.00000000000E+00 -0.00000000000E+00 -0.40456846589E+03  0.40456846589E+03  0.00000000000E+00 0. -1.
         25    2    1    2    0    0 -0.36646814680E+02  0.31835339071E+02  0.14150950977E+03  0.19495122463E+03  0.12499824316E+03 0.  0.
          2    1    1    2  501    0  0.67008199836E+02  0.42502112540E+01 -0.37450828422E+03  0.38047945817E+03  0.00000000000E+00 0. -1.
          1    1    1    2  502    0 -0.30361385156E+02 -0.36085550325E+02  0.15714206410E+04  0.15721281155E+04  0.00000000000E+00 0. -1.
         22    1    3    3    0    0  0.33427161438E+02  0.45196901800E+02  0.93047561215E+02  0.10871055010E+03  0.00000000000E+00 0.  1.
         22    1    3    3    0    0 -0.70073976118E+02 -0.13361562729E+02  0.48461948551E+02  0.86240674538E+02  0.00000000000E+00 0.  1.
</event>
<event>
 7    1  0.6370239E-006  0.3999297E+02  0.7818608E-02  0.1549034E+00
          2   -1    0    0  502    0  0.00000000000E+00  0.00000000000E+00  0.11846690254E+04  0.11846690254E+04  0.00000000000E+00 0. -1.
          1   -1    0    0  501    0 -0.00000000000E+00 -0.00000000000E+00 -0.39224546548E+02  0.39224546548E+02  0.00000000000E+00 0. -1.
         25    2    1    2    0    0  0.91172747294E+01  0.45769581205E+02  0.76767458433E+03  0.77918471558E+03  0.12500629708E+03 0.  0.
          2    1    1    2  501    0  0.19470065175E+02 -0.35010239463E+02 -0.20684841097E+02  0.45085063562E+02  0.00000000000E+00 0. -1.
          1    1    1    2  502    0 -0.28587339904E+02 -0.10759341742E+02  0.39845473563E+03  0.39962379282E+03  0.00000000000E+00 0. -1.
         22    1    3    3    0    0 -0.19495080186E+02  0.80349536801E+02  0.59739058587E+03  0.60308508380E+03  0.00000000000E+00 0.  1.
         22    1    3    3    0    0  0.28612354915E+02 -0.34579955596E+02  0.17028399846E+03  0.17609963178E+03  0.00000000000E+00 0.  1.
</event>
<event>
 7    1  0.6370239E-006  0.4826064E+02  0.7818608E-02  0.1463966E+00
          2   -1    0    0  502    0  0.00000000000E+00  0.00000000000E+00  0.19361468079E+03  0.19361468079E+03  0.00000000000E+00 0. -1.
          1   -1    0    0  501    0 -0.00000000000E+00 -0.00000000000E+00 -0.20353306644E+04  0.20353306644E+04  0.00000000000E+00 0. -1.
         25    2    1    2    0    0  0.30499370013E+01  0.75900384266E+02  0.15578187909E+02  0.14709848883E+03  0.12500046011E+03 0.  0.
          2    1    1    2  501    0  0.25537554411E+02 -0.40887826744E+02 -0.19647135120E+04  0.19653048530E+04  0.00000000000E+00 0. -1.
          1    1    1    2  502    0 -0.28587491412E+02 -0.35012557522E+02  0.10741934045E+03  0.11654200338E+03  0.00000000000E+00 0. -1.
         22    1    3    3    0    0  0.44381484451E+02 -0.14601793027E+02  0.30815418782E+01  0.46823332026E+02  0.00000000000E+00 0.  1.
         22    1    3    3    0    0 -0.41331547449E+02  0.90502177292E+02  0.12496646031E+02  0.10027515680E+03  0.00000000000E+00 0.  1.
</event>
<event>
 7    1  0.6370239E-006  0.1231929E+03  0.7818608E-02  0.1309300E+00
          2   -1    0    0  502    0  0.00000000000E+00  0.00000000000E+00  0.19144906569E+03  0.19144906569E+03  0.00000000000E+00 0. -1.
          1   -1    0    0  501    0 -0.00000000000E+00 -0.00000000000E+00 -0.19419861997E+03  0.19419861997E+03  0.00000000000E+00 0. -1.
         25    2    1    2    0    0  0.10799381243E+03 -0.75732361954E+02  0.35950608836E+02  0.18524531827E+03  0.12500130997E+03 0.  0.
          2    1    1    2  501    0  0.14052307670E+02  0.60377506691E+02 -0.45975166436E+02  0.77179184979E+02  0.00000000000E+00 0. -1.
          1    1    1    2  502    0 -0.12204612010E+03  0.15354855263E+02  0.72750033240E+01  0.12322318242E+03  0.00000000000E+00 0. -1.
         22    1    3    3    0    0  0.62943520078E+02 -0.10554795711E+03  0.50189654293E+01  0.12299369083E+03  0.00000000000E+00 0. -1.
         22    1    3    3    0    0  0.45050292354E+02  0.29815595151E+02  0.30931643407E+02  0.62251627442E+02  0.00000000000E+00 0. -1.
</event>
<event>
 7    1  0.6370239E-006  0.5753184E+02  0.7818608E-02  0.1557990E+00
          2   -1    0    0  502    0  0.00000000000E+00  0.00000000000E+00  0.20422889359E+04  0.20422889359E+04  0.00000000000E+00 0. -1.
          1   -1    0    0  501    0 -0.00000000000E+00 -0.00000000000E+00 -0.14848061295E+03  0.14848061295E+03  0.00000000000E+00 0. -1.
         25    2    1    2    0    0 -0.37905479482E+02  0.50781311477E+01 -0.70858087682E+02  0.14868958202E+03  0.12500044168E+03 0.  0.
          2    1    1    2  501    0 -0.17988879524E+02  0.88582760250E+01 -0.35667123426E+02  0.40917142302E+02  0.00000000000E+00 0. -1.
          1    1    1    2  502    0  0.55894359006E+02 -0.13936407173E+02  0.20003335340E+04  0.20011628245E+04  0.00000000000E+00 0. -1.
         22    1    3    3    0    0 -0.35613409690E+02 -0.47923384559E+02  0.57671163975E+00  0.59710119189E+02  0.00000000000E+00 0.  1.
         22    1    3    3    0    0 -0.22920697917E+01  0.53001515706E+02 -0.71434799322E+02  0.88979462829E+02  0.00000000000E+00 0.  1.
</event>
<event>
 7    1  0.6370239E-006  0.4106928E+03  0.7818608E-02  0.1242702E+00
          2   -1    0    0  502    0  0.00000000000E+00  0.00000000000E+00  0.18382492804E+04  0.18382492804E+04  0.00000000000E+00 0. -1.
          1   -1    0    0  501    0 -0.00000000000E+00 -0.00000000000E+00 -0.11259890163E+04  0.11259890163E+04  0.00000000000E+00 0. -1.
         25    2    1    2    0    0 -0.39020229891E+03 -0.58578110258E+01  0.52834114655E+03  0.66862681532E+03  0.12500121204E+03 0.  0.
          2    1    1    2  501    0  0.41067946020E+03  0.34492316557E+02 -0.10153621375E+04  0.10958136745E+04  0.00000000000E+00 0. -1.
          1    1    1    2  502    0 -0.20477161294E+02 -0.28634505531E+02  0.11992812550E+04  0.11997978069E+04  0.00000000000E+00 0. -1.
         22    1    3    3    0    0 -0.11511909551E+03 -0.52011724464E+02  0.21286202812E+03  0.24752347090E+03  0.00000000000E+00 0. -1.
         22    1    3    3    0    0 -0.27508320340E+03  0.46153913438E+02  0.31547911843E+03  0.42110334442E+03  0.00000000000E+00 0. -1.
</event>
<event>
 7    1  0.6370239E-006  0.9255733E+02  0.7818608E-02  0.1364174E+00
          2   -1    0    0  502    0  0.00000000000E+00  0.00000000000E+00  0.76100360150E+03  0.76100360150E+03  0.00000000000E+00 0. -1.
          1   -1    0    0  501    0 -0.00000000000E+00 -0.00000000000E+00 -0.54420152648E+03  0.54420152648E+03  0.00000000000E+00 0. -1.
         25    2    1    2    0    0  0.80776360434E+02 -0.11610446393E+03  0.43695203893E+02  0.19375150032E+03  0.12500122433E+03 0.  0.
          2    1    1    2  501    0 -0.32131649146E+02  0.39811985586E+02 -0.46457549567E+03  0.46738402652E+03  0.00000000000E+00 0. -1.
          1    1    1    2  502    0 -0.48644711289E+02  0.76292478344E+02  0.63768236679E+03  0.64406960114E+03  0.00000000000E+00 0. -1.
         22    1    3    3    0    0  0.87248195488E+01 -0.10698631526E+03 -0.30451880810E+01  0.10738466976E+03  0.00000000000E+00 0.  1.
         22    1    3    3    0    0  0.72051540886E+02 -0.91181486699E+01  0.46740391974E+02  0.86366830560E+02  0.00000000000E+00 0.  1.
</event>
<event>
 7    1  0.6370239E-006  0.8548605E+02  0.7818608E-02  0.1344792E+00
          2   -1    0    0  502    0  0.00000000000E+00  0.00000000000E+00  0.79625296453E+03  0.79625296453E+03  0.00000000000E+00 0. -1.
          1   -1    0    0  501    0 -0.00000000000E+00 -0.00000000000E+00 -0.85977259317E+02  0.85977259317E+02  0.00000000000E+00 0. -1.
         25    2    1    2    0    0  0.34001316259E+02  0.13669797939E+03  0.23149530728E+03  0.29842860102E+03  0.12500850186E+03 0.  0.
          2    1    1    2  501    0 -0.33274772256E+02 -0.56164044529E+02 -0.27731345771E+02  0.70926989960E+02  0.00000000000E+00 0. -1.
          1    1    1    2  502    0 -0.72654400311E+00 -0.80533934858E+02  0.50651174370E+03  0.51287463287E+03  0.00000000000E+00 0. -1.
         22    1    3    3    0    0 -0.43392480805E+02  0.75138325838E+02  0.13341006344E+03  0.15914433835E+03  0.00000000000E+00 0.  1.
         22    1    3    3    0    0  0.77393797064E+02  0.61559653549E+02  0.98085243835E+02  0.13928426267E+03  0.00000000000E+00 0.  1.
</event>
<event>
 7    1  0.6370239E-006  0.1977776E+03  0.7818608E-02  0.1283996E+00
          2   -1    0    0  502    0  0.00000000000E+00  0.00000000000E+00  0.62746878580E+03  0.62746878580E+03  0.00000000000E+00 0. -1.
          1   -1    0    0  501    0 -0.00000000000E+00 -0.00000000000E+00 -0.11256984461E+04  0.11256984461E+04  0.00000000000E+00 0. -1.
         25    2    1    2    0    0 -0.14984523416E+03 -0.40437818119E+02 -0.60306512129E+02  0.20820437891E+03  0.12499350646E+03 0.  0.
          2    1    1    2  501    0  0.19804876465E+03  0.48163523015E+02 -0.97985879540E+03  0.10008328017E+04  0.00000000000E+00 0. -1.
          1    1    1    2  502    0 -0.48203530493E+02 -0.77257048959E+01  0.54193564725E+03  0.54413005121E+03  0.00000000000E+00 0. -1.
         22    1    3    3    0    0 -0.13096254366E+03  0.16876521627E+02 -0.15309347584E+02  0.13292998513E+03  0.00000000000E+00 0.  1.
         22    1    3    3    0    0 -0.18882690500E+02 -0.57314339746E+02 -0.44997164545E+02  0.75274393775E+02  0.00000000000E+00 0.  1.
</event>
<event>
 7    1  0.6370239E-006  0.9049300E+02  0.7818608E-02  0.1470401E+00
          2   -1    0    0  502    0  0.00000000000E+00  0.00000000000E+00  0.25161649547E+02  0.25161649547E+02  0.00000000000E+00 0. -1.
          1   -1    0    0  501    0 -0.00000000000E+00 -0.00000000000E+00 -0.16693812923E+04  0.16693812923E+04  0.00000000000E+00 0. -1.
         25    2    1    2    0    0 -0.64988004403E+02  0.44911192946E+02 -0.61857007786E+03  0.63599851421E+03  0.12499885151E+03 0.  0.
          2    1    1    2  501    0  0.10707769998E+01  0.22991013068E+02 -0.90858905490E+03  0.90888052237E+03  0.00000000000E+00 0. -1.
          1    1    1    2  502    0  0.63917227404E+02 -0.67902206014E+02 -0.11706050994E+03  0.14966390523E+03  0.00000000000E+00 0. -1.
         22    1    3    3    0    0 -0.67943518386E+02  0.84326353723E+02 -0.46042548334E+03  0.47298930361E+03  0.00000000000E+00 0. -1.
         22    1    3    3    0    0  0.29555139828E+01 -0.39415160777E+02 -0.15814459452E+03  0.16300921060E+03  0.00000000000E+00 0. -1.
</event>
<event>
 7    1  0.6370239E-006  0.7739063E+02  0.7818608E-02  0.1350466E+00
          2   -1    0    0  502    0  0.00000000000E+00  0.00000000000E+00  0.97541652161E+03  0.97541652161E+03  0.00000000000E+00 0. -1.
          1   -1    0    0  501    0 -0.00000000000E+00 -0.00000000000E+00 -0.33619744759E+03  0.33619744759E+03  0.00000000000E+00 0. -1.
         25    2    1    2    0    0  0.24633611819E+02  0.13728481681E+03  0.39346396950E+03  0.43576739893E+03  0.12500157967E+03 0.  0.
          2    1    1    2  501    0 -0.12456643095E+02 -0.67550829171E+02 -0.30902565696E+03  0.31656774810E+03  0.00000000000E+00 0. -1.
          1    1    1    2  502    0 -0.12176968724E+02 -0.69733987635E+02  0.55478076149E+03  0.55927882216E+03  0.00000000000E+00 0. -1.
         22    1    3    3    0    0  0.87031990319E+01  0.78391946423E+02  0.35497428663E+03  0.36363138906E+03  0.00000000000E+00 0.  1.
         22    1    3    3    0    0  0.15930412787E+02  0.58892870382E+02  0.38489682866E+02  0.72136009874E+02  0.00000000000E+00 0.  1.
</event>
<event>
 7    1  0.6370239E-006  0.9913107E+02  0.7818608E-02  0.1455477E+00
          2   -1    0    0  502    0  0.00000000000E+00  0.00000000000E+00  0.22885955389E+04  0.22885955389E+04  0.00000000000E+00 0. -1.
          1   -1    0    0  501    0 -0.00000000000E+00 -0.00000000000E+00 -0.13577750894E+03  0.13577750894E+03  0.00000000000E+00 0. -1.
         25    2    1    2    0    0  0.10138524537E+03  0.64116600443E+02 -0.52168380799E+01  0.17330625393E+03  0.12497174009E+03 0.  0.
          2    1    1    2  501    0 -0.23111274627E+02 -0.37002982420E+01 -0.42389453375E+02  0.48421988594E+02  0.00000000000E+00 0. -1.
          1    1    1    2  502    0 -0.78273970747E+02 -0.60416302201E+02  0.22004243214E+04  0.22026448053E+04  0.00000000000E+00 0. -1.
         22    1    3    3    0    0  0.78448435774E+02  0.85438396237E+02  0.36084948306E+02  0.12147427761E+03  0.00000000000E+00 0.  1.
         22    1    3    3    0    0  0.22936809601E+02 -0.21321795794E+02 -0.41301786386E+02  0.51831976320E+02  0.00000000000E+00 0.  1.
</event>
<event>
 7    1  0.6370239E-006  0.1095499E+03  0.7818608E-02  0.1269858E+00
          2   -1    0    0  502    0  0.00000000000E+00  0.00000000000E+00  0.13306866657E+04  0.13306866657E+04  0.00000000000E+00 0. -1.
          1   -1    0    0  501    0 -0.00000000000E+00 -0.00000000000E+00 -0.11404554244E+04  0.11404554244E+04  0.00000000000E+00 0. -1.
         25    2    1    2    0    0  0.24931778811E+02 -0.20459478140E+03  0.19578801295E+03  0.31054587844E+03  0.12500071372E+03 0.  0.
          2    1    1    2  501    0 -0.11578409945E+02  0.10022742266E+03 -0.10781469747E+04  0.10828575598E+04  0.00000000000E+00 0. -1.
          1    1    1    2  502    0 -0.13353368866E+02  0.10436735874E+03  0.10725902031E+04  0.10777386519E+04  0.00000000000E+00 0. -1.
         22    1    3    3    0    0  0.26284177175E+02 -0.22045863568E+03  0.19340750958E+03  0.29444750428E+03  0.00000000000E+00 0.  1.
         22    1    3    3    0    0 -0.13523983641E+01  0.15863854284E+02  0.23805033678E+01  0.16098374153E+02  0.00000000000E+00 0.  1.
</event>
<event>
 7    1  0.6370239E-006  0.5604148E+02  0.7818608E-02  0.1524301E+00
          2   -1    0    0  502    0  0.00000000000E+00  0.00000000000E+00  0.78002346352E+03  0.78002346352E+03  0.00000000000E+00 0. -1.
          1   -1    0    0  501    0 -0.00000000000E+00 -0.00000000000E+00 -0.79263762255E+03  0.79263762255E+03  0.00000000000E+00 0. -1.
         25    2    1    2    0    0 -0.40086723166E+02  0.23160339361E+02  0.67874452125E+02  0.14958547547E+03  0.12500210609E+03 0.  0.
          2    1    1    2  501    0  0.56094779747E+02 -0.31518807259E+01 -0.75048716719E+03  0.75258723533E+03  0.00000000000E+00 0. -1.
          1    1    1    2  502    0 -0.16008056581E+02 -0.20008458635E+02  0.66999855603E+03  0.67048837527E+03  0.00000000000E+00 0. -1.
         22    1    3    3    0    0  0.41264365368E+02 -0.79203646825E+01  0.40346042101E+02  0.58251893868E+02  0.00000000000E+00 0.  1.
         22    1    3    3    0    0 -0.81351088534E+02  0.31080704044E+02  0.27528410024E+02  0.91333581601E+02  0.00000000000E+00 0.  1.
</event>
<event>
 7    1  0.6370239E-006  0.5120843E+02  0.7818608E-02  0.1453719E+00
          2   -1    0    0  502    0  0.00000000000E+00  0.00000000000E+00  0.29344402440E+02  0.29344402440E+02  0.00000000000E+00 0. -1.
          1   -1    0    0  501    0 -0.00000000000E+00 -0.00000000000E+00 -0.21819210593E+04  0.21819210593E+04  0.00000000000E+00 0. -1.
         25    2    1    2    0    0 -0.62052217466E+01  0.24354926673E+01 -0.22631105247E+03  0.25862599020E+03  0.12500509563E+03 0.  0.
          2    1    1    2  501    0 -0.21586416254E+02  0.46436298868E+02 -0.18775504645E+04  0.18782486656E+04  0.00000000000E+00 0. -1.
          1    1    1    2  502    0  0.27791638001E+02 -0.48871791536E+02 -0.48715139926E+02  0.74390805942E+02  0.00000000000E+00 0. -1.
         22    1    3    3    0    0  0.31023792551E+02 -0.39650893443E+02 -0.40830771116E+02  0.64821454203E+02  0.00000000000E+00 0. -1.
         22    1    3    3    0    0 -0.37229014297E+02  0.42086386110E+02 -0.18548028135E+03  0.19380453600E+03  0.00000000000E+00 0. -1.
</event>
<event>
 7    1  0.6370239E-006  0.3225157E+02  0.7818608E-02  0.1615398E+00
          2   -1    0    0  502    0  0.00000000000E+00  0.00000000000E+00  0.27913986080E+02  0.27913986080E+02  0.00000000000E+00 0. -1.
          1   -1    0    0  501    0 -0.00000000000E+00 -0.00000000000E+00 -0.15997357828E+04  0.15997357828E+04  0.00000000000E+00 0. -1.
         25    2    1    2    0    0  0.33010626192E+02 -0.69656394340E+00 -0.52707702930E+03  0.54270354769E+03  0.12500703666E+03 0.  0.
          2    1    1    2  501    0 -0.23423071059E+02 -0.22573995048E+02 -0.10566175009E+04  0.10571181432E+04  0.00000000000E+00 0. -1.
          1    1    1    2  502    0 -0.95875551330E+01  0.23270558991E+02  0.11872733408E+02  0.27828078047E+02  0.00000000000E+00 0. -1.
         22    1    3    3    0    0  0.39748563759E+02 -0.52565105360E+02 -0.39821036218E+03  0.40362672256E+03  0.00000000000E+00 0.  1.
         22    1    3    3    0    0 -0.67379375667E+01  0.51868541417E+02 -0.12886666713E+03  0.13907682513E+03  0.00000000000E+00 0.  1.
</event>
<event>
 7    1  0.6370239E-006  0.7606141E+02  0.7818608E-02  0.1410613E+00
          2   -1    0    0  502    0  0.00000000000E+00  0.00000000000E+00  0.11408499508E+04  0.11408499508E+04  0.00000000000E+00 0. -1.
          1   -1    0    0  501    0 -0.00000000000E+00 -0.00000000000E+00 -0.33590751510E+03  0.33590751510E+03  0.00000000000E+00 0. -1.
         25    2    1    2    0    0  0.19677363793E+02 -0.69735640363E+02 -0.20348516131E+03  0.24956513447E+03  0.12500514903E+03 0.  0.
          2    1    1    2  501    0 -0.42706324219E+02 -0.28491230326E+01 -0.10384304204E+03  0.11231796389E+03  0.00000000000E+00 0. -1.
          1    1    1    2  502    0  0.23028960426E+02  0.72584763396E+02  0.11122706390E+04  0.11148743675E+04  0.00000000000E+00 0. -1.
         22    1    3    3    0    0  0.65281441807E+01 -0.38479113122E+02  0.40861222830E+01  0.39242263038E+02  0.00000000000E+00 0. -1.
         22    1    3    3    0    0  0.13149219612E+02 -0.31256527242E+02 -0.20757128360E+03  0.21032287143E+03  0.00000000000E+00 0. -1.
</event>
<event>
 7    1  0.6370239E-006  0.4700771E+02  0.7818608E-02  0.1514590E+00
          2   -1    0    0  502    0  0.00000000000E+00  0.00000000000E+00  0.16095026914E+03  0.16095026914E+03  0.00000000000E+00 0. -1.
          1   -1    0    0  501    0 -0.00000000000E+00 -0.00000000000E+00 -0.22263709519E+03  0.22263709519E+03  0.00000000000E+00 0. -1.
         25    2    1    2    0    0  0.51312965922E+02  0.47049313000E+02 -0.83591773055E+02  0.16571070504E+03  0.12500317962E+03 0.  0.
          2    1    1    2  501    0 -0.75507981113E+01 -0.31713002151E+02 -0.90548162284E+02  0.96237719999E+02  0.00000000000E+00 0. -1.
          1    1    1    2  502    0 -0.43762167811E+02 -0.15336310849E+02  0.11245310929E+03  0.12163893929E+03  0.00000000000E+00 0. -1.
         22    1    3    3    0    0 -0.24322733861E+02  0.36325117829E+02 -0.77621723689E+02  0.89085585569E+02  0.00000000000E+00 0.  1.
         22    1    3    3    0    0  0.75635699783E+02  0.10724195171E+02 -0.59700493658E+01  0.76625119466E+02  0.00000000000E+00 0.  1.
</event>
<event>
 7    1  0.6370239E-006  0.1068709E+03  0.7818608E-02  0.1289595E+00
          2   -1    0    0  502    0  0.00000000000E+00  0.00000000000E+00  0.37248597115E+03  0.37248597115E+03  0.00000000000E+00 0. -1.
          1   -1    0    0  501    0 -0.00000000000E+00 -0.00000000000E+00 -0.10671207236E+04  0.10671207236E+04  0.00000000000E+00 0. -1.
         25    2    1    2    0    0  0.12998137272E+02  0.77176086850E+02  0.18378764668E+03  0.23564460327E+03  0.12500152009E+03 0.  0.
          2    1    1    2  501    0  0.69811655781E+02  0.49718321006E+02 -0.10037018070E+04  0.10073544044E+04  0.00000000000E+00 0. -1.
          1    1    1    2  502    0 -0.82809793053E+02 -0.12689440786E+03  0.12527940788E+03  0.19660768705E+03  0.00000000000E+00 0. -1.
         22    1    3    3    0    0 -0.43994355619E+02  0.78970846633E+02  0.10937827104E+03  0.14189962692E+03  0.00000000000E+00 0. -1.
         22    1    3    3    0    0  0.56992492891E+02 -0.17947597831E+01  0.74409375635E+02  0.93744976350E+02  0.00000000000E+00 0. -1.
</event>
<event>
 7    1  0.6370239E-006  0.5850253E+02  0.7818608E-02  0.1451876E+00
          2   -1    0    0  502    0  0.00000000000E+00  0.00000000000E+00  0.36221059710E+03  0.36221059710E+03  0.00000000000E+00 0. -1.
          1   -1    0    0  501    0 -0.00000000000E+00 -0.00000000000E+00 -0.82652067164E+03  0.82652067164E+03  0.00000000000E+00 0. -1.
         25    2    1    2    0    0  0.40564164395E+02 -0.77394755734E+02 -0.24727984405E+03  0.29052603424E+03  0.12499062225E+03 0.  0.
          2    1    1    2  501    0 -0.35863802919E+02  0.19286596624E+02 -0.55437078072E+03  0.55586432489E+03  0.00000000000E+00 0. -1.
          1    1    1    2  502    0 -0.47003614763E+01  0.58108159110E+02  0.33734055023E+03  0.34234090960E+03  0.00000000000E+00 0. -1.
         22    1    3    3    0    0 -0.22862818876E+02  0.23802890403E+02 -0.57224609357E+02  0.66060139226E+02  0.00000000000E+00 0. -1.
         22    1    3    3    0    0  0.63426983271E+02 -0.10119764614E+03 -0.19005523469E+03  0.22446589501E+03  0.00000000000E+00 0. -1.
</event>
<event>
 7    1  0.6370239E-006  0.1372817E+03  0.7818608E-02  0.1309137E+00
          2   -1    0    0  502    0  0.00000000000E+00  0.00000000000E+00  0.22905543305E+03  0.22905543305E+03  0.00000000000E+00 0. -1.
          1   -1    0    0  501    0 -0.00000000000E+00 -0.00000000000E+00 -0.20776009329E+03  0.20776009329E+03  0.00000000000E+00 0. -1.
         25    2    1    2    0    0  0.35543784220E+02 -0.89954613249E+02 -0.39498135012E+02  0.16291669595E+03  0.12500621628E+03 0.  0.
          2    1    1    2  501    0  0.26705492057E+02 -0.48894173569E+02 -0.58323165621E+02  0.80656153907E+02  0.00000000000E+00 0. -1.
          1    1    1    2  502    0 -0.62249276277E+02  0.13884878682E+03  0.11911664039E+03  0.19324267649E+03  0.00000000000E+00 0. -1.
         22    1    3    3    0    0 -0.33736456341E+02 -0.19308755044E+02  0.23683319711E+02  0.45517866167E+02  0.00000000000E+00 0.  1.
         22    1    3    3    0    0  0.69280240561E+02 -0.70645858205E+02 -0.63181454723E+02  0.11739882978E+03  0.00000000000E+00 0.  1.
</event>
<event>
 7    1  0.6370239E-006  0.9667138E+02  0.7818608E-02  0.1389587E+00
          2   -1    0    0  502    0  0.00000000000E+00  0.00000000000E+00  0.67419853765E+03  0.67419853765E+03  0.00000000000E+00 0. -1.
          1   -1    0    0  501    0 -0.00000000000E+00 -0.00000000000E+00 -0.48809142013E+03  0.48809142013E+03  0.00000000000E+00 0. -1.
         25    2    1    2    0    0 -0.12142872210E+03 -0.46346883501E+01 -0.27665378349E+02  0.17651285739E+03  0.12500000310E+03 0.  0.
          2    1    1    2  501    0  0.90361777081E+02  0.29473425574E+02 -0.37947526051E+03  0.39119740146E+03  0.00000000000E+00 0. -1.
          1    1    1    2  502    0  0.31066945022E+02 -0.24838737224E+02  0.59324775638E+03  0.59457969894E+03  0.00000000000E+00 0. -1.
         22    1    3    3    0    0  0.24234022654E+02  0.90345617295E+00  0.95592850006E+01  0.26066914216E+02  0.00000000000E+00 0. -1.
         22    1    3    3    0    0 -0.14566274476E+03 -0.55381445230E+01 -0.37224663349E+02  0.15044594317E+03  0.00000000000E+00 0. -1.
</event>
<event>
 7    1  0.6370239E-006  0.7944495E+02  0.7818608E-02  0.1336276E+00
          2   -1    0    0  502    0  0.00000000000E+00  0.00000000000E+00  0.29269600228E+03  0.29269600228E+03  0.00000000000E+00 0. -1.
          1   -1    0    0  501    0 -0.00000000000E+00 -0.00000000000E+00 -0.22668831244E+04  0.22668831244E+04  0.00000000000E+00 0. -1.
         25    2    1    2    0    0  0.18448468313E+02 -0.11845096280E+03 -0.74868566839E+03  0.76845632068E+03  0.12499564065E+03 0.  0.
          2    1    1    2  501    0 -0.56550146428E+02  0.53133192753E+02 -0.15022380724E+04  0.15042407657E+04  0.00000000000E+00 0. -1.
          1    1    1    2  502    0  0.38101678114E+02  0.65317770044E+02  0.27673661861E+03  0.28688204029E+03  0.00000000000E+00 0. -1.
         22    1    3    3    0    0  0.36371277116E+02 -0.57303671714E+02 -0.13142900485E+03  0.14791945074E+03  0.00000000000E+00 0.  1.
         22    1    3    3    0    0 -0.17922808803E+02 -0.61147291083E+02 -0.61725666354E+03  0.62053686995E+03  0.00000000000E+00 0.  1.
</event>
<event>
 7    1  0.6370239E-006  0.6889269E+02  0.7818608E-02  0.1470524E+00
          2   -1    0    0  502    0  0.00000000000E+00  0.00000000000E+00  0.40741600358E+03  0.40741600358E+03  0.00000000000E+00 0. -1.
          1   -1    0    0  501    0 -0.00000000000E+00 -0.00000000000E+00 -0.14215740785E+04  0.14215740785E+04  0.00000000000E+00 0. -1.
         25    2    1    2    0    0 -0.15366099858E+01  0.91139861969E+02 -0.86371862962E+03  0.87746462292E+03  0.12500183087E+03 0.  0.
          2    1    1    2  501    0  0.17944978519E+02 -0.24297159621E+02 -0.54760644011E+03  0.54843886393E+03  0.00000000000E+00 0. -1.
          1    1    1    2  502    0 -0.16408368533E+02 -0.66842702349E+02  0.39716699485E+03  0.40308659518E+03  0.00000000000E+00 0. -1.
         22    1    3    3    0    0  0.24501058114E+02 -0.17618884253E+02 -0.37047612786E+03  0.37170322604E+03  0.00000000000E+00 0.  1.
         22    1    3    3    0    0 -0.26037668100E+02  0.10875874622E+03 -0.49324250176E+03  0.50576139688E+03  0.00000000000E+00 0.  1.
</event>
<event>
 7    1  0.6370239E-006  0.1894965E+03  0.7818608E-02  0.1223140E+00
          2   -1    0    0  502    0  0.00000000000E+00  0.00000000000E+00  0.96810081259E+03  0.96810081259E+03  0.00000000000E+00 0. -1.
          1   -1    0    0  501    0 -0.00000000000E+00 -0.00000000000E+00 -0.11076815071E+04  0.11076815071E+04  0.00000000000E+00 0. -1.
         25    2    1    2    0    0 -0.21762062169E+03  0.46572951987E+02 -0.54234146909E+03  0.59940514387E+03  0.12499793024E+03 0.  0.
          2    1    1    2  501    0  0.14448785204E+03 -0.10447557689E+03 -0.51958463040E+03  0.54932692789E+03  0.00000000000E+00 0. -1.
          1    1    1    2  502    0  0.73132769648E+02  0.57902624904E+02  0.92234540502E+03  0.92705024789E+03  0.00000000000E+00 0. -1.
         22    1    3    3    0    0 -0.37974572739E+02 -0.26012469886E+02 -0.20751589473E+03  0.21255955243E+03  0.00000000000E+00 0. -1.
         22    1    3    3    0    0 -0.17964604895E+03  0.72585421874E+02 -0.33482557436E+03  0.38684559144E+03  0.00000000000E+00 0. -1.
</event>
<event>
 7    1  0.6370239E-006  0.6998395E+02  0.7818608E-02  0.1363111E+00
          2   -1    0    0  502    0  0.00000000000E+00  0.00000000000E+00  0.14727873246E+02  0.14727873246E+02  0.00000000000E+00 0. -1.
          1   -1    0    0  501    0 -0.00000000000E+00 -0.00000000000E+00 -0.44907677742E+04  0.44907677742E+04  0.00000000000E+00 0. -1.
         25    2    1    2    0    0 -0.13827561951E+02  0.10005831981E+02 -0.18437598153E+04  0.18480712135E+04  0.12500254185E+03 0.  0.
          2    1    1    2  501    0  0.48138529562E+02 -0.71001823785E+02 -0.25407857667E+04  0.25422334451E+04  0.00000000000E+00 0. -1.
          1    1    1    2  502    0 -0.34310967611E+02  0.60995991804E+02 -0.91494318881E+02  0.11519098881E+03  0.00000000000E+00 0. -1.
         22    1    3    3    0    0 -0.52337651495E+02 -0.11636137811E+02 -0.15575400985E+04  0.15584626360E+04  0.00000000000E+00 0. -1.
         22    1    3    3    0    0  0.38510089544E+02  0.21641969791E+02 -0.28621971689E+03  0.28960857755E+03  0.00000000000E+00 0. -1.
</event>
<event>
 7    1  0.6370239E-006  0.6942364E+02  0.7818608E-02  0.1467963E+00
          2   -1    0    0  502    0  0.00000000000E+00  0.00000000000E+00  0.10424825236E+04  0.10424825236E+04  0.00000000000E+00 0. -1.
          1   -1    0    0  501    0 -0.00000000000E+00 -0.00000000000E+00 -0.43935555552E+03  0.43935555552E+03  0.00000000000E+00 0. -1.
         25    2    1    2    0    0  0.71084865513E+02 -0.23387062088E+02 -0.12752821466E+03  0.19362252212E+03  0.12500489094E+03 0.  0.
          2    1    1    2  501    0 -0.19708766443E+02 -0.23316422767E+02 -0.27674581500E+03  0.27842474237E+03  0.00000000000E+00 0. -1.
          1    1    1    2  502    0 -0.51376099070E+02  0.46703484855E+02  0.10074009978E+04  0.10097908147E+04  0.00000000000E+00 0. -1.
         22    1    3    3    0    0  0.93265093819E+02 -0.15034564885E+02 -0.39388240152E+02  0.10235159661E+03  0.00000000000E+00 0. -1.
         22    1    3    3    0    0 -0.22180228306E+02 -0.83524972024E+01 -0.88139974507E+02  0.91270925509E+02  0.00000000000E+00 0. -1.
</event>
<event>
 7    1  0.6370239E-006  0.5845063E+02  0.7818608E-02  0.1520578E+00
          2   -1    0    0  502    0  0.00000000000E+00  0.00000000000E+00  0.36388828131E+03  0.36388828131E+03  0.00000000000E+00 0. -1.
          1   -1    0    0  501    0 -0.00000000000E+00 -0.00000000000E+00 -0.44703787902E+03  0.44703787902E+03  0.00000000000E+00 0. -1.
         25    2    1    2    0    0  0.32264904106E+02  0.13813876379E+02  0.19197166561E+03  0.23175288309E+03  0.12499772479E+03 0.  0.
          2    1    1    2  501    0 -0.48441229551E+02 -0.33117164672E+02 -0.42406987186E+03  0.42811044783E+03  0.00000000000E+00 0. -1.
          1    1    1    2  502    0  0.16176325444E+02  0.19303288293E+02  0.14894860855E+03  0.15106282942E+03  0.00000000000E+00 0. -1.
         22    1    3    3    0    0  0.13753200046E+02  0.43834023680E+02  0.10817434157E+02  0.47197341295E+02  0.00000000000E+00 0. -1.
         22    1    3    3    0    0  0.18511704060E+02 -0.30020147302E+02  0.18115423146E+03  0.18455554179E+03  0.00000000000E+00 0. -1.
</event>
<event>
 7    1  0.6370239E-006  0.2569926E+03  0.7818608E-02  0.1208094E+00
          2   -1    0    0  502    0  0.00000000000E+00  0.00000000000E+00  0.28852524142E+03  0.28852524142E+03  0.00000000000E+00 0. -1.
          1   -1    0    0  501    0 -0.00000000000E+00 -0.00000000000E+00 -0.33419841851E+04  0.33419841851E+04  0.00000000000E+00 0. -1.
         25    2    1    2    0    0 -0.95964990503E+02 -0.17585336909E+03 -0.40206673166E+03  0.46628229681E+03  0.12501134666E+03 0.  0.
          2    1    1    2  501    0 -0.75511966919E+02 -0.28311961652E+02 -0.28377729664E+04  0.28389186380E+04  0.00000000000E+00 0. -1.
          1    1    1    2  502    0  0.17147695742E+03  0.20416533074E+03  0.18638075436E+03  0.32530849174E+03  0.00000000000E+00 0. -1.
         22    1    3    3    0    0 -0.55325250247E+02 -0.12098264192E+03 -0.13083989309E+03  0.18659249874E+03  0.00000000000E+00 0. -1.
         22    1    3    3    0    0 -0.40639740256E+02 -0.54870727164E+02 -0.27122683857E+03  0.27968979808E+03  0.00000000000E+00 0. -1.
</event>
<event>
 7    1  0.6370239E-006  0.2813280E+02  0.7818608E-02  0.1670519E+00
          2   -1    0    0  502    0  0.00000000000E+00  0.00000000000E+00  0.62447480843E+03  0.62447480843E+03  0.00000000000E+00 0. -1.
          1   -1    0    0  501    0 -0.00000000000E+00 -0.00000000000E+00 -0.20021039924E+03  0.20021039924E+03  0.00000000000E+00 0. -1.
         25    2    1    2    0    0 -0.32190958496E+02 -0.34013979205E+02  0.38910766533E+02  0.13904288311E+03  0.12500266798E+03 0.  0.
          2    1    1    2  501    0  0.13413628545E+02  0.24443531494E+02 -0.14864023420E+03  0.15123270442E+03  0.00000000000E+00 0. -1.
          1    1    1    2  502    0  0.18777329950E+02  0.95704477113E+01  0.53399387685E+03  0.53440962015E+03  0.00000000000E+00 0. -1.
         22    1    3    3    0    0  0.32878187578E+01 -0.60338774101E+02 -0.21554771158E+02  0.64157505967E+02  0.00000000000E+00 0.  1.
         22    1    3    3    0    0 -0.35478777253E+02  0.26324794896E+02  0.60465537690E+02  0.74885377143E+02  0.00000000000E+00 0.  1.
</event>
<event>
 7    1  0.6370239E-006  0.1663851E+03  0.7818608E-02  0.1376329E+00
          2   -1    0    0  502    0  0.00000000000E+00  0.00000000000E+00  0.77778549265E+03  0.77778549265E+03  0.00000000000E+00 0. -1.
          1   -1    0    0  501    0 -0.00000000000E+00 -0.00000000000E+00 -0.59102124411E+03  0.59102124411E+03  0.00000000000E+00 0. -1.
         25    2    1    2    0    0 -0.58220116379E+02  0.17708758772E+03  0.51970725674E+03  0.56610030040E+03  0.12499728689E+03 0.  0.
          2    1    1    2  501    0  0.65607829933E+02 -0.15243386749E+03 -0.55493994894E+03  0.57922259817E+03  0.00000000000E+00 0. -1.
          1    1    1    2  502    0 -0.73877135539E+01 -0.24653720226E+02  0.22199694074E+03  0.22348383819E+03  0.00000000000E+00 0. -1.
         22    1    3    3    0    0 -0.44881590476E+02  0.85562945189E+01  0.54449733631E+02  0.71079820146E+02  0.00000000000E+00 0. -1.
         22    1    3    3    0    0 -0.13338525904E+02  0.16853129320E+03  0.46525752311E+03  0.49502048025E+03  0.00000000000E+00 0. -1.
</event>
<event>
 7    1  0.6370239E-006  0.1568957E+03  0.7818608E-02  0.1282328E+00
          2   -1    0    0  502    0  0.00000000000E+00  0.00000000000E+00  0.25844918533E+04  0.25844918533E+04  0.00000000000E+00 0. -1.
          1   -1    0    0  501    0 -0.00000000000E+00 -0.00000000000E+00 -0.46188158225E+03  0.46188158225E+03  0.00000000000E+00 0. -1.
         25    2    1    2    0    0  0.14679398020E+03  0.96512637116E+02 -0.74287313208E+02  0.22804576677E+03  0.12499242015E+03 0.  0.
          2    1    1    2  501    0 -0.15057773918E+03 -0.34108662276E+02 -0.29111890121E+03  0.32952582755E+03  0.00000000000E+00 0. -1.
          1    1    1    2  502    0  0.37837589850E+01 -0.62403974840E+02  0.24880164855E+04  0.24888018412E+04  0.00000000000E+00 0. -1.
         22    1    3    3    0    0 -0.12266674243E+02  0.18114311395E+02 -0.42622449589E+02  0.47909005242E+02  0.00000000000E+00 0. -1.
         22    1    3    3    0    0  0.15906065444E+03  0.78398325721E+02 -0.31664863619E+02  0.18013676153E+03  0.00000000000E+00 0. -1.
</event>
<event>
 7    1  0.6370239E-006  0.5453886E+02  0.7818608E-02  0.1459922E+00
          2   -1    0    0  502    0  0.00000000000E+00  0.00000000000E+00  0.20951309953E+04  0.20951309953E+04  0.00000000000E+00 0. -1.
          1   -1    0    0  501    0 -0.00000000000E+00 -0.00000000000E+00 -0.70555552889E+02  0.70555552889E+02  0.00000000000E+00 0. -1.
         25    2    1    2    0    0 -0.75669437339E+02  0.30130501152E+02  0.16001078455E+03  0.21877392675E+03  0.12499947603E+03 0.  0.
          2    1    1    2  501    0  0.35468231336E+02 -0.39085542985E+02 -0.23942656491E+02  0.57956241289E+02  0.00000000000E+00 0. -1.
          1    1    1    2  502    0  0.40201206002E+02  0.89550418334E+01  0.18885073143E+04  0.18889563801E+04  0.00000000000E+00 0. -1.
         22    1    3    3    0    0 -0.86973722527E+02 -0.24430415387E+02  0.76487552683E+02  0.11837068607E+03  0.00000000000E+00 0. -1.
         22    1    3    3    0    0  0.11304285188E+02  0.54560916539E+02  0.83523231865E+02  0.10040324068E+03  0.00000000000E+00 0. -1.
</event>
<event>
 7    1  0.6370239E-006  0.7527290E+02  0.7818608E-02  0.1426063E+00
          2   -1    0    0  502    0  0.00000000000E+00  0.00000000000E+00  0.21611226570E+03  0.21611226570E+03  0.00000000000E+00 0. -1.
          1   -1    0    0  501    0 -0.00000000000E+00 -0.00000000000E+00 -0.10913252538E+04  0.10913252538E+04  0.00000000000E+00 0. -1.
         25    2    1    2    0    0 -0.84090120306E+02  0.55135446592E+02 -0.49596631844E+03  0.52126603367E+03  0.12499849208E+03 0.  0.
          2    1    1    2  501    0  0.38166808119E+02  0.41628316640E+01 -0.57513535869E+03  0.57641540162E+03  0.00000000000E+00 0. -1.
          1    1    1    2  502    0  0.45923312187E+02 -0.59298278256E+02  0.19588868899E+03  0.20975608426E+03  0.00000000000E+00 0. -1.
         22    1    3    3    0    0 -0.20530007317E+02 -0.40571695971E+02 -0.14730402084E+03  0.15416231144E+03  0.00000000000E+00 0.  1.
         22    1    3    3    0    0 -0.63560112989E+02  0.95707142564E+02 -0.34866229761E+03  0.36710372223E+03  0.00000000000E+00 0.  1.
</event>
<event>
 7    1  0.6370239E-006  0.1236824E+03  0.7818608E-02  0.1366316E+00
          2   -1    0    0  502    0  0.00000000000E+00  0.00000000000E+00  0.14458955279E+04  0.14458955279E+04  0.00000000000E+00 0. -1.
          1   -1    0    0  501    0 -0.00000000000E+00 -0.00000000000E+00 -0.24916951675E+03  0.24916951675E+03  0.00000000000E+00 0. -1.
         25    2    1    2    0    0  0.72737918730E+02  0.11707901787E+03  0.76967378173E+02  0.20135883442E+03  0.12499240636E+03 0.  0.
          2    1    1    2  501    0 -0.89404880388E+02 -0.83365282889E+02 -0.16668949474E+03  0.20670846786E+03  0.00000000000E+00 0. -1.
          1    1    1    2  502    0  0.16666961657E+02 -0.33713734985E+02  0.12864481277E+04  0.12869977423E+04  0.00000000000E+00 0. -1.
         22    1    3    3    0    0  0.10061817102E+03  0.47845078633E+02  0.47428003950E+02  0.12108915496E+03  0.00000000000E+00 0.  1.
         22    1    3    3    0    0 -0.27880252294E+02  0.69233939241E+02  0.29539374224E+02  0.80269679458E+02  0.00000000000E+00 0.  1.
</event>
<event>
 7    1  0.6370239E-006  0.5331211E+02  0.7818608E-02  0.1453761E+00
          2   -1    0    0  502    0  0.00000000000E+00  0.00000000000E+00  0.18992928610E+03  0.18992928610E+03  0.00000000000E+00 0. -1.
          1   -1    0    0  501    0 -0.00000000000E+00 -0.00000000000E+00 -0.19418890977E+03  0.19418890977E+03  0.00000000000E+00 0. -1.
         25    2    1    2    0    0  0.75644019084E+02  0.45940823008E+01  0.20237083574E+02  0.14757249611E+03  0.12499991537E+03 0.  0.
          2    1    1    2  501    0 -0.30895540690E+02 -0.31428967725E+02 -0.11993457433E+03  0.12777564935E+03  0.00000000000E+00 0. -1.
          1    1    1    2  502    0 -0.44748478395E+02  0.26834885424E+02  0.95437867079E+02  0.10877005041E+03  0.00000000000E+00 0. -1.
         22    1    3    3    0    0  0.50848950198E+02  0.35325672257E+02 -0.41321496752E+02  0.74437792488E+02  0.00000000000E+00 0. -1.
         22    1    3    3    0    0  0.24795068886E+02 -0.30731589956E+02  0.61558580326E+02  0.73134703623E+02  0.00000000000E+00 0. -1.
</event>
<event>
 7    1  0.6370239E-006  0.7301191E+02  0.7818608E-02  0.1353244E+00
          2   -1    0    0  502    0  0.00000000000E+00  0.00000000000E+00  0.18208618747E+04  0.18208618747E+04  0.00000000000E+00 0. -1.
          1   -1    0    0  501    0 -0.00000000000E+00 -0.00000000000E+00 -0.11884606467E+04  0.11884606467E+04  0.00000000000E+00 0. -1.
         25    2    1    2    0    0 -0.46591224910E+02  0.25494037219E+02  0.68722450456E+02  0.15221517228E+03  0.12500398115E+03 0.  0.
          2    1    1    2  501    0  0.52206971757E+02  0.48279203356E+02 -0.11448105089E+04  0.11470168049E+04  0.00000000000E+00 0. -1.
          1    1    1    2  502    0 -0.56157468470E+01 -0.73773240575E+02  0.17084892865E+04  0.17100905443E+04  0.00000000000E+00 0. -1.
         22    1    3    3    0    0 -0.75630329798E+02  0.70680380257E+01  0.85145263485E+02  0.11410354877E+03  0.00000000000E+00 0. -1.
         22    1    3    3    0    0  0.29039104888E+02  0.18425999193E+02 -0.16422813029E+02  0.38111623512E+02  0.00000000000E+00 0. -1.
</event>
<event>
 7    1  0.6370239E-006  0.9092959E+02  0.7818608E-02  0.1357455E+00
          2   -1    0    0  502    0  0.00000000000E+00  0.00000000000E+00  0.13179335464E+04  0.13179335464E+04  0.00000000000E+00 0. -1.
          1   -1    0    0  501    0 -0.00000000000E+00 -0.00000000000E+00 -0.13781735234E+03  0.13781735234E+03  0.00000000000E+00 0. -1.
         25    2    1    2    0    0 -0.11801423500E+03  0.47728087686E+02  0.99502312896E+02  0.20428100734E+03  0.12499875868E+03 0.  0.
          2    1    1    2  501    0  0.28008334171E+02 -0.47448056170E+02 -0.74607604442E+02  0.92747395963E+02  0.00000000000E+00 0. -1.
          1    1    1    2  502    0  0.90005900831E+02 -0.28003151602E+00  0.11552214856E+04  0.11587224955E+04  0.00000000000E+00 0. -1.
         22    1    3    3    0    0 -0.95226200846E+02 -0.27074660531E+02  0.67319888746E+02  0.11972064981E+03  0.00000000000E+00 0. -1.
         22    1    3    3    0    0 -0.22788034156E+02  0.74802748217E+02  0.32182424150E+02  0.84560357530E+02  0.00000000000E+00 0. -1.
</event>
<event>
 7    1  0.6370239E-006  0.6932484E+02  0.7818608E-02  0.1452597E+00
          2   -1    0    0  502    0  0.00000000000E+00  0.00000000000E+00  0.23489119769E+03  0.23489119769E+03  0.00000000000E+00 0. -1.
          1   -1    0    0  501    0 -0.00000000000E+00 -0.00000000000E+00 -0.58741381473E+03  0.58741381473E+03  0.00000000000E+00 0. -1.
         25    2    1    2    0    0 -0.89136415929E+02  0.50942326840E+02 -0.33400522878E+03  0.37111299087E+03  0.12499975133E+03 0.  0.
          2    1    1    2  501    0  0.27587858209E+02 -0.20182736001E+02 -0.22807761710E+03  0.23062487328E+03  0.00000000000E+00 0. -1.
          1    1    1    2  502    0  0.61548557720E+02 -0.30759590840E+02  0.20956022884E+03  0.22056714828E+03  0.00000000000E+00 0. -1.
         22    1    3    3    0    0 -0.61916063354E+02  0.83352584064E+02 -0.15084987851E+03  0.18313093135E+03  0.00000000000E+00 0. -1.
         22    1    3    3    0    0 -0.27220352574E+02 -0.32410257224E+02 -0.18315535028E+03  0.18798205953E+03  0.00000000000E+00 0. -1.
</event>
<event>
 7    1  0.6370239E-006  0.6067191E+02  0.7818608E-02  0.1445252E+00
          2   -1    0    0  502    0  0.00000000000E+00  0.00000000000E+00  0.15166965914E+04  0.15166965914E+04  0.00000000000E+00 0. -1.
          1   -1    0    0  501    0 -0.00000000000E+00 -0.00000000000E+00 -0.22054718094E+03  0.22054718094E+03  0.00000000000E+00 0. -1.
         25    2    1    2    0    0 -0.47507422658E+02 -0.53067025895E+02  0.14382401737E+02  0.14458287610E+03  0.12499716051E+03 0.  0.
          2    1    1    2  501    0  0.40593220616E+02 -0.72334699143E+01 -0.15205929639E+03  0.15755050703E+03  0.00000000000E+00 0. -1.
          1    1    1    2  502    0  0.69142020417E+01  0.60300495809E+02  0.14338263051E+04  0.14351103892E+04  0.00000000000E+00 0. -1.
         22    1    3    3    0    0 -0.40293337167E+02 -0.28076913869E+02  0.68647627809E+02  0.84405941238E+02  0.00000000000E+00 0. -1.
         22    1    3    3    0    0 -0.72140854909E+01 -0.24990112026E+02 -0.54265226072E+02  0.60176934861E+02  0.00000000000E+00 0. -1.
</event>
<event>
 7    1  0.6370239E-006  0.8777990E+02  0.7818608E-02  0.1369037E+00
          2   -1    0    0  502    0  0.00000000000E+00  0.00000000000E+00  0.20778044563E+04  0.20778044563E+04  0.00000000000E+00 0. -1.
          1   -1    0    0  501    0 -0.00000000000E+00 -0.00000000000E+00 -0.25576074041E+04  0.25576074041E+04  0.00000000000E+00 0. -1.
         25    2    1    2    0    0  0.97006564762E+02 -0.13379291269E+02 -0.13630166398E+03  0.20926582374E+03  0.12499904936E+03 0.  0.
          2    1    1    2  501    0 -0.16761047388E+02  0.49020001734E+02 -0.23835978750E+04  0.23841608006E+04  0.00000000000E+00 0. -1.
          1    1    1    2  502    0 -0.80245517374E+02 -0.35640710465E+02  0.20400965912E+04  0.20419852361E+04  0.00000000000E+00 0. -1.
         22    1    3    3    0    0  0.12793292700E+01 -0.26409611218E+02 -0.10413841574E+03  0.10744260738E+03  0.00000000000E+00 0.  1.
         22    1    3    3    0    0  0.95727235492E+02  0.13030319948E+02 -0.32163248241E+02  0.10182321636E+03  0.00000000000E+00 0.  1.
</event>
<event>
 7    1  0.6370239E-006  0.4860228E+02  0.7818608E-02  0.1495312E+00
          2   -1    0    0  502    0  0.00000000000E+00  0.00000000000E+00  0.65575425884E+03  0.65575425884E+03  0.00000000000E+00 0. -1.
          1   -1    0    0  501    0 -0.00000000000E+00 -0.00000000000E+00 -0.31570442829E+03  0.31570442829E+03  0.00000000000E+00 0. -1.
         25    2    1    2    0    0 -0.20170401089E+02 -0.15434437939E+02  0.93729779961E+02  0.15829117188E+03  0.12500302591E+03 0.  0.
          2    1    1    2  501    0  0.12609495608E+02 -0.33680757310E+02 -0.28111021339E+03  0.28340138472E+03  0.00000000000E+00 0. -1.
          1    1    1    2  502    0  0.75609054806E+01  0.49115195249E+02  0.52743026398E+03  0.52976613053E+03  0.00000000000E+00 0. -1.
         22    1    3    3    0    0  0.26659660220E+01 -0.63981237357E+02  0.80812135507E+02  0.10310823126E+03  0.00000000000E+00 0. -1.
         22    1    3    3    0    0 -0.22836367111E+02  0.48546799419E+02  0.12917644454E+02  0.55182940615E+02  0.00000000000E+00 0. -1.
</event>
<event>
 7    1  0.6370239E-006  0.3890414E+02  0.7818608E-02  0.1526772E+00
          2   -1    0    0  502    0  0.00000000000E+00  0.00000000000E+00  0.18283615984E+04  0.18283615984E+04  0.00000000000E+00 0. -1.
          1   -1    0    0  501    0 -0.00000000000E+00 -0.00000000000E+00 -0.12093009496E+02  0.12093009496E+02  0.00000000000E+00 0. -1.
         25    2    1    2    0    0  0.40209598327E+02  0.31577174957E+02  0.60150082792E+03  0.61646726210E+03  0.12495883115E+03 0.  0.
          2    1    1    2  501    0 -0.35600957399E+02  0.71461495518E+01  0.72792490956E+02  0.81346434222E+02  0.00000000000E+00 0. -1.
          1    1    1    2  502    0 -0.46086409283E+01 -0.38723324509E+02  0.11419752701E+04  0.11426409116E+04  0.00000000000E+00 0. -1.
         22    1    3    3    0    0 -0.22388403338E+02 -0.14287105301E+01  0.18196415841E+02  0.28885833332E+02  0.00000000000E+00 0. -1.
         22    1    3    3    0    0  0.62598001665E+02  0.33005885487E+02  0.58330441207E+03  0.58758142877E+03  0.00000000000E+00 0. -1.
</event>
<event>
 7    1  0.6370239E-006  0.5920829E+02  0.7818608E-02  0.1538039E+00
          2   -1    0    0  502    0  0.00000000000E+00  0.00000000000E+00  0.13509729900E+03  0.13509729900E+03  0.00000000000E+00 0. -1.
          1   -1    0    0  501    0 -0.00000000000E+00 -0.00000000000E+00 -0.44972560088E+03  0.44972560088E+03  0.00000000000E+00 0. -1.
         25    2    1    2    0    0 -0.24741640910E+02 -0.31177140875E+02 -0.94614877997E+02  0.16174314159E+03  0.12499882322E+03 0.  0.
          2    1    1    2  501    0  0.31015553093E+02  0.52425514038E+02 -0.31740648604E+03  0.32319850934E+03  0.00000000000E+00 0. -1.
          1    1    1    2  502    0 -0.62739121829E+01 -0.21248373163E+02  0.97393062153E+02  0.99881248950E+02  0.00000000000E+00 0. -1.
         22    1    3    3    0    0 -0.28811138506E+02  0.36196248570E+02 -0.80409677999E+02  0.92768348204E+02  0.00000000000E+00 0. -1.
         22    1    3    3    0    0  0.40694975962E+01 -0.67373389445E+02 -0.14205199997E+02  0.68974793388E+02  0.00000000000E+00 0. -1.
</event>
<event>
 7    1  0.6370239E-006  0.6620595E+02  0.7818608E-02  0.1383273E+00
          2   -1    0    0  502    0  0.00000000000E+00  0.00000000000E+00  0.16029425740E+03  0.16029425740E+03  0.00000000000E+00 0. -1.
          1   -1    0    0  501    0 -0.00000000000E+00 -0.00000000000E+00 -0.16232565114E+03  0.16232565114E+03  0.00000000000E+00 0. -1.
         25    2    1    2    0    0  0.41433639234E+02  0.21177595803E+02  0.26237129915E+02  0.13593177865E+03  0.12499529766E+03 0.  0.
          2    1    1    2  501    0 -0.22176568883E+02  0.56952817478E+02 -0.72531964089E+02  0.94848876855E+02  0.00000000000E+00 0. -1.
          1    1    1    2  502    0 -0.19257070351E+02 -0.78130413280E+02  0.44263440435E+02  0.91839253029E+02  0.00000000000E+00 0. -1.
         22    1    3    3    0    0  0.13072164629E+02  0.70568242469E+02 -0.31595535002E+01  0.71838298362E+02  0.00000000000E+00 0.  1.
         22    1    3    3    0    0  0.28361474605E+02 -0.49390646666E+02  0.29396683415E+02  0.64093480290E+02  0.00000000000E+00 0.  1.
</event>
<event>
 7    1  0.6370239E-006  0.1423733E+03  0.7818608E-02  0.1263775E+00
          2   -1    0    0  502    0  0.00000000000E+00  0.00000000000E+00  0.52106178071E+02  0.52106178071E+02  0.00000000000E+00 0. -1.
          1   -1    0    0  501    0 -0.00000000000E+00 -0.00000000000E+00 -0.13029971276E+04  0.13029971276E+04  0.00000000000E+00 0. -1.
         25    2    1    2    0    0  0.78133139834E+01 -0.18198025946E+01 -0.41674830593E+03  0.43516434459E+03  0.12499798699E+03 0.  0.
          2    1    1    2  501    0  0.26203864481E+01  0.14381029039E+03 -0.72873058141E+03  0.74278969186E+03  0.00000000000E+00 0. -1.
          1    1    1    2  502    0 -0.10433700431E+02 -0.14199048779E+03 -0.10541206217E+03  0.17714926921E+03  0.00000000000E+00 0. -1.
         22    1    3    3    0    0  0.12344291872E+02 -0.10512146929E+02 -0.42314754897E+03  0.42345806755E+03  0.00000000000E+00 0.  1.
         22    1    3    3    0    0 -0.45309778891E+01  0.86923443346E+01  0.63992430395E+01  0.11706277040E+02  0.00000000000E+00 0.  1.
</event>
<event>
 7    1  0.6370239E-006  0.1081409E+03  0.7818608E-02  0.1310504E+00
          2   -1    0    0  502    0  0.00000000000E+00  0.00000000000E+00  0.95658147958E+03  0.95658147958E+03  0.00000000000E+00 0. -1.
          1   -1    0    0  501    0 -0.00000000000E+00 -0.00000000000E+00 -0.76886835092E+02  0.76886835092E+02  0.00000000000E+00 0. -1.
         25    2    1    2    0    0 -0.76172715464E+02 -0.14634726194E+03  0.42670866684E+03  0.47426557319E+03  0.12501097510E+03 0.  0.
          2    1    1    2  501    0  0.41775353297E+02  0.55983293386E+02 -0.22964674777E+02  0.73530167748E+02  0.00000000000E+00 0. -1.
          1    1    1    2  502    0  0.34397362167E+02  0.90363968553E+02  0.47595065242E+03  0.48567257374E+03  0.00000000000E+00 0. -1.
         22    1    3    3    0    0 -0.76029633086E+01  0.23028818397E+02  0.48149571430E+02  0.53912083588E+02  0.00000000000E+00 0.  1.
         22    1    3    3    0    0 -0.68569752155E+02 -0.16937608034E+03  0.37855909541E+03  0.42035348960E+03  0.00000000000E+00 0.  1.
</event>
<event>
 7    1  0.6370239E-006  0.8385540E+02  0.7818608E-02  0.1491343E+00
          2   -1    0    0  502    0  0.00000000000E+00  0.00000000000E+00  0.15508851614E+04  0.15508851614E+04  0.00000000000E+00 0. -1.
          1   -1    0    0  501    0 -0.00000000000E+00 -0.00000000000E+00 -0.46246408191E+02  0.46246408191E+02  0.00000000000E+00 0. -1.
         25    2    1    2    0    0 -0.65564900397E+02 -0.35337173322E+01  0.47384740460E+03  0.49443638665E+03  0.12499893709E+03 0.  0.
          2    1    1    2  501    0 -0.21402365907E+02  0.10079913148E+01 -0.30813747870E+02  0.37530845590E+02  0.00000000000E+00 0. -1.
          1    1    1    2  502    0  0.86967266304E+02  0.25257260174E+01  0.10616050965E+04  0.10651643374E+04  0.00000000000E+00 0. -1.
         22    1    3    3    0    0  0.29243945063E+02  0.28779264645E+02  0.13845587838E+03  0.14440735665E+03  0.00000000000E+00 0. -1.
         22    1    3    3    0    0 -0.94808845460E+02 -0.32312981977E+02  0.33539152622E+03  0.35002903000E+03  0.00000000000E+00 0. -1.
</event>
<event>
 7    1  0.6370239E-006  0.4372793E+02  0.7818608E-02  0.1568571E+00
          2   -1    0    0  502    0  0.00000000000E+00  0.00000000000E+00  0.85910035460E+03  0.85910035460E+03  0.00000000000E+00 0. -1.
          1   -1    0    0  501    0 -0.00000000000E+00 -0.00000000000E+00 -0.24810025083E+03  0.24810025083E+03  0.00000000000E+00 0. -1.
         25    2    1    2    0    0  0.23742749661E+02 -0.22821269381E+02  0.32366614251E+03  0.34852469172E+03  0.12500064173E+03 0.  0.
          2    1    1    2  501    0 -0.43163884146E+02  0.75966186343E+01 -0.23333859658E+03  0.23741889176E+03  0.00000000000E+00 0. -1.
          1    1    1    2  502    0  0.19421134485E+02  0.15224650746E+02  0.52067255784E+03  0.52125702196E+03  0.00000000000E+00 0. -1.
         22    1    3    3    0    0  0.42527507100E+02 -0.67237752136E+02  0.17507958873E+03  0.19230799921E+03  0.00000000000E+00 0.  1.
         22    1    3    3    0    0 -0.18784757439E+02  0.44416482755E+02  0.14858655378E+03  0.15621669250E+03  0.00000000000E+00 0.  1.
</event>
<event>
 7    1  0.6370239E-006  0.1513974E+03  0.7818608E-02  0.1299633E+00
          2   -1    0    0  502    0  0.00000000000E+00  0.00000000000E+00  0.10397833987E+04  0.10397833987E+04  0.00000000000E+00 0. -1.
          1   -1    0    0  501    0 -0.00000000000E+00 -0.00000000000E+00 -0.16120218302E+03  0.16120218302E+03  0.00000000000E+00 0. -1.
         25    2    1    2    0    0  0.59367001153E+02  0.98283510090E+02 -0.15468303640E+02  0.17043057468E+03  0.12499289254E+03 0.  0.
          2    1    1    2  501    0 -0.20876190758E+02  0.51002380615E+02 -0.49751907412E+02  0.74244935585E+02  0.00000000000E+00 0. -1.
          1    1    1    2  502    0 -0.38490810396E+02 -0.14928589071E+03  0.94380142676E+03  0.95631007147E+03  0.00000000000E+00 0. -1.
         22    1    3    3    0    0  0.21672741010E+02 -0.29367438700E+02 -0.60608414698E+01  0.36998485888E+02  0.00000000000E+00 0.  1.
         22    1    3    3    0    0  0.37694260143E+02  0.12765094879E+03 -0.94074621700E+01  0.13343208879E+03  0.00000000000E+00 0.  1.
</event>
<event>
 7    1  0.6370239E-006  0.1512480E+03  0.7818608E-02  0.1234972E+00
          2   -1    0    0  502    0  0.00000000000E+00  0.00000000000E+00  0.15612243377E+04  0.15612243377E+04  0.00000000000E+00 0. -1.
          1   -1    0    0  501    0 -0.00000000000E+00 -0.00000000000E+00 -0.35411580176E+02  0.35411580176E+02  0.00000000000E+00 0. -1.
         25    2    1    2    0    0  0.28431546903E+01 -0.42543249560E+02  0.24057297039E+03  0.27444389036E+03  0.12500433298E+03 0.  0.
          2    1    1    2  501    0  0.15099936283E+03  0.86696257191E+01  0.69729457694E+03  0.71350942321E+03  0.00000000000E+00 0. -1.
          1    1    1    2  502    0 -0.15384251752E+03  0.33873623841E+02  0.58794521021E+03  0.60868260432E+03  0.00000000000E+00 0. -1.
         22    1    3    3    0    0  0.46465738389E+02 -0.51257257805E+02  0.20829174107E+03  0.21948079807E+03  0.00000000000E+00 0. -1.
         22    1    3    3    0    0 -0.43622583699E+02  0.87140082447E+01  0.32281229318E+02  0.54963092294E+02  0.00000000000E+00 0. -1.
</event>
<event>
 7    1  0.6370239E-006  0.1686880E+03  0.7818608E-02  0.1211327E+00
          2   -1    0    0  502    0  0.00000000000E+00  0.00000000000E+00  0.20471546855E+04  0.20471546855E+04  0.00000000000E+00 0. -1.
          1   -1    0    0  501    0 -0.00000000000E+00 -0.00000000000E+00 -0.10752583067E+04  0.10752583067E+04  0.00000000000E+00 0. -1.
         25    2    1    2    0    0 -0.39304826818E+02 -0.66453849685E+02  0.68057793120E+01  0.14707858544E+03  0.12499923245E+03 0.  0.
          2    1    1    2  501    0  0.15596847912E+03  0.88300611475E+02 -0.99532286576E+03  0.10113311879E+04  0.00000000000E+00 0. -1.
          1    1    1    2  502    0 -0.11666365230E+03 -0.21846761790E+02  0.19604134653E+04  0.19640032188E+04  0.00000000000E+00 0. -1.
         22    1    3    3    0    0 -0.84597685633E+02 -0.51383170781E+02  0.82444872520E+01  0.99322556471E+02  0.00000000000E+00 0. -1.
         22    1    3    3    0    0  0.45292858815E+02 -0.15070678904E+02 -0.14387079400E+01  0.47756028968E+02  0.00000000000E+00 0. -1.
</event>
<event>
 7    1  0.6370239E-006  0.1303846E+03  0.7818608E-02  0.1347400E+00
          2   -1    0    0  502    0  0.00000000000E+00  0.00000000000E+00  0.57804727734E+03  0.57804727734E+03  0.00000000000E+00 0. -1.
          1   -1    0    0  501    0 -0.00000000000E+00 -0.00000000000E+00 -0.16205158734E+03  0.16205158734E+03  0.00000000000E+00 0. -1.
         25    2    1    2    0    0  0.97721384777E+02  0.99629235973E+01  0.79100622388E+02  0.17756895982E+03  0.12500039255E+03 0.  0.
          2    1    1    2  501    0  0.36199307432E+02  0.21008287246E+02 -0.97928501153E+02  0.10649755551E+03  0.00000000000E+00 0. -1.
          1    1    1    2  502    0 -0.13392069221E+03 -0.30971210844E+02  0.43482356876E+03  0.45603234935E+03  0.00000000000E+00 0. -1.
         22    1    3    3    0    0  0.12049242483E+03  0.59873897814E+01  0.31551233292E+02  0.12469865116E+03  0.00000000000E+00 0.  1.
         22    1    3    3    0    0 -0.22771040054E+02  0.39755338159E+01  0.47549389096E+02  0.52870308659E+02  0.00000000000E+00 0.  1.
</event>
<event>
 7    1  0.6370239E-006  0.8879375E+02  0.7818608E-02  0.1392645E+00
          2   -1    0    0  502    0  0.00000000000E+00  0.00000000000E+00  0.25473013060E+04  0.25473013060E+04  0.00000000000E+00 0. -1.
          1   -1    0    0  501    0 -0.00000000000E+00 -0.00000000000E+00 -0.35762666114E+03  0.35762666114E+03  0.00000000000E+00 0. -1.
         25    2    1    2    0    0  0.53220572015E+02  0.12170140042E+02  0.18159351042E+03  0.22711478134E+03  0.12499751710E+03 0.  0.
          2    1    1    2  501    0  0.23666045895E+02  0.35006105404E+02 -0.33266080015E+03  0.33533373988E+03  0.00000000000E+00 0. -1.
          1    1    1    2  502    0 -0.76886617911E+02 -0.47176245446E+02  0.23407419346E+04  0.23424794459E+04  0.00000000000E+00 0. -1.
         22    1    3    3    0    0  0.85408026933E+02  0.26047570751E+02  0.16654051996E+03  0.18896759456E+03  0.00000000000E+00 0.  1.
         22    1    3    3    0    0 -0.32187454918E+02 -0.13877430710E+02  0.15052990462E+02  0.38147186778E+02  0.00000000000E+00 0.  1.
</event>
<event>
 7    1  0.6370239E-006  0.8922758E+02  0.7818608E-02  0.1343935E+00
          2   -1    0    0  502    0  0.00000000000E+00  0.00000000000E+00  0.86897497539E+03  0.86897497539E+03  0.00000000000E+00 0. -1.
          1   -1    0    0  501    0 -0.00000000000E+00 -0.00000000000E+00 -0.38267527195E+03  0.38267527195E+03  0.00000000000E+00 0. -1.
         25    2    1    2    0    0 -0.65474302874E+02 -0.64859883168E+02 -0.47136453116E+02  0.16229625203E+03  0.12499815770E+03 0.  0.
          2    1    1    2  501    0 -0.23955567532E+02  0.58274623764E+02 -0.27186757744E+03  0.27907307404E+03  0.00000000000E+00 0. -1.
          1    1    1    2  502    0  0.89429870406E+02  0.65852594047E+01  0.80530373400E+03  0.81028092126E+03  0.00000000000E+00 0. -1.
         22    1    3    3    0    0  0.16762206841E+02  0.18765438949E+02 -0.36767154012E+02  0.44552630576E+02  0.00000000000E+00 0.  1.
         22    1    3    3    0    0 -0.82236509715E+02 -0.83625322117E+02 -0.10369299104E+02  0.11774362145E+03  0.00000000000E+00 0.  1.
</event>
<event>
 7    1  0.6370239E-006  0.8748054E+02  0.7818608E-02  0.1336240E+00
          2   -1    0    0  502    0  0.00000000000E+00  0.00000000000E+00  0.18588195175E+03  0.18588195175E+03  0.00000000000E+00 0. -1.
          1   -1    0    0  501    0 -0.00000000000E+00 -0.00000000000E+00 -0.60186419057E+03  0.60186419057E+03  0.00000000000E+00 0. -1.
         25    2    1    2    0    0  0.39206048627E+02 -0.39453894730E+02 -0.17807943687E+03  0.22456767545E+03  0.12499852385E+03 0.  0.
          2    1    1    2  501    0 -0.54991227942E+01  0.99309057857E+02 -0.38670210097E+03  0.39928817190E+03  0.00000000000E+00 0. -1.
          1    1    1    2  502    0 -0.33706925833E+02 -0.59855163127E+02  0.14879929901E+03  0.16389029498E+03  0.00000000000E+00 0. -1.
         22    1    3    3    0    0 -0.85443142130E+01 -0.27533975202E+00  0.17494798913E+02  0.19471751496E+02  0.00000000000E+00 0.  1.
         22    1    3    3    0    0  0.47750362840E+02 -0.39178554978E+02 -0.19557423578E+03  0.20509592395E+03  0.00000000000E+00 0.  1.
</event>
<event>
 7    1  0.6370239E-006  0.7913993E+02  0.7818608E-02  0.1488783E+00
          2   -1    0    0  502    0  0.00000000000E+00  0.00000000000E+00  0.25127462693E+03  0.25127462693E+03  0.00000000000E+00 0. -1.
          1   -1    0    0  501    0 -0.00000000000E+00 -0.00000000000E+00 -0.59334366712E+03  0.59334366712E+03  0.00000000000E+00 0. -1.
         25    2    1    2    0    0  0.88947895739E+01  0.58897644161E+02 -0.10056033351E+03  0.17112929495E+03  0.12499922058E+03 0.  0.
          2    1    1    2  501    0  0.14753662340E+02  0.17789309469E+02 -0.44973767871E+03  0.45033111122E+03  0.00000000000E+00 0. -1.
          1    1    1    2  502    0 -0.23648451914E+02 -0.76686953630E+02  0.20822897203E+03  0.22315788789E+03  0.00000000000E+00 0. -1.
         22    1    3    3    0    0 -0.49528756197E+02  0.46484484343E+02 -0.86114309281E+02  0.10967943854E+03  0.00000000000E+00 0.  1.
         22    1    3    3    0    0  0.58423545771E+02  0.12413159818E+02 -0.14446024226E+02  0.61449856412E+02  0.00000000000E+00 0.  1.
</event>
<event>
 7    1  0.6370239E-006  0.9866079E+02  0.7818608E-02  0.1289262E+00
          2   -1    0    0  502    0  0.00000000000E+00  0.00000000000E+00  0.97419587677E+03  0.97419587677E+03  0.00000000000E+00 0. -1.
          1   -1    0    0  501    0 -0.00000000000E+00 -0.00000000000E+00 -0.22834078893E+03  0.22834078893E+03  0.00000000000E+00 0. -1.
         25    2    1    2    0    0 -0.54863546890E+02  0.84122705761E+02 -0.64322590748E+02  0.17277026685E+03  0.12500212409E+03 0.  0.
          2    1    1    2  501    0  0.10560220590E+03  0.49135595548E+00 -0.81033457313E+02  0.13311081295E+03  0.00000000000E+00 0. -1.
          1    1    1    2  502    0 -0.50738659007E+02 -0.84614061716E+02  0.89121113590E+03  0.89665558589E+03  0.00000000000E+00 0. -1.
         22    1    3    3    0    0 -0.56676474468E+02 -0.16423188154E+02 -0.15648363420E+02  0.61047646515E+02  0.00000000000E+00 0. -1.
         22    1    3    3    0    0  0.18129275780E+01  0.10054589391E+03 -0.48674227328E+02  0.11172262034E+03  0.00000000000E+00 0. -1.
</event>
<event>
 7    1  0.6370239E-006  0.4157135E+02  0.7818608E-02  0.1589630E+00
          2   -1    0    0  502    0  0.00000000000E+00  0.00000000000E+00  0.62403208083E+03  0.62403208083E+03  0.00000000000E+00 0. -1.
          1   -1    0    0  501    0 -0.00000000000E+00 -0.00000000000E+00 -0.25250774741E+03  0.25250774741E+03  0.00000000000E+00 0. -1.
         25    2    1    2    0    0  0.59453382666E+02 -0.21235533545E+02  0.80727179614E+02  0.16164050273E+03  0.12500048799E+03 0.  0.
          2    1    1    2  501    0 -0.36826390977E+02  0.18522555453E+02 -0.20978602881E+03  0.21379767542E+03  0.00000000000E+00 0. -1.
          1    1    1    2  502    0 -0.22626991688E+02  0.27129780912E+01  0.50058318262E+03  0.50110165009E+03  0.00000000000E+00 0. -1.
         22    1    3    3    0    0 -0.59517290307E+01 -0.61744671838E+02  0.46033458602E+02  0.77245756451E+02  0.00000000000E+00 0.  1.
         22    1    3    3    0    0  0.65405111696E+02  0.40509138293E+02  0.34693721012E+02  0.84394746276E+02  0.00000000000E+00 0.  1.
</event>
<event>
 7    1  0.6370239E-006  0.6928839E+02  0.7818608E-02  0.1432270E+00
          2   -1    0    0  502    0  0.00000000000E+00  0.00000000000E+00  0.11411079415E+04  0.11411079415E+04  0.00000000000E+00 0. -1.
          1   -1    0    0  501    0 -0.00000000000E+00 -0.00000000000E+00 -0.53663098643E+03  0.53663098643E+03  0.00000000000E+00 0. -1.
         25    2    1    2    0    0 -0.26346017952E+02  0.14040004386E+02 -0.10926863293E+03  0.16868825979E+03  0.12499944185E+03 0.  0.
          2    1    1    2  501    0 -0.33654923204E+02  0.21227184365E+02 -0.39556385910E+03  0.39756007576E+03  0.00000000000E+00 0. -1.
          1    1    1    2  502    0  0.60000941156E+02 -0.35267188751E+02  0.11093094471E+04  0.11114905924E+04  0.00000000000E+00 0. -1.
         22    1    3    3    0    0 -0.19364945079E+02  0.46210672282E+02  0.44493406241E+01  0.50301331619E+02  0.00000000000E+00 0.  1.
         22    1    3    3    0    0 -0.69810728734E+01 -0.32170667895E+02 -0.11371797356E+03  0.11838692817E+03  0.00000000000E+00 0.  1.
</event>
<event>
 7    1  0.6370239E-006  0.1375197E+03  0.7818608E-02  0.1281735E+00
          2   -1    0    0  502    0  0.00000000000E+00  0.00000000000E+00  0.31295524607E+04  0.31295524607E+04  0.00000000000E+00 0. -1.
          1   -1    0    0  501    0 -0.00000000000E+00 -0.00000000000E+00 -0.44331039123E+03  0.44331039123E+03  0.00000000000E+00 0. -1.
         25    2    1    2    0    0  0.14573992072E+03 -0.73075805738E+02 -0.56941443701E+02  0.21318369032E+03  0.12499903972E+03 0.  0.
          2    1    1    2  501    0 -0.82565213827E+02  0.10704725339E+03 -0.29298124101E+03  0.32266722265E+03  0.00000000000E+00 0. -1.
          1    1    1    2  502    0 -0.63174706897E+02 -0.33971447648E+02  0.30361647542E+04  0.30370119389E+04  0.00000000000E+00 0. -1.
         22    1    3    3    0    0  0.50202206562E+02  0.26793584212E+02  0.12874551782E+02  0.58343052561E+02  0.00000000000E+00 0. -1.
         22    1    3    3    0    0  0.95537714161E+02 -0.99869389950E+02 -0.69815995483E+02  0.15484063776E+03  0.00000000000E+00 0. -1.
</event>
<event>
 7    1  0.6370239E-006  0.5699495E+02  0.7818608E-02  0.1505716E+00
          2   -1    0    0  502    0  0.00000000000E+00  0.00000000000E+00  0.49239146814E+03  0.49239146814E+03  0.00000000000E+00 0. -1.
          1   -1    0    0  501    0 -0.00000000000E+00 -0.00000000000E+00 -0.84510126271E+03  0.84510126271E+03  0.00000000000E+00 0. -1.
         25    2    1    2    0    0 -0.75031999627E+02 -0.11461572711E+02 -0.62863723464E+03  0.64541964484E+03  0.12498230494E+03 0.  0.
          2    1    1    2  501    0  0.50391128175E+02 -0.29651807012E+01 -0.20458126244E+03  0.21071675547E+03  0.00000000000E+00 0. -1.
          1    1    1    2  502    0  0.24640871452E+02  0.14426753412E+02  0.48050870251E+03  0.48135633054E+03  0.00000000000E+00 0. -1.
         22    1    3    3    0    0  0.11895102762E+02 -0.28295910234E+02 -0.38448398375E+03  0.38570725397E+03  0.00000000000E+00 0.  1.
         22    1    3    3    0    0 -0.86927102388E+02  0.16834337523E+02 -0.24415325090E+03  0.25971239087E+03  0.00000000000E+00 0.  1.
</event>
<event>
 7    1  0.6370239E-006  0.1310181E+03  0.7818608E-02  0.1254338E+00
          2   -1    0    0  502    0  0.00000000000E+00  0.00000000000E+00  0.16147003240E+04  0.16147003240E+04  0.00000000000E+00 0. -1.
          1   -1    0    0  501    0 -0.00000000000E+00 -0.00000000000E+00 -0.59576900675E+03  0.59576900675E+03  0.00000000000E+00 0. -1.
         25    2    1    2    0    0 -0.10792846932E+02  0.21312031985E+03  0.22352931422E+03  0.33335803326E+03  0.12500187098E+03 0.  0.
          2    1    1    2  501    0 -0.30859552856E+02 -0.93236776347E+02 -0.53334757420E+03  0.54231452440E+03  0.00000000000E+00 0. -1.
          1    1    1    2  502    0  0.41652399788E+02 -0.11988354350E+03  0.13287495773E+04  0.13347967731E+04  0.00000000000E+00 0. -1.
         22    1    3    3    0    0  0.46379228830E+02  0.79884491603E+02  0.13468529175E+03  0.16331776596E+03  0.00000000000E+00 0.  1.
         22    1    3    3    0    0 -0.57172075762E+02  0.13323582825E+03  0.88844022471E+02  0.17004026730E+03  0.00000000000E+00 0.  1.
</event>
<event>
 7    1  0.6370239E-006  0.7544741E+02  0.7818608E-02  0.1400723E+00
          2   -1    0    0  502    0  0.00000000000E+00  0.00000000000E+00  0.17005822135E+03  0.17005822135E+03  0.00000000000E+00 0. -1.
          1   -1    0    0  501    0 -0.00000000000E+00 -0.00000000000E+00 -0.11200293365E+04  0.11200293365E+04  0.00000000000E+00 0. -1.
         25    2    1    2    0    0  0.85825615266E+02  0.72526655542E+02  0.10387707610E+02  0.16840008777E+03  0.12499813236E+03 0.  0.
          2    1    1    2  501    0 -0.42609715532E+02 -0.18952183839E+02 -0.10257124687E+04  0.10267720495E+04  0.00000000000E+00 0. -1.
          1    1    1    2  502    0 -0.43215899734E+02 -0.53574471702E+02  0.65353646015E+02  0.94915420536E+02  0.00000000000E+00 0. -1.
         22    1    3    3    0    0 -0.77088472817E+01  0.43123944012E+02 -0.38968121225E+02  0.58631180658E+02  0.00000000000E+00 0.  1.
         22    1    3    3    0    0  0.93534462547E+02  0.29402711530E+02  0.49355828835E+02  0.10976890712E+03  0.00000000000E+00 0.  1.
</event>
<event>
 7    1  0.6370239E-006  0.6573294E+02  0.7818608E-02  0.1385312E+00
          2   -1    0    0  502    0  0.00000000000E+00  0.00000000000E+00  0.23544653141E+03  0.23544653141E+03  0.00000000000E+00 0. -1.
          1   -1    0    0  501    0 -0.00000000000E+00 -0.00000000000E+00 -0.36004479511E+03  0.36004479511E+03  0.00000000000E+00 0. -1.
         25    2    1    2    0    0 -0.29469775239E+00 -0.37019740811E+02 -0.12443386932E+03  0.18022108720E+03  0.12500121752E+03 0.  0.
          2    1    1    2  501    0 -0.60152411543E+02  0.69188915113E+01 -0.19756709043E+03  0.20663721566E+03  0.00000000000E+00 0. -1.
          1    1    1    2  502    0  0.60447109296E+02  0.30100849300E+02  0.19740269605E+03  0.20863302366E+03  0.00000000000E+00 0. -1.
         22    1    3    3    0    0 -0.21847106733E+02 -0.78989412257E+02 -0.66739721649E+02  0.10569207050E+03  0.00000000000E+00 0. -1.
         22    1    3    3    0    0  0.21552408981E+02  0.41969671446E+02 -0.57694147670E+02  0.74529016695E+02  0.00000000000E+00 0. -1.
</event>
<event>
 7    1  0.6370239E-006  0.4803985E+02  0.7818608E-02  0.1472117E+00
          2   -1    0    0  502    0  0.00000000000E+00  0.00000000000E+00  0.12702119498E+03  0.12702119498E+03  0.00000000000E+00 0. -1.
          1   -1    0    0  501    0 -0.00000000000E+00 -0.00000000000E+00 -0.18310434154E+04  0.18310434154E+04  0.00000000000E+00 0. -1.
         25    2    1    2    0    0 -0.27763547649E+02  0.15620779625E+01 -0.11405565185E+03  0.17148264392E+03  0.12499740309E+03 0.  0.
          2    1    1    2  501    0  0.20724483900E+02 -0.43806039201E+02 -0.16832447503E+04  0.16839422088E+04  0.00000000000E+00 0. -1.
          1    1    1    2  502    0  0.70390637488E+01  0.42243961238E+02  0.93278181677E+02  0.10263975768E+03  0.00000000000E+00 0. -1.
         22    1    3    3    0    0 -0.15825333914E+02  0.58267417667E+02 -0.25255800438E+02  0.65447602025E+02  0.00000000000E+00 0. -1.
         22    1    3    3    0    0 -0.11938213735E+02 -0.56705339704E+02 -0.88799851412E+02  0.10603504189E+03  0.00000000000E+00 0. -1.
</event>
<event>
 7    1  0.6370239E-006  0.4685276E+02  0.7818608E-02  0.1471750E+00
          2   -1    0    0  502    0  0.00000000000E+00  0.00000000000E+00  0.10042466987E+04  0.10042466987E+04  0.00000000000E+00 0. -1.
          1   -1    0    0  501    0 -0.00000000000E+00 -0.00000000000E+00 -0.46015533245E+03  0.46015533245E+03  0.00000000000E+00 0. -1.
         25    2    1    2    0    0  0.74059620324E+02 -0.21593884182E+02  0.38041948798E+03  0.40779229394E+03  0.12499777986E+03 0.  0.
          2    1    1    2  501    0 -0.31888920098E+02  0.34243173960E+02 -0.44444489843E+03  0.44690129328E+03  0.00000000000E+00 0. -1.
          1    1    1    2  502    0 -0.42170700226E+02 -0.12649289779E+02  0.60811677670E+03  0.60970844393E+03  0.00000000000E+00 0. -1.
         22    1    3    3    0    0  0.86493557565E+01  0.42377826793E+01 -0.83292119921E+01  0.12733653421E+02  0.00000000000E+00 0. -1.
         22    1    3    3    0    0  0.65410264567E+02 -0.25831666861E+02  0.38874869997E+03  0.39505864052E+03  0.00000000000E+00 0. -1.
</event>
<event>
 7    1  0.6370239E-006  0.9003637E+02  0.7818608E-02  0.1332610E+00
          2   -1    0    0  502    0  0.00000000000E+00  0.00000000000E+00  0.18417001712E+04  0.18417001712E+04  0.00000000000E+00 0. -1.
          1   -1    0    0  501    0 -0.00000000000E+00 -0.00000000000E+00 -0.40643942780E+03  0.40643942780E+03  0.00000000000E+00 0. -1.
         25    2    1    2    0    0  0.11178561835E+02  0.10142479153E+03 -0.54543064668E+02  0.17032769176E+03  0.12499851238E+03 0.  0.
          2    1    1    2  501    0 -0.67415091973E+02 -0.61626225141E+02 -0.28622608109E+03  0.30044626100E+03  0.00000000000E+00 0. -1.
          1    1    1    2  502    0  0.56236530138E+02 -0.39798566388E+02  0.17760298892E+04  0.17773656463E+04  0.00000000000E+00 0. -1.
         22    1    3    3    0    0  0.17557050209E+02  0.79938166969E+02 -0.94192213202E+02  0.12478194412E+03  0.00000000000E+00 0.  1.
         22    1    3    3    0    0 -0.63784883744E+01  0.21486624560E+02  0.39649148535E+02  0.45545747644E+02  0.00000000000E+00 0.  1.
</event>
<event>
 7    1  0.6370239E-006  0.1397525E+03  0.7818608E-02  0.1373437E+00
          2   -1    0    0  502    0  0.00000000000E+00  0.00000000000E+00  0.52552652281E+03  0.52552652281E+03  0.00000000000E+00 0. -1.
          1   -1    0    0  501    0 -0.00000000000E+00 -0.00000000000E+00 -0.24104526983E+04  0.24104526983E+04  0.00000000000E+00 0. -1.
         25    2    1    2    0    0 -0.11987612828E+03  0.47937498127E+02 -0.10805751142E+04  0.10954158396E+04  0.12499997806E+03 0.  0.
          2    1    1    2  501    0 -0.18194623876E+02 -0.25564902696E+02 -0.13128261513E+04  0.13132010935E+04  0.00000000000E+00 0. -1.
          1    1    1    2  502    0  0.13807075216E+03 -0.22372595430E+02  0.50847508996E+03  0.52736228793E+03  0.00000000000E+00 0. -1.
         22    1    3    3    0    0 -0.84104674849E+02 -0.32488449661E+02 -0.61773455433E+03  0.62427964512E+03  0.00000000000E+00 0. -1.
         22    1    3    3    0    0 -0.35771453434E+02  0.80425947788E+02 -0.46284055983E+03  0.47113619452E+03  0.00000000000E+00 0. -1.
</event>
<event>
 7    1  0.6370239E-006  0.8031443E+02  0.7818608E-02  0.1341516E+00
          2   -1    0    0  502    0  0.00000000000E+00  0.00000000000E+00  0.16027260599E+04  0.16027260599E+04  0.00000000000E+00 0. -1.
          1   -1    0    0  501    0 -0.00000000000E+00 -0.00000000000E+00 -0.17504428508E+03  0.17504428508E+03  0.00000000000E+00 0. -1.
         25    2    1    2    0    0 -0.78528801732E+02 -0.44721842382E+02  0.44861531913E+03  0.47439203755E+03  0.12500113940E+03 0.  0.
          2    1    1    2  501    0  0.76214946517E+02 -0.26715433199E+02 -0.15090047578E+03  0.17115310700E+03  0.00000000000E+00 0. -1.
          1    1    1    2  502    0  0.23138552146E+01  0.71437275581E+02  0.11299669315E+04  0.11322252005E+04  0.00000000000E+00 0. -1.
         22    1    3    3    0    0 -0.92829771853E+02 -0.54828915025E+02  0.44310659331E+03  0.45603402230E+03  0.00000000000E+00 0. -1.
         22    1    3    3    0    0  0.14300970121E+02  0.10107072642E+02  0.55087258202E+01  0.18358015251E+02  0.00000000000E+00 0. -1.
</event>
<event>
 7    1  0.6370239E-006  0.6327544E+02  0.7818608E-02  0.1492646E+00
          2   -1    0    0  502    0  0.00000000000E+00  0.00000000000E+00  0.28731601785E+03  0.28731601785E+03  0.00000000000E+00 0. -1.
          1   -1    0    0  501    0 -0.00000000000E+00 -0.00000000000E+00 -0.10456983945E+04  0.10456983945E+04  0.00000000000E+00 0. -1.
         25    2    1    2    0    0  0.84649550224E+02  0.27839268792E+02 -0.57412571328E+02  0.16388660801E+03  0.12498818223E+03 0.  0.
          2    1    1    2  501    0 -0.61707930960E+02 -0.11545639985E+02 -0.93314463025E+03  0.93525401444E+03  0.00000000000E+00 0. -1.
          1    1    1    2  502    0 -0.22941619264E+02 -0.16293628807E+02  0.23217482497E+03  0.23387378987E+03  0.00000000000E+00 0. -1.
         22    1    3    3    0    0 -0.16592004594E+02  0.23884476374E+02 -0.55375166103E+02  0.62547356852E+02  0.00000000000E+00 0. -1.
         22    1    3    3    0    0  0.10124155482E+03  0.39547924177E+01 -0.20374052247E+01  0.10133925116E+03  0.00000000000E+00 0. -1.
</event>
<event>
 7    1  0.6829388E-006  0.1018476E+03  0.7818608E-02  0.1307231E+00
          2   -1    0    0  502    0  0.00000000000E+00  0.00000000000E+00  0.19735313713E+04  0.19735313713E+04  0.00000000000E+00 0. -1.
          1   -1    0    0  501    0 -0.00000000000E+00 -0.00000000000E+00 -0.74421153406E+03  0.74421153406E+03  0.00000000000E+00 0. -1.
         25    2    1    2    0    0  0.82711543344E+02  0.57653652568E+02 -0.71605991865E+02  0.17582867153E+03  0.12499264221E+03 0.  0.
          2    1    1    2  501    0 -0.10288371694E+03  0.16043526037E+02 -0.61535900811E+03  0.62410669184E+03  0.00000000000E+00 0. -1.
          1    1    1    2  502    0  0.20172173592E+02 -0.73697178605E+02  0.19162848372E+04  0.19178075420E+04  0.00000000000E+00 0. -1.
         22    1    3    3    0    0  0.40094866004E+02  0.78080526566E+02 -0.89441937406E+02  0.12531570961E+03  0.00000000000E+00 0.  1.
         22    1    3    3    0    0  0.42616677340E+02 -0.20426873998E+02  0.17835945541E+02  0.50512961922E+02  0.00000000000E+00 0.  1.
</event>
<event>
 7    1  0.6370239E-006  0.4509144E+02  0.7818608E-02  0.1553611E+00
          2   -1    0    0  502    0  0.00000000000E+00  0.00000000000E+00  0.92382135374E+02  0.92382135374E+02  0.00000000000E+00 0. -1.
          1   -1    0    0  501    0 -0.00000000000E+00 -0.00000000000E+00 -0.12151476397E+04  0.12151476397E+04  0.00000000000E+00 0. -1.
         25    2    1    2    0    0 -0.85456340205E+01 -0.33050014413E+02 -0.58562984084E+02  0.14219683421E+03  0.12499994096E+03 0.  0.
          2    1    1    2  501    0  0.23778228237E+02 -0.11256300396E+02 -0.11037245140E+04  0.11040380027E+04  0.00000000000E+00 0. -1.
          1    1    1    2  502    0 -0.15232594216E+02  0.44306314809E+02  0.39521993783E+02  0.61294938217E+02  0.00000000000E+00 0. -1.
         22    1    3    3    0    0  0.14521747686E+02  0.22849420384E+02  0.26463680343E+02  0.37858995563E+02  0.00000000000E+00 0.  1.
         22    1    3    3    0    0 -0.23067381707E+02 -0.55899434797E+02 -0.85026664427E+02  0.10433783864E+03  0.00000000000E+00 0.  1.
</event>
<event>
 7    1  0.6370239E-006  0.1374428E+03  0.7818608E-02  0.1287602E+00
          2   -1    0    0  502    0  0.00000000000E+00  0.00000000000E+00  0.11293880647E+03  0.11293880647E+03  0.00000000000E+00 0. -1.
          1   -1    0    0  501    0 -0.00000000000E+00 -0.00000000000E+00 -0.91674449549E+03  0.91674449549E+03  0.00000000000E+00 0. -1.
         25    2    1    2    0    0  0.10412061268E+03  0.51658673896E+02 -0.13853732764E+03  0.21983496550E+03  0.12500040133E+03 0.  0.
          2    1    1    2  501    0 -0.83547701942E+02 -0.11636787690E+03 -0.71274306692E+03  0.72699682305E+03  0.00000000000E+00 0. -1.
          1    1    1    2  502    0 -0.20572910737E+02  0.64709203003E+02  0.47474705541E+02  0.82851513418E+02  0.00000000000E+00 0. -1.
         22    1    3    3    0    0  0.95789103683E+02  0.99750067868E+01 -0.14772477825E+03  0.17634529552E+03  0.00000000000E+00 0. -1.
         22    1    3    3    0    0  0.83315089959E+01  0.41683667109E+02  0.91874506087E+01  0.43489669974E+02  0.00000000000E+00 0. -1.
</event>
<event>
 7    1  0.6370239E-006  0.5900045E+02  0.7818608E-02  0.1529934E+00
          2   -1    0    0  502    0  0.00000000000E+00  0.00000000000E+00  0.21489566515E+03  0.21489566515E+03  0.00000000000E+00 0. -1.
          1   -1    0    0  501    0 -0.00000000000E+00 -0.00000000000E+00 -0.14699549532E+04  0.14699549532E+04  0.00000000000E+00 0. -1.
         25    2    1    2    0    0  0.36319073217E+02 -0.20963824059E+02 -0.39620328225E+03  0.41756516832E+03  0.12500028770E+03 0.  0.
          2    1    1    2  501    0 -0.41778660600E+02  0.43767179617E+02 -0.10615333079E+04  0.10632563126E+04  0.00000000000E+00 0. -1.
          1    1    1    2  502    0  0.54595873836E+01 -0.22803355558E+02  0.20267730212E+03  0.20402913741E+03  0.00000000000E+00 0. -1.
         22    1    3    3    0    0  0.40178075693E+02 -0.12028446466E+02 -0.30805727452E+02  0.52038006636E+02  0.00000000000E+00 0.  1.
         22    1    3    3    0    0 -0.38590024765E+01 -0.89353775923E+01 -0.36539755480E+03  0.36552716168E+03  0.00000000000E+00 0.  1.
</event>
<event>
 7    1  0.6370239E-006  0.1578755E+03  0.7818608E-02  0.1302529E+00
          2   -1    0    0  502    0  0.00000000000E+00  0.00000000000E+00  0.11710936455E+04  0.11710936455E+04  0.00000000000E+00 0. -1.
          1   -1    0    0  501    0 -0.00000000000E+00 -0.00000000000E+00 -0.14997924502E+03  0.14997924502E+03  0.00000000000E+00 0. -1.
         25    2    1    2    0    0 -0.83308112400E+02 -0.79823817872E+02  0.12386555886E+03  0.21042403539E+03  0.12499405789E+03 0.  0.
          2    1    1    2  501    0 -0.22613137202E+02 -0.46223375794E+02 -0.93278832627E+02  0.10653119290E+03  0.00000000000E+00 0. -1.
          1    1    1    2  502    0  0.10592124960E+03  0.12604719367E+03  0.99052767429E+03  0.10041176623E+04  0.00000000000E+00 0. -1.
         22    1    3    3    0    0  0.21116116410E+02 -0.51911464175E+02  0.69957211721E+02  0.89636499022E+02  0.00000000000E+00 0. -1.
         22    1    3    3    0    0 -0.10442422881E+03 -0.27912353696E+02  0.53908347144E+02  0.12078753637E+03  0.00000000000E+00 0. -1.
</event>
<event>
 7    1  0.6925587E-006  0.1931463E+03  0.7818608E-02  0.1335562E+00
          2   -1    0    0  502    0  0.00000000000E+00  0.00000000000E+00  0.13907098561E+04  0.13907098561E+04  0.00000000000E+00 0. -1.
          1   -1    0    0  501    0 -0.00000000000E+00 -0.00000000000E+00 -0.16086482872E+04  0.16086482872E+04  0.00000000000E+00 0. -1.
         25    2    1    2    0    0 -0.83424364818E+02 -0.20319694196E+03 -0.76293897778E+03  0.80371007626E+03  0.12500152401E+03 0.  0.
          2    1    1    2  501    0 -0.37160071063E+01  0.31076071844E+02 -0.81823291637E+03  0.81883126246E+03  0.00000000000E+00 0. -1.
          1    1    1    2  502    0  0.87140371924E+02  0.17212087012E+03  0.13632334631E+04  0.13768168045E+04  0.00000000000E+00 0. -1.
         22    1    3    3    0    0 -0.14550204793E+02 -0.15577399287E+03 -0.60615291221E+03  0.62601804950E+03  0.00000000000E+00 0.  1.
         22    1    3    3    0    0 -0.68874160025E+02 -0.47422949088E+02 -0.15678606556E+03  0.17769202676E+03  0.00000000000E+00 0.  1.
</event>
<event>
 7    1  0.6370239E-006  0.5914710E+02  0.7818608E-02  0.1424605E+00
          2   -1    0    0  502    0  0.00000000000E+00  0.00000000000E+00  0.33562748952E+03  0.33562748952E+03  0.00000000000E+00 0. -1.
          1   -1    0    0  501    0 -0.00000000000E+00 -0.00000000000E+00 -0.36324482277E+03  0.36324482277E+03  0.00000000000E+00 0. -1.
         25    2    1    2    0    0 -0.18584856758E+02 -0.88403836267E+02 -0.81905309600E+02  0.17462947291E+03  0.12500535149E+03 0.  0.
          2    1    1    2  501    0 -0.17638125641E+02  0.54803464307E+02 -0.22928264358E+03  0.23640019844E+03  0.00000000000E+00 0. -1.
          1    1    1    2  502    0  0.36222982399E+02  0.33600371960E+02  0.28357061993E+03  0.28784264093E+03  0.00000000000E+00 0. -1.
         22    1    3    3    0    0  0.54568467354E+01 -0.10802118021E+03 -0.92005035621E+02  0.14199746170E+03  0.00000000000E+00 0.  1.
         22    1    3    3    0    0 -0.24041703493E+02  0.19617343940E+02  0.10099726022E+02  0.32632011213E+02  0.00000000000E+00 0.  1.
</event>
<event>
 7    1  0.6370239E-006  0.1532229E+03  0.7818608E-02  0.1212829E+00
          2   -1    0    0  502    0  0.00000000000E+00  0.00000000000E+00  0.35461941212E+03  0.35461941212E+03  0.00000000000E+00 0. -1.
          1   -1    0    0  501    0 -0.00000000000E+00 -0.00000000000E+00 -0.39213300556E+03  0.39213300556E+03  0.00000000000E+00 0. -1.
         25    2    1    2    0    0 -0.65787895574E+02 -0.11999067695E+02 -0.29345056314E+01  0.14179340264E+03  0.12499893151E+03 0.  0.
          2    1    1    2  501    0 -0.12408017597E+03 -0.33792213028E+02 -0.27000345426E+03  0.29906465696E+03  0.00000000000E+00 0. -1.
          1    1    1    2  502    0  0.18986807154E+03  0.45791280723E+02  0.23542436646E+03  0.30589435808E+03  0.00000000000E+00 0. -1.
         22    1    3    3    0    0  0.19148340001E+02 -0.20126415688E+02 -0.40053866829E+02  0.48744679517E+02  0.00000000000E+00 0.  1.
         22    1    3    3    0    0 -0.84936235576E+02  0.81273479932E+01  0.37119361198E+02  0.93048723123E+02  0.00000000000E+00 0.  1.
</event>
<event>
 7    1  0.6370239E-006  0.5463951E+02  0.7818608E-02  0.1443192E+00
          2   -1    0    0  502    0  0.00000000000E+00  0.00000000000E+00  0.23473795174E+04  0.23473795174E+04  0.00000000000E+00 0. -1.
          1   -1    0    0  501    0 -0.00000000000E+00 -0.00000000000E+00 -0.82063733305E+03  0.82063733305E+03  0.00000000000E+00 0. -1.
         25    2    1    2    0    0 -0.61639123589E+02  0.70459839012E+02  0.14150938122E+03  0.21076024279E+03  0.12502401568E+03 0.  0.
          2    1    1    2  501    0  0.14029689766E+02 -0.44323277544E+02 -0.78498440295E+03  0.78635990361E+03  0.00000000000E+00 0. -1.
          1    1    1    2  502    0  0.47609433823E+02 -0.26136561467E+02  0.21702172061E+04  0.21708967041E+04  0.00000000000E+00 0. -1.
         22    1    3    3    0    0 -0.97429981385E+02  0.51011718206E+02  0.12582134015E+03  0.16711016218E+03  0.00000000000E+00 0.  1.
         22    1    3    3    0    0  0.35790857796E+02  0.19448120806E+02  0.15688041069E+02  0.43650080609E+02  0.00000000000E+00 0.  1.
</event>
<event>
 7    1  0.6370239E-006  0.1449211E+03  0.7818608E-02  0.1408817E+00
          2   -1    0    0  502    0  0.00000000000E+00  0.00000000000E+00  0.18762227375E+03  0.18762227375E+03  0.00000000000E+00 0. -1.
          1   -1    0    0  501    0 -0.00000000000E+00 -0.00000000000E+00 -0.12450043738E+04  0.12450043738E+04  0.00000000000E+00 0. -1.
         25    2    1    2    0    0 -0.13224490134E+03 -0.45664738726E+02 -0.94151803703E+02  0.20991327141E+03  0.12500014831E+03 0.  0.
          2    1    1    2  501    0  0.24884867677E+01 -0.22644932299E+02 -0.10513748185E+04  0.10516216023E+04  0.00000000000E+00 0. -1.
          1    1    1    2  502    0  0.12975641457E+03  0.68309671025E+02  0.88144522147E+02  0.17109177380E+03  0.00000000000E+00 0. -1.
         22    1    3    3    0    0 -0.74332458035E+02 -0.71565818966E+02 -0.10307599230E+03  0.14584800633E+03  0.00000000000E+00 0. -1.
         22    1    3    3    0    0 -0.57912443308E+02  0.25901080239E+02  0.89241885973E+01  0.64065265078E+02  0.00000000000E+00 0. -1.
</event>
<event>
 7    1  0.6370239E-006  0.1344164E+03  0.7818608E-02  0.1264591E+00
          2   -1    0    0  502    0  0.00000000000E+00  0.00000000000E+00  0.96092716062E+03  0.96092716062E+03  0.00000000000E+00 0. -1.
          1   -1    0    0  501    0 -0.00000000000E+00 -0.00000000000E+00 -0.60829063756E+03  0.60829063756E+03  0.00000000000E+00 0. -1.
         25    2    1    2    0    0 -0.11174258787E+03  0.23951395792E+02 -0.39282058223E+03  0.42777728030E+03  0.12500126564E+03 0.  0.
          2    1    1    2  501    0  0.19249307009E+03  0.71845638154E+01 -0.14855034280E+03  0.24325378586E+03  0.00000000000E+00 0. -1.
          1    1    1    2  502    0 -0.80750482217E+02 -0.31135959607E+02  0.89400744809E+03  0.89818673203E+03  0.00000000000E+00 0. -1.
         22    1    3    3    0    0 -0.13803437857E+03  0.82394738565E+01 -0.30876657478E+03  0.33831668049E+03  0.00000000000E+00 0.  1.
         22    1    3    3    0    0  0.26291790703E+02  0.15711921935E+02 -0.84054007455E+02  0.89460599811E+02  0.00000000000E+00 0.  1.
</event>
<event>
 7    1  0.6370239E-006  0.2299960E+03  0.7818608E-02  0.1170939E+00
          2   -1    0    0  502    0  0.00000000000E+00  0.00000000000E+00  0.65825366800E+03  0.65825366800E+03  0.00000000000E+00 0. -1.
          1   -1    0    0  501    0 -0.00000000000E+00 -0.00000000000E+00 -0.44299213293E+03  0.44299213293E+03  0.00000000000E+00 0. -1.
         25    2    1    2    0    0 -0.23823759927E+03 -0.10382346210E+03  0.30369693911E+03  0.41879969873E+03  0.12499956736E+03 0.  0.
          2    1    1    2  501    0  0.13217267371E+03  0.18879559283E+03 -0.33163444610E+03  0.40384996890E+03  0.00000000000E+00 0. -1.
          1    1    1    2  502    0  0.10606492556E+03 -0.84972130721E+02  0.24319904205E+03  0.27859613330E+03  0.00000000000E+00 0. -1.
         22    1    3    3    0    0 -0.41642619747E+02 -0.42417982395E+02  0.10300249067E+02  0.60328170374E+02  0.00000000000E+00 0. -1.
         22    1    3    3    0    0 -0.19659497952E+03 -0.61405479710E+02  0.29339669005E+03  0.35847152835E+03  0.00000000000E+00 0. -1.
</event>
<event>
 7    1  0.6370239E-006  0.1284389E+03  0.7818608E-02  0.1292780E+00
          2   -1    0    0  502    0  0.00000000000E+00  0.00000000000E+00  0.13757719188E+04  0.13757719188E+04  0.00000000000E+00 0. -1.
          1   -1    0    0  501    0 -0.00000000000E+00 -0.00000000000E+00 -0.40222286465E+03  0.40222286465E+03  0.00000000000E+00 0. -1.
         25    2    1    2    0    0  0.10706767809E+03 -0.10389459238E+03  0.50191605142E+03  0.53833258366E+03  0.12499869577E+03 0.  0.
          2    1    1    2  501    0 -0.67309434445E+02 -0.16160856497E+02 -0.37616613752E+03  0.38248228229E+03  0.00000000000E+00 0. -1.
          1    1    1    2  502    0 -0.39758243648E+02  0.12005544887E+03  0.84779914029E+03  0.85717991753E+03  0.00000000000E+00 0. -1.
         22    1    3    3    0    0  0.56051378547E+02 -0.12213257455E+03  0.29034684965E+03  0.31993658106E+03  0.00000000000E+00 0.  1.
         22    1    3    3    0    0  0.51016299546E+02  0.18237982174E+02  0.21156920177E+03  0.21839600260E+03  0.00000000000E+00 0.  1.
</event>
<event>
 7    1  0.6370239E-006  0.9328535E+02  0.7818608E-02  0.1355923E+00
          2   -1    0    0  502    0  0.00000000000E+00  0.00000000000E+00  0.12726145056E+04  0.12726145056E+04  0.00000000000E+00 0. -1.
          1   -1    0    0  501    0 -0.00000000000E+00 -0.00000000000E+00 -0.29253297069E+02  0.29253297069E+02  0.00000000000E+00 0. -1.
         25    2    1    2    0    0 -0.24158959099E+02  0.54439823322E+02  0.48392948846E+03  0.50334817973E+03  0.12499716223E+03 0.  0.
          2    1    1    2  501    0  0.12270651427E+02  0.53004319423E+02  0.32040381937E+02  0.63139629700E+02  0.00000000000E+00 0. -1.
          1    1    1    2  502    0  0.11888307672E+02 -0.10744414274E+03  0.72739133813E+03  0.73537999324E+03  0.00000000000E+00 0. -1.
         22    1    3    3    0    0 -0.57792252545E+01  0.71219048480E+02  0.46881965357E+03  0.47423350776E+03  0.00000000000E+00 0.  1.
         22    1    3    3    0    0 -0.18379733845E+02 -0.16779225158E+02  0.15109834888E+02  0.29114671962E+02  0.00000000000E+00 0.  1.
</event>
<event>
 7    1  0.6370239E-006  0.9039172E+02  0.7818608E-02  0.1402591E+00
          2   -1    0    0  502    0  0.00000000000E+00  0.00000000000E+00  0.53563463452E+03  0.53563463452E+03  0.00000000000E+00 0. -1.
          1   -1    0    0  501    0 -0.00000000000E+00 -0.00000000000E+00 -0.41371600747E+03  0.41371600747E+03  0.00000000000E+00 0. -1.
         25    2    1    2    0    0 -0.11433097160E+03  0.32000928415E+02  0.35696908396E+02  0.17605229989E+03  0.12499805014E+03 0.  0.
          2    1    1    2  501    0  0.36733135887E+02  0.11032910563E+02 -0.33786162784E+03  0.34003165728E+03  0.00000000000E+00 0. -1.
          1    1    1    2  502    0  0.77597835716E+02 -0.43033838978E+02  0.42408334649E+03  0.43326668482E+03  0.00000000000E+00 0. -1.
         22    1    3    3    0    0 -0.20106284322E+02 -0.32366823972E+02 -0.26192659237E+02  0.46237748228E+02  0.00000000000E+00 0. -1.
         22    1    3    3    0    0 -0.94224687281E+02  0.64367752387E+02  0.61889567633E+02  0.12981455166E+03  0.00000000000E+00 0. -1.
</event>
<event>
 7    1  0.6370239E-006  0.9027551E+02  0.7818608E-02  0.1403457E+00
          2   -1    0    0  502    0  0.00000000000E+00  0.00000000000E+00  0.17877410610E+04  0.17877410610E+04  0.00000000000E+00 0. -1.
          1   -1    0    0  501    0 -0.00000000000E+00 -0.00000000000E+00 -0.57919764560E+03  0.57919764560E+03  0.00000000000E+00 0. -1.
         25    2    1    2    0    0  0.93989495165E+02  0.57891020478E+01  0.10800849357E+03  0.19015362447E+03  0.12500010925E+03 0.  0.
          2    1    1    2  501    0 -0.80332604648E+02 -0.41402724641E+02 -0.53410660904E+03  0.54169860882E+03  0.00000000000E+00 0. -1.
          1    1    1    2  502    0 -0.13656890517E+02  0.35613622593E+02  0.16346415309E+04  0.16350864734E+04  0.00000000000E+00 0. -1.
         22    1    3    3    0    0  0.63474947871E+02 -0.11439129224E+02  0.13252510399E+03  0.14738665432E+03  0.00000000000E+00 0. -1.
         22    1    3    3    0    0  0.30514547294E+02  0.17228231272E+02 -0.24516610419E+02  0.42766970150E+02  0.00000000000E+00 0. -1.
</event>
<event>
 7    1  0.6370239E-006  0.1534472E+03  0.7818608E-02  0.1279618E+00
          2   -1    0    0  502    0  0.00000000000E+00  0.00000000000E+00  0.32267890166E+03  0.32267890166E+03  0.00000000000E+00 0. -1.
          1   -1    0    0  501    0 -0.00000000000E+00 -0.00000000000E+00 -0.20924346792E+04  0.20924346792E+04  0.00000000000E+00 0. -1.
         25    2    1    2    0    0 -0.45691828529E+02 -0.20082250341E+03 -0.58358851381E+03  0.63136195128E+03  0.12499975599E+03 0.  0.
          2    1    1    2  501    0 -0.18222075159E+02  0.63008952783E+02 -0.14648690075E+04  0.14663367216E+04  0.00000000000E+00 0. -1.
          1    1    1    2  502    0  0.63913903688E+02  0.13781355063E+03  0.27870174374E+03  0.31741490795E+03  0.00000000000E+00 0. -1.
         22    1    3    3    0    0 -0.32301816508E+02 -0.12602709078E+03 -0.18853250392E+03  0.22906492528E+03  0.00000000000E+00 0.  1.
         22    1    3    3    0    0 -0.13390012021E+02 -0.74795412633E+02 -0.39505600989E+03  0.40229702600E+03  0.00000000000E+00 0.  1.
</event>
<event>
 7    1  0.6370239E-006  0.5865078E+02  0.7818608E-02  0.1477473E+00
          2   -1    0    0  502    0  0.00000000000E+00  0.00000000000E+00  0.26589048362E+02  0.26589048362E+02  0.00000000000E+00 0. -1.
          1   -1    0    0  501    0 -0.00000000000E+00 -0.00000000000E+00 -0.62147740542E+03  0.62147740542E+03  0.00000000000E+00 0. -1.
         25    2    1    2    0    0 -0.51657550872E+00  0.80898542720E+02 -0.26782760569E+03  0.30643324905E+03  0.12499947476E+03 0.  0.
          2    1    1    2  501    0  0.12381177736E+02 -0.31414991222E+02 -0.22574591152E+03  0.22825733680E+03  0.00000000000E+00 0. -1.
          1    1    1    2  502    0 -0.11864602228E+02 -0.49483551498E+02 -0.10131483985E+03  0.11337586793E+03  0.00000000000E+00 0. -1.
         22    1    3    3    0    0  0.39691887999E+01 -0.25611461341E+02 -0.10620037603E+02  0.28008688124E+02  0.00000000000E+00 0. -1.
         22    1    3    3    0    0 -0.44857643086E+01  0.10651000406E+03 -0.25720756809E+03  0.27842456093E+03  0.00000000000E+00 0. -1.
</event>
<event>
 7    1  0.6370239E-006  0.6046834E+02  0.7818608E-02  0.1408200E+00
          2   -1    0    0  502    0  0.00000000000E+00  0.00000000000E+00  0.20262108053E+03  0.20262108053E+03  0.00000000000E+00 0. -1.
          1   -1    0    0  501    0 -0.00000000000E+00 -0.00000000000E+00 -0.54014411581E+03  0.54014411581E+03  0.00000000000E+00 0. -1.
         25    2    1    2    0    0 -0.33975126167E+02 -0.84064819850E+02 -0.33915028258E+02  0.15810518251E+03  0.12500326580E+03 0.  0.
          2    1    1    2  501    0  0.50857740258E+02  0.31864248247E+02 -0.43664733055E+03  0.44075246038E+03  0.00000000000E+00 0. -1.
          1    1    1    2  502    0 -0.16882614091E+02  0.52200571603E+02  0.13303932352E+03  0.14390755344E+03  0.00000000000E+00 0. -1.
         22    1    3    3    0    0 -0.64829236569E+02 -0.28520168711E+01 -0.29036278585E+02  0.71091978369E+02  0.00000000000E+00 0. -1.
         22    1    3    3    0    0  0.30854110402E+02 -0.81212802979E+02 -0.48787496730E+01  0.87013204141E+02  0.00000000000E+00 0. -1.
</event>
<event>
 7    1  0.6370239E-006  0.3821149E+02  0.7818608E-02  0.1623506E+00
          2   -1    0    0  502    0  0.00000000000E+00  0.00000000000E+00  0.10960732146E+04  0.10960732146E+04  0.00000000000E+00 0. -1.
          1   -1    0    0  501    0 -0.00000000000E+00 -0.00000000000E+00 -0.29440248637E+03  0.29440248637E+03  0.00000000000E+00 0. -1.
         25    2    1    2    0    0 -0.89325835233E+01  0.15935326333E+02  0.58227937064E+03  0.59582555134E+03  0.12500038592E+03 0.  0.
          2    1    1    2  501    0  0.22704791634E+02 -0.30788452974E+02 -0.28615370452E+03  0.28869946140E+03  0.00000000000E+00 0. -1.
          1    1    1    2  502    0 -0.13772208110E+02  0.14853126641E+02  0.50554506212E+03  0.50595068823E+03  0.00000000000E+00 0. -1.
         22    1    3    3    0    0 -0.31409002304E+02  0.39583378317E+02  0.54030571598E+03  0.54266346476E+03  0.00000000000E+00 0.  1.
         22    1    3    3    0    0  0.22476418780E+02 -0.23648051983E+02  0.41973654660E+02  0.53162086578E+02  0.00000000000E+00 0.  1.
</event>
<event>
 7    1  0.6370239E-006  0.4135711E+02  0.7818608E-02  0.1500235E+00
          2   -1    0    0  502    0  0.00000000000E+00  0.00000000000E+00  0.55323414724E+03  0.55323414724E+03  0.00000000000E+00 0. -1.
          1   -1    0    0  501    0 -0.00000000000E+00 -0.00000000000E+00 -0.32819460601E+03  0.32819460601E+03  0.00000000000E+00 0. -1.
         25    2    1    2    0    0  0.63422882497E+02 -0.15564222980E+02 -0.47787374706E+02  0.14891992865E+03  0.12501521870E+03 0.  0.
          2    1    1    2  501    0 -0.25895649890E+02  0.31712477029E+02 -0.22717789884E+03  0.23083774302E+03  0.00000000000E+00 0. -1.
          1    1    1    2  502    0 -0.37527232606E+02 -0.16148254050E+02  0.50000481477E+03  0.50167108158E+03  0.00000000000E+00 0. -1.
         22    1    3    3    0    0  0.62167447701E+02 -0.69175318655E+01  0.30887337302E+02  0.69761532426E+02  0.00000000000E+00 0. -1.
         22    1    3    3    0    0  0.12554347958E+01 -0.86466911140E+01 -0.78674712008E+02  0.79158396228E+02  0.00000000000E+00 0. -1.
</event>
<event>
 7    1  0.6370239E-006  0.5553046E+02  0.7818608E-02  0.1458033E+00
          2   -1    0    0  502    0  0.00000000000E+00  0.00000000000E+00  0.16114287387E+03  0.16114287387E+03  0.00000000000E+00 0. -1.
          1   -1    0    0  501    0 -0.00000000000E+00 -0.00000000000E+00 -0.28079445253E+03  0.28079445253E+03  0.00000000000E+00 0. -1.
         25    2    1    2    0    0  0.26304199234E+02 -0.60514972734E+01  0.22956101961E+02  0.12992207619E+03  0.12499692695E+03 0.  0.
          2    1    1    2  501    0 -0.50369622723E+02 -0.27155980574E+02 -0.21843611101E+03  0.22580717608E+03  0.00000000000E+00 0. -1.
          1    1    1    2  502    0  0.24065423489E+02  0.33207477847E+02  0.75828430384E+02  0.86208074142E+02  0.00000000000E+00 0. -1.
         22    1    3    3    0    0 -0.19471764149E+02  0.50883399873E+02  0.14507191303E+02  0.56380214448E+02  0.00000000000E+00 0.  1.
         22    1    3    3    0    0  0.45775963383E+02 -0.56934897146E+02  0.84489106581E+01  0.73541861739E+02  0.00000000000E+00 0.  1.
</event>
<event>
 7    1  0.6370239E-006  0.7566543E+02  0.7818608E-02  0.1449435E+00
          2   -1    0    0  502    0  0.00000000000E+00  0.00000000000E+00  0.66436647597E+02  0.66436647597E+02  0.00000000000E+00 0. -1.
          1   -1    0    0  501    0 -0.00000000000E+00 -0.00000000000E+00 -0.44276274852E+03  0.44276274852E+03  0.00000000000E+00 0. -1.
         25    2    1    2    0    0  0.17220054883E+02 -0.99302202188E+02 -0.17831619578E+03  0.23995635948E+03  0.12499972452E+03 0.  0.
          2    1    1    2  501    0 -0.15695743471E+02  0.27949347536E+02 -0.19520437349E+03  0.19781878025E+03  0.00000000000E+00 0. -1.
          1    1    1    2  502    0 -0.15243114118E+01  0.71352854652E+02 -0.28055316603E+01  0.71424256385E+02  0.00000000000E+00 0. -1.
         22    1    3    3    0    0  0.11552872596E+02  0.13419690188E+02 -0.10243737238E+03  0.10395658810E+03  0.00000000000E+00 0.  1.
         22    1    3    3    0    0  0.56671822871E+01 -0.11272189238E+03 -0.75878823399E+02  0.13599977138E+03  0.00000000000E+00 0.  1.
</event>
<event>
 7    1  0.6370239E-006  0.9803849E+02  0.7818608E-02  0.1454286E+00
          2   -1    0    0  502    0  0.00000000000E+00  0.00000000000E+00  0.18338103668E+03  0.18338103668E+03  0.00000000000E+00 0. -1.
          1   -1    0    0  501    0 -0.00000000000E+00 -0.00000000000E+00 -0.24115810216E+04  0.24115810216E+04  0.00000000000E+00 0. -1.
         25    2    1    2    0    0  0.56139663290E+02 -0.82289060198E+02 -0.32486320763E+03  0.36205583268E+03  0.12500068433E+03 0.  0.
          2    1    1    2  501    0 -0.34295332962E+02  0.91920867506E+02 -0.20660866062E+04  0.20684147264E+04  0.00000000000E+00 0. -1.
          1    1    1    2  502    0 -0.21844330328E+02 -0.96318073081E+01  0.16274982898E+03  0.16449149921E+03  0.00000000000E+00 0. -1.
         22    1    3    3    0    0 -0.38706180139E+02 -0.34416968830E+02 -0.82244750653E+02  0.97195139459E+02  0.00000000000E+00 0.  1.
         22    1    3    3    0    0  0.94845843429E+02 -0.47872091368E+02 -0.24261845698E+03  0.26486069322E+03  0.00000000000E+00 0.  1.
</event>
<event>
 7    1  0.6370239E-006  0.1510175E+03  0.7818608E-02  0.1318231E+00
          2   -1    0    0  502    0  0.00000000000E+00  0.00000000000E+00  0.13705086224E+04  0.13705086224E+04  0.00000000000E+00 0. -1.
          1   -1    0    0  501    0 -0.00000000000E+00 -0.00000000000E+00 -0.67346929567E+03  0.67346929567E+03  0.00000000000E+00 0. -1.
         25    2    1    2    0    0 -0.14588270675E+03  0.11424076871E+03  0.17889770296E+03  0.28629100275E+03  0.12500173105E+03 0.  0.
          2    1    1    2  501    0  0.15419033187E+02 -0.44033506492E+02 -0.61406159769E+03  0.61583142339E+03  0.00000000000E+00 0. -1.
          1    1    1    2  502    0  0.13046367357E+03 -0.70207262219E+02  0.11322032214E+04  0.11418554919E+04  0.00000000000E+00 0. -1.
         22    1    3    3    0    0 -0.12630605713E+03  0.12888846496E+03  0.10574152807E+03  0.20915718306E+03  0.00000000000E+00 0. -1.
         22    1    3    3    0    0 -0.19576649627E+02 -0.14647696250E+02  0.73156174885E+02  0.77133819690E+02  0.00000000000E+00 0. -1.
</event>
<event>
 7    1  0.6370239E-006  0.1156695E+03  0.7818608E-02  0.1276311E+00
          2   -1    0    0  502    0  0.00000000000E+00  0.00000000000E+00  0.19569511294E+03  0.19569511294E+03  0.00000000000E+00 0. -1.
          1   -1    0    0  501    0 -0.00000000000E+00 -0.00000000000E+00 -0.54291175864E+03  0.54291175864E+03  0.00000000000E+00 0. -1.
         25    2    1    2    0    0  0.12724698429E+03 -0.72256889099E+02 -0.24994279036E+02  0.19406829731E+03  0.12499974802E+03 0.  0.
          2    1    1    2  501    0 -0.83663402745E+02 -0.32637000663E+02 -0.39799208003E+03  0.40799808154E+03  0.00000000000E+00 0. -1.
          1    1    1    2  502    0 -0.43583581545E+02  0.10489388976E+03  0.75769713365E+02  0.13654049272E+03  0.00000000000E+00 0. -1.
         22    1    3    3    0    0  0.13350632577E+03 -0.39404240061E+02 -0.54481130490E+02  0.14948186089E+03  0.00000000000E+00 0.  1.
         22    1    3    3    0    0 -0.62593414772E+01 -0.32852649038E+02  0.29486851454E+02  0.44586436427E+02  0.00000000000E+00 0.  1.
</event>
<event>
 7    1  0.6370239E-006  0.1144564E+03  0.7818608E-02  0.1343415E+00
          2   -1    0    0  502    0  0.00000000000E+00  0.00000000000E+00  0.35095050658E+03  0.35095050658E+03  0.00000000000E+00 0. -1.
          1   -1    0    0  501    0 -0.00000000000E+00 -0.00000000000E+00 -0.65435043537E+03  0.65435043537E+03  0.00000000000E+00 0. -1.
         25    2    1    2    0    0  0.79474966114E+02  0.48242489908E+02  0.14961216728E+03  0.21599268892E+03  0.12500173199E+03 0.  0.
          2    1    1    2  501    0 -0.11453488187E+03 -0.13527818549E+02 -0.61203531722E+03  0.62280692880E+03  0.00000000000E+00 0. -1.
          1    1    1    2  502    0  0.35059915761E+02 -0.34714671358E+02  0.15902322116E+03  0.16650132422E+03  0.00000000000E+00 0. -1.
         22    1    3    3    0    0  0.35138475477E+02  0.91548022571E+01 -0.16347611010E+02  0.39821693195E+02  0.00000000000E+00 0. -1.
         22    1    3    3    0    0  0.44336490637E+02  0.39087687651E+02  0.16595977828E+03  0.17617099573E+03  0.00000000000E+00 0. -1.
</event>
<event>
 7    1  0.6370239E-006  0.5063986E+02  0.7818608E-02  0.1496356E+00
          2   -1    0    0  502    0  0.00000000000E+00  0.00000000000E+00  0.84164317455E+03  0.84164317455E+03  0.00000000000E+00 0. -1.
          1   -1    0    0  501    0 -0.00000000000E+00 -0.00000000000E+00 -0.40341281166E+02  0.40341281166E+02  0.00000000000E+00 0. -1.
         25    2    1    2    0    0  0.72307442852E+02  0.36794280217E+02  0.44816849700E+03  0.47229423592E+03  0.12499863288E+03 0.  0.
          2    1    1    2  501    0 -0.31013771831E+02 -0.14576460065E+02 -0.15837793324E+02  0.37751330156E+02  0.00000000000E+00 0. -1.
          1    1    1    2  502    0 -0.41293671021E+02 -0.22217820152E+02  0.36897118971E+03  0.37193888965E+03  0.00000000000E+00 0. -1.
         22    1    3    3    0    0 -0.28788420179E+02  0.12474439933E+02  0.38651819776E+02  0.49783008749E+02  0.00000000000E+00 0.  1.
         22    1    3    3    0    0  0.10109586303E+03  0.24319840284E+02  0.40951667723E+03  0.42251122717E+03  0.00000000000E+00 0.  1.
</event>
<event>
 7    1  0.6370239E-006  0.1390423E+03  0.7818608E-02  0.1250444E+00
          2   -1    0    0  502    0  0.00000000000E+00  0.00000000000E+00  0.27857804614E+04  0.27857804614E+04  0.00000000000E+00 0. -1.
          1   -1    0    0  501    0 -0.00000000000E+00 -0.00000000000E+00 -0.35641470987E+04  0.35641470987E+04  0.00000000000E+00 0. -1.
         25    2    1    2    0    0 -0.18049105750E+03 -0.12652827248E+03  0.20739422986E+03  0.32745070749E+03  0.12500069472E+03 0.  0.
          2    1    1    2  501    0  0.93966428115E+02  0.20609223693E+02 -0.35016008687E+04  0.35029220764E+04  0.00000000000E+00 0. -1.
          1    1    1    2  502    0  0.86524629381E+02  0.10591904878E+03  0.25158400016E+04  0.25195547761E+04  0.00000000000E+00 0. -1.
         22    1    3    3    0    0 -0.71058003264E+02 -0.12265281772E+03  0.95678142072E+02  0.17101830426E+03  0.00000000000E+00 0. -1.
         22    1    3    3    0    0 -0.10943305423E+03 -0.38754547598E+01  0.11171608779E+03  0.15643240323E+03  0.00000000000E+00 0. -1.
</event>
<event>
 7    1  0.6370239E-006  0.3500540E+02  0.7818608E-02  0.1573151E+00
          2   -1    0    0  502    0  0.00000000000E+00  0.00000000000E+00  0.39853637160E+03  0.39853637160E+03  0.00000000000E+00 0. -1.
          1   -1    0    0  501    0 -0.00000000000E+00 -0.00000000000E+00 -0.38432893434E+03  0.38432893434E+03  0.00000000000E+00 0. -1.
         25    2    1    2    0    0  0.22392913977E+02 -0.12935805358E+02  0.21338187980E+03  0.24863768565E+03  0.12498037624E+03 0.  0.
          2    1    1    2  501    0 -0.17908646023E+02 -0.24014188414E+02 -0.36401067252E+03  0.36524124980E+03  0.00000000000E+00 0. -1.
          1    1    1    2  502    0 -0.44842679535E+01  0.36949993772E+02  0.16483622998E+03  0.16898637049E+03  0.00000000000E+00 0. -1.
         22    1    3    3    0    0  0.68916350626E+02 -0.33337645722E+02  0.12024030040E+03  0.14254329815E+03  0.00000000000E+00 0. -1.
         22    1    3    3    0    0 -0.46523436649E+02  0.20401840364E+02  0.93141579396E+02  0.10609438751E+03  0.00000000000E+00 0. -1.
</event>
<event>
 7    1  0.6370239E-006  0.7059154E+02  0.7818608E-02  0.1363474E+00
          2   -1    0    0  502    0  0.00000000000E+00  0.00000000000E+00  0.21078974092E+04  0.21078974092E+04  0.00000000000E+00 0. -1.
          1   -1    0    0  501    0 -0.00000000000E+00 -0.00000000000E+00 -0.23162128415E+03  0.23162128415E+03  0.00000000000E+00 0. -1.
         25    2    1    2    0    0  0.62560863812E+02  0.90494785088E+02 -0.51615328298E+02  0.17431599817E+03  0.12497502669E+03 0.  0.
          2    1    1    2  501    0  0.40250748176E+01 -0.67354203252E+02 -0.10840372344E+03  0.12768773308E+03  0.00000000000E+00 0. -1.
          1    1    1    2  502    0 -0.66585938630E+02 -0.23140581836E+02  0.20362951768E+04  0.20375149621E+04  0.00000000000E+00 0. -1.
         22    1    3    3    0    0  0.60693696611E+02  0.90680021104E+02 -0.86584621472E+02  0.13929640236E+03  0.00000000000E+00 0.  1.
         22    1    3    3    0    0  0.18671672010E+01 -0.18523601594E+00  0.34969293174E+02  0.35019595812E+02  0.00000000000E+00 0.  1.
</event>
<event>
 7    1  0.6370239E-006  0.9184379E+02  0.7818608E-02  0.1439606E+00
          2   -1    0    0  502    0  0.00000000000E+00  0.00000000000E+00  0.73430029575E+03  0.73430029575E+03  0.00000000000E+00 0. -1.
          1   -1    0    0  501    0 -0.00000000000E+00 -0.00000000000E+00 -0.48587662294E+03  0.48587662294E+03  0.00000000000E+00 0. -1.
         25    2    1    2    0    0 -0.23037676602E+02 -0.60533121324E+02  0.15457760407E+03  0.20908035617E+03  0.12500146533E+03 0.  0.
          2    1    1    2  501    0  0.26166518862E+02  0.88768075925E+02 -0.45358465265E+03  0.46292925500E+03  0.00000000000E+00 0. -1.
          1    1    1    2  502    0 -0.31288422594E+01 -0.28234954601E+02  0.54743072139E+03  0.54816730752E+03  0.00000000000E+00 0. -1.
         22    1    3    3    0    0  0.14145481967E+02 -0.75334768438E+01  0.14228100293E+03  0.14318076591E+03  0.00000000000E+00 0.  1.
         22    1    3    3    0    0 -0.37183158570E+02 -0.52999644480E+02  0.12296601143E+02  0.65899590256E+02  0.00000000000E+00 0.  1.
</event>
<event>
 7    1  0.6370239E-006  0.1600214E+03  0.7818608E-02  0.1294700E+00
          2   -1    0    0  502    0  0.00000000000E+00  0.00000000000E+00  0.61974675303E+03  0.61974675303E+03  0.00000000000E+00 0. -1.
          1   -1    0    0  501    0 -0.00000000000E+00 -0.00000000000E+00 -0.66560354941E+03  0.66560354941E+03  0.00000000000E+00 0. -1.
         25    2    1    2    0    0  0.19311106474E+03 -0.55939915382E+02  0.19206431717E+03  0.30485203359E+03  0.12499961200E+03 0.  0.
          2    1    1    2  501    0 -0.15781139285E+03  0.14316323752E+02 -0.59680757001E+03  0.61748576377E+03  0.00000000000E+00 0. -1.
          1    1    1    2  502    0 -0.35299671887E+02  0.41623591630E+02  0.35888645646E+03  0.36301250508E+03  0.00000000000E+00 0. -1.
         22    1    3    3    0    0  0.20673111256E+01 -0.14848797922E+02  0.76223907296E+02  0.77684262361E+02  0.00000000000E+00 0.  1.
         22    1    3    3    0    0  0.19104375361E+03 -0.41091117460E+02  0.11584040987E+03  0.22716777123E+03  0.00000000000E+00 0.  1.
</event>
<event>
 7    1  0.6370239E-006  0.7432880E+02  0.7818608E-02  0.1446536E+00
          2   -1    0    0  502    0  0.00000000000E+00  0.00000000000E+00  0.23845879149E+03  0.23845879149E+03  0.00000000000E+00 0. -1.
          1   -1    0    0  501    0 -0.00000000000E+00 -0.00000000000E+00 -0.24533161693E+04  0.24533161693E+04  0.00000000000E+00 0. -1.
         25    2    1    2    0    0  0.92547509807E+02 -0.13442829520E+02 -0.42965294177E+03  0.45712502260E+03  0.12496353342E+03 0.  0.
          2    1    1    2  501    0 -0.72429065222E+02 -0.13140522536E+02 -0.20080126225E+04  0.20093614246E+04  0.00000000000E+00 0. -1.
          1    1    1    2  502    0 -0.20118444585E+02  0.26583352056E+02  0.22280818641E+03  0.22528851357E+03  0.00000000000E+00 0. -1.
         22    1    3    3    0    0  0.60008507865E+02 -0.11129299477E+02 -0.41808088617E+03  0.42251214148E+03  0.00000000000E+00 0.  1.
         22    1    3    3    0    0  0.32539001942E+02 -0.23135300433E+01 -0.11572055600E+02  0.34612881121E+02  0.00000000000E+00 0.  1.
</event>
<event>
 7    1  0.6370239E-006  0.1579463E+03  0.7818608E-02  0.1268443E+00
          2   -1    0    0  502    0  0.00000000000E+00  0.00000000000E+00  0.27789971744E+03  0.27789971744E+03  0.00000000000E+00 0. -1.
          1   -1    0    0  501    0 -0.00000000000E+00 -0.00000000000E+00 -0.64758020162E+03  0.64758020162E+03  0.00000000000E+00 0. -1.
         25    2    1    2    0    0 -0.74239257558E+02  0.66521005831E+02 -0.11487857270E+03  0.19686176971E+03  0.12498383227E+03 0.  0.
          2    1    1    2  501    0 -0.40419660153E+02  0.58304130561E+02 -0.45831197557E+03  0.46377040388E+03  0.00000000000E+00 0. -1.
          1    1    1    2  502    0  0.11465891771E+03 -0.12482513639E+03  0.20351006410E+03  0.26484774546E+03  0.00000000000E+00 0. -1.
         22    1    3    3    0    0 -0.51774103599E+02 -0.26043353261E+02 -0.17257800864E+02  0.60470205417E+02  0.00000000000E+00 0.  1.
         22    1    3    3    0    0 -0.22465153959E+02  0.92564359092E+02 -0.97620771840E+02  0.13639156430E+03  0.00000000000E+00 0.  1.
</event>
<event>
 7    1  0.6370239E-006  0.2019191E+03  0.7818608E-02  0.1316881E+00
          2   -1    0    0  502    0  0.00000000000E+00  0.00000000000E+00  0.13119459588E+04  0.13119459588E+04  0.00000000000E+00 0. -1.
          1   -1    0    0  501    0 -0.00000000000E+00 -0.00000000000E+00 -0.96024095680E+03  0.96024095680E+03  0.00000000000E+00 0. -1.
         25    2    1    2    0    0  0.91295072404E+02  0.14934266041E+03  0.56208178124E+02  0.22231160703E+03  0.12500028347E+03 0.  0.
          2    1    1    2  501    0 -0.12418529148E+03 -0.16221374017E+03 -0.86502233105E+03  0.88881883269E+03  0.00000000000E+00 0. -1.
          1    1    1    2  502    0  0.32890219079E+02  0.12871079759E+02  0.11605191549E+04  0.11610564759E+04  0.00000000000E+00 0. -1.
         22    1    3    3    0    0  0.11029114869E+02 -0.77413982071E+01 -0.24779198810E+02  0.28206015576E+02  0.00000000000E+00 0.  1.
         22    1    3    3    0    0  0.80265957535E+02  0.15708405862E+03  0.80987376934E+02  0.19410559145E+03  0.00000000000E+00 0.  1.
</event>
<event>
 7    1  0.6370239E-006  0.1716394E+03  0.7818608E-02  0.1317616E+00
          2   -1    0    0  502    0  0.00000000000E+00  0.00000000000E+00  0.77452576283E+03  0.77452576283E+03  0.00000000000E+00 0. -1.
          1   -1    0    0  501    0 -0.00000000000E+00 -0.00000000000E+00 -0.20299020496E+03  0.20299020496E+03  0.00000000000E+00 0. -1.
         25    2    1    2    0    0  0.51815272195E+02  0.13276624136E+03  0.18346460518E+03  0.26381045669E+03  0.12499999371E+03 0.  0.
          2    1    1    2  501    0  0.47928472921E+01  0.40997458999E+02 -0.14469473381E+03  0.15046703633E+03  0.00000000000E+00 0. -1.
          1    1    1    2  502    0 -0.56608119487E+02 -0.17376370035E+03  0.53276568650E+03  0.56323847477E+03  0.00000000000E+00 0. -1.
         22    1    3    3    0    0 -0.26721424527E+02  0.38169769208E+02  0.46770864452E+01  0.46827779659E+02  0.00000000000E+00 0. -1.
         22    1    3    3    0    0  0.78536696722E+02  0.94596472147E+02  0.17878751874E+03  0.21698267703E+03  0.00000000000E+00 0. -1.
</event>
<event>
 7    1  0.6370239E-006  0.1179066E+03  0.7818608E-02  0.1251567E+00
          2   -1    0    0  502    0  0.00000000000E+00  0.00000000000E+00  0.26069746438E+04  0.26069746438E+04  0.00000000000E+00 0. -1.
          1   -1    0    0  501    0 -0.00000000000E+00 -0.00000000000E+00 -0.16073069834E+03  0.16073069834E+03  0.00000000000E+00 0. -1.
         25    2    1    2    0    0  0.53102799737E+01  0.42444900494E+02  0.39879082621E+03  0.42010587008E+03  0.12500020142E+03 0.  0.
          2    1    1    2  501    0  0.11783280078E+03 -0.41704972760E+01 -0.12470342929E+03  0.17161849336E+03  0.00000000000E+00 0. -1.
          1    1    1    2  502    0 -0.12314308075E+03 -0.38274403218E+02  0.21721565486E+04  0.21759809787E+04  0.00000000000E+00 0. -1.
         22    1    3    3    0    0 -0.17212185568E+02  0.20072318877E+02  0.74383340736E+01  0.27467910931E+02  0.00000000000E+00 0.  1.
         22    1    3    3    0    0  0.22522465541E+02  0.22372581617E+02  0.39135249214E+03  0.39263795915E+03  0.00000000000E+00 0.  1.
</event>
<event>
 7    1  0.6370239E-006  0.6864562E+02  0.7818608E-02  0.1383131E+00
          2   -1    0    0  502    0  0.00000000000E+00  0.00000000000E+00  0.71723807515E+03  0.71723807515E+03  0.00000000000E+00 0. -1.
          1   -1    0    0  501    0 -0.00000000000E+00 -0.00000000000E+00 -0.14771624626E+04  0.14771624626E+04  0.00000000000E+00 0. -1.
         25    2    1    2    0    0 -0.47022522223E+02  0.37936648915E+02  0.81993321479E+02  0.16123044321E+03  0.12498817594E+03 0.  0.
          2    1    1    2  501    0  0.49378340698E+02  0.32318104399E+02 -0.14348612612E+04  0.14360743432E+04  0.00000000000E+00 0. -1.
          1    1    1    2  502    0 -0.23558184750E+01 -0.70254753315E+02  0.59294355218E+03  0.59709575138E+03  0.00000000000E+00 0. -1.
         22    1    3    3    0    0 -0.47840636790E+02 -0.39003827314E+02  0.32725803415E+02  0.69864177393E+02  0.00000000000E+00 0.  1.
         22    1    3    3    0    0  0.81811456664E+00  0.76940476229E+02  0.49267518064E+02  0.91366265821E+02  0.00000000000E+00 0.  1.
</event>
<event>
 7    1  0.6370239E-006  0.5891731E+02  0.7818608E-02  0.1443464E+00
          2   -1    0    0  502    0  0.00000000000E+00  0.00000000000E+00  0.50593153329E+03  0.50593153329E+03  0.00000000000E+00 0. -1.
          1   -1    0    0  501    0 -0.00000000000E+00 -0.00000000000E+00 -0.88230271552E+03  0.88230271552E+03  0.00000000000E+00 0. -1.
         25    2    1    2    0    0 -0.40989840698E+01  0.98073539361E-01  0.32486497046E+03  0.34810999632E+03  0.12500603672E+03 0.  0.
          2    1    1    2  501    0 -0.54867081087E+02 -0.21467490802E+02 -0.86383843593E+03  0.86584530555E+03  0.00000000000E+00 0. -1.
          1    1    1    2  502    0  0.58966065157E+02  0.21369417263E+02  0.16260228323E+03  0.17427894694E+03  0.00000000000E+00 0. -1.
         22    1    3    3    0    0  0.19775179769E+02  0.13595816971E+02  0.31920576012E+03  0.32010657799E+03  0.00000000000E+00 0.  1.
         22    1    3    3    0    0 -0.23874163839E+02 -0.13497743432E+02  0.56592103399E+01  0.28003418335E+02  0.00000000000E+00 0.  1.
</event>
<event>
 7    1  0.6370239E-006  0.3414176E+02  0.7818608E-02  0.1590675E+00
          2   -1    0    0  502    0  0.00000000000E+00  0.00000000000E+00  0.96894052658E+03  0.96894052658E+03  0.00000000000E+00 0. -1.
          1   -1    0    0  501    0 -0.00000000000E+00 -0.00000000000E+00 -0.68154478237E+03  0.68154478237E+03  0.00000000000E+00 0. -1.
         25    2    1    2    0    0 -0.64536137523E+01 -0.34831692061E+02 -0.14595116100E+03  0.19540171939E+03  0.12500077856E+03 0.  0.
          2    1    1    2  501    0  0.26602467140E+02  0.72473520236E+01 -0.51018702105E+03  0.51093151382E+03  0.00000000000E+00 0. -1.
          1    1    1    2  502    0 -0.20148853388E+02  0.27584340038E+02  0.94353392627E+03  0.94415207574E+03  0.00000000000E+00 0. -1.
         22    1    3    3    0    0  0.36481965529E+02 -0.61182744914E+02 -0.11788061523E+03  0.13773199168E+03  0.00000000000E+00 0. -1.
         22    1    3    3    0    0 -0.42935579281E+02  0.26351052853E+02 -0.28070545774E+02  0.57669727715E+02  0.00000000000E+00 0. -1.
</event>
<event>
 7    1  0.6370239E-006  0.2266268E+02  0.7818608E-02  0.1703312E+00
          2   -1    0    0  502    0  0.00000000000E+00  0.00000000000E+00  0.28702152836E+03  0.28702152836E+03  0.00000000000E+00 0. -1.
          1   -1    0    0  501    0 -0.00000000000E+00 -0.00000000000E+00 -0.65533141302E+03  0.65533141302E+03  0.00000000000E+00 0. -1.
         25    2    1    2    0    0  0.18696726469E+02 -0.38893139866E+02  0.61864355017E+02  0.14599590611E+03  0.12500144908E+03 0.  0.
          2    1    1    2  501    0 -0.48078025593E+01  0.21386486670E+02 -0.61238693229E+03  0.61277912139E+03  0.00000000000E+00 0. -1.
          1    1    1    2  502    0 -0.13888923910E+02  0.17506653197E+02  0.18221269261E+03  0.18357791387E+03  0.00000000000E+00 0. -1.
         22    1    3    3    0    0  0.48743542208E+02 -0.70719790618E+02  0.54196051492E+02  0.10156000044E+03  0.00000000000E+00 0.  1.
         22    1    3    3    0    0 -0.30046815739E+02  0.31826650752E+02  0.76683035246E+01  0.44435905674E+02  0.00000000000E+00 0.  1.
</event>
<event>
 7    1  0.6370239E-006  0.1205543E+03  0.7818608E-02  0.1266796E+00
          2   -1    0    0  502    0  0.00000000000E+00  0.00000000000E+00  0.25111669208E+04  0.25111669208E+04  0.00000000000E+00 0. -1.
          1   -1    0    0  501    0 -0.00000000000E+00 -0.00000000000E+00 -0.50454815154E+03  0.50454815154E+03  0.00000000000E+00 0. -1.
         25    2    1    2    0    0  0.42833070455E+02  0.16402556610E+03  0.10882369463E+03  0.23707862567E+03  0.12499847991E+03 0.  0.
          2    1    1    2  501    0 -0.87805983335E+02 -0.80973263062E+02 -0.43134772521E+03  0.44757951258E+03  0.00000000000E+00 0. -1.
          1    1    1    2  502    0  0.44972912881E+02 -0.83052303034E+02  0.23291427998E+04  0.23310569341E+04  0.00000000000E+00 0. -1.
         22    1    3    3    0    0 -0.31620777488E+02  0.96824819256E+02  0.21515769931E+02  0.10410498330E+03  0.00000000000E+00 0. -1.
         22    1    3    3    0    0  0.74453847942E+02  0.67200746840E+02  0.87307924700E+02  0.13297364237E+03  0.00000000000E+00 0. -1.
</event>
<event>
 7    1  0.6370239E-006  0.5835135E+02  0.7818608E-02  0.1452702E+00
          2   -1    0    0  502    0  0.00000000000E+00  0.00000000000E+00  0.35495156082E+03  0.35495156082E+03  0.00000000000E+00 0. -1.
          1   -1    0    0  501    0 -0.00000000000E+00 -0.00000000000E+00 -0.18428115958E+04  0.18428115958E+04  0.00000000000E+00 0. -1.
         25    2    1    2    0    0 -0.76850436333E+02 -0.30227441170E+02  0.47546123624E+02  0.15717767701E+03  0.12499800204E+03 0.  0.
          2    1    1    2  501    0  0.38570015848E+02  0.43691967010E+02 -0.17858875886E+04  0.17868383008E+04  0.00000000000E+00 0. -1.
          1    1    1    2  502    0  0.38280420484E+02 -0.13464525840E+02  0.25048142993E+03  0.25374717888E+03  0.00000000000E+00 0. -1.
         22    1    3    3    0    0 -0.29879467598E+02 -0.20626327900E+02 -0.42053354897E+02  0.55558191517E+02  0.00000000000E+00 0.  1.
         22    1    3    3    0    0 -0.46970968734E+02 -0.96011132700E+01  0.89599478521E+02  0.10161948549E+03  0.00000000000E+00 0.  1.
</event>
<event>
 7    1  0.6370239E-006  0.5111414E+02  0.7818608E-02  0.1511686E+00
          2   -1    0    0  502    0  0.00000000000E+00  0.00000000000E+00  0.34750301506E+04  0.34750301506E+04  0.00000000000E+00 0. -1.
          1   -1    0    0  501    0 -0.00000000000E+00 -0.00000000000E+00 -0.23212183814E+02  0.23212183814E+02  0.00000000000E+00 0. -1.
         25    2    1    2    0    0 -0.77637834936E+02 -0.20220723749E+02  0.75261988165E+03  0.76713608996E+03  0.12499833271E+03 0.  0.
          2    1    1    2  501    0  0.30398506706E+02  0.32696796396E+01 -0.85592360614E+00  0.30585823842E+02  0.00000000000E+00 0. -1.
          1    1    1    2  502    0  0.47239328230E+02  0.16951044109E+02  0.27000540088E+04  0.27005204206E+04  0.00000000000E+00 0. -1.
         22    1    3    3    0    0 -0.59121291787E+02 -0.70761744219E+02  0.53954487777E+03  0.54736754262E+03  0.00000000000E+00 0. -1.
         22    1    3    3    0    0 -0.18516543149E+02  0.50541020470E+02  0.21307500388E+03  0.21976854734E+03  0.00000000000E+00 0. -1.
</event>
<event>
 7    1  0.6370239E-006  0.5779132E+02  0.7818608E-02  0.1415939E+00
          2   -1    0    0  502    0  0.00000000000E+00  0.00000000000E+00  0.12525855583E+04  0.12525855583E+04  0.00000000000E+00 0. -1.
          1   -1    0    0  501    0 -0.00000000000E+00 -0.00000000000E+00 -0.57081990141E+03  0.57081990141E+03  0.00000000000E+00 0. -1.
         25    2    1    2    0    0 -0.44444111144E+01  0.49610945066E+01  0.28579601481E+02  0.12839780232E+03  0.12499934708E+03 0.  0.
          2    1    1    2  501    0 -0.54026850504E+02 -0.15813598649E+01 -0.51877547650E+03  0.52158354680E+03  0.00000000000E+00 0. -1.
          1    1    1    2  502    0  0.58471261618E+02 -0.33797346418E+01  0.11719615319E+04  0.11734241106E+04  0.00000000000E+00 0. -1.
         22    1    3    3    0    0  0.12694211641E+02  0.52524736792E+02  0.49877719949E+02  0.73537595361E+02  0.00000000000E+00 0. -1.
         22    1    3    3    0    0 -0.17138622755E+02 -0.47563642285E+02 -0.21298118467E+02  0.54860206959E+02  0.00000000000E+00 0. -1.
</event>
<event>
 7    1  0.6370239E-006  0.9222006E+02  0.7818608E-02  0.1469531E+00
          2   -1    0    0  502    0  0.00000000000E+00  0.00000000000E+00  0.55634972068E+03  0.55634972068E+03  0.00000000000E+00 0. -1.
          1   -1    0    0  501    0 -0.00000000000E+00 -0.00000000000E+00 -0.15729359063E+03  0.15729359063E+03  0.00000000000E+00 0. -1.
         25    2    1    2    0    0 -0.77968833473E+02 -0.40683193718E+02  0.20307425890E+03  0.25416016133E+03  0.12499588687E+03 0.  0.
          2    1    1    2  501    0  0.90173994388E+02  0.21512738467E+02 -0.11497687745E+03  0.14769505587E+03  0.00000000000E+00 0. -1.
          1    1    1    2  502    0 -0.12205160915E+02  0.19170455251E+02  0.31095874859E+03  0.31178809412E+03  0.00000000000E+00 0. -1.
         22    1    3    3    0    0 -0.93855440651E+02 -0.68170465547E+02  0.12852441931E+03  0.17313169112E+03  0.00000000000E+00 0.  1.
         22    1    3    3    0    0  0.15886607178E+02  0.27487271830E+02  0.74549839598E+02  0.81028470209E+02  0.00000000000E+00 0.  1.
</event>
<event>
 7    1  0.6370239E-006  0.6047938E+02  0.7818608E-02  0.1462370E+00
          2   -1    0    0  502    0  0.00000000000E+00  0.00000000000E+00  0.19099240884E+04  0.19099240884E+04  0.00000000000E+00 0. -1.
          1   -1    0    0  501    0 -0.00000000000E+00 -0.00000000000E+00 -0.16503010487E+04  0.16503010487E+04  0.00000000000E+00 0. -1.
         25    2    1    2    0    0  0.10484838067E+02 -0.69057884694E+02  0.12717404295E+03  0.19151215435E+03  0.12499897918E+03 0.  0.
          2    1    1    2  501    0  0.23484130004E+02  0.55737104064E+02 -0.16173765599E+04  0.16185070483E+04  0.00000000000E+00 0. -1.
          1    1    1    2  502    0 -0.33968968071E+02  0.13320780630E+02  0.17498255566E+04  0.17502059343E+04  0.00000000000E+00 0. -1.
         22    1    3    3    0    0 -0.59050283572E+01 -0.99713378082E+02  0.61770501535E+02  0.11744454857E+03  0.00000000000E+00 0. -1.
         22    1    3    3    0    0  0.16389866424E+02  0.30655493388E+02  0.65403541415E+02  0.74067605780E+02  0.00000000000E+00 0. -1.
</event>
<event>
 7    1  0.6370239E-006  0.1185302E+03  0.7818608E-02  0.1258686E+00
          2   -1    0    0  502    0  0.00000000000E+00  0.00000000000E+00  0.47448162191E+03  0.47448162191E+03  0.00000000000E+00 0. -1.
          1   -1    0    0  501    0 -0.00000000000E+00 -0.00000000000E+00 -0.36465116058E+03  0.36465116058E+03  0.00000000000E+00 0. -1.
         25    2    1    2    0    0 -0.38879178992E+02  0.19518707551E+03  0.25145590954E+02  0.23636280276E+03  0.12500195509E+03 0.  0.
          2    1    1    2  501    0 -0.23129020499E+02 -0.10138725155E+03 -0.23871352008E+03  0.26038139533E+03  0.00000000000E+00 0. -1.
          1    1    1    2  502    0  0.62008199491E+02 -0.93799823965E+02  0.32339839046E+03  0.34238858440E+03  0.00000000000E+00 0. -1.
         22    1    3    3    0    0 -0.48366286165E+02  0.44957984494E+02  0.51248678782E+02  0.83587948199E+02  0.00000000000E+00 0. -1.
         22    1    3    3    0    0  0.94871071730E+01  0.15022909102E+03 -0.26103087827E+02  0.15277485456E+03  0.00000000000E+00 0. -1.
</event>
<event>
 7    1  0.6370239E-006  0.1223117E+03  0.7818608E-02  0.1242888E+00
          2   -1    0    0  502    0  0.00000000000E+00  0.00000000000E+00  0.11705146839E+03  0.11705146839E+03  0.00000000000E+00 0. -1.
          1   -1    0    0  501    0 -0.00000000000E+00 -0.00000000000E+00 -0.72197042563E+03  0.72197042563E+03  0.00000000000E+00 0. -1.
         25    2    1    2    0    0 -0.21527921671E+02  0.59054633615E+01 -0.35029292841E+03  0.37259347124E+03  0.12498973242E+03 0.  0.
          2    1    1    2  501    0 -0.10911655699E+03 -0.44866791571E+02 -0.30030476134E+03  0.32264903794E+03  0.00000000000E+00 0. -1.
          1    1    1    2  502    0  0.13064447866E+03  0.38961328209E+02  0.45678732510E+02  0.14377938484E+03  0.00000000000E+00 0. -1.
         22    1    3    3    0    0 -0.16303571645E+02  0.44433132314E+02 -0.31952625132E+03  0.32301259260E+03  0.00000000000E+00 0. -1.
         22    1    3    3    0    0 -0.52243500253E+01 -0.38527668953E+02 -0.30766677093E+02  0.49580878647E+02  0.00000000000E+00 0. -1.
</event>
<event>
 7    1  0.6370239E-006  0.4997269E+02  0.7818608E-02  0.1497788E+00
          2   -1    0    0  502    0  0.00000000000E+00  0.00000000000E+00  0.15949656085E+04  0.15949656085E+04  0.00000000000E+00 0. -1.
          1   -1    0    0  501    0 -0.00000000000E+00 -0.00000000000E+00 -0.13549246589E+04  0.13549246589E+04  0.00000000000E+00 0. -1.
         25    2    1    2    0    0 -0.48332768148E+01 -0.18928665791E+02  0.99454567191E+03  0.10025595234E+04  0.12499139739E+03 0.  0.
          2    1    1    2  501    0 -0.13175124996E+02  0.48220469092E+02 -0.13499591598E+04  0.13508843513E+04  0.00000000000E+00 0. -1.
          1    1    1    2  502    0  0.18008401811E+02 -0.29291803300E+02  0.59545443745E+03  0.59644639269E+03  0.00000000000E+00 0. -1.
         22    1    3    3    0    0  0.22693200236E+02 -0.61913085504E+02  0.74092265562E+03  0.74385119017E+03  0.00000000000E+00 0.  1.
         22    1    3    3    0    0 -0.27526477051E+02  0.42984419713E+02  0.25362301629E+03  0.25870833320E+03  0.00000000000E+00 0.  1.
</event>
<event>
 7    1  0.6370239E-006  0.3319863E+02  0.7818608E-02  0.1638662E+00
          2   -1    0    0  502    0  0.00000000000E+00  0.00000000000E+00  0.13939652398E+04  0.13939652398E+04  0.00000000000E+00 0. -1.
          1   -1    0    0  501    0 -0.00000000000E+00 -0.00000000000E+00 -0.55192669906E+02  0.55192669906E+02  0.00000000000E+00 0. -1.
         25    2    1    2    0    0  0.44790213348E+02 -0.27262753358E+01  0.28171676133E+03  0.31145289495E+03  0.12499990548E+03 0.  0.
          2    1    1    2  501    0 -0.16200759708E+02 -0.13917372238E+02 -0.37228964671E+02  0.42920317748E+02  0.00000000000E+00 0. -1.
          1    1    1    2  502    0 -0.28589453640E+02  0.16643647574E+02  0.10942847732E+04  0.10947846970E+04  0.00000000000E+00 0. -1.
         22    1    3    3    0    0  0.34134569005E+02  0.38779529145E+02  0.38346281440E+02  0.64338619679E+02  0.00000000000E+00 0.  1.
         22    1    3    3    0    0  0.10655644343E+02 -0.41505804481E+02  0.24337047989E+03  0.24711427527E+03  0.00000000000E+00 0.  1.
</event>
<event>
 7    1  0.6370239E-006  0.6310980E+02  0.7818608E-02  0.1442770E+00
          2   -1    0    0  502    0  0.00000000000E+00  0.00000000000E+00  0.16367876165E+04  0.16367876165E+04  0.00000000000E+00 0. -1.
          1   -1    0    0  501    0 -0.00000000000E+00 -0.00000000000E+00 -0.30075675391E+04  0.30075675391E+04  0.00000000000E+00 0. -1.
         25    2    1    2    0    0  0.78124365491E+01 -0.37029311621E+02  0.12433125711E+03  0.18032010885E+03  0.12499950431E+03 0.  0.
          2    1    1    2  501    0 -0.34445129854E+02 -0.21068299063E+02 -0.29787483272E+04  0.29790219766E+04  0.00000000000E+00 0. -1.
          1    1    1    2  502    0  0.26632693305E+02  0.58097610683E+02  0.14836371476E+04  0.14850130701E+04  0.00000000000E+00 0. -1.
         22    1    3    3    0    0  0.34423308220E+02 -0.74993095749E+02  0.65113016422E+02  0.10511248007E+03  0.00000000000E+00 0. -1.
         22    1    3    3    0    0 -0.26610871671E+02  0.37963784128E+02  0.59218240688E+02  0.75207628779E+02  0.00000000000E+00 0. -1.
</event>
<event>
 7    1  0.6370239E-006  0.7447857E+02  0.7818608E-02  0.1416989E+00
          2   -1    0    0  502    0  0.00000000000E+00  0.00000000000E+00  0.24022960993E+03  0.24022960993E+03  0.00000000000E+00 0. -1.
          1   -1    0    0  501    0 -0.00000000000E+00 -0.00000000000E+00 -0.53307291764E+03  0.53307291764E+03  0.00000000000E+00 0. -1.
         25    2    1    2    0    0 -0.65151022212E+02  0.73816064837E+02  0.11379349758E+03  0.19562017787E+03  0.12499930710E+03 0.  0.
          2    1    1    2  501    0  0.66801609624E+02 -0.32247821024E+02 -0.48410269466E+03  0.48975279069E+03  0.00000000000E+00 0. -1.
          1    1    1    2  502    0 -0.16505874123E+01 -0.41568243813E+02  0.77465889365E+02  0.87929559010E+02  0.00000000000E+00 0. -1.
         22    1    3    3    0    0 -0.12153760698E+02  0.52266952669E+02 -0.14126354845E+02  0.55489657970E+02  0.00000000000E+00 0.  1.
         22    1    3    3    0    0 -0.52997261514E+02  0.21549112168E+02  0.12791985243E+03  0.14013051990E+03  0.00000000000E+00 0.  1.
</event>
<event>
 7    1  0.6370239E-006  0.1107341E+03  0.7818608E-02  0.1289310E+00
          2   -1    0    0  502    0  0.00000000000E+00  0.00000000000E+00  0.41655492039E+03  0.41655492039E+03  0.00000000000E+00 0. -1.
          1   -1    0    0  501    0 -0.00000000000E+00 -0.00000000000E+00 -0.57438064757E+03  0.57438064757E+03  0.00000000000E+00 0. -1.
         25    2    1    2    0    0  0.23605094918E+02  0.12383641596E+03 -0.90537170880E+02  0.19926720509E+03  0.12497112183E+03 0.  0.
          2    1    1    2  501    0  0.63141113816E+02 -0.53776309576E+02 -0.41671178374E+03  0.42488516382E+03  0.00000000000E+00 0. -1.
          1    1    1    2  502    0 -0.86746208734E+02 -0.70060106380E+02  0.34942322743E+03  0.36678319905E+03  0.00000000000E+00 0. -1.
         22    1    3    3    0    0 -0.25144395490E+02  0.12567714754E+03 -0.72520510296E+02  0.14726238641E+03  0.00000000000E+00 0. -1.
         22    1    3    3    0    0  0.48749490408E+02 -0.18407315822E+01 -0.18016660584E+02  0.52004818684E+02  0.00000000000E+00 0. -1.
</event>
<event>
 7    1  0.6370239E-006  0.6933457E+02  0.7818608E-02  0.1444385E+00
          2   -1    0    0  502    0  0.00000000000E+00  0.00000000000E+00  0.52692353912E+03  0.52692353912E+03  0.00000000000E+00 0. -1.
          1   -1    0    0  501    0 -0.00000000000E+00 -0.00000000000E+00 -0.59644960544E+03  0.59644960544E+03  0.00000000000E+00 0. -1.
         25    2    1    2    0    0  0.15831128811E+02  0.77928456558E+02 -0.33722185831E+02  0.15194255580E+03  0.12500354181E+03 0.  0.
          2    1    1    2  501    0  0.27425609557E+02 -0.23801861496E+02 -0.50039008285E+03  0.50170601719E+03  0.00000000000E+00 0. -1.
          1    1    1    2  502    0 -0.43256738367E+02 -0.54126595062E+02  0.46458620236E+03  0.46972457156E+03  0.00000000000E+00 0. -1.
         22    1    3    3    0    0  0.53105617920E+02  0.51375392470E+01 -0.44474378736E+02  0.69459134231E+02  0.00000000000E+00 0. -1.
         22    1    3    3    0    0 -0.37274489110E+02  0.72790917311E+02  0.10752192905E+02  0.82483421568E+02  0.00000000000E+00 0. -1.
</event>
<event>
 7    1  0.6370239E-006  0.1272283E+03  0.7818608E-02  0.1397336E+00
          2   -1    0    0  502    0  0.00000000000E+00  0.00000000000E+00  0.46617962523E+03  0.46617962523E+03  0.00000000000E+00 0. -1.
          1   -1    0    0  501    0 -0.00000000000E+00 -0.00000000000E+00 -0.22839485700E+03  0.22839485700E+03  0.00000000000E+00 0. -1.
         25    2    1    2    0    0  0.40900451535E+02 -0.10116023959E+03 -0.21448118472E+02  0.16726375201E+03  0.12494358704E+03 0.  0.
          2    1    1    2  501    0 -0.60479867462E+02  0.12174233541E+03 -0.98865429467E+02  0.16808742887E+03  0.00000000000E+00 0. -1.
          1    1    1    2  502    0  0.19579415927E+02 -0.20582095819E+02  0.35809831616E+03  0.35922330135E+03  0.00000000000E+00 0. -1.
         22    1    3    3    0    0  0.47832334475E+02 -0.69135101533E+02 -0.69517773609E+02  0.10908856646E+03  0.00000000000E+00 0.  1.
         22    1    3    3    0    0 -0.69318829397E+01 -0.32025138057E+02  0.48069655137E+02  0.58175185549E+02  0.00000000000E+00 0.  1.
</event>
<event>
 7    1  0.6370239E-006  0.3855680E+02  0.7818608E-02  0.1527651E+00
          2   -1    0    0  502    0  0.00000000000E+00  0.00000000000E+00  0.11263330705E+04  0.11263330705E+04  0.00000000000E+00 0. -1.
          1   -1    0    0  501    0 -0.00000000000E+00 -0.00000000000E+00 -0.17837221553E+04  0.17837221553E+04  0.00000000000E+00 0. -1.
         25    2    1    2    0    0 -0.17264473186E+02 -0.25179268842E+02  0.26851593333E+02  0.13144462552E+03  0.12499849559E+03 0.  0.
          2    1    1    2  501    0  0.38357911150E+02 -0.45175538555E+01 -0.17308933809E+04  0.17313242428E+04  0.00000000000E+00 0. -1.
          1    1    1    2  502    0 -0.21093437965E+02  0.29696822698E+02  0.10466527027E+04  0.10472863575E+04  0.00000000000E+00 0. -1.
         22    1    3    3    0    0 -0.39637069480E+02 -0.61485978657E+02  0.44125907735E+02  0.85432538191E+02  0.00000000000E+00 0.  1.
         22    1    3    3    0    0  0.22372596294E+02  0.36306709815E+02 -0.17274314402E+02  0.46012087331E+02  0.00000000000E+00 0.  1.
</event>
<event>
 7    1  0.6370239E-006  0.1537808E+03  0.7818608E-02  0.1239287E+00
          2   -1    0    0  502    0  0.00000000000E+00  0.00000000000E+00  0.26519098118E+04  0.26519098118E+04  0.00000000000E+00 0. -1.
          1   -1    0    0  501    0 -0.00000000000E+00 -0.00000000000E+00 -0.13905078780E+04  0.13905078780E+04  0.00000000000E+00 0. -1.
         25    2    1    2    0    0 -0.14201693644E+03 -0.19972075891E+03  0.11797135100E+03  0.29933369593E+03  0.12500492024E+03 0.  0.
          2    1    1    2  501    0  0.10508295738E+03  0.10967506583E+03 -0.12944150586E+04  0.13032963562E+04  0.00000000000E+00 0. -1.
          1    1    1    2  502    0  0.36933979058E+02  0.90045693086E+02  0.24378456415E+04  0.24397876377E+04  0.00000000000E+00 0. -1.
         22    1    3    3    0    0 -0.16299950852E+03 -0.16898471887E+03  0.85266605505E+02  0.24979004985E+03  0.00000000000E+00 0. -1.
         22    1    3    3    0    0  0.20982572083E+02 -0.30736040041E+02  0.32704745494E+02  0.49543646075E+02  0.00000000000E+00 0. -1.
</event>
<event>
 7    1  0.6370239E-006  0.2064424E+03  0.7818608E-02  0.1284350E+00
          2   -1    0    0  502    0  0.00000000000E+00  0.00000000000E+00  0.63968910978E+03  0.63968910978E+03  0.00000000000E+00 0. -1.
          1   -1    0    0  501    0 -0.00000000000E+00 -0.00000000000E+00 -0.37792825734E+03  0.37792825734E+03  0.00000000000E+00 0. -1.
         25    2    1    2    0    0  0.11359698463E+03  0.22055522691E+03  0.21239167026E+03  0.34969147187E+03  0.12500008345E+03 0.  0.
          2    1    1    2  501    0 -0.94393579346E+02 -0.17808118569E+03 -0.27459516413E+03  0.34062524962E+03  0.00000000000E+00 0. -1.
          1    1    1    2  502    0 -0.19203405285E+02 -0.42474041224E+02  0.32396434631E+03  0.32730064563E+03  0.00000000000E+00 0. -1.
         22    1    3    3    0    0  0.72050376991E+02  0.22477396131E+03  0.17995594640E+03  0.29681430753E+03  0.00000000000E+00 0.  1.
         22    1    3    3    0    0  0.41546607640E+02 -0.42187343951E+01  0.32435723858E+02  0.52877164338E+02  0.00000000000E+00 0.  1.
</event>
<event>
 7    1  0.6370239E-006  0.8173007E+02  0.7818608E-02  0.1460339E+00
          2   -1    0    0  502    0  0.00000000000E+00  0.00000000000E+00  0.48539483288E+03  0.48539483288E+03  0.00000000000E+00 0. -1.
          1   -1    0    0  501    0 -0.00000000000E+00 -0.00000000000E+00 -0.91840688071E+03  0.91840688071E+03  0.00000000000E+00 0. -1.
         25    2    1    2    0    0  0.64029466507E+02  0.16647104603E+02 -0.85512015678E+03  0.86673671330E+03  0.12500059590E+03 0.  0.
          2    1    1    2  501    0  0.17663624279E+02 -0.20947646878E+02 -0.50486151446E+02  0.57442658540E+02  0.00000000000E+00 0. -1.
          1    1    1    2  502    0 -0.81693090786E+02  0.43005422745E+01  0.47259426040E+03  0.47962234175E+03  0.00000000000E+00 0. -1.
         22    1    3    3    0    0  0.21633555545E+02 -0.54483676882E+02 -0.35486872717E+03  0.35967804394E+03  0.00000000000E+00 0. -1.
         22    1    3    3    0    0  0.42395910962E+02  0.71130781485E+02 -0.50025142961E+03  0.50705866936E+03  0.00000000000E+00 0. -1.
</event>
<event>
 7    1  0.6370239E-006  0.6525605E+02  0.7818608E-02  0.1395855E+00
          2   -1    0    0  502    0  0.00000000000E+00  0.00000000000E+00  0.39887150798E+03  0.39887150798E+03  0.00000000000E+00 0. -1.
          1   -1    0    0  501    0 -0.00000000000E+00 -0.00000000000E+00 -0.99443794330E+02  0.99443794330E+02  0.00000000000E+00 0. -1.
         25    2    1    2    0    0 -0.34232167326E+02 -0.35975489674E+02  0.15252712257E+03  0.20335316889E+03  0.12498764356E+03 0.  0.
          2    1    1    2  501    0 -0.38684883484E+02  0.40548137686E+02 -0.56050447352E+02  0.79261114856E+02  0.00000000000E+00 0. -1.
          1    1    1    2  502    0  0.72917050809E+02 -0.45726480123E+01  0.20295103843E+03  0.21570101856E+03  0.00000000000E+00 0. -1.
         22    1    3    3    0    0 -0.27248227573E+02  0.41065023279E+02  0.27794343356E+02  0.56580275410E+02  0.00000000000E+00 0.  1.
         22    1    3    3    0    0 -0.69839397524E+01 -0.77040512953E+02  0.12473277922E+03  0.14677289348E+03  0.00000000000E+00 0.  1.
</event>
<event>
 7    1  0.6370239E-006  0.1438325E+03  0.7818608E-02  0.1259087E+00
          2   -1    0    0  502    0  0.00000000000E+00  0.00000000000E+00  0.13600165131E+03  0.13600165131E+03  0.00000000000E+00 0. -1.
          1   -1    0    0  501    0 -0.00000000000E+00 -0.00000000000E+00 -0.67054436709E+03  0.67054436709E+03  0.00000000000E+00 0. -1.
         25    2    1    2    0    0  0.98359813904E+02  0.40726603263E+02 -0.20819660577E+03  0.26514909014E+03  0.12499961658E+03 0.  0.
          2    1    1    2  501    0  0.56472959113E+02 -0.64009760472E+02 -0.36930115579E+03  0.37903797727E+03  0.00000000000E+00 0. -1.
          1    1    1    2  502    0 -0.15483277302E+03  0.23283157209E+02  0.42955045772E+02  0.16235895099E+03  0.00000000000E+00 0. -1.
         22    1    3    3    0    0  0.86993859930E+02  0.32470694705E+01 -0.46336809415E+02  0.98618330103E+02  0.00000000000E+00 0.  1.
         22    1    3    3    0    0  0.11365953975E+02  0.37479533793E+02 -0.16185979635E+03  0.16653076004E+03  0.00000000000E+00 0.  1.
</event>
<event>
 7    1  0.6370239E-006  0.4512633E+02  0.7818608E-02  0.1564022E+00
          2   -1    0    0  502    0  0.00000000000E+00  0.00000000000E+00  0.13534622365E+04  0.13534622365E+04  0.00000000000E+00 0. -1.
          1   -1    0    0  501    0 -0.00000000000E+00 -0.00000000000E+00 -0.73301165356E+03  0.73301165356E+03  0.00000000000E+00 0. -1.
         25    2    1    2    0    0  0.43914986832E+02  0.14881257691E+02 -0.62810661605E+03  0.64209983598E+03  0.12499720136E+03 0.  0.
          2    1    1    2  501    0  0.15442159889E+00 -0.24605754060E+02 -0.95977833975E+02  0.99081842905E+02  0.00000000000E+00 0. -1.
          1    1    1    2  502    0 -0.44069408430E+02  0.97244963688E+01  0.13445350330E+04  0.13452922112E+04  0.00000000000E+00 0. -1.
         22    1    3    3    0    0 -0.59339147606E+01  0.19221920253E+02 -0.54300711410E+03  0.54337962745E+03  0.00000000000E+00 0.  1.
         22    1    3    3    0    0  0.49848901592E+02 -0.43406625612E+01 -0.85099501952E+02  0.98720208539E+02  0.00000000000E+00 0.  1.
</event>
<event>
 7    1  0.6370239E-006  0.4806819E+02  0.7818608E-02  0.1476722E+00
          2   -1    0    0  502    0  0.00000000000E+00  0.00000000000E+00  0.32166019035E+02  0.32166019035E+02  0.00000000000E+00 0. -1.
          1   -1    0    0  501    0 -0.00000000000E+00 -0.00000000000E+00 -0.25631151991E+04  0.25631151991E+04  0.00000000000E+00 0. -1.
         25    2    1    2    0    0  0.46723834434E+02  0.32611001839E+02 -0.91264588063E+03  0.92293272963E+03  0.12504289601E+03 0.  0.
          2    1    1    2  501    0 -0.47750017539E+02  0.87972227281E+01 -0.16288760119E+04  0.16295994960E+04  0.00000000000E+00 0. -1.
          1    1    1    2  502    0  0.10261831052E+01 -0.41408224567E+02  0.10572712425E+02  0.42748992521E+02  0.00000000000E+00 0. -1.
         22    1    3    3    0    0  0.24851117090E+02  0.66722866148E+02 -0.80104016535E+03  0.80419827492E+03  0.00000000000E+00 0. -1.
         22    1    3    3    0    0  0.21872717345E+02 -0.34111864309E+02 -0.11160571529E+03  0.11873445471E+03  0.00000000000E+00 0. -1.
</event>
<event>
 7    1  0.6370239E-006  0.1053034E+03  0.7818608E-02  0.1309214E+00
          2   -1    0    0  502    0  0.00000000000E+00  0.00000000000E+00  0.14744880304E+04  0.14744880304E+04  0.00000000000E+00 0. -1.
          1   -1    0    0  501    0 -0.00000000000E+00 -0.00000000000E+00 -0.41633294086E+03  0.41633294086E+03  0.00000000000E+00 0. -1.
         25    2    1    2    0    0  0.14681015171E+03 -0.50139439000E+02  0.84552891810E+03  0.86868375427E+03  0.12500051839E+03 0.  0.
          2    1    1    2  501    0 -0.72476474520E+02 -0.38651528430E+01 -0.39803724784E+03  0.40460033296E+03  0.00000000000E+00 0. -1.
          1    1    1    2  502    0 -0.74333677189E+02  0.54004591843E+02  0.61066341931E+03  0.61753688407E+03  0.00000000000E+00 0. -1.
         22    1    3    3    0    0 -0.15010831355E+01  0.29677708447E+02  0.16257947363E+03  0.16527281953E+03  0.00000000000E+00 0.  1.
         22    1    3    3    0    0  0.14831123484E+03 -0.79817147447E+02  0.68294944447E+03  0.70341093474E+03  0.00000000000E+00 0.  1.
</event>
<event>
 7    1  0.6370239E-006  0.1097623E+03  0.7818608E-02  0.1388442E+00
          2   -1    0    0  502    0  0.00000000000E+00  0.00000000000E+00  0.19229812368E+03  0.19229812368E+03  0.00000000000E+00 0. -1.
          1   -1    0    0  501    0 -0.00000000000E+00 -0.00000000000E+00 -0.65304976112E+03  0.65304976112E+03  0.00000000000E+00 0. -1.
         25    2    1    2    0    0  0.34649538394E+02 -0.12428087218E+03 -0.33813991157E+02  0.18279672857E+03  0.12499972911E+03 0.  0.
          2    1    1    2  501    0  0.16439662111E+02  0.31301680095E+02 -0.52013700763E+03  0.52133728466E+03  0.00000000000E+00 0. -1.
          1    1    1    2  502    0 -0.51089200505E+02  0.92979192082E+02  0.93199361351E+02  0.14121387157E+03  0.00000000000E+00 0. -1.
         22    1    3    3    0    0 -0.41707029439E+02 -0.28032251603E+02  0.12016105139E+02  0.51668851518E+02  0.00000000000E+00 0. -1.
         22    1    3    3    0    0  0.76356567832E+02 -0.96248620574E+02 -0.45830096295E+02  0.13112787705E+03  0.00000000000E+00 0. -1.
</event>
<event>
 7    1  0.6370239E-006  0.6146169E+02  0.7818608E-02  0.1434881E+00
          2   -1    0    0  502    0  0.00000000000E+00  0.00000000000E+00  0.10267300943E+04  0.10267300943E+04  0.00000000000E+00 0. -1.
          1   -1    0    0  501    0 -0.00000000000E+00 -0.00000000000E+00 -0.43210831888E+02  0.43210831888E+02  0.00000000000E+00 0. -1.
         25    2    1    2    0    0  0.84066218462E+02  0.48989185586E+02  0.61170736815E+03  0.63188451813E+03  0.12500028247E+03 0.  0.
          2    1    1    2  501    0 -0.33054363714E+02 -0.29014851939E+02 -0.15693012105E+02  0.46698214340E+02  0.00000000000E+00 0. -1.
          1    1    1    2  502    0 -0.51011854748E+02 -0.19974333647E+02  0.38750490641E+03  0.39135819376E+03  0.00000000000E+00 0. -1.
         22    1    3    3    0    0  0.17633191185E+01  0.12435826118E+02 -0.99480603045E+00  0.12599551761E+02  0.00000000000E+00 0.  1.
         22    1    3    3    0    0  0.82302899344E+02  0.36553359468E+02  0.61270217418E+03  0.61928496637E+03  0.00000000000E+00 0.  1.
</event>
<event>
 7    1  0.6370239E-006  0.1550164E+03  0.7818608E-02  0.1252546E+00
          2   -1    0    0  502    0  0.00000000000E+00  0.00000000000E+00  0.37388588443E+04  0.37388588443E+04  0.00000000000E+00 0. -1.
          1   -1    0    0  501    0 -0.00000000000E+00 -0.00000000000E+00 -0.17212752025E+02  0.17212752025E+02  0.00000000000E+00 0. -1.
         25    2    1    2    0    0 -0.29714310108E+02  0.92633213574E+01  0.14562205678E+04  0.14619075157E+04  0.12500597284E+03 0.  0.
          2    1    1    2  501    0 -0.12935990528E+03  0.85417286404E+02  0.65303892745E+03  0.67118547263E+03  0.00000000000E+00 0. -1.
          1    1    1    2  502    0  0.15907421539E+03 -0.94680607761E+02  0.16123865970E+04  0.16229786079E+04  0.00000000000E+00 0. -1.
         22    1    3    3    0    0  0.25919625654E+02  0.96822275135E+01  0.81635979334E+02  0.86197480505E+02  0.00000000000E+00 0. -1.
         22    1    3    3    0    0 -0.55633935762E+02 -0.41890615616E+00  0.13745845884E+04  0.13757100352E+04  0.00000000000E+00 0. -1.
</event>
<event>
 7    1  0.6370239E-006  0.1760828E+03  0.7818608E-02  0.1184648E+00
          2   -1    0    0  502    0  0.00000000000E+00  0.00000000000E+00  0.92781871886E+02  0.92781871886E+02  0.00000000000E+00 0. -1.
          1   -1    0    0  501    0 -0.00000000000E+00 -0.00000000000E+00 -0.27205426929E+04  0.27205426929E+04  0.00000000000E+00 0. -1.
         25    2    1    2    0    0 -0.56673562880E+02  0.16542223826E+01 -0.24827748721E+03  0.28369201923E+03  0.12499928775E+03 0.  0.
          2    1    1    2  501    0  0.20283569734E+03  0.40342390524E+02 -0.23681194508E+04  0.23771326344E+04  0.00000000000E+00 0. -1.
          1    1    1    2  502    0 -0.14616213446E+03 -0.41996612906E+02 -0.11363883002E+02  0.15249991109E+03  0.00000000000E+00 0. -1.
         22    1    3    3    0    0 -0.70904107845E+02  0.49143408905E+02 -0.17653725113E+03  0.19648885003E+03  0.00000000000E+00 0. -1.
         22    1    3    3    0    0  0.14230544965E+02 -0.47489186523E+02 -0.71740236078E+02  0.87203169203E+02  0.00000000000E+00 0. -1.
</event>
<event>
 7    1  0.6370239E-006  0.6902222E+02  0.7818608E-02  0.1365616E+00
          2   -1    0    0  502    0  0.00000000000E+00  0.00000000000E+00  0.15694141570E+03  0.15694141570E+03  0.00000000000E+00 0. -1.
          1   -1    0    0  501    0 -0.00000000000E+00 -0.00000000000E+00 -0.17748517690E+03  0.17748517690E+03  0.00000000000E+00 0. -1.
         25    2    1    2    0    0 -0.29265074790E+02  0.50311065447E+02 -0.57807238227E+02  0.14951227288E+03  0.12499838016E+03 0.  0.
          2    1    1    2  501    0 -0.43883078608E+02 -0.53276100901E+02 -0.38935173562E+02  0.79246547279E+02  0.00000000000E+00 0. -1.
          1    1    1    2  502    0  0.73148153398E+02  0.29650354547E+01  0.76198650589E+02  0.10566777244E+03  0.00000000000E+00 0. -1.
         22    1    3    3    0    0 -0.33208052959E+02 -0.37363128749E+02 -0.24165281035E+02  0.55522418704E+02  0.00000000000E+00 0. -1.
         22    1    3    3    0    0  0.39429781682E+01  0.87674194196E+02 -0.33641957192E+02  0.93989854178E+02  0.00000000000E+00 0. -1.
</event>
<event>
 7    1  0.6370239E-006  0.2450253E+02  0.7818608E-02  0.1682848E+00
          2   -1    0    0  502    0  0.00000000000E+00  0.00000000000E+00  0.15105029365E+03  0.15105029365E+03  0.00000000000E+00 0. -1.
          1   -1    0    0  501    0 -0.00000000000E+00 -0.00000000000E+00 -0.55433486106E+03  0.55433486106E+03  0.00000000000E+00 0. -1.
         25    2    1    2    0    0 -0.19742219963E+02  0.32509388965E+02  0.34375087973E+02  0.13510498688E+03  0.12500038075E+03 0.  0.
          2    1    1    2  501    0 -0.13913280826E+01 -0.24438783053E+02 -0.50173338717E+03  0.50233015211E+03  0.00000000000E+00 0. -1.
          1    1    1    2  502    0  0.21133548045E+02 -0.80706059124E+01  0.64073731788E+02  0.67950015733E+02  0.00000000000E+00 0. -1.
         22    1    3    3    0    0  0.46768281743E+02 -0.11570635572E+02  0.26343492367E+02  0.54910211935E+02  0.00000000000E+00 0. -1.
         22    1    3    3    0    0 -0.66510501705E+02  0.44080024537E+02  0.80315956056E+01  0.80194774944E+02  0.00000000000E+00 0. -1.
</event>
<event>
 7    1  0.6370239E-006  0.9524530E+02  0.7818608E-02  0.1369523E+00
          2   -1    0    0  502    0  0.00000000000E+00  0.00000000000E+00  0.11039858077E+04  0.11039858077E+04  0.00000000000E+00 0. -1.
          1   -1    0    0  501    0 -0.00000000000E+00 -0.00000000000E+00 -0.15276955299E+03  0.15276955299E+03  0.00000000000E+00 0. -1.
         25    2    1    2    0    0  0.10209330389E+03  0.65021590079E+02  0.17017561475E+03  0.24338539424E+03  0.12500344155E+03 0.  0.
          2    1    1    2  501    0 -0.99265380671E+01 -0.46506241863E+02 -0.10871569381E+03  0.11866115106E+03  0.00000000000E+00 0. -1.
          1    1    1    2  502    0 -0.92166765824E+02 -0.18515348216E+02  0.88975633381E+03  0.89470881543E+03  0.00000000000E+00 0. -1.
         22    1    3    3    0    0  0.64253285408E+02  0.66694709787E+00  0.78743237442E+01  0.64737427186E+02  0.00000000000E+00 0. -1.
         22    1    3    3    0    0  0.37840018482E+02  0.64354642982E+02  0.16230129100E+03  0.17864796706E+03  0.00000000000E+00 0. -1.
</event>
<event>
 7    1  0.6370239E-006  0.1027093E+03  0.7818608E-02  0.1400606E+00
          2   -1    0    0  502    0  0.00000000000E+00  0.00000000000E+00  0.53346912545E+02  0.53346912545E+02  0.00000000000E+00 0. -1.
          1   -1    0    0  501    0 -0.00000000000E+00 -0.00000000000E+00 -0.33661894352E+04  0.33661894352E+04  0.00000000000E+00 0. -1.
         25    2    1    2    0    0  0.75840689046E+02  0.40565114577E+02 -0.76892747230E+03  0.78375935798E+03  0.12502773659E+03 0.  0.
          2    1    1    2  501    0 -0.30977289683E+01  0.34147834761E+02 -0.25303955603E+04  0.25306278592E+04  0.00000000000E+00 0. -1.
          1    1    1    2  502    0 -0.72742960078E+02 -0.74712949338E+02 -0.13519490089E+02  0.10514913053E+03  0.00000000000E+00 0. -1.
         22    1    3    3    0    0 -0.33059960361E+02 -0.51644869046E+01 -0.15439256827E+03  0.15797689085E+03  0.00000000000E+00 0.  1.
         22    1    3    3    0    0  0.10890064941E+03  0.45729601482E+02 -0.61453490403E+03  0.62578246713E+03  0.00000000000E+00 0.  1.
</event>
<event>
 7    1  0.6370239E-006  0.4677323E+02  0.7818608E-02  0.1562438E+00
          2   -1    0    0  502    0  0.00000000000E+00  0.00000000000E+00  0.50494747784E+01  0.50494747784E+01  0.00000000000E+00 0. -1.
          1   -1    0    0  501    0 -0.00000000000E+00 -0.00000000000E+00 -0.43533957490E+04  0.43533957490E+04  0.00000000000E+00 0. -1.
         25    2    1    2    0    0  0.57508247274E+02 -0.58535352756E+01 -0.15801490439E+04  0.15861392583E+04  0.12500113384E+03 0.  0.
          2    1    1    2  501    0 -0.44149489060E+02 -0.14059013089E+02 -0.26925658018E+04  0.26929644317E+04  0.00000000000E+00 0. -1.
          1    1    1    2  502    0 -0.13358758213E+02  0.19912548365E+02 -0.75631428513E+02  0.79341533778E+02  0.00000000000E+00 0. -1.
         22    1    3    3    0    0 -0.23750743207E+02 -0.41619861976E+02 -0.64929912467E+03  0.65106502288E+03  0.00000000000E+00 0.  1.
         22    1    3    3    0    0  0.81258990481E+02  0.35766326700E+02 -0.93084991920E+03  0.93507423542E+03  0.00000000000E+00 0.  1.
</event>
<event>
 7    1  0.6370239E-006  0.9202451E+02  0.7818608E-02  0.1472646E+00
          2   -1    0    0  502    0  0.00000000000E+00  0.00000000000E+00  0.37766111897E+03  0.37766111897E+03  0.00000000000E+00 0. -1.
          1   -1    0    0  501    0 -0.00000000000E+00 -0.00000000000E+00 -0.12657818643E+03  0.12657818643E+03  0.00000000000E+00 0. -1.
         25    2    1    2    0    0 -0.59159341888E+02 -0.54830943880E+02  0.13857740780E+03  0.20331166963E+03  0.12500270764E+03 0.  0.
          2    1    1    2  501    0  0.13346275150E+01 -0.22232623655E+02 -0.81407180134E+02  0.84399050721E+02  0.00000000000E+00 0. -1.
          1    1    1    2  502    0  0.57824714373E+02  0.77063567536E+02  0.19391270488E+03  0.21652858506E+03  0.00000000000E+00 0. -1.
         22    1    3    3    0    0 -0.67914064338E+02  0.21068619347E+02  0.80028044914E+02  0.10705463479E+03  0.00000000000E+00 0.  1.
         22    1    3    3    0    0  0.87547224498E+01 -0.75899563228E+02  0.58549362883E+02  0.96257034846E+02  0.00000000000E+00 0.  1.
</event>
<event>
 7    1  0.6370239E-006  0.5227252E+02  0.7818608E-02  0.1495941E+00
          2   -1    0    0  502    0  0.00000000000E+00  0.00000000000E+00  0.63586407816E+03  0.63586407816E+03  0.00000000000E+00 0. -1.
          1   -1    0    0  501    0 -0.00000000000E+00 -0.00000000000E+00 -0.15067228850E+03  0.15067228850E+03  0.00000000000E+00 0. -1.
         25    2    1    2    0    0  0.27894201239E+02  0.76808941935E+02  0.23154256149E+03  0.27552587238E+03  0.12499939417E+03 0.  0.
          2    1    1    2  501    0 -0.18740725292E+02 -0.27518063400E+02 -0.12484621228E+03  0.12920926947E+03  0.00000000000E+00 0. -1.
          1    1    1    2  502    0 -0.91534759470E+01 -0.49290878535E+02  0.37849544044E+03  0.38180122481E+03  0.00000000000E+00 0. -1.
         22    1    3    3    0    0 -0.48779607651E+02  0.37889768345E+02  0.77423420116E+02  0.99042771822E+02  0.00000000000E+00 0.  1.
         22    1    3    3    0    0  0.76673808890E+02  0.38919173590E+02  0.15411914138E+03  0.17648310055E+03  0.00000000000E+00 0.  1.
</event>
<event>
 7    1  0.6370239E-006  0.7169384E+02  0.7818608E-02  0.1427642E+00
          2   -1    0    0  502    0  0.00000000000E+00  0.00000000000E+00  0.48121194155E+03  0.48121194155E+03  0.00000000000E+00 0. -1.
          1   -1    0    0  501    0 -0.00000000000E+00 -0.00000000000E+00 -0.69926663292E+02  0.69926663292E+02  0.00000000000E+00 0. -1.
         25    2    1    2    0    0 -0.53020616378E+02 -0.15883362257E+02  0.73737742377E+02  0.15534153275E+03  0.12502107898E+03 0.  0.
          2    1    1    2  501    0 -0.18385393910E+02  0.35330626417E+02 -0.95008172708E+01  0.40945590740E+02  0.00000000000E+00 0. -1.
          1    1    1    2  502    0  0.71406010288E+02 -0.19447264161E+02  0.34704835315E+03  0.35485148135E+03  0.00000000000E+00 0. -1.
         22    1    3    3    0    0 -0.72979926772E+02  0.73019079227E+01 -0.22997733776E+01  0.73380355195E+02  0.00000000000E+00 0. -1.
         22    1    3    3    0    0  0.19959310394E+02 -0.23185270179E+02  0.76037515755E+02  0.81961177559E+02  0.00000000000E+00 0. -1.
</event>
<event>
 7    1  0.6370239E-006  0.3341976E+03  0.7818608E-02  0.1278527E+00
          2   -1    0    0  502    0  0.00000000000E+00  0.00000000000E+00  0.20383107219E+04  0.20383107219E+04  0.00000000000E+00 0. -1.
          1   -1    0    0  501    0 -0.00000000000E+00 -0.00000000000E+00 -0.23839998531E+04  0.23839998531E+04  0.00000000000E+00 0. -1.
         25    2    1    2    0    0  0.30431928300E+03 -0.10034182132E+02 -0.79688472998E+03  0.86218302135E+03  0.12499351427E+03 0.  0.
          2    1    1    2  501    0  0.30049943667E+02 -0.47993337363E+01 -0.15403513257E+04  0.15406518878E+04  0.00000000000E+00 0. -1.
          1    1    1    2  502    0 -0.33436922667E+03  0.14833515868E+02  0.19915469244E+04  0.20194756659E+04  0.00000000000E+00 0. -1.
         22    1    3    3    0    0  0.23708563560E+03  0.66717512278E+01 -0.72295394198E+03  0.76086563406E+03  0.00000000000E+00 0. -1.
         22    1    3    3    0    0  0.67233647401E+02 -0.16705933360E+02 -0.73930787999E+02  0.10131738729E+03  0.00000000000E+00 0. -1.
</event>
<event>
 7    1  0.6370239E-006  0.1637603E+03  0.7818608E-02  0.1358324E+00
          2   -1    0    0  502    0  0.00000000000E+00  0.00000000000E+00  0.11871688936E+04  0.11871688936E+04  0.00000000000E+00 0. -1.
          1   -1    0    0  501    0 -0.00000000000E+00 -0.00000000000E+00 -0.38978003348E+03  0.38978003348E+03  0.00000000000E+00 0. -1.
         25    2    1    2    0    0 -0.13989607845E+03  0.17977807216E+02 -0.17586100398E+02  0.18928523855E+03  0.12500206512E+03 0.  0.
          2    1    1    2  501    0 -0.25280047887E+02 -0.16830939806E+02 -0.27932303730E+03  0.28096925191E+03  0.00000000000E+00 0. -1.
          1    1    1    2  502    0  0.16517612634E+03 -0.11468674099E+01  0.10942979979E+04  0.11066944367E+04  0.00000000000E+00 0. -1.
         22    1    3    3    0    0  0.95333983559E+01 -0.15816373713E+02 -0.30375918940E+02  0.35549118317E+02  0.00000000000E+00 0. -1.
         22    1    3    3    0    0 -0.14942947681E+03  0.33794180929E+02  0.12789818542E+02  0.15373612023E+03  0.00000000000E+00 0. -1.
</event>
<event>
 7    1  0.6370239E-006  0.4865246E+02  0.7818608E-02  0.1457835E+00
          2   -1    0    0  502    0  0.00000000000E+00  0.00000000000E+00  0.70977234249E+03  0.70977234249E+03  0.00000000000E+00 0. -1.
          1   -1    0    0  501    0 -0.00000000000E+00 -0.00000000000E+00 -0.43009866997E+03  0.43009866997E+03  0.00000000000E+00 0. -1.
         25    2    1    2    0    0 -0.75156305971E+01 -0.16811381166E+01 -0.77334149767E+02  0.14718136611E+03  0.12498989112E+03 0.  0.
          2    1    1    2  501    0  0.18915155421E+02 -0.45616982906E+02 -0.31503802726E+03  0.31888501197E+03  0.00000000000E+00 0. -1.
          1    1    1    2  502    0 -0.11399524824E+02  0.47298121022E+02  0.67204584955E+03  0.67380463438E+03  0.00000000000E+00 0. -1.
         22    1    3    3    0    0 -0.43513714556E+02  0.19567050741E+02  0.11435519786E+02  0.49062041763E+02  0.00000000000E+00 0. -1.
         22    1    3    3    0    0  0.35998083959E+02 -0.21248188857E+02 -0.88769669553E+02  0.98119324351E+02  0.00000000000E+00 0. -1.
</event>
<event>
 7    1  0.8300908E-006  0.7498769E+02  0.7818608E-02  0.1425762E+00
          2   -1    0    0  502    0  0.00000000000E+00  0.00000000000E+00  0.88999965284E+03  0.88999965284E+03  0.00000000000E+00 0. -1.
          1   -1    0    0  501    0 -0.00000000000E+00 -0.00000000000E+00 -0.14681570494E+04  0.14681570494E+04  0.00000000000E+00 0. -1.
         25    2    1    2    0    0 -0.10695179224E+03  0.19510340640E+02 -0.37894194815E+03  0.41356950245E+03  0.12499357596E+03 0.  0.
          2    1    1    2  501    0  0.37626306659E+02  0.87392752328E+01 -0.10699467472E+04  0.10706438043E+04  0.00000000000E+00 0. -1.
          1    1    1    2  502    0  0.69325485582E+02 -0.28249615873E+02  0.87073129881E+03  0.87394339546E+03  0.00000000000E+00 0. -1.
         22    1    3    3    0    0 -0.43161337124E+02 -0.26254241305E+02 -0.36711251130E+02  0.62449196699E+02  0.00000000000E+00 0.  1.
         22    1    3    3    0    0 -0.63790455117E+02  0.45764581946E+02 -0.34223069702E+03  0.35112030575E+03  0.00000000000E+00 0.  1.
</event>
<event>
 7    1  0.6370239E-006  0.5660770E+02  0.7818608E-02  0.1427833E+00
          2   -1    0    0  502    0  0.00000000000E+00  0.00000000000E+00  0.54754732850E+03  0.54754732850E+03  0.00000000000E+00 0. -1.
          1   -1    0    0  501    0 -0.00000000000E+00 -0.00000000000E+00 -0.18796190834E+03  0.18796190834E+03  0.00000000000E+00 0. -1.
         25    2    1    2    0    0  0.60625581393E+01  0.21501931879E+02  0.30673617510E+03  0.33198867602E+03  0.12502124702E+03 0.  0.
          2    1    1    2  501    0  0.69834116746E+01  0.49882805412E+02 -0.16572738968E+03  0.17321267276E+03  0.00000000000E+00 0. -1.
          1    1    1    2  502    0 -0.13045969814E+02 -0.71384737291E+02  0.21857663474E+03  0.23030788806E+03  0.00000000000E+00 0. -1.
         22    1    3    3    0    0  0.28505369893E+02 -0.95389887354E+01  0.84099087930E+01  0.31213378297E+02  0.00000000000E+00 0. -1.
         22    1    3    3    0    0 -0.22442811754E+02  0.31040920615E+02  0.29832626631E+03  0.30077529772E+03  0.00000000000E+00 0. -1.
</event>
<event>
 7    1  0.6370239E-006  0.1878374E+03  0.7818608E-02  0.1180038E+00
          2   -1    0    0  502    0  0.00000000000E+00  0.00000000000E+00  0.19373002179E+04  0.19373002179E+04  0.00000000000E+00 0. -1.
          1   -1    0    0  501    0 -0.00000000000E+00 -0.00000000000E+00 -0.12095596909E+04  0.12095596909E+04  0.00000000000E+00 0. -1.
         25    2    1    2    0    0  0.32683485446E+02  0.28489233201E+03 -0.32659451808E+03  0.45223980954E+03  0.12500006011E+03 0.  0.
          2    1    1    2  501    0 -0.95320379430E+02 -0.14847674172E+03 -0.80759731110E+03  0.82664668054E+03  0.00000000000E+00 0. -1.
          1    1    1    2  502    0  0.62636893984E+02 -0.13641559030E+03  0.18619323562E+04  0.18679734186E+04  0.00000000000E+00 0. -1.
         22    1    3    3    0    0 -0.81616097210E+01  0.45043126719E+01  0.90463026708E+01  0.12989853652E+02  0.00000000000E+00 0.  1.
         22    1    3    3    0    0  0.40845095167E+02  0.28038801934E+03 -0.33564082075E+03  0.43924995588E+03  0.00000000000E+00 0.  1.
</event>
<event>
 7    1  0.6370239E-006  0.2641437E+02  0.7818608E-02  0.1647630E+00
          2   -1    0    0  502    0  0.00000000000E+00  0.00000000000E+00  0.10389213807E+04  0.10389213807E+04  0.00000000000E+00 0. -1.
          1   -1    0    0  501    0 -0.00000000000E+00 -0.00000000000E+00 -0.10509892434E+02  0.10509892434E+02  0.00000000000E+00 0. -1.
         25    2    1    2    0    0  0.19836956191E+02 -0.66557035916E+01  0.46215922727E+03  0.47922265749E+03  0.12500160351E+03 0.  0.
          2    1    1    2  501    0 -0.57084452892E+01  0.28973953474E+02  0.13710786836E+03  0.14025207269E+03  0.00000000000E+00 0. -1.
          1    1    1    2  502    0 -0.14128510902E+02 -0.22318249882E+02  0.42914439261E+03  0.42995654293E+03  0.00000000000E+00 0. -1.
         22    1    3    3    0    0 -0.36655745255E+02 -0.13269452810E+01  0.44236736012E+02  0.57465583239E+02  0.00000000000E+00 0.  1.
         22    1    3    3    0    0  0.56492701446E+02 -0.53287583106E+01  0.41792249126E+03  0.42175707425E+03  0.00000000000E+00 0.  1.
</event>
<event>
 7    1  0.6370239E-006  0.9859183E+02  0.7818608E-02  0.1361021E+00
          2   -1    0    0  502    0  0.00000000000E+00  0.00000000000E+00  0.40686149766E+02  0.40686149766E+02  0.00000000000E+00 0. -1.
          1   -1    0    0  501    0 -0.00000000000E+00 -0.00000000000E+00 -0.12303083450E+04  0.12303083450E+04  0.00000000000E+00 0. -1.
         25    2    1    2    0    0  0.76604566141E+02 -0.74221446564E+02 -0.85668990686E+03  0.87230652892E+03  0.12499600474E+03 0.  0.
          2    1    1    2  501    0  0.18100667688E+02  0.45872007200E+02 -0.28424610727E+03  0.28849215711E+03  0.00000000000E+00 0. -1.
          1    1    1    2  502    0 -0.94705233829E+02  0.28349439364E+02 -0.48686181059E+02  0.11019580869E+03  0.00000000000E+00 0. -1.
         22    1    3    3    0    0  0.86684860457E+01 -0.57760403635E+02 -0.67675373079E+03  0.67926947452E+03  0.00000000000E+00 0. -1.
         22    1    3    3    0    0  0.67936080095E+02 -0.16461042929E+02 -0.17993617607E+03  0.19303705440E+03  0.00000000000E+00 0. -1.
</event>
<event>
 7    1  0.6370239E-006  0.9953965E+02  0.7818608E-02  0.1461349E+00
          2   -1    0    0  502    0  0.00000000000E+00  0.00000000000E+00  0.41962463288E+03  0.41962463288E+03  0.00000000000E+00 0. -1.
          1   -1    0    0  501    0 -0.00000000000E+00 -0.00000000000E+00 -0.60362237495E+02  0.60362237495E+02  0.00000000000E+00 0. -1.
         25    2    1    2    0    0 -0.22030697932E+02 -0.81292550136E+02  0.13652716781E+03  0.20337314897E+03  0.12500855897E+03 0.  0.
          2    1    1    2  501    0  0.39534768569E+01 -0.21981309850E+02 -0.75575670779E+01  0.23578057217E+02  0.00000000000E+00 0. -1.
          1    1    1    2  502    0  0.18077221075E+02  0.10327385999E+03  0.23029279466E+03  0.25303566419E+03  0.00000000000E+00 0. -1.
         22    1    3    3    0    0  0.42944152156E+02 -0.60556801728E+02  0.37609095739E+02  0.83221214376E+02  0.00000000000E+00 0.  1.
         22    1    3    3    0    0 -0.64974850088E+02 -0.20735748408E+02  0.98918072067E+02  0.12015193460E+03  0.00000000000E+00 0.  1.
</event>
<event>
 7    1  0.6370239E-006  0.1664886E+03  0.7818608E-02  0.1193058E+00
          2   -1    0    0  502    0  0.00000000000E+00  0.00000000000E+00  0.86240554048E+03  0.86240554048E+03  0.00000000000E+00 0. -1.
          1   -1    0    0  501    0 -0.00000000000E+00 -0.00000000000E+00 -0.79309080112E+03  0.79309080112E+03  0.00000000000E+00 0. -1.
         25    2    1    2    0    0 -0.22688295369E+03 -0.11791746256E+02 -0.29078771570E+03  0.38961311470E+03  0.12500385431E+03 0.  0.
          2    1    1    2  501    0  0.12786604268E+03 -0.96237728364E+02 -0.43181735640E+03  0.46051889703E+03  0.00000000000E+00 0. -1.
          1    1    1    2  502    0  0.99016911007E+02  0.10802947462E+03  0.79191981146E+03  0.80536432987E+03  0.00000000000E+00 0. -1.
         22    1    3    3    0    0 -0.15926039082E+03  0.44586869001E+02 -0.22715694313E+03  0.28098423049E+03  0.00000000000E+00 0. -1.
         22    1    3    3    0    0 -0.67622562864E+02 -0.56378615257E+02 -0.63630772566E+02  0.10862888421E+03  0.00000000000E+00 0. -1.
</event>
<event>
 7    1  0.6370239E-006  0.7018277E+02  0.7818608E-02  0.1457977E+00
          2   -1    0    0  502    0  0.00000000000E+00  0.00000000000E+00  0.12800628420E+04  0.12800628420E+04  0.00000000000E+00 0. -1.
          1   -1    0    0  501    0 -0.00000000000E+00 -0.00000000000E+00 -0.35584047134E+02  0.35584047134E+02  0.00000000000E+00 0. -1.
         25    2    1    2    0    0  0.41882080308E+02  0.21187981845E+01  0.37710646987E+03  0.39949154452E+03  0.12500242627E+03 0.  0.
          2    1    1    2  501    0 -0.74341831363E+02 -0.17299102972E+01  0.33344042483E+02  0.81495556009E+02  0.00000000000E+00 0. -1.
          1    1    1    2  502    0  0.32459751055E+02 -0.38888788727E+00  0.83402828255E+03  0.83465978863E+03  0.00000000000E+00 0. -1.
         22    1    3    3    0    0 -0.28920854614E+02 -0.38632267858E+02  0.17409515667E+03  0.18065987802E+03  0.00000000000E+00 0. -1.
         22    1    3    3    0    0  0.70802934922E+02  0.40751066043E+02  0.20301131320E+03  0.21883166650E+03  0.00000000000E+00 0. -1.
</event>
<event>
 7    1  0.6370239E-006  0.9675889E+02  0.7818608E-02  0.1306400E+00
          2   -1    0    0  502    0  0.00000000000E+00  0.00000000000E+00  0.60211294148E+03  0.60211294148E+03  0.00000000000E+00 0. -1.
          1   -1    0    0  501    0 -0.00000000000E+00 -0.00000000000E+00 -0.16043582899E+04  0.16043582899E+04  0.00000000000E+00 0. -1.
         25    2    1    2    0    0 -0.51730246936E+02  0.99580019325E+02  0.18935796638E+03  0.25313038123E+03  0.12500540698E+03 0.  0.
          2    1    1    2  501    0  0.92296762500E+02 -0.29425495077E+02 -0.15666482222E+04  0.15696404697E+04  0.00000000000E+00 0. -1.
          1    1    1    2  502    0 -0.40566515564E+02 -0.70154524248E+02  0.37504490734E+03  0.38370038048E+03  0.00000000000E+00 0. -1.
         22    1    3    3    0    0  0.17780681188E+02  0.93698482655E+02  0.13182765430E+03  0.16270860061E+03  0.00000000000E+00 0. -1.
         22    1    3    3    0    0 -0.69510928123E+02  0.58815366702E+01  0.57530312076E+02  0.90421780616E+02  0.00000000000E+00 0. -1.
</event>
<event>
 7    1  0.6370239E-006  0.6087762E+02  0.7818608E-02  0.1398068E+00
          2   -1    0    0  502    0  0.00000000000E+00  0.00000000000E+00  0.10662294497E+04  0.10662294497E+04  0.00000000000E+00 0. -1.
          1   -1    0    0  501    0 -0.00000000000E+00 -0.00000000000E+00 -0.16960728486E+03  0.16960728486E+03  0.00000000000E+00 0. -1.
         25    2    1    2    0    0 -0.85222813598E+02  0.71048979748E+02  0.23102870205E+03  0.28515019857E+03  0.12500195634E+03 0.  0.
          2    1    1    2  501    0  0.29585449583E+02 -0.51074077908E+02 -0.13530010892E+03  0.14761429380E+03  0.00000000000E+00 0. -1.
          1    1    1    2  502    0  0.55637364015E+02 -0.19974901840E+02  0.80089357167E+03  0.80307224215E+03  0.00000000000E+00 0. -1.
         22    1    3    3    0    0 -0.11278940789E+03  0.32129605664E+02  0.18381103333E+03  0.21803728595E+03  0.00000000000E+00 0.  1.
         22    1    3    3    0    0  0.27566594290E+02  0.38919374084E+02  0.47217668722E+02  0.67112912612E+02  0.00000000000E+00 0.  1.
</event>
<event>
 7    1  0.6370239E-006  0.1018728E+03  0.7818608E-02  0.1324119E+00
          2   -1    0    0  502    0  0.00000000000E+00  0.00000000000E+00  0.10572708221E+04  0.10572708221E+04  0.00000000000E+00 0. -1.
          1   -1    0    0  501    0 -0.00000000000E+00 -0.00000000000E+00 -0.65773899426E+03  0.65773899426E+03  0.00000000000E+00 0. -1.
         25    2    1    2    0    0  0.37555010851E+02  0.11041665125E+02  0.86844269094E+02  0.15715836607E+03  0.12499811095E+03 0.  0.
          2    1    1    2  501    0 -0.94686006266E+02 -0.43330865752E+02 -0.61706325109E+03  0.62578755145E+03  0.00000000000E+00 0. -1.
          1    1    1    2  502    0  0.57130995414E+02  0.32289200627E+02  0.92975080988E+03  0.93206389888E+03  0.00000000000E+00 0. -1.
         22    1    3    3    0    0 -0.36366272308E+02 -0.20718531899E+02  0.46011567205E+01  0.42106222448E+02  0.00000000000E+00 0.  1.
         22    1    3    3    0    0  0.73921283159E+02  0.31760197024E+02  0.82243112374E+02  0.11505214362E+03  0.00000000000E+00 0.  1.
</event>
<event>
 7    1  0.6370239E-006  0.5579641E+02  0.7818608E-02  0.1489299E+00
          2   -1    0    0  502    0  0.00000000000E+00  0.00000000000E+00  0.15691763215E+04  0.15691763215E+04  0.00000000000E+00 0. -1.
          1   -1    0    0  501    0 -0.00000000000E+00 -0.00000000000E+00 -0.13999226262E+04  0.13999226262E+04  0.00000000000E+00 0. -1.
         25    2    1    2    0    0  0.29327461303E+02 -0.37427491320E+01  0.47711819373E+03  0.49410615533E+03  0.12500005515E+03 0.  0.
          2    1    1    2  501    0 -0.52337109147E+02 -0.19439085032E+02 -0.13906222322E+04  0.13917425206E+04  0.00000000000E+00 0. -1.
          1    1    1    2  502    0  0.23009647843E+02  0.23181834164E+02  0.10827577337E+04  0.10832502718E+04  0.00000000000E+00 0. -1.
         22    1    3    3    0    0 -0.48630557237E+01  0.33388232540E+02  0.33227495863E+02  0.47354934953E+02  0.00000000000E+00 0.  1.
         22    1    3    3    0    0  0.34190517027E+02 -0.37130981672E+02  0.44389069786E+03  0.44675122037E+03  0.00000000000E+00 0.  1.
</event>
<event>
 7    1  0.7596354E-006  0.9400968E+02  0.7818608E-02  0.1396282E+00
          2   -1    0    0  502    0  0.00000000000E+00  0.00000000000E+00  0.18107565909E+04  0.18107565909E+04  0.00000000000E+00 0. -1.
          1   -1    0    0  501    0 -0.00000000000E+00 -0.00000000000E+00 -0.11995822902E+04  0.11995822902E+04  0.00000000000E+00 0. -1.
         25    2    1    2    0    0  0.71681759909E+02 -0.10677428063E+03 -0.11094772366E+03  0.21089098618E+03  0.12500635569E+03 0.  0.
          2    1    1    2  501    0 -0.80471571312E+01  0.37924524991E+02 -0.10370525003E+04  0.10377769099E+04  0.00000000000E+00 0. -1.
          1    1    1    2  502    0 -0.63634602778E+02  0.68849755637E+02  0.17591745246E+04  0.17616709850E+04  0.00000000000E+00 0. -1.
         22    1    3    3    0    0  0.17753163209E+01  0.22848286590E+02  0.49967369172E+01  0.23455560704E+02  0.00000000000E+00 0.  1.
         22    1    3    3    0    0  0.69906443588E+02 -0.12962256722E+03 -0.11594446057E+03  0.18743542548E+03  0.00000000000E+00 0.  1.
</event>
<event>
 7    1  0.6370239E-006  0.5145591E+02  0.7818608E-02  0.1448108E+00
          2   -1    0    0  502    0  0.00000000000E+00  0.00000000000E+00  0.60346408803E+03  0.60346408803E+03  0.00000000000E+00 0. -1.
          1   -1    0    0  501    0 -0.00000000000E+00 -0.00000000000E+00 -0.48500335208E+02  0.48500335208E+02  0.00000000000E+00 0. -1.
         25    2    1    2    0    0 -0.35552348231E+02  0.48688535055E+02  0.51020822814E+03  0.52874582084E+03  0.12500065632E+03 0.  0.
          2    1    1    2  501    0 -0.12011882595E+02 -0.50543969900E+02 -0.75485343380E+01  0.52497224569E+02  0.00000000000E+00 0. -1.
          1    1    1    2  502    0  0.47564230826E+02  0.18554348451E+01  0.52304059025E+02  0.70721377836E+02  0.00000000000E+00 0. -1.
         22    1    3    3    0    0 -0.35745916862E+02  0.41521163989E+02  0.51638423931E+03  0.51928264004E+03  0.00000000000E+00 0.  1.
         22    1    3    3    0    0  0.19356863061E+00  0.71673710659E+01 -0.61760111755E+01  0.94631807999E+01  0.00000000000E+00 0.  1.
</event>
<event>
 7    1  0.6370239E-006  0.2746271E+03  0.7818608E-02  0.1208991E+00
          2   -1    0    0  502    0  0.00000000000E+00  0.00000000000E+00  0.86486332237E+03  0.86486332237E+03  0.00000000000E+00 0. -1.
          1   -1    0    0  501    0 -0.00000000000E+00 -0.00000000000E+00 -0.43846552209E+03  0.43846552209E+03  0.00000000000E+00 0. -1.
         25    2    1    2    0    0 -0.64218494680E+02 -0.24018440802E+03  0.25556194682E+03  0.37782416647E+03  0.12500650859E+03 0.  0.
          2    1    1    2  501    0 -0.71889087049E+02 -0.20468897277E+02 -0.33346357986E+03  0.34173816832E+03  0.00000000000E+00 0. -1.
          1    1    1    2  502    0  0.13610758173E+03  0.26065330530E+03  0.50429943332E+03  0.58376650967E+03  0.00000000000E+00 0. -1.
         22    1    3    3    0    0 -0.10197181281E+03 -0.16251348167E+03  0.17991283277E+03  0.26301617769E+03  0.00000000000E+00 0. -1.
         22    1    3    3    0    0  0.37753318131E+02 -0.77670926356E+02  0.75649114051E+02  0.11480798878E+03  0.00000000000E+00 0. -1.
</event>
<event>
 7    1  0.6370239E-006  0.5509010E+02  0.7818608E-02  0.1520395E+00
          2   -1    0    0  502    0  0.00000000000E+00  0.00000000000E+00  0.56659232292E+02  0.56659232292E+02  0.00000000000E+00 0. -1.
          1   -1    0    0  501    0 -0.00000000000E+00 -0.00000000000E+00 -0.24971717072E+03  0.24971717072E+03  0.00000000000E+00 0. -1.
         25    2    1    2    0    0  0.49360882503E+02 -0.27006347113E+02 -0.73323083411E+02  0.15545680242E+03  0.12499881341E+03 0.  0.
          2    1    1    2  501    0 -0.17726752872E+02 -0.20038583120E+02 -0.71992330619E+02  0.76802853130E+02  0.00000000000E+00 0. -1.
          1    1    1    2  502    0 -0.31634129631E+02  0.47044930232E+02 -0.47742524397E+02  0.74116747458E+02  0.00000000000E+00 0. -1.
         22    1    3    3    0    0  0.45365297685E+02 -0.25460773679E+02  0.24526438482E+02  0.57513541145E+02  0.00000000000E+00 0.  1.
         22    1    3    3    0    0  0.39955848181E+01 -0.15455734331E+01 -0.97849521893E+02  0.97943261279E+02  0.00000000000E+00 0.  1.
</event>
<event>
 7    1  0.6370239E-006  0.5457172E+02  0.7818608E-02  0.1552373E+00
          2   -1    0    0  502    0  0.00000000000E+00  0.00000000000E+00  0.28575123256E+03  0.28575123256E+03  0.00000000000E+00 0. -1.
          1   -1    0    0  501    0 -0.00000000000E+00 -0.00000000000E+00 -0.88349103242E+03  0.88349103242E+03  0.00000000000E+00 0. -1.
         25    2    1    2    0    0 -0.50526129576E+02  0.38790279473E+02 -0.13668273109E+01  0.14030047153E+03  0.12499911417E+03 0.  0.
          2    1    1    2  501    0 -0.10717302990E+01 -0.21884228056E+02 -0.80909900980E+03  0.80939562372E+03  0.00000000000E+00 0. -1.
          1    1    1    2  502    0  0.51597859875E+02 -0.16906051417E+02  0.21272603725E+03  0.21954616973E+03  0.00000000000E+00 0. -1.
         22    1    3    3    0    0 -0.66191951903E+02  0.65969356062E+02 -0.29669791626E+02  0.98049104897E+02  0.00000000000E+00 0.  1.
         22    1    3    3    0    0  0.15665822327E+02 -0.27179076589E+02  0.28302964315E+02  0.42251366634E+02  0.00000000000E+00 0.  1.
</event>
<event>
 7    1  0.6370239E-006  0.4125337E+02  0.7818608E-02  0.1588996E+00
          2   -1    0    0  502    0  0.00000000000E+00  0.00000000000E+00  0.31302671371E+03  0.31302671371E+03  0.00000000000E+00 0. -1.
          1   -1    0    0  501    0 -0.00000000000E+00 -0.00000000000E+00 -0.15597316737E+04  0.15597316737E+04  0.00000000000E+00 0. -1.
         25    2    1    2    0    0  0.50883118656E+02  0.29504433298E+02 -0.46102940556E+03  0.48128276841E+03  0.12500154811E+03 0.  0.
          2    1    1    2  501    0 -0.39578690090E+02 -0.94126655980E+01 -0.10877561311E+04  0.10885166383E+04  0.00000000000E+00 0. -1.
          1    1    1    2  502    0 -0.11304428567E+02 -0.20091767700E+02  0.30208057666E+03  0.30295898077E+03  0.00000000000E+00 0. -1.
         22    1    3    3    0    0  0.52461361088E+02  0.72963884443E+02 -0.24601801413E+03  0.26191751777E+03  0.00000000000E+00 0.  1.
         22    1    3    3    0    0 -0.15782424322E+01 -0.43459451146E+02 -0.21501139142E+03  0.21936525063E+03  0.00000000000E+00 0.  1.
</event>
<event>
 7    1  0.6370239E-006  0.2764157E+03  0.7818608E-02  0.1214111E+00
          2   -1    0    0  502    0  0.00000000000E+00  0.00000000000E+00  0.14137045494E+04  0.14137045494E+04  0.00000000000E+00 0. -1.
          1   -1    0    0  501    0 -0.00000000000E+00 -0.00000000000E+00 -0.88741555962E+03  0.88741555962E+03  0.00000000000E+00 0. -1.
         25    2    1    2    0    0  0.12893274635E+03 -0.28756813885E+03  0.29862972319E+03  0.45179984196E+03  0.12499719220E+03 0.  0.
          2    1    1    2  501    0 -0.15865576312E+03  0.22383702666E+03 -0.78636875398E+03  0.83285682017E+03  0.00000000000E+00 0. -1.
          1    1    1    2  502    0  0.29723016771E+02  0.63731112185E+02  0.10140280206E+04  0.10164634469E+04  0.00000000000E+00 0. -1.
         22    1    3    3    0    0  0.27976802997E+02 -0.48021851650E+02 -0.39688769566E+00  0.55578388440E+02  0.00000000000E+00 0. -1.
         22    1    3    3    0    0  0.10095594335E+03 -0.23954628720E+03  0.29902661089E+03  0.39622145352E+03  0.00000000000E+00 0. -1.
</event>
<event>
 7    1  0.6370239E-006  0.1573067E+03  0.7818608E-02  0.1304500E+00
          2   -1    0    0  502    0  0.00000000000E+00  0.00000000000E+00  0.57424303765E+03  0.57424303765E+03  0.00000000000E+00 0. -1.
          1   -1    0    0  501    0 -0.00000000000E+00 -0.00000000000E+00 -0.90515968763E+03  0.90515968763E+03  0.00000000000E+00 0. -1.
         25    2    1    2    0    0 -0.77446054722E+02 -0.75875686153E+02 -0.42361881272E+03  0.45478956496E+03  0.12500255504E+03 0.  0.
          2    1    1    2  501    0 -0.42064075879E+02 -0.28339416845E+02 -0.45326073256E+03  0.45608968494E+03  0.00000000000E+00 0. -1.
          1    1    1    2  502    0  0.11951013060E+03  0.10421510300E+03  0.54596289530E+03  0.56852347538E+03  0.00000000000E+00 0. -1.
         22    1    3    3    0    0 -0.13102800362E+02 -0.96792433308E+02 -0.24106935731E+03  0.26010554311E+03  0.00000000000E+00 0.  1.
         22    1    3    3    0    0 -0.64343254361E+02  0.20916747155E+02 -0.18254945541E+03  0.19468402185E+03  0.00000000000E+00 0.  1.
</event>
<event>
 7    1  0.6370239E-006  0.1736477E+03  0.7818608E-02  0.1234173E+00
          2   -1    0    0  502    0  0.00000000000E+00  0.00000000000E+00  0.59535419605E+03  0.59535419605E+03  0.00000000000E+00 0. -1.
          1   -1    0    0  501    0 -0.00000000000E+00 -0.00000000000E+00 -0.54886479902E+03  0.54886479902E+03  0.00000000000E+00 0. -1.
         25    2    1    2    0    0  0.12458072240E+02 -0.15200506788E+03  0.15729301620E+02  0.19781972830E+03  0.12499795898E+03 0.  0.
          2    1    1    2  501    0 -0.10317242885E+03  0.14781887240E+03 -0.43552344034E+03  0.47135510626E+03  0.00000000000E+00 0. -1.
          1    1    1    2  502    0  0.90714356612E+02  0.41861954762E+01  0.46628353575E+03  0.47504416052E+03  0.00000000000E+00 0. -1.
         22    1    3    3    0    0 -0.13867702249E+02 -0.14899392426E+03  0.46987593208E+02  0.15684175639E+03  0.00000000000E+00 0. -1.
         22    1    3    3    0    0  0.26325774489E+02 -0.30111436167E+01 -0.31258291589E+02  0.40977971904E+02  0.00000000000E+00 0. -1.
</event>
<event>
 7    1  0.6370239E-006  0.1160361E+03  0.7818608E-02  0.1384376E+00
          2   -1    0    0  502    0  0.00000000000E+00  0.00000000000E+00  0.17705689066E+04  0.17705689066E+04  0.00000000000E+00 0. -1.
          1   -1    0    0  501    0 -0.00000000000E+00 -0.00000000000E+00 -0.15715171453E+04  0.15715171453E+04  0.00000000000E+00 0. -1.
         25    2    1    2    0    0 -0.63746565496E+02  0.55564857349E+02  0.11139948190E+03  0.18758171660E+03  0.12500391134E+03 0.  0.
          2    1    1    2  501    0 -0.31954847811E+02  0.13167070656E+02 -0.15310897687E+04  0.15314797954E+04  0.00000000000E+00 0. -1.
          1    1    1    2  502    0  0.95701413307E+02 -0.68731928005E+02  0.16187420481E+04  0.16230245398E+04  0.00000000000E+00 0. -1.
         22    1    3    3    0    0 -0.77839448565E+02 -0.13444918760E+02  0.71972537269E+02  0.10686342552E+03  0.00000000000E+00 0. -1.
         22    1    3    3    0    0  0.14092883069E+02  0.69009776109E+02  0.39426944635E+02  0.80718291081E+02  0.00000000000E+00 0. -1.
</event>
<event>
 7    1  0.6370239E-006  0.1558643E+03  0.7818608E-02  0.1314620E+00
          2   -1    0    0  502    0  0.00000000000E+00  0.00000000000E+00  0.15181790028E+04  0.15181790028E+04  0.00000000000E+00 0. -1.
          1   -1    0    0  501    0 -0.00000000000E+00 -0.00000000000E+00 -0.42361228488E+03  0.42361228488E+03  0.00000000000E+00 0. -1.
         25    2    1    2    0    0  0.16848821274E+02  0.19709033762E+03 -0.14876128007E+03  0.27727748292E+03  0.12499760046E+03 0.  0.
          2    1    1    2  501    0  0.12853083644E+02 -0.44891196197E+02 -0.20381019747E+03  0.20909093200E+03  0.00000000000E+00 0. -1.
          1    1    1    2  502    0 -0.29701904918E+02 -0.15219914142E+03  0.14471381955E+04  0.14554228728E+04  0.00000000000E+00 0. -1.
         22    1    3    3    0    0  0.45203367118E+01  0.99289194502E+02 -0.68925202144E+00  0.99394429709E+02  0.00000000000E+00 0.  1.
         22    1    3    3    0    0  0.12328484562E+02  0.97801143118E+02 -0.14807202805E+03  0.17788305321E+03  0.00000000000E+00 0.  1.
</event>
<event>
 7    1  0.6370239E-006  0.7677414E+02  0.7818608E-02  0.1339349E+00
          2   -1    0    0  502    0  0.00000000000E+00  0.00000000000E+00  0.30360817471E+03  0.30360817471E+03  0.00000000000E+00 0. -1.
          1   -1    0    0  501    0 -0.00000000000E+00 -0.00000000000E+00 -0.24675176535E+04  0.24675176535E+04  0.00000000000E+00 0. -1.
         25    2    1    2    0    0 -0.11930309847E+03  0.47856525477E+02 -0.33824974136E+03  0.38283353201E+03  0.12500059748E+03 0.  0.
          2    1    1    2  501    0  0.44308022326E+02 -0.61977212869E+02 -0.21010975120E+04  0.21024783306E+04  0.00000000000E+00 0. -1.
          1    1    1    2  502    0  0.74995076141E+02  0.14120687393E+02  0.27543777458E+03  0.28581396558E+03  0.00000000000E+00 0. -1.
         22    1    3    3    0    0 -0.83120114956E+01  0.60349528920E+02 -0.73343715799E+02  0.95343881939E+02  0.00000000000E+00 0.  1.
         22    1    3    3    0    0 -0.11099108697E+03 -0.12493003443E+02 -0.26490602556E+03  0.28748965007E+03  0.00000000000E+00 0.  1.
</event>
<event>
 7    1  0.6370239E-006  0.2548393E+02  0.7818608E-02  0.1654888E+00
          2   -1    0    0  502    0  0.00000000000E+00  0.00000000000E+00  0.11405956254E+03  0.11405956254E+03  0.00000000000E+00 0. -1.
          1   -1    0    0  501    0 -0.00000000000E+00 -0.00000000000E+00 -0.49243707301E+03  0.49243707301E+03  0.00000000000E+00 0. -1.
         25    2    1    2    0    0  0.46492937898E+02  0.17403039369E+02  0.28551173892E+02  0.13749229487E+03  0.12499801025E+03 0.  0.
          2    1    1    2  501    0 -0.25102382920E+02 -0.37468783391E+01 -0.43234379480E+03  0.43308812687E+03  0.00000000000E+00 0. -1.
          1    1    1    2  502    0 -0.21390554978E+02 -0.13656161030E+02  0.25415110440E+02  0.35916213818E+02  0.00000000000E+00 0. -1.
         22    1    3    3    0    0 -0.28423038761E+02  0.28201746296E+02 -0.22752769425E+02  0.46053188197E+02  0.00000000000E+00 0. -1.
         22    1    3    3    0    0  0.74915976659E+02 -0.10798706927E+02  0.51303943318E+02  0.91439106678E+02  0.00000000000E+00 0. -1.
</event>
<event>
 7    1  0.6370239E-006  0.1390640E+03  0.7818608E-02  0.1375468E+00
          2   -1    0    0  502    0  0.00000000000E+00  0.00000000000E+00  0.11192424734E+04  0.11192424734E+04  0.00000000000E+00 0. -1.
          1   -1    0    0  501    0 -0.00000000000E+00 -0.00000000000E+00 -0.36271883951E+03  0.36271883951E+03  0.00000000000E+00 0. -1.
         25    2    1    2    0    0  0.10525701109E+03 -0.12606286239E+03 -0.25866051690E+02  0.20802393271E+03  0.12503607596E+03 0.  0.
          2    1    1    2  501    0 -0.29032442946E+02  0.10900450049E+02 -0.24013474203E+03  0.24212888486E+03  0.00000000000E+00 0. -1.
          1    1    1    2  502    0 -0.76224568140E+02  0.11516241234E+03  0.10225244276E+04  0.10318084953E+04  0.00000000000E+00 0. -1.
         22    1    3    3    0    0  0.27726875970E+01 -0.78059033194E+02 -0.49419119667E+02  0.92429161245E+02  0.00000000000E+00 0. -1.
         22    1    3    3    0    0  0.10248432349E+03 -0.48003829195E+02  0.23553067977E+02  0.11559477146E+03  0.00000000000E+00 0. -1.
</event>
<event>
 7    1  0.6370239E-006  0.8487614E+02  0.7818608E-02  0.1453672E+00
          2   -1    0    0  502    0  0.00000000000E+00  0.00000000000E+00  0.33206482242E+03  0.33206482242E+03  0.00000000000E+00 0. -1.
          1   -1    0    0  501    0 -0.00000000000E+00 -0.00000000000E+00 -0.91840192005E+03  0.91840192005E+03  0.00000000000E+00 0. -1.
         25    2    1    2    0    0 -0.12378275714E+02 -0.10011430038E+03 -0.42107014804E+02  0.16605421473E+03  0.12499962673E+03 0.  0.
          2    1    1    2  501    0  0.30129994810E+02  0.78850026100E+02 -0.81141591132E+03  0.81579465820E+03  0.00000000000E+00 0. -1.
          1    1    1    2  502    0 -0.17751719096E+02  0.21264274275E+02  0.26718582850E+03  0.26861786955E+03  0.00000000000E+00 0. -1.
         22    1    3    3    0    0 -0.51832448747E+02 -0.27878905106E+01  0.24692490525E+01  0.51966068425E+02  0.00000000000E+00 0. -1.
         22    1    3    3    0    0  0.39454173033E+02 -0.97326409865E+02 -0.44576263856E+02  0.11408814630E+03  0.00000000000E+00 0. -1.
</event>
<event>
 7    1  0.6370239E-006  0.9965412E+02  0.7818608E-02  0.1324334E+00
          2   -1    0    0  502    0  0.00000000000E+00  0.00000000000E+00  0.10285133368E+04  0.10285133368E+04  0.00000000000E+00 0. -1.
          1   -1    0    0  501    0 -0.00000000000E+00 -0.00000000000E+00 -0.12576175638E+03  0.12576175638E+03  0.00000000000E+00 0. -1.
         25    2    1    2    0    0 -0.15627869291E+03  0.28523853040E+02  0.36685703829E+03  0.41886094374E+03  0.12499505432E+03 0.  0.
          2    1    1    2  501    0  0.65518703118E+02 -0.13806428350E+02 -0.84742796214E+02  0.10800305288E+03  0.00000000000E+00 0. -1.
          1    1    1    2  502    0  0.90759989793E+02 -0.14717424690E+02  0.62063733830E+03  0.62741109652E+03  0.00000000000E+00 0. -1.
         22    1    3    3    0    0 -0.11654752249E+03  0.23495896301E+02  0.35883355171E+03  0.37801706307E+03  0.00000000000E+00 0. -1.
         22    1    3    3    0    0 -0.39731170416E+02  0.50279567389E+01  0.80234865804E+01  0.40843880674E+02  0.00000000000E+00 0. -1.
</event>
<event>
 7    1  0.6370239E-006  0.3490835E+03  0.7818608E-02  0.1063391E+00
          2   -1    0    0  502    0  0.00000000000E+00  0.00000000000E+00  0.28159429041E+03  0.28159429041E+03  0.00000000000E+00 0. -1.
          1   -1    0    0  501    0 -0.00000000000E+00 -0.00000000000E+00 -0.14037793237E+04  0.14037793237E+04  0.00000000000E+00 0. -1.
         25    2    1    2    0    0 -0.39633587917E+02 -0.15998150421E+03 -0.41225335073E+03  0.46123957195E+03  0.12499685821E+03 0.  0.
          2    1    1    2  501    0 -0.30807634181E+03 -0.16001080589E+03 -0.66411432655E+03  0.74937462534E+03  0.00000000000E+00 0. -1.
          1    1    1    2  502    0  0.34770992973E+03  0.31999231010E+03 -0.45817356027E+02  0.47475941683E+03  0.00000000000E+00 0. -1.
         22    1    3    3    0    0 -0.16028181163E+02 -0.17677326675E+03 -0.36368592749E+03  0.40468894757E+03  0.00000000000E+00 0.  1.
         22    1    3    3    0    0 -0.23605406754E+02  0.16791762546E+02 -0.48567423239E+02  0.56550624378E+02  0.00000000000E+00 0.  1.
</event>
<event>
 7    1  0.6370239E-006  0.1062246E+03  0.7818608E-02  0.1441479E+00
          2   -1    0    0  502    0  0.00000000000E+00  0.00000000000E+00  0.93008324271E+03  0.93008324271E+03  0.00000000000E+00 0. -1.
          1   -1    0    0  501    0 -0.00000000000E+00 -0.00000000000E+00 -0.50193357593E+03  0.50193357593E+03  0.00000000000E+00 0. -1.
         25    2    1    2    0    0 -0.98488039400E+00 -0.12706596958E+03 -0.11398816390E+03  0.21157872332E+03  0.12500209612E+03 0.  0.
          2    1    1    2  501    0 -0.47804007023E+00  0.10288939407E+03 -0.33117469710E+03  0.34678975754E+03  0.00000000000E+00 0. -1.
          1    1    1    2  502    0  0.14629204642E+01  0.24176575516E+02  0.87331252778E+03  0.87364833779E+03  0.00000000000E+00 0. -1.
         22    1    3    3    0    0 -0.53240801752E+02 -0.49493037904E+02 -0.88713595087E+02  0.11469196016E+03  0.00000000000E+00 0.  1.
         22    1    3    3    0    0  0.52255921358E+02 -0.77572931681E+02 -0.25274568816E+02  0.96886763158E+02  0.00000000000E+00 0.  1.
</event>
<event>
 7    1  0.6370239E-006  0.3795233E+02  0.7818608E-02  0.1538723E+00
          2   -1    0    0  502    0  0.00000000000E+00  0.00000000000E+00  0.55503021271E+02  0.55503021271E+02  0.00000000000E+00 0. -1.
          1   -1    0    0  501    0 -0.00000000000E+00 -0.00000000000E+00 -0.10870864515E+04  0.10870864515E+04  0.00000000000E+00 0. -1.
         25    2    1    2    0    0  0.68606501810E+02  0.75053899424E+01 -0.47023699772E+03  0.49143692264E+03  0.12499692773E+03 0.  0.
          2    1    1    2  501    0 -0.34460426174E+02 -0.11758365149E+02 -0.59902230951E+03  0.60012790921E+03  0.00000000000E+00 0. -1.
          1    1    1    2  502    0 -0.34146075637E+02  0.42529752064E+01  0.37675876965E+02  0.51024640955E+02  0.00000000000E+00 0. -1.
         22    1    3    3    0    0  0.25811345944E+01 -0.15057629794E+02 -0.36409287222E+03  0.36441324629E+03  0.00000000000E+00 0. -1.
         22    1    3    3    0    0  0.66025367216E+02  0.22563019737E+02 -0.10614412550E+03  0.12702367635E+03  0.00000000000E+00 0. -1.
</event>
<event>
 7    1  0.6370239E-006  0.6559744E+02  0.7818608E-02  0.1398154E+00
          2   -1    0    0  502    0  0.00000000000E+00  0.00000000000E+00  0.65161542006E+03  0.65161542006E+03  0.00000000000E+00 0. -1.
          1   -1    0    0  501    0 -0.00000000000E+00 -0.00000000000E+00 -0.13779775141E+04  0.13779775141E+04  0.00000000000E+00 0. -1.
         25    2    1    2    0    0  0.10410996562E+03 -0.42591807014E+02 -0.12377384270E+03  0.20880951670E+03  0.12501401185E+03 0.  0.
          2    1    1    2  501    0 -0.49374388583E+02  0.41892038999E+02 -0.12095882508E+04  0.12113201516E+04  0.00000000000E+00 0. -1.
          1    1    1    2  502    0 -0.54735577041E+02  0.69976801440E+00  0.60699999947E+03  0.60946326586E+03  0.00000000000E+00 0. -1.
         22    1    3    3    0    0  0.80553698489E+02  0.22698695376E+02 -0.10971342327E+03  0.13798972555E+03  0.00000000000E+00 0.  1.
         22    1    3    3    0    0  0.23556267135E+02 -0.65290502390E+02 -0.14060419430E+02  0.70819791147E+02  0.00000000000E+00 0.  1.
</event>
<event>
 7    1  0.6370239E-006  0.5608488E+02  0.7818608E-02  0.1546873E+00
          2   -1    0    0  502    0  0.00000000000E+00  0.00000000000E+00  0.77893685186E+03  0.77893685186E+03  0.00000000000E+00 0. -1.
          1   -1    0    0  501    0 -0.00000000000E+00 -0.00000000000E+00 -0.82977984350E+02  0.82977984350E+02  0.00000000000E+00 0. -1.
         25    2    1    2    0    0 -0.38155037165E+02 -0.27302560800E+02  0.16049507250E+03  0.20877446329E+03  0.12500748594E+03 0.  0.
          2    1    1    2  501    0  0.30648631929E+02  0.48074153525E+02 -0.44767692860E+02  0.72488683257E+02  0.00000000000E+00 0. -1.
          1    1    1    2  502    0  0.75064052356E+01 -0.20771592725E+02  0.58023148788E+03  0.58065168966E+03  0.00000000000E+00 0. -1.
         22    1    3    3    0    0 -0.31721418438E+02 -0.22597585055E+02  0.18185344562E+03  0.18597735056E+03  0.00000000000E+00 0.  1.
         22    1    3    3    0    0 -0.64336187261E+01 -0.47049757449E+01 -0.21358373121E+02  0.22797112735E+02  0.00000000000E+00 0.  1.
</event>
<event>
 7    1  0.6370239E-006  0.1160056E+03  0.7818608E-02  0.1356400E+00
          2   -1    0    0  502    0  0.00000000000E+00  0.00000000000E+00  0.59977303084E+03  0.59977303084E+03  0.00000000000E+00 0. -1.
          1   -1    0    0  501    0 -0.00000000000E+00 -0.00000000000E+00 -0.46669115451E+03  0.46669115451E+03  0.00000000000E+00 0. -1.
         25    2    1    2    0    0 -0.94948719621E+02 -0.64177639387E+02 -0.33484272013E+02  0.17285459965E+03  0.12499394942E+03 0.  0.
          2    1    1    2  501    0  0.11442588600E+03  0.25198754884E+02 -0.35314507329E+03  0.37207486266E+03  0.00000000000E+00 0. -1.
          1    1    1    2  502    0 -0.19477166382E+02  0.38978884503E+02  0.51971122163E+03  0.52153472304E+03  0.00000000000E+00 0. -1.
         22    1    3    3    0    0  0.27187175589E+01 -0.22925689600E+00  0.36593983916E+02  0.36695553447E+02  0.00000000000E+00 0. -1.
         22    1    3    3    0    0 -0.97667437180E+02 -0.63948382491E+02 -0.70078255929E+02  0.13615904620E+03  0.00000000000E+00 0. -1.
</event>
<event>
 7    1  0.6370239E-006  0.5177719E+02  0.7818608E-02  0.1510894E+00
          2   -1    0    0  502    0  0.00000000000E+00  0.00000000000E+00  0.38000501176E+03  0.38000501176E+03  0.00000000000E+00 0. -1.
          1   -1    0    0  501    0 -0.00000000000E+00 -0.00000000000E+00 -0.17200643069E+03  0.17200643069E+03  0.00000000000E+00 0. -1.
         25    2    1    2    0    0 -0.67461138046E+02 -0.15314172966E+02  0.20647340084E+03  0.25108582852E+03  0.12500919562E+03 0.  0.
          2    1    1    2  501    0  0.18814124307E+02  0.23808088710E+02 -0.14404534648E+03  0.14720685516E+03  0.00000000000E+00 0. -1.
          1    1    1    2  502    0  0.48647013739E+02 -0.84939157431E+01  0.14557052672E+03  0.15371875878E+03  0.00000000000E+00 0. -1.
         22    1    3    3    0    0 -0.90271628796E+02  0.71582513126E+01  0.19836101466E+03  0.21805343305E+03  0.00000000000E+00 0. -1.
         22    1    3    3    0    0  0.22810490750E+02 -0.22472424279E+02  0.81123861799E+01  0.33032395474E+02  0.00000000000E+00 0. -1.
</event>
<event>
 7    1  0.6370239E-006  0.1994827E+03  0.7818608E-02  0.1235086E+00
          2   -1    0    0  502    0  0.00000000000E+00  0.00000000000E+00  0.52068680831E+03  0.52068680831E+03  0.00000000000E+00 0. -1.
          1   -1    0    0  501    0 -0.00000000000E+00 -0.00000000000E+00 -0.18128471024E+04  0.18128471024E+04  0.00000000000E+00 0. -1.
         25    2    1    2    0    0 -0.13400187454E+00  0.12333375849E+03 -0.72057602279E+03  0.74166416701E+03  0.12499879225E+03 0.  0.
          2    1    1    2  501    0  0.45808098872E+01  0.78180324966E+02 -0.10603164216E+04  0.10632046185E+04  0.00000000000E+00 0. -1.
          1    1    1    2  502    0 -0.44468080126E+01 -0.20151408345E+03  0.48873215024E+03  0.52866512521E+03  0.00000000000E+00 0. -1.
         22    1    3    3    0    0 -0.30199030464E+02  0.13831825123E+03 -0.56077848586E+03  0.57837395365E+03  0.00000000000E+00 0. -1.
         22    1    3    3    0    0  0.30065028589E+02 -0.14984492748E+02 -0.15979753693E+03  0.16329021335E+03  0.00000000000E+00 0. -1.
</event>
<event>
 7    1  0.6370239E-006  0.6181374E+02  0.7818608E-02  0.1539159E+00
          2   -1    0    0  502    0  0.00000000000E+00  0.00000000000E+00  0.28752114937E+03  0.28752114937E+03  0.00000000000E+00 0. -1.
          1   -1    0    0  501    0 -0.00000000000E+00 -0.00000000000E+00 -0.32669407625E+03  0.32669407625E+03  0.00000000000E+00 0. -1.
         25    2    1    2    0    0 -0.30205510768E+02 -0.29963092055E+02 -0.98601897563E+02  0.16479877112E+03  0.12500456389E+03 0.  0.
          2    1    1    2  501    0 -0.76390795174E+01 -0.19633279742E+02 -0.19058021060E+03  0.19174106989E+03  0.00000000000E+00 0. -1.
          1    1    1    2  502    0  0.37844590285E+02  0.49596371797E+02  0.25000918128E+03  0.25767538461E+03  0.00000000000E+00 0. -1.
         22    1    3    3    0    0 -0.73869767475E+02 -0.81407710518E+01 -0.87384062567E+02  0.11471263701E+03  0.00000000000E+00 0. -1.
         22    1    3    3    0    0  0.43664256707E+02 -0.21822321003E+02 -0.11217834996E+02  0.50086134107E+02  0.00000000000E+00 0. -1.
</event>
<event>
 7    1  0.6370239E-006  0.8675184E+02  0.7818608E-02  0.1436811E+00
          2   -1    0    0  502    0  0.00000000000E+00  0.00000000000E+00  0.23954711625E+04  0.23954711625E+04  0.00000000000E+00 0. -1.
          1   -1    0    0  501    0 -0.00000000000E+00 -0.00000000000E+00 -0.95263719806E+02  0.95263719806E+02  0.00000000000E+00 0. -1.
         25    2    1    2    0    0 -0.84360095367E+02 -0.42957600962E+02  0.58577499490E+03  0.60639787709E+03  0.12499623802E+03 0.  0.
          2    1    1    2  501    0  0.24125435175E+02 -0.19004436661E+02 -0.81103083404E+02  0.86723211269E+02  0.00000000000E+00 0. -1.
          1    1    1    2  502    0  0.60234660192E+02  0.61962037623E+02  0.17955355312E+04  0.17976137940E+04  0.00000000000E+00 0. -1.
         22    1    3    3    0    0 -0.10348535161E+03 -0.16755578530E+02  0.28129469517E+03  0.30019439192E+03  0.00000000000E+00 0.  1.
         22    1    3    3    0    0  0.19125256244E+02 -0.26202022432E+02  0.30448029973E+03  0.30620348517E+03  0.00000000000E+00 0.  1.
</event>
<event>
 7    1  0.6370239E-006  0.4769167E+02  0.7818608E-02  0.1583070E+00
          2   -1    0    0  502    0  0.00000000000E+00  0.00000000000E+00  0.81998792624E+03  0.81998792624E+03  0.00000000000E+00 0. -1.
          1   -1    0    0  501    0 -0.00000000000E+00 -0.00000000000E+00 -0.62670404497E+02  0.62670404497E+02  0.00000000000E+00 0. -1.
         25    2    1    2    0    0 -0.31286557398E+02 -0.47026019541E+02  0.38958773307E+03  0.41302477538E+03  0.12498227129E+03 0.  0.
          2    1    1    2  501    0  0.20644475402E+02  0.11900250983E+01 -0.47468624355E+02  0.51777223009E+02  0.00000000000E+00 0. -1.
          1    1    1    2  502    0  0.10642081995E+02  0.45835994443E+02  0.41519841303E+03  0.41785633234E+03  0.00000000000E+00 0. -1.
         22    1    3    3    0    0 -0.48475411095E+02 -0.38582776850E+02  0.72529896130E+02  0.95389108303E+02  0.00000000000E+00 0.  1.
         22    1    3    3    0    0  0.17188853697E+02 -0.84432426909E+01  0.31705783694E+03  0.31763566708E+03  0.00000000000E+00 0.  1.
</event>
<event>
 7    1  0.6370239E-006  0.1222502E+03  0.7818608E-02  0.1364411E+00
          2   -1    0    0  502    0  0.00000000000E+00  0.00000000000E+00  0.98883428278E+03  0.98883428278E+03  0.00000000000E+00 0. -1.
          1   -1    0    0  501    0 -0.00000000000E+00 -0.00000000000E+00 -0.64614652128E+03  0.64614652128E+03  0.00000000000E+00 0. -1.
         25    2    1    2    0    0 -0.10160639891E+03  0.14862393131E+02  0.56378023290E+02  0.17131759867E+03  0.12500594815E+03 0.  0.
          2    1    1    2  501    0 -0.11062463735E+02  0.37041499998E+02 -0.58363735205E+03  0.58491624147E+03  0.00000000000E+00 0. -1.
          1    1    1    2  502    0  0.11266886265E+03 -0.51903893129E+02  0.86994709027E+03  0.87874696392E+03  0.00000000000E+00 0. -1.
         22    1    3    3    0    0 -0.11142829335E+03 -0.11207338870E+02  0.77640948528E+02  0.13627173548E+03  0.00000000000E+00 0.  1.
         22    1    3    3    0    0  0.98218944311E+01  0.26069732001E+02 -0.21262925238E+02  0.35045863187E+02  0.00000000000E+00 0.  1.
</event>
<event>
 7    1  0.6370239E-006  0.4238643E+02  0.7818608E-02  0.1602522E+00
          2   -1    0    0  502    0  0.00000000000E+00  0.00000000000E+00  0.59655266025E+03  0.59655266025E+03  0.00000000000E+00 0. -1.
          1   -1    0    0  501    0 -0.00000000000E+00 -0.00000000000E+00 -0.12331184658E+04  0.12331184658E+04  0.00000000000E+00 0. -1.
         25    2    1    2    0    0  0.19379709443E+02 -0.47343011418E+02  0.19003623718E+03  0.23313568174E+03  0.12498616239E+03 0.  0.
          2    1    1    2  501    0 -0.20003815072E+02  0.52235918263E+01 -0.12103278656E+04  0.12105044323E+04  0.00000000000E+00 0. -1.
          1    1    1    2  502    0  0.62410562890E+00  0.42119419592E+02  0.38372582289E+03  0.38603101193E+03  0.00000000000E+00 0. -1.
         22    1    3    3    0    0 -0.97347798309E+00 -0.87352797530E+02  0.14670403251E+03  0.17074405422E+03  0.00000000000E+00 0.  1.
         22    1    3    3    0    0  0.20353187426E+02  0.40009786112E+02  0.43332204673E+02  0.62391627523E+02  0.00000000000E+00 0.  1.
</event>
<event>
 7    1  0.6370239E-006  0.2361369E+03  0.7818608E-02  0.1257985E+00
          2   -1    0    0  502    0  0.00000000000E+00  0.00000000000E+00  0.43919835475E+03  0.43919835475E+03  0.00000000000E+00 0. -1.
          1   -1    0    0  501    0 -0.00000000000E+00 -0.00000000000E+00 -0.41131926722E+03  0.41131926722E+03  0.00000000000E+00 0. -1.
         25    2    1    2    0    0  0.51966428544E+02 -0.19975538298E+03 -0.54647616807E+02  0.24741127535E+03  0.12499301750E+03 0.  0.
          2    1    1    2  501    0 -0.45506791552E+02  0.25191836711E+03 -0.19426983764E+03  0.32136350381E+03  0.00000000000E+00 0. -1.
          1    1    1    2  502    0 -0.64596369912E+01 -0.52162984134E+02  0.27679654198E+03  0.28174284281E+03  0.00000000000E+00 0. -1.
         22    1    3    3    0    0  0.30226496711E+02 -0.13054263239E+03 -0.95132536384E+02  0.16433264878E+03  0.00000000000E+00 0.  1.
         22    1    3    3    0    0  0.21739931833E+02 -0.69212750583E+02  0.40484919577E+02  0.83078626569E+02  0.00000000000E+00 0.  1.
</event>
<event>
 7    1  0.6433516E-006  0.1520873E+03  0.7818608E-02  0.1318803E+00
          2   -1    0    0  502    0  0.00000000000E+00  0.00000000000E+00  0.23214573990E+04  0.23214573990E+04  0.00000000000E+00 0. -1.
          1   -1    0    0  501    0 -0.00000000000E+00 -0.00000000000E+00 -0.59867836693E+03  0.59867836693E+03  0.00000000000E+00 0. -1.
         25    2    1    2    0    0  0.28554093522E+01 -0.10948307805E+03  0.13061860215E+02  0.16669908851E+03  0.12499310451E+03 0.  0.
          2    1    1    2  501    0 -0.14898419932E+02 -0.43616069371E+02 -0.51819356929E+03  0.52023927156E+03  0.00000000000E+00 0. -1.
          1    1    1    2  502    0  0.12043010580E+02  0.15309914742E+03  0.22279107412E+04  0.22331974059E+04  0.00000000000E+00 0. -1.
         22    1    3    3    0    0  0.83337620728E+01 -0.13146021010E+03  0.33797903464E+02  0.13599094348E+03  0.00000000000E+00 0. -1.
         22    1    3    3    0    0 -0.54783527206E+01  0.21977132047E+02 -0.20736043249E+02  0.30708145030E+02  0.00000000000E+00 0. -1.
</event>
<event>
 7    1  0.6370239E-006  0.7064170E+02  0.7818608E-02  0.1392581E+00
          2   -1    0    0  502    0  0.00000000000E+00  0.00000000000E+00  0.27588913979E+04  0.27588913979E+04  0.00000000000E+00 0. -1.
          1   -1    0    0  501    0 -0.00000000000E+00 -0.00000000000E+00 -0.75709071233E+02  0.75709071233E+02  0.00000000000E+00 0. -1.
         25    2    1    2    0    0 -0.81905523038E+02 -0.40993841531E+02  0.10300774236E+03  0.18607766568E+03  0.12500117172E+03 0.  0.
          2    1    1    2  501    0  0.32487958036E+02  0.60534168680E+02  0.90631347168E+00  0.68707164104E+02  0.00000000000E+00 0. -1.
          1    1    1    2  502    0  0.49417565003E+02 -0.19540327148E+02  0.25792682709E+04  0.25798156394E+04  0.00000000000E+00 0. -1.
         22    1    3    3    0    0 -0.89764263102E+01 -0.74264183169E+02  0.50079191495E+02  0.90020389645E+02  0.00000000000E+00 0.  1.
         22    1    3    3    0    0 -0.72929096728E+02  0.33270341638E+02  0.52928550869E+02  0.96057276036E+02  0.00000000000E+00 0.  1.
</event>
<event>
 7    1  0.6370239E-006  0.1107629E+03  0.7818608E-02  0.1280084E+00
          2   -1    0    0  502    0  0.00000000000E+00  0.00000000000E+00  0.12041037356E+04  0.12041037356E+04  0.00000000000E+00 0. -1.
          1   -1    0    0  501    0 -0.00000000000E+00 -0.00000000000E+00 -0.33988591110E+03  0.33988591110E+03  0.00000000000E+00 0. -1.
         25    2    1    2    0    0 -0.13645665752E+02 -0.39796965241E+02  0.10637829941E+02  0.13231857764E+03  0.12500015971E+03 0.  0.
          2    1    1    2  501    0 -0.89989282902E+02 -0.92662405722E+01 -0.26871481041E+03  0.28353409599E+03  0.00000000000E+00 0. -1.
          1    1    1    2  502    0  0.10363494865E+03  0.49063205813E+02  0.11222948050E+04  0.11281369731E+04  0.00000000000E+00 0. -1.
         22    1    3    3    0    0 -0.19915013061E+02  0.35504335072E+02 -0.26041031004E+02  0.48324950593E+02  0.00000000000E+00 0. -1.
         22    1    3    3    0    0  0.62693473096E+01 -0.75301300312E+02  0.36678860945E+02  0.83993627048E+02  0.00000000000E+00 0. -1.
</event>
<event>
 7    1  0.6370239E-006  0.1305119E+03  0.7818608E-02  0.1327054E+00
          2   -1    0    0  502    0  0.00000000000E+00  0.00000000000E+00  0.12610611937E+04  0.12610611937E+04  0.00000000000E+00 0. -1.
          1   -1    0    0  501    0 -0.00000000000E+00 -0.00000000000E+00 -0.33313631912E+03  0.33313631912E+03  0.00000000000E+00 0. -1.
         25    2    1    2    0    0 -0.17000172858E+03  0.15523166768E+02  0.16871204444E+03  0.27061138702E+03  0.12500084968E+03 0.  0.
          2    1    1    2  501    0  0.12350393177E+03 -0.33658919765E+02 -0.26703181288E+03  0.29612857534E+03  0.00000000000E+00 0. -1.
          1    1    1    2  502    0  0.46497796809E+02  0.18135752998E+02  0.10262446430E+04  0.10274575505E+04  0.00000000000E+00 0. -1.
         22    1    3    3    0    0 -0.94782652133E+02  0.70738557491E+02  0.93643909748E+02  0.15085382492E+03  0.00000000000E+00 0.  1.
         22    1    3    3    0    0 -0.75219076448E+02 -0.55215390724E+02  0.75068134687E+02  0.11975756210E+03  0.00000000000E+00 0.  1.
</event>
<event>
 7    1  0.6370239E-006  0.8715655E+02  0.7818608E-02  0.1423223E+00
          2   -1    0    0  502    0  0.00000000000E+00  0.00000000000E+00  0.32675088468E+03  0.32675088468E+03  0.00000000000E+00 0. -1.
          1   -1    0    0  501    0 -0.00000000000E+00 -0.00000000000E+00 -0.81713132115E+02  0.81713132115E+02  0.00000000000E+00 0. -1.
         25    2    1    2    0    0  0.64576881924E+02  0.67932542927E+02  0.16916851011E+03  0.23028026186E+03  0.12500404042E+03 0.  0.
          2    1    1    2  501    0 -0.33053780756E+02 -0.80363857207E+02 -0.84544176444E+01  0.87306237722E+02  0.00000000000E+00 0. -1.
          1    1    1    2  502    0 -0.31523101168E+02  0.12431314280E+02  0.84323660099E+02  0.90877517211E+02  0.00000000000E+00 0. -1.
         22    1    3    3    0    0  0.33821753319E+02 -0.25305962344E+02  0.10228815357E+02  0.43461838333E+02  0.00000000000E+00 0.  1.
         22    1    3    3    0    0  0.30755128606E+02  0.93238505271E+02  0.15893969475E+03  0.18681842353E+03  0.00000000000E+00 0.  1.
</event>
<event>
 7    1  0.6370239E-006  0.1512650E+03  0.7818608E-02  0.1258461E+00
          2   -1    0    0  502    0  0.00000000000E+00  0.00000000000E+00  0.14187510854E+04  0.14187510854E+04  0.00000000000E+00 0. -1.
          1   -1    0    0  501    0 -0.00000000000E+00 -0.00000000000E+00 -0.29097139905E+04  0.29097139905E+04  0.00000000000E+00 0. -1.
         25    2    1    2    0    0 -0.14234332476E+03 -0.11014311399E+03 -0.28741764066E+02  0.22100854569E+03  0.12500224239E+03 0.  0.
          2    1    1    2  501    0  0.14830464954E+03  0.28692524171E+02 -0.27815268718E+04  0.27856254717E+04  0.00000000000E+00 0. -1.
          1    1    1    2  502    0 -0.59613247767E+01  0.81450589820E+02  0.13193057308E+04  0.13218310585E+04  0.00000000000E+00 0. -1.
         22    1    3    3    0    0 -0.69056285967E+02  0.12062572030E+02 -0.35043317891E+02  0.78372893301E+02  0.00000000000E+00 0. -1.
         22    1    3    3    0    0 -0.73287038792E+02 -0.12220568602E+03  0.63015538249E+01  0.14263565239E+03  0.00000000000E+00 0. -1.
</event>
<event>
 7    1  0.6370239E-006  0.6317768E+02  0.7818608E-02  0.1498014E+00
          2   -1    0    0  502    0  0.00000000000E+00  0.00000000000E+00  0.62181898923E+03  0.62181898923E+03  0.00000000000E+00 0. -1.
          1   -1    0    0  501    0 -0.00000000000E+00 -0.00000000000E+00 -0.93782472919E+03  0.93782472919E+03  0.00000000000E+00 0. -1.
         25    2    1    2    0    0  0.31302088098E+02  0.55033366417E+02 -0.54385156611E+03  0.56161232852E+03  0.12500155776E+03 0.  0.
          2    1    1    2  501    0  0.20094829054E+02 -0.18265255782E+02 -0.38298188954E+03  0.38394341958E+03  0.00000000000E+00 0. -1.
          1    1    1    2  502    0 -0.51396917152E+02 -0.36768110635E+02  0.61082771568E+03  0.61408797033E+03  0.00000000000E+00 0. -1.
         22    1    3    3    0    0 -0.42023281669E+01 -0.13610631973E+02 -0.21264670559E+01  0.14402455584E+02  0.00000000000E+00 0.  1.
         22    1    3    3    0    0  0.35504416265E+02  0.68643998390E+02 -0.54172509906E+03  0.54720987294E+03  0.00000000000E+00 0.  1.
</event>
<event>
 7    1  0.6370239E-006  0.1195431E+03  0.7818608E-02  0.1269855E+00
          2   -1    0    0  502    0  0.00000000000E+00  0.00000000000E+00  0.32230996573E+03  0.32230996573E+03  0.00000000000E+00 0. -1.
          1   -1    0    0  501    0 -0.00000000000E+00 -0.00000000000E+00 -0.20676445076E+03  0.20676445076E+03  0.00000000000E+00 0. -1.
         25    2    1    2    0    0 -0.21636745790E+02  0.40239576062E+02  0.87609771562E+02  0.15933565591E+03  0.12500002769E+03 0.  0.
          2    1    1    2  501    0  0.47902389694E+02 -0.12889314291E+03 -0.12838190038E+03  0.18812228356E+03  0.00000000000E+00 0. -1.
          1    1    1    2  502    0 -0.26265643904E+02  0.88653566844E+02  0.15631764379E+03  0.18161647702E+03  0.00000000000E+00 0. -1.
         22    1    3    3    0    0 -0.44603459363E+02 -0.33529445643E+02  0.35191447235E+02  0.65970677356E+02  0.00000000000E+00 0. -1.
         22    1    3    3    0    0  0.22966713573E+02  0.73769021705E+02  0.52418324327E+02  0.93364978557E+02  0.00000000000E+00 0. -1.
</event>
<event>
 7    1  0.6370239E-006  0.1246185E+03  0.7818608E-02  0.1296304E+00
          2   -1    0    0  502    0  0.00000000000E+00  0.00000000000E+00  0.29168358909E+04  0.29168358909E+04  0.00000000000E+00 0. -1.
          1   -1    0    0  501    0 -0.00000000000E+00 -0.00000000000E+00 -0.79902107147E+03  0.79902107147E+03  0.00000000000E+00 0. -1.
         25    2    1    2    0    0 -0.13718997818E+03  0.30986050611E+02  0.29565650771E+03  0.35045447583E+03  0.12499737450E+03 0.  0.
          2    1    1    2  501    0  0.44701048627E+02  0.52621702862E+02 -0.76857539547E+03  0.77167050345E+03  0.00000000000E+00 0. -1.
          1    1    1    2  502    0  0.92488929549E+02 -0.83607753474E+02  0.25907337072E+04  0.25937319831E+04  0.00000000000E+00 0. -1.
         22    1    3    3    0    0  0.80443208030E+01 -0.81557675047E+01  0.11414492365E+03  0.11471831256E+03  0.00000000000E+00 0. -1.
         22    1    3    3    0    0 -0.14523429898E+03  0.39141818116E+02  0.18151158406E+03  0.23573616327E+03  0.00000000000E+00 0. -1.
</event>
<event>
 7    1  0.6370239E-006  0.8658915E+02  0.7818608E-02  0.1325204E+00
          2   -1    0    0  502    0  0.00000000000E+00  0.00000000000E+00  0.69643378137E+03  0.69643378137E+03  0.00000000000E+00 0. -1.
          1   -1    0    0  501    0 -0.00000000000E+00 -0.00000000000E+00 -0.12249254219E+04  0.12249254219E+04  0.00000000000E+00 0. -1.
         25    2    1    2    0    0  0.23900853751E+02  0.84909537953E+02  0.77138155164E+02  0.17132808141E+03  0.12498854368E+03 0.  0.
          2    1    1    2  501    0 -0.80358866937E+02 -0.33335758366E+02 -0.11736584617E+04  0.11768785005E+04  0.00000000000E+00 0. -1.
          1    1    1    2  502    0  0.56458013186E+02 -0.51573779587E+02  0.56802866598E+03  0.57315262136E+03  0.00000000000E+00 0. -1.
         22    1    3    3    0    0  0.39667843968E+02 -0.15776552540E+02  0.50234284811E+02  0.65923598397E+02  0.00000000000E+00 0.  1.
         22    1    3    3    0    0 -0.15766990217E+02  0.10068609049E+03  0.26903870353E+02  0.10540448301E+03  0.00000000000E+00 0.  1.
</event>
<event>
 7    1  0.6370239E-006  0.3361485E+02  0.7818608E-02  0.1570810E+00
          2   -1    0    0  502    0  0.00000000000E+00  0.00000000000E+00  0.14810365269E+04  0.14810365269E+04  0.00000000000E+00 0. -1.
          1   -1    0    0  501    0 -0.00000000000E+00 -0.00000000000E+00 -0.46311407946E+03  0.46311407946E+03  0.00000000000E+00 0. -1.
         25    2    1    2    0    0  0.11391980189E+01 -0.66669932111E+01  0.90770707960E+03  0.91629832463E+03  0.12499892311E+03 0.  0.
          2    1    1    2  501    0 -0.31683837838E+02 -0.11229085598E+02 -0.45765082828E+03  0.45888368740E+03  0.00000000000E+00 0. -1.
          1    1    1    2  502    0  0.30544639819E+02  0.17896078809E+02  0.56786619612E+03  0.56896859435E+03  0.00000000000E+00 0. -1.
         22    1    3    3    0    0 -0.38418353390E+02  0.45288156814E+02  0.39192978661E+03  0.39640376469E+03  0.00000000000E+00 0. -1.
         22    1    3    3    0    0  0.39557551409E+02 -0.51955150025E+02  0.51577729299E+03  0.51989455994E+03  0.00000000000E+00 0. -1.
</event>
<event>
 7    1  0.6370239E-006  0.1214233E+03  0.7818608E-02  0.1328601E+00
          2   -1    0    0  502    0  0.00000000000E+00  0.00000000000E+00  0.16390901216E+04  0.16390901216E+04  0.00000000000E+00 0. -1.
          1   -1    0    0  501    0 -0.00000000000E+00 -0.00000000000E+00 -0.16418684944E+03  0.16418684944E+03  0.00000000000E+00 0. -1.
         25    2    1    2    0    0  0.13762800876E+03 -0.78115623229E+02  0.29074711512E+03  0.35384041077E+03  0.12500252780E+03 0.  0.
          2    1    1    2  501    0 -0.84936723307E+02  0.83008952165E+02 -0.10540376481E+03  0.15879133082E+03  0.00000000000E+00 0. -1.
          1    1    1    2  502    0 -0.52691285456E+02 -0.48933289354E+01  0.12895599219E+04  0.12906452295E+04  0.00000000000E+00 0. -1.
         22    1    3    3    0    0  0.84201868119E+02 -0.10667581447E+02  0.50762398110E+02  0.98896779272E+02  0.00000000000E+00 0.  1.
         22    1    3    3    0    0  0.53426140645E+02 -0.67448041782E+02  0.23998471701E+03  0.25494363150E+03  0.00000000000E+00 0.  1.
</event>
<event>
 7    1  0.6370239E-006  0.1431211E+03  0.7818608E-02  0.1251000E+00
          2   -1    0    0  502    0  0.00000000000E+00  0.00000000000E+00  0.45575673909E+03  0.45575673909E+03  0.00000000000E+00 0. -1.
          1   -1    0    0  501    0 -0.00000000000E+00 -0.00000000000E+00 -0.11023250393E+04  0.11023250393E+04  0.00000000000E+00 0. -1.
         25    2    1    2    0    0  0.11060717117E+02  0.10119183007E+03 -0.14775329924E+03  0.21867362852E+03  0.12499996976E+03 0.  0.
          2    1    1    2  501    0  0.75988881506E+02 -0.13375595352E+03 -0.90741945787E+03  0.92036679521E+03  0.00000000000E+00 0. -1.
          1    1    1    2  502    0 -0.87049598623E+02  0.32564123449E+02  0.40860445686E+03  0.41904135467E+03  0.00000000000E+00 0. -1.
         22    1    3    3    0    0 -0.46497425599E+02  0.58395880827E+01 -0.25726071879E+02  0.53459724565E+02  0.00000000000E+00 0. -1.
         22    1    3    3    0    0  0.57558142716E+02  0.95352241986E+02 -0.12202722736E+03  0.16521390396E+03  0.00000000000E+00 0. -1.
</event>
<event>
 7    1  0.6370239E-006  0.9652975E+02  0.7818608E-02  0.1386351E+00
          2   -1    0    0  502    0  0.00000000000E+00  0.00000000000E+00  0.30425020215E+04  0.30425020215E+04  0.00000000000E+00 0. -1.
          1   -1    0    0  501    0 -0.00000000000E+00 -0.00000000000E+00 -0.62092340019E+02  0.62092340019E+02  0.00000000000E+00 0. -1.
         25    2    1    2    0    0  0.11252250107E+03  0.63623774970E+02  0.16331261326E+04  0.16429955630E+04  0.12499662852E+03 0.  0.
          2    1    1    2  501    0 -0.71635707826E+02 -0.63595864069E+02 -0.16499844406E+02  0.97202641054E+02  0.00000000000E+00 0. -1.
          1    1    1    2  502    0 -0.40886793240E+02 -0.27910900464E-01  0.13637833933E+04  0.13643961575E+04  0.00000000000E+00 0. -1.
         22    1    3    3    0    0  0.12792608352E+03  0.73512165610E+02  0.15785783054E+04  0.15854584787E+04  0.00000000000E+00 0.  1.
         22    1    3    3    0    0 -0.15403582459E+02 -0.98883906403E+01  0.54547827147E+02  0.57537084289E+02  0.00000000000E+00 0.  1.
</event>
<event>
 7    1  0.6370239E-006  0.1008475E+03  0.7818608E-02  0.1395506E+00
          2   -1    0    0  502    0  0.00000000000E+00  0.00000000000E+00  0.11789049275E+03  0.11789049275E+03  0.00000000000E+00 0. -1.
          1   -1    0    0  501    0 -0.00000000000E+00 -0.00000000000E+00 -0.30764541079E+03  0.30764541079E+03  0.00000000000E+00 0. -1.
         25    2    1    2    0    0 -0.66396737362E+02  0.23787629781E+02 -0.97329590305E+00  0.14352820842E+03  0.12500008497E+03 0.  0.
          2    1    1    2  501    0  0.96714583336E+02 -0.43866858212E+02 -0.21321410332E+03  0.23819795493E+03  0.00000000000E+00 0. -1.
          1    1    1    2  502    0 -0.30317845974E+02  0.20079228431E+02  0.24432481180E+02  0.43809740190E+02  0.00000000000E+00 0. -1.
         22    1    3    3    0    0 -0.54082953179E+01 -0.18991768408E+02  0.49667884962E+02  0.53449375320E+02  0.00000000000E+00 0. -1.
         22    1    3    3    0    0 -0.60988442044E+02  0.42779398189E+02 -0.50641180865E+02  0.90078833095E+02  0.00000000000E+00 0. -1.
</event>
<event>
 7    1  0.6370239E-006  0.1627408E+03  0.7818608E-02  0.1202249E+00
          2   -1    0    0  502    0  0.00000000000E+00  0.00000000000E+00  0.12608217311E+04  0.12608217311E+04  0.00000000000E+00 0. -1.
          1   -1    0    0  501    0 -0.00000000000E+00 -0.00000000000E+00 -0.51885927895E+03  0.51885927895E+03  0.00000000000E+00 0. -1.
         25    2    1    2    0    0  0.90229864457E+02 -0.12114534419E+03  0.57456789423E+03  0.60709795462E+03  0.12498815371E+03 0.  0.
          2    1    1    2  501    0  0.39900710917E+02  0.15934610856E+03 -0.48197693067E+03  0.50920036404E+03  0.00000000000E+00 0. -1.
          1    1    1    2  502    0 -0.13013057537E+03 -0.38200764372E+02  0.64937148862E+03  0.66338269142E+03  0.00000000000E+00 0. -1.
         22    1    3    3    0    0  0.24587900531E+01 -0.89977829343E+02  0.39130843610E+03  0.40152751784E+03  0.00000000000E+00 0. -1.
         22    1    3    3    0    0  0.87771074404E+02 -0.31167514847E+02  0.18325945813E+03  0.20557043678E+03  0.00000000000E+00 0. -1.
</event>
<event>
 7    1  0.6370239E-006  0.1316175E+03  0.7818608E-02  0.1350037E+00
          2   -1    0    0  502    0  0.00000000000E+00  0.00000000000E+00  0.86871454902E+03  0.86871454902E+03  0.00000000000E+00 0. -1.
          1   -1    0    0  501    0 -0.00000000000E+00 -0.00000000000E+00 -0.20622085374E+03  0.20622085374E+03  0.00000000000E+00 0. -1.
         25    2    1    2    0    0 -0.28679380169E+02 -0.97375071296E+02  0.22313824450E+03  0.27517367987E+03  0.12500186631E+03 0.  0.
          2    1    1    2  501    0 -0.21331560123E+02 -0.34471190804E+02 -0.16976198632E+03  0.17453489752E+03  0.00000000000E+00 0. -1.
          1    1    1    2  502    0  0.50010940292E+02  0.13184626210E+03  0.60911743710E+03  0.62522682537E+03  0.00000000000E+00 0. -1.
         22    1    3    3    0    0 -0.11025652849E+02  0.99087128304E+01  0.13333256067E+03  0.13415408807E+03  0.00000000000E+00 0. -1.
         22    1    3    3    0    0 -0.17653727321E+02 -0.10728378413E+03  0.89805683823E+02  0.14101959180E+03  0.00000000000E+00 0. -1.
</event>
<event>
 7    1  0.6370239E-006  0.7918562E+02  0.7818608E-02  0.1439628E+00
          2   -1    0    0  502    0  0.00000000000E+00  0.00000000000E+00  0.29606834384E+03  0.29606834384E+03  0.00000000000E+00 0. -1.
          1   -1    0    0  501    0 -0.00000000000E+00 -0.00000000000E+00 -0.19385123696E+04  0.19385123696E+04  0.00000000000E+00 0. -1.
         25    2    1    2    0    0 -0.64489818148E+02  0.55190991616E+02 -0.51536230831E+00  0.15109499363E+03  0.12499779718E+03 0.  0.
          2    1    1    2  501    0  0.35480452310E+02 -0.70802907850E+02 -0.18606312346E+04  0.18623158984E+04  0.00000000000E+00 0. -1.
          1    1    1    2  502    0  0.29009365838E+02  0.15611916234E+02  0.21870257120E+03  0.22116982137E+03  0.00000000000E+00 0. -1.
         22    1    3    3    0    0  0.36356549555E+02  0.51695115727E+01 -0.10188893199E+02  0.38109527549E+02  0.00000000000E+00 0. -1.
         22    1    3    3    0    0 -0.10084636770E+03  0.50021480043E+02  0.96735308911E+01  0.11298546608E+03  0.00000000000E+00 0. -1.
</event>
<event>
 7    1  0.6370239E-006  0.7983781E+02  0.7818608E-02  0.1349691E+00
          2   -1    0    0  502    0  0.00000000000E+00  0.00000000000E+00  0.19769502920E+04  0.19769502920E+04  0.00000000000E+00 0. -1.
          1   -1    0    0  501    0 -0.00000000000E+00 -0.00000000000E+00 -0.12467748412E+04  0.12467748412E+04  0.00000000000E+00 0. -1.
         25    2    1    2    0    0 -0.23683459615E+02  0.40683157467E+02  0.50411653840E+02  0.14278629106E+03  0.12502225606E+03 0.  0.
          2    1    1    2  501    0 -0.56978411117E+02 -0.35298299634E+02 -0.11987820325E+04  0.12006543511E+04  0.00000000000E+00 0. -1.
          1    1    1    2  502    0  0.80661870732E+02 -0.53848578326E+01  0.18785458295E+04  0.18802844911E+04  0.00000000000E+00 0. -1.
         22    1    3    3    0    0  0.36677211869E+02  0.21121720724E+00 -0.19847432680E+02  0.41703513847E+02  0.00000000000E+00 0. -1.
         22    1    3    3    0    0 -0.60360671484E+02  0.40471940260E+02  0.70259086520E+02  0.10108277721E+03  0.00000000000E+00 0. -1.
</event>
<event>
 7    1  0.6370239E-006  0.2142117E+03  0.7818608E-02  0.1250503E+00
          2   -1    0    0  502    0  0.00000000000E+00  0.00000000000E+00  0.69714278232E+03  0.69714278232E+03  0.00000000000E+00 0. -1.
          1   -1    0    0  501    0 -0.00000000000E+00 -0.00000000000E+00 -0.10458642873E+04  0.10458642873E+04  0.00000000000E+00 0. -1.
         25    2    1    2    0    0 -0.13573372145E+03 -0.20718716483E+03  0.38141292866E+02  0.28005469197E+03  0.12500283144E+03 0.  0.
          2    1    1    2  501    0 -0.13985119363E+02  0.60818269794E+02 -0.90342048370E+03  0.90557330784E+03  0.00000000000E+00 0. -1.
          1    1    1    2  502    0  0.14971884081E+03  0.14636889503E+03  0.51655768582E+03  0.55737906985E+03  0.00000000000E+00 0. -1.
         22    1    3    3    0    0 -0.20083335769E+02 -0.13452649082E+03  0.45089921731E+02  0.14329626007E+03  0.00000000000E+00 0.  1.
         22    1    3    3    0    0 -0.11565038568E+03 -0.72660674011E+02 -0.69486288655E+01  0.13675843191E+03  0.00000000000E+00 0.  1.
</event>
<event>
 7    1  0.6370239E-006  0.8458481E+02  0.7818608E-02  0.1333037E+00
          2   -1    0    0  502    0  0.00000000000E+00  0.00000000000E+00  0.25519745436E+03  0.25519745436E+03  0.00000000000E+00 0. -1.
          1   -1    0    0  501    0 -0.00000000000E+00 -0.00000000000E+00 -0.23739033859E+04  0.23739033859E+04  0.00000000000E+00 0. -1.
         25    2    1    2    0    0  0.21132252356E+02  0.29324370301E+02  0.43684238208E+01  0.13015339211E+03  0.12495731898E+03 0.  0.
          2    1    1    2  501    0  0.72462341152E+02 -0.93323006973E+01 -0.22982081660E+04  0.22993691868E+04  0.00000000000E+00 0. -1.
          1    1    1    2  502    0 -0.93594593508E+02 -0.19992069604E+02  0.17513381066E+03  0.19957826138E+03  0.00000000000E+00 0. -1.
         22    1    3    3    0    0  0.24633872379E+02  0.22367248777E+02 -0.58233356015E+02  0.67068958834E+02  0.00000000000E+00 0.  1.
         22    1    3    3    0    0 -0.35016200233E+01  0.69571215244E+01  0.62601779836E+02  0.63084433273E+02  0.00000000000E+00 0.  1.
</event>
<event>
 7    1  0.6370239E-006  0.8698423E+02  0.7818608E-02  0.1348321E+00
          2   -1    0    0  502    0  0.00000000000E+00  0.00000000000E+00  0.20551331825E+04  0.20551331825E+04  0.00000000000E+00 0. -1.
          1   -1    0    0  501    0 -0.00000000000E+00 -0.00000000000E+00 -0.50049734180E+02  0.50049734180E+02  0.00000000000E+00 0. -1.
         25    2    1    2    0    0  0.33543543029E+01 -0.86925151588E+02  0.24974325444E+03  0.29251396554E+03  0.12500197290E+03 0.  0.
          2    1    1    2  501    0  0.57018810737E+02  0.71779643503E+02  0.46672294618E+02  0.10286770671E+03  0.00000000000E+00 0. -1.
          1    1    1    2  502    0 -0.60373165040E+02  0.15145508085E+02  0.17086678992E+04  0.17098012444E+04  0.00000000000E+00 0. -1.
         22    1    3    3    0    0 -0.43267639607E+02 -0.40811541458E+02  0.37361690064E+02  0.70239351063E+02  0.00000000000E+00 0.  1.
         22    1    3    3    0    0  0.46621993910E+02 -0.46113610130E+02  0.21238156438E+03  0.22227461448E+03  0.00000000000E+00 0.  1.
</event>
<event>
 7    1  0.6370239E-006  0.9081447E+02  0.7818608E-02  0.1390257E+00
          2   -1    0    0  502    0  0.00000000000E+00  0.00000000000E+00  0.10753130379E+04  0.10753130379E+04  0.00000000000E+00 0. -1.
          1   -1    0    0  501    0 -0.00000000000E+00 -0.00000000000E+00 -0.20950023011E+04  0.20950023011E+04  0.00000000000E+00 0. -1.
         25    2    1    2    0    0 -0.11651723869E+03  0.27037365458E+01  0.30028343985E+03  0.34551317294E+03  0.12500252527E+03 0.  0.
          2    1    1    2  501    0  0.85304058709E+02 -0.30975833545E+02 -0.20708035036E+04  0.20727912185E+04  0.00000000000E+00 0. -1.
          1    1    1    2  502    0  0.31213179979E+02  0.28272097000E+02  0.75083080065E+03  0.75201094758E+03  0.00000000000E+00 0. -1.
         22    1    3    3    0    0 -0.30022662347E+02 -0.40865832074E+02  0.19907526751E+03  0.20543207788E+03  0.00000000000E+00 0.  1.
         22    1    3    3    0    0 -0.86494576341E+02  0.43569568620E+02  0.10120817234E+03  0.14008109507E+03  0.00000000000E+00 0.  1.
</event>
<event>
 7    1  0.6370239E-006  0.4731433E+02  0.7818608E-02  0.1497303E+00
          2   -1    0    0  502    0  0.00000000000E+00  0.00000000000E+00  0.50038331835E+03  0.50038331835E+03  0.00000000000E+00 0. -1.
          1   -1    0    0  501    0 -0.00000000000E+00 -0.00000000000E+00 -0.63339753760E+03  0.63339753760E+03  0.00000000000E+00 0. -1.
         25    2    1    2    0    0  0.11985129234E+02  0.11356132175E+02 -0.63786863716E+02  0.14131272873E+03  0.12501167248E+03 0.  0.
          2    1    1    2  501    0 -0.47959347355E+02 -0.55602324829E+01 -0.52902768969E+03  0.53122623395E+03  0.00000000000E+00 0. -1.
          1    1    1    2  502    0  0.35974218122E+02 -0.57958996919E+01  0.45980033415E+03  0.46124189327E+03  0.00000000000E+00 0. -1.
         22    1    3    3    0    0  0.19750047646E+02  0.56585230305E+02  0.33090558507E+01  0.60024182804E+02  0.00000000000E+00 0.  1.
         22    1    3    3    0    0 -0.77649184124E+01 -0.45229098130E+02 -0.67095919566E+02  0.81288545922E+02  0.00000000000E+00 0.  1.
</event>
<event>
 7    1  0.6370239E-006  0.1042819E+03  0.7818608E-02  0.1331614E+00
          2   -1    0    0  502    0  0.00000000000E+00  0.00000000000E+00  0.31516017282E+03  0.31516017282E+03  0.00000000000E+00 0. -1.
          1   -1    0    0  501    0 -0.00000000000E+00 -0.00000000000E+00 -0.10285914650E+04  0.10285914650E+04  0.00000000000E+00 0. -1.
         25    2    1    2    0    0 -0.67637711131E+02 -0.12474491633E+03 -0.26652247023E+03  0.32679610208E+03  0.12500124433E+03 0.  0.
          2    1    1    2  501    0 -0.11997800106E+02  0.58792959353E+02 -0.72126744477E+03  0.72375913546E+03  0.00000000000E+00 0. -1.
          1    1    1    2  502    0  0.79635511237E+02  0.65951956973E+02  0.27435862277E+03  0.29319640033E+03  0.00000000000E+00 0. -1.
         22    1    3    3    0    0 -0.53905895815E+02  0.90023506479E+01 -0.76036649757E+02  0.93640055677E+02  0.00000000000E+00 0. -1.
         22    1    3    3    0    0 -0.13731815317E+02 -0.13374726697E+03 -0.19048582047E+03  0.23315604640E+03  0.00000000000E+00 0. -1.
</event>
<event>
 7    1  0.6370239E-006  0.9231112E+02  0.7818608E-02  0.1314266E+00
          2   -1    0    0  502    0  0.00000000000E+00  0.00000000000E+00  0.13231359956E+04  0.13231359956E+04  0.00000000000E+00 0. -1.
          1   -1    0    0  501    0 -0.00000000000E+00 -0.00000000000E+00 -0.54792641473E+03  0.54792641473E+03  0.00000000000E+00 0. -1.
         25    2    1    2    0    0  0.51430065200E+02 -0.34980277041E+02  0.17809125214E+03  0.22629705345E+03  0.12500076369E+03 0.  0.
          2    1    1    2  501    0  0.39767633771E+02  0.68369807124E+02 -0.51871655269E+03  0.52471207081E+03  0.00000000000E+00 0. -1.
          1    1    1    2  502    0 -0.91197698972E+02 -0.33389530084E+02  0.11158348815E+04  0.11200532861E+04  0.00000000000E+00 0. -1.
         22    1    3    3    0    0 -0.66966009997E+01  0.26155473992E+02 -0.23592229552E+01  0.27102015011E+02  0.00000000000E+00 0. -1.
         22    1    3    3    0    0  0.58126666200E+02 -0.61135751033E+02  0.18045047509E+03  0.19919503844E+03  0.00000000000E+00 0. -1.
</event>
<event>
 7    1  0.6370239E-006  0.6465336E+02  0.7818608E-02  0.1384634E+00
          2   -1    0    0  502    0  0.00000000000E+00  0.00000000000E+00  0.29679508302E+03  0.29679508302E+03  0.00000000000E+00 0. -1.
          1   -1    0    0  501    0 -0.00000000000E+00 -0.00000000000E+00 -0.94461440853E+03  0.94461440853E+03  0.00000000000E+00 0. -1.
         25    2    1    2    0    0 -0.96458922431E+01  0.83847260911E+02 -0.38267240235E+03  0.41132378500E+03  0.12500272873E+03 0.  0.
          2    1    1    2  501    0  0.52204239780E+02 -0.38899581600E+02 -0.54225459618E+03  0.54614879582E+03  0.00000000000E+00 0. -1.
          1    1    1    2  502    0 -0.42558347536E+02 -0.44947679311E+02  0.27710767303E+03  0.28393691072E+03  0.00000000000E+00 0. -1.
         22    1    3    3    0    0 -0.31378009117E+02  0.18856439568E+02 -0.18987977856E+02  0.41239399515E+02  0.00000000000E+00 0. -1.
         22    1    3    3    0    0  0.21732116874E+02  0.64990821343E+02 -0.36368442449E+03  0.37008438549E+03  0.00000000000E+00 0. -1.
</event>
<event>
 7    1  0.6370239E-006  0.5696805E+02  0.7818608E-02  0.1529587E+00
          2   -1    0    0  502    0  0.00000000000E+00  0.00000000000E+00  0.13135854205E+02  0.13135854205E+02  0.00000000000E+00 0. -1.
          1   -1    0    0  501    0 -0.00000000000E+00 -0.00000000000E+00 -0.11134299013E+04  0.11134299013E+04  0.00000000000E+00 0. -1.
         25    2    1    2    0    0 -0.36343776238E+02  0.13088736318E+02 -0.58269775970E+03  0.59720488909E+03  0.12499926118E+03 0.  0.
          2    1    1    2  501    0  0.55050463836E+02 -0.28660909506E+02 -0.48350613110E+03  0.48747326093E+03  0.00000000000E+00 0. -1.
          1    1    1    2  502    0 -0.18706687598E+02  0.15572173188E+02 -0.34090156317E+02  0.41887605522E+02  0.00000000000E+00 0. -1.
         22    1    3    3    0    0 -0.74572697966E+02  0.23968670253E+02 -0.49177300049E+03  0.49797215629E+03  0.00000000000E+00 0.  1.
         22    1    3    3    0    0  0.38228921729E+02 -0.10879933936E+02 -0.90924759215E+02  0.99232732792E+02  0.00000000000E+00 0.  1.
</event>
<event>
 7    1  0.6370239E-006  0.5095633E+02  0.7818608E-02  0.1470689E+00
          2   -1    0    0  502    0  0.00000000000E+00  0.00000000000E+00  0.93370936694E+03  0.93370936694E+03  0.00000000000E+00 0. -1.
          1   -1    0    0  501    0 -0.00000000000E+00 -0.00000000000E+00 -0.49881621660E+02  0.49881621660E+02  0.00000000000E+00 0. -1.
         25    2    1    2    0    0 -0.41757748010E+02 -0.72390273462E+02  0.17479065946E+03  0.23056627681E+03  0.12499988863E+03 0.  0.
          2    1    1    2  501    0  0.29854335012E+01  0.40680237750E+02 -0.14101472267E+01  0.40814005829E+02  0.00000000000E+00 0. -1.
          1    1    1    2  502    0  0.38772314509E+02  0.31710035712E+02  0.71044723305E+03  0.71221070596E+03  0.00000000000E+00 0. -1.
         22    1    3    3    0    0 -0.21340470355E+02  0.31433176184E+02  0.19640687567E+02  0.42769344724E+02  0.00000000000E+00 0. -1.
         22    1    3    3    0    0 -0.20417277655E+02 -0.10382344965E+03  0.15514997189E+03  0.18779693209E+03  0.00000000000E+00 0. -1.
</event>
<event>
 7    1  0.6370239E-006  0.6835442E+02  0.7818608E-02  0.1512425E+00
          2   -1    0    0  502    0  0.00000000000E+00  0.00000000000E+00  0.19348009382E+04  0.19348009382E+04  0.00000000000E+00 0. -1.
          1   -1    0    0  501    0 -0.00000000000E+00 -0.00000000000E+00 -0.11999721605E+03  0.11999721605E+03  0.00000000000E+00 0. -1.
         25    2    1    2    0    0 -0.39371191674E+02 -0.43353364498E+02 -0.19720273470E+02  0.13944005745E+03  0.12500014195E+03 0.  0.
          2    1    1    2  501    0  0.11937730545E+02 -0.19364616693E+02 -0.36539787748E+02  0.43042465994E+02  0.00000000000E+00 0. -1.
          1    1    1    2  502    0  0.27433461129E+02  0.62717981190E+02  0.18710637834E+04  0.18723156309E+04  0.00000000000E+00 0. -1.
         22    1    3    3    0    0 -0.19135615238E+02  0.44140251465E+02 -0.97211591987E+01  0.49081916284E+02  0.00000000000E+00 0.  1.
         22    1    3    3    0    0 -0.20235576435E+02 -0.87493615963E+02 -0.99991142717E+01  0.90358141161E+02  0.00000000000E+00 0.  1.
</event>
<event>
 7    1  0.6370239E-006  0.6893537E+02  0.7818608E-02  0.1405791E+00
          2   -1    0    0  502    0  0.00000000000E+00  0.00000000000E+00  0.54426064903E+03  0.54426064903E+03  0.00000000000E+00 0. -1.
          1   -1    0    0  501    0 -0.00000000000E+00 -0.00000000000E+00 -0.13481399287E+03  0.13481399287E+03  0.00000000000E+00 0. -1.
         25    2    1    2    0    0  0.10303197138E+03 -0.28685657484E+02  0.24997333052E+03  0.29924699220E+03  0.12499456907E+03 0.  0.
          2    1    1    2  501    0 -0.67503984016E+02 -0.51200179312E+01 -0.97232946892E+02  0.11847889434E+03  0.00000000000E+00 0. -1.
          1    1    1    2  502    0 -0.35527987360E+02  0.33805675415E+02  0.25670627254E+03  0.26134875537E+03  0.00000000000E+00 0. -1.
         22    1    3    3    0    0 -0.10897105905E+02 -0.47481376984E+02  0.82903368234E+02  0.96157145039E+02  0.00000000000E+00 0. -1.
         22    1    3    3    0    0  0.11392907728E+03  0.18795719500E+02  0.16706996228E+03  0.20308984716E+03  0.00000000000E+00 0. -1.
</event>
<event>
 7    1  0.6370239E-006  0.1010852E+03  0.7818608E-02  0.1398973E+00
          2   -1    0    0  502    0  0.00000000000E+00  0.00000000000E+00  0.88362137871E+03  0.88362137871E+03  0.00000000000E+00 0. -1.
          1   -1    0    0  501    0 -0.00000000000E+00 -0.00000000000E+00 -0.13445152393E+04  0.13445152393E+04  0.00000000000E+00 0. -1.
         25    2    1    2    0    0 -0.40435094971E+02 -0.62186898457E+02 -0.46330992640E+03  0.48557503232E+03  0.12499926745E+03 0.  0.
          2    1    1    2  501    0  0.57488847444E+02  0.93085488523E+02 -0.86627370153E+03  0.87315519910E+03  0.00000000000E+00 0. -1.
          1    1    1    2  502    0 -0.17053752473E+02 -0.30898590066E+02  0.86868976729E+03  0.86940638664E+03  0.00000000000E+00 0. -1.
         22    1    3    3    0    0 -0.26399065370E+02 -0.64241385770E+01 -0.39648872843E+03  0.39741853503E+03  0.00000000000E+00 0.  1.
         22    1    3    3    0    0 -0.14036029601E+02 -0.55762759880E+02 -0.66821197969E+02  0.88156497290E+02  0.00000000000E+00 0.  1.
</event>
<event>
 7    1  0.6370239E-006  0.7798925E+02  0.7818608E-02  0.1354047E+00
          2   -1    0    0  502    0  0.00000000000E+00  0.00000000000E+00  0.26642407952E+03  0.26642407952E+03  0.00000000000E+00 0. -1.
          1   -1    0    0  501    0 -0.00000000000E+00 -0.00000000000E+00 -0.17370169593E+03  0.17370169593E+03  0.00000000000E+00 0. -1.
         25    2    1    2    0    0 -0.23622658246E+02  0.52753969092E+02 -0.51901846846E+02  0.14717176516E+03  0.12499886206E+03 0.  0.
          2    1    1    2  501    0 -0.53282379118E+02 -0.65713100414E+02 -0.39221766942E+02  0.93250042856E+02  0.00000000000E+00 0. -1.
          1    1    1    2  502    0  0.76905037365E+02  0.12959131323E+02  0.18384599738E+03  0.19970396744E+03  0.00000000000E+00 0. -1.
         22    1    3    3    0    0 -0.49566309386E+02  0.81692555345E+01 -0.75308647575E+02  0.90525952973E+02  0.00000000000E+00 0.  1.
         22    1    3    3    0    0  0.25943651140E+02  0.44584713557E+02  0.23406800729E+02  0.56645812182E+02  0.00000000000E+00 0.  1.
</event>
<event>
 7    1  0.6370239E-006  0.1049975E+03  0.7818608E-02  0.1421501E+00
          2   -1    0    0  502    0  0.00000000000E+00  0.00000000000E+00  0.46673313833E+03  0.46673313833E+03  0.00000000000E+00 0. -1.
          1   -1    0    0  501    0 -0.00000000000E+00 -0.00000000000E+00 -0.22167875126E+03  0.22167875126E+03  0.00000000000E+00 0. -1.
         25    2    1    2    0    0  0.80431607098E+02  0.39338117426E+02 -0.32925862123E+02  0.15724370793E+03  0.12499896153E+03 0.  0.
          2    1    1    2  501    0  0.23360108147E+02 -0.16329224554E+02 -0.11788225274E+03  0.12127886765E+03  0.00000000000E+00 0. -1.
          1    1    1    2  502    0 -0.10379171524E+03 -0.23008892872E+02  0.39586250193E+03  0.40988931401E+03  0.00000000000E+00 0. -1.
         22    1    3    3    0    0  0.10385316595E+03  0.10192550820E+02 -0.50499872915E+02  0.11592931180E+03  0.00000000000E+00 0. -1.
         22    1    3    3    0    0 -0.23421558852E+02  0.29145566606E+02  0.17574010792E+02  0.41314396125E+02  0.00000000000E+00 0. -1.
</event>
<event>
 7    1  0.6370239E-006  0.9287211E+02  0.7818608E-02  0.1449606E+00
          2   -1    0    0  502    0  0.00000000000E+00  0.00000000000E+00  0.42985090081E+03  0.42985090081E+03  0.00000000000E+00 0. -1.
          1   -1    0    0  501    0 -0.00000000000E+00 -0.00000000000E+00 -0.66589356459E+03  0.66589356459E+03  0.00000000000E+00 0. -1.
         25    2    1    2    0    0 -0.20795963219E+02 -0.10333775109E+03  0.77855872212E+02  0.18110137174E+03  0.12500002849E+03 0.  0.
          2    1    1    2  501    0 -0.16817556298E+02  0.19937422427E+02 -0.60701756694E+03  0.60757769675E+03  0.00000000000E+00 0. -1.
          1    1    1    2  502    0  0.37613519517E+02  0.83400328661E+02  0.29311903096E+03  0.30706539691E+03  0.00000000000E+00 0. -1.
         22    1    3    3    0    0 -0.12473118141E+02 -0.54557000335E+02  0.10907256154E+03  0.12259228623E+03  0.00000000000E+00 0. -1.
         22    1    3    3    0    0 -0.83228450777E+01 -0.48780750754E+02 -0.31216689330E+02  0.58509085508E+02  0.00000000000E+00 0. -1.
</event>
<event>
 7    1  0.9984180E-006  0.1538359E+03  0.7818608E-02  0.1273181E+00
          2   -1    0    0  502    0  0.00000000000E+00  0.00000000000E+00  0.19520463605E+04  0.19520463605E+04  0.00000000000E+00 0. -1.
          1   -1    0    0  501    0 -0.00000000000E+00 -0.00000000000E+00 -0.10401394572E+04  0.10401394572E+04  0.00000000000E+00 0. -1.
         25    2    1    2    0    0  0.76175963787E+02 -0.19404056308E+03 -0.20409051265E+03  0.31738172039E+03  0.12499480591E+03 0.  0.
          2    1    1    2  501    0 -0.55315985382E+02  0.42211949974E+02 -0.77474366799E+03  0.77786210735E+03  0.00000000000E+00 0. -1.
          1    1    1    2  502    0 -0.20859978405E+02  0.15182861310E+03  0.18907410840E+04  0.18969419899E+04  0.00000000000E+00 0. -1.
         22    1    3    3    0    0  0.37268007877E+02 -0.17388607320E+03 -0.20768103590E+03  0.27341668482E+03  0.00000000000E+00 0. -1.
         22    1    3    3    0    0  0.38907955910E+02 -0.20154489878E+02  0.35905232506E+01  0.43965035569E+02  0.00000000000E+00 0. -1.
</event>
<event>
 7    1  0.6370239E-006  0.4080295E+02  0.7818608E-02  0.1532180E+00
          2   -1    0    0  502    0  0.00000000000E+00  0.00000000000E+00  0.25528908868E+04  0.25528908868E+04  0.00000000000E+00 0. -1.
          1   -1    0    0  501    0 -0.00000000000E+00 -0.00000000000E+00 -0.88056496279E+02  0.88056496279E+02  0.00000000000E+00 0. -1.
         25    2    1    2    0    0 -0.29390002880E+02 -0.14424037440E+02  0.30545583871E+03  0.33166091988E+03  0.12499548492E+03 0.  0.
          2    1    1    2  501    0  0.36971445812E+02 -0.18111527124E+02 -0.69166118257E+02  0.80491410318E+02  0.00000000000E+00 0. -1.
          1    1    1    2  502    0 -0.75814429317E+01  0.32535564564E+02  0.22285446700E+04  0.22287950528E+04  0.00000000000E+00 0. -1.
         22    1    3    3    0    0  0.41377297834E+02  0.21709442269E+02  0.14946428643E+03  0.15659806378E+03  0.00000000000E+00 0.  1.
         22    1    3    3    0    0 -0.70767300715E+02 -0.36133479709E+02  0.15599155227E+03  0.17506285610E+03  0.00000000000E+00 0.  1.
</event>
<event>
 7    1  0.6370239E-006  0.7115315E+02  0.7818608E-02  0.1421738E+00
          2   -1    0    0  502    0  0.00000000000E+00  0.00000000000E+00  0.29221579427E+04  0.29221579427E+04  0.00000000000E+00 0. -1.
          1   -1    0    0  501    0 -0.00000000000E+00 -0.00000000000E+00 -0.15714171760E+04  0.15714171760E+04  0.00000000000E+00 0. -1.
         25    2    1    2    0    0 -0.12911787027E+02 -0.10787300518E+03  0.13862193208E+03  0.21597029137E+03  0.12499530875E+03 0.  0.
          2    1    1    2  501    0 -0.65716829823E+01  0.70685665723E+02 -0.15317603360E+04  0.15334045055E+04  0.00000000000E+00 0. -1.
          1    1    1    2  502    0  0.19483470009E+02  0.37187339453E+02  0.27438791706E+04  0.27442003219E+04  0.00000000000E+00 0. -1.
         22    1    3    3    0    0 -0.35121492564E+02 -0.83684341980E+02  0.20061965151E+02  0.92946601758E+02  0.00000000000E+00 0.  1.
         22    1    3    3    0    0  0.22209705537E+02 -0.24188663196E+02  0.11855996693E+03  0.12302368961E+03  0.00000000000E+00 0.  1.
</event>
<event>
 7    1  0.6370239E-006  0.6085902E+02  0.7818608E-02  0.1427009E+00
          2   -1    0    0  502    0  0.00000000000E+00  0.00000000000E+00  0.11925544058E+04  0.11925544058E+04  0.00000000000E+00 0. -1.
          1   -1    0    0  501    0 -0.00000000000E+00 -0.00000000000E+00 -0.62927129215E+03  0.62927129215E+03  0.00000000000E+00 0. -1.
         25    2    1    2    0    0 -0.11849682152E+02 -0.23520904607E+02  0.29095344616E+03  0.31776234778E+03  0.12500141564E+03 0.  0.
          2    1    1    2  501    0 -0.20983115474E+02  0.57354443513E+02 -0.61372455349E+03  0.61675574653E+03  0.00000000000E+00 0. -1.
          1    1    1    2  502    0  0.32832797625E+02 -0.33833538906E+02  0.88605422093E+03  0.88730760359E+03  0.00000000000E+00 0. -1.
         22    1    3    3    0    0 -0.38349157345E+02  0.41951904094E+02  0.14016244316E+03  0.15124857222E+03  0.00000000000E+00 0. -1.
         22    1    3    3    0    0  0.26499475193E+02 -0.65472808701E+02  0.15079100300E+03  0.16651377556E+03  0.00000000000E+00 0. -1.
</event>
<event>
 7    1  0.6370239E-006  0.4897180E+02  0.7818608E-02  0.1478235E+00
          2   -1    0    0  502    0  0.00000000000E+00  0.00000000000E+00  0.30140731223E+04  0.30140731223E+04  0.00000000000E+00 0. -1.
          1   -1    0    0  501    0 -0.00000000000E+00 -0.00000000000E+00 -0.12849705581E+03  0.12849705581E+03  0.00000000000E+00 0. -1.
         25    2    1    2    0    0  0.20513072780E+02 -0.15006400378E+02  0.13440504785E+04  0.13500900890E+04  0.12500232519E+03 0.  0.
          2    1    1    2  501    0  0.85040310907E+00  0.49086973372E+02 -0.12042241022E+03  0.13004541908E+03  0.00000000000E+00 0. -1.
          1    1    1    2  502    0 -0.21363475889E+02 -0.34080572994E+02  0.16619479982E+04  0.16624346701E+04  0.00000000000E+00 0. -1.
         22    1    3    3    0    0  0.56115423402E+01 -0.47460928228E+02  0.12216956647E+04  0.12226300856E+04  0.00000000000E+00 0.  1.
         22    1    3    3    0    0  0.14901530440E+02  0.32454527850E+02  0.12235481380E+03  0.12746000332E+03  0.00000000000E+00 0.  1.
</event>
<event>
 7    1  0.6370239E-006  0.9514128E+02  0.7818608E-02  0.1345386E+00
          2   -1    0    0  502    0  0.00000000000E+00  0.00000000000E+00  0.22008216006E+03  0.22008216006E+03  0.00000000000E+00 0. -1.
          1   -1    0    0  501    0 -0.00000000000E+00 -0.00000000000E+00 -0.69839008470E+03  0.69839008470E+03  0.00000000000E+00 0. -1.
         25    2    1    2    0    0  0.32813065772E+02  0.80878196419E+02 -0.13713807567E+03  0.20505143296E+03  0.12498503278E+03 0.  0.
          2    1    1    2  501    0  0.49871768453E+02 -0.30305019048E+02 -0.51290914432E+03  0.51621834314E+03  0.00000000000E+00 0. -1.
          1    1    1    2  502    0 -0.82684834225E+02 -0.50573177371E+02  0.17173929535E+03  0.19720246867E+03  0.00000000000E+00 0. -1.
         22    1    3    3    0    0 -0.23471740403E+02  0.88800464513E+02 -0.61919344010E+02  0.11077206443E+03  0.00000000000E+00 0.  1.
         22    1    3    3    0    0  0.56284806175E+02 -0.79222680945E+01 -0.75218731659E+02  0.94279368529E+02  0.00000000000E+00 0.  1.
</event>
<event>
 7    1  0.6370239E-006  0.9531729E+02  0.7818608E-02  0.1391182E+00
          2   -1    0    0  502    0  0.00000000000E+00  0.00000000000E+00  0.26649827325E+03  0.26649827325E+03  0.00000000000E+00 0. -1.
          1   -1    0    0  501    0 -0.00000000000E+00 -0.00000000000E+00 -0.17249226021E+04  0.17249226021E+04  0.00000000000E+00 0. -1.
         25    2    1    2    0    0 -0.41252940114E+02  0.11858961289E+03 -0.25322530837E+02  0.17896692144E+03  0.12499050783E+03 0.  0.
          2    1    1    2  501    0 -0.60003868224E+01 -0.39372847832E+02 -0.16113031547E+04  0.16117952978E+04  0.00000000000E+00 0. -1.
          1    1    1    2  502    0  0.47253326937E+02 -0.79216765056E+02  0.17820135664E+03  0.20065865613E+03  0.00000000000E+00 0. -1.
         22    1    3    3    0    0  0.14174309432E+02  0.79079164241E+02  0.35360130188E+02  0.87776785495E+02  0.00000000000E+00 0.  1.
         22    1    3    3    0    0 -0.55427249546E+02  0.39510448647E+02 -0.60682661024E+02  0.91190135944E+02  0.00000000000E+00 0.  1.
</event>
<event>
 7    1  0.6370239E-006  0.1011719E+03  0.7818608E-02  0.1319944E+00
          2   -1    0    0  502    0  0.00000000000E+00  0.00000000000E+00  0.28193836851E+03  0.28193836851E+03  0.00000000000E+00 0. -1.
          1   -1    0    0  501    0 -0.00000000000E+00 -0.00000000000E+00 -0.47848624492E+03  0.47848624492E+03  0.00000000000E+00 0. -1.
         25    2    1    2    0    0  0.49975045394E+02  0.84360077188E+02  0.19915586188E+03  0.25478545484E+03  0.12505376001E+03 0.  0.
          2    1    1    2  501    0  0.61401617248E+02 -0.30550783566E+02 -0.37377699289E+03  0.38001677514E+03  0.00000000000E+00 0. -1.
          1    1    1    2  502    0 -0.11137666264E+03 -0.53809293622E+02 -0.21926745398E+02  0.12562238346E+03  0.00000000000E+00 0. -1.
         22    1    3    3    0    0  0.37445171753E+02  0.25267419088E+01 -0.16674748691E+01  0.37567349983E+02  0.00000000000E+00 0. -1.
         22    1    3    3    0    0  0.12529873640E+02  0.81833335279E+02  0.20082333674E+03  0.21721810486E+03  0.00000000000E+00 0. -1.
</event>
<event>
 7    1  0.6370239E-006  0.1089698E+03  0.7818608E-02  0.1453678E+00
          2   -1    0    0  502    0  0.00000000000E+00  0.00000000000E+00  0.11929364603E+04  0.11929364603E+04  0.00000000000E+00 0. -1.
          1   -1    0    0  501    0 -0.00000000000E+00 -0.00000000000E+00 -0.42131794890E+03  0.42131794890E+03  0.00000000000E+00 0. -1.
         25    2    1    2    0    0  0.83443316952E+02 -0.33811717561E+02 -0.31335422501E+03  0.34917331652E+03  0.12500046100E+03 0.  0.
          2    1    1    2  501    0  0.13012419049E+02 -0.17208734779E+02 -0.86188383159E+02  0.88847627958E+02  0.00000000000E+00 0. -1.
          1    1    1    2  502    0 -0.96455736001E+02  0.51020452340E+02  0.11711611196E+04  0.11762334647E+04  0.00000000000E+00 0. -1.
         22    1    3    3    0    0  0.47008529278E+02 -0.74320581237E+02 -0.25308420889E+03  0.26792716810E+03  0.00000000000E+00 0.  1.
         22    1    3    3    0    0  0.36434787674E+02  0.40508863676E+02 -0.60270016122E+02  0.81246148416E+02  0.00000000000E+00 0.  1.
</event>
<event>
 7    1  0.6370239E-006  0.1039438E+03  0.7818608E-02  0.1344965E+00
          2   -1    0    0  502    0  0.00000000000E+00  0.00000000000E+00  0.17565213443E+04  0.17565213443E+04  0.00000000000E+00 0. -1.
          1   -1    0    0  501    0 -0.00000000000E+00 -0.00000000000E+00 -0.94724745857E+02  0.94724745857E+02  0.00000000000E+00 0. -1.
         25    2    1    2    0    0 -0.53250190866E+02  0.72792484427E+02  0.67375452749E+03  0.69116203968E+03  0.12500189265E+03 0.  0.
          2    1    1    2  501    0  0.10157550952E+02 -0.10468149710E+03 -0.52924038240E+02  0.11773846228E+03  0.00000000000E+00 0. -1.
          1    1    1    2  502    0  0.43092639913E+02  0.31889012672E+02  0.10409661092E+04  0.10423455882E+04  0.00000000000E+00 0. -1.
         22    1    3    3    0    0 -0.82046792247E+02  0.85494630456E+02  0.58784032672E+03  0.59966428748E+03  0.00000000000E+00 0. -1.
         22    1    3    3    0    0  0.28796601381E+02 -0.12702146029E+02  0.85914200768E+02  0.91497752204E+02  0.00000000000E+00 0. -1.
</event>
<event>
 7    1  0.6370239E-006  0.8763475E+02  0.7818608E-02  0.1463426E+00
          2   -1    0    0  502    0  0.00000000000E+00  0.00000000000E+00  0.45764050452E+02  0.45764050452E+02  0.00000000000E+00 0. -1.
          1   -1    0    0  501    0 -0.00000000000E+00 -0.00000000000E+00 -0.13584194336E+04  0.13584194336E+04  0.00000000000E+00 0. -1.
         25    2    1    2    0    0 -0.92012888271E+02 -0.38088141642E+02 -0.23062397383E+03  0.28058626339E+03  0.12499662297E+03 0.  0.
          2    1    1    2  501    0  0.70545765146E+02  0.50880257576E+02 -0.10928933757E+04  0.10963491397E+04  0.00000000000E+00 0. -1.
          1    1    1    2  502    0  0.21467123125E+02 -0.12792115934E+02  0.10861966308E+02  0.27248080986E+02  0.00000000000E+00 0. -1.
         22    1    3    3    0    0 -0.38931651701E+02 -0.79897152164E+02 -0.15876233269E+03  0.18194698874E+03  0.00000000000E+00 0. -1.
         22    1    3    3    0    0 -0.53081236570E+02  0.41809010522E+02 -0.71861641139E+02  0.98639274651E+02  0.00000000000E+00 0. -1.
</event>
<event>
 7    1  0.6370239E-006  0.2055408E+03  0.7818608E-02  0.1200781E+00
          2   -1    0    0  502    0  0.00000000000E+00  0.00000000000E+00  0.38160160284E+04  0.38160160284E+04  0.00000000000E+00 0. -1.
          1   -1    0    0  501    0 -0.00000000000E+00 -0.00000000000E+00 -0.55985767768E+03  0.55985767768E+03  0.00000000000E+00 0. -1.
         25    2    1    2    0    0  0.58631486643E+02  0.16981604190E+03  0.16398137806E+03  0.27347895045E+03  0.12500281866E+03 0.  0.
          2    1    1    2  501    0 -0.16190174492E+03 -0.13462483920E+03 -0.48229656050E+03  0.52625658629E+03  0.00000000000E+00 0. -1.
          1    1    1    2  502    0  0.10327025828E+03 -0.35191202697E+02  0.35744735332E+04  0.35761381694E+04  0.00000000000E+00 0. -1.
         22    1    3    3    0    0  0.52925072221E+02  0.10053877744E+03  0.16915946350E+03  0.20377446634E+03  0.00000000000E+00 0. -1.
         22    1    3    3    0    0  0.57064144223E+01  0.69277264459E+02 -0.51780854342E+01  0.69704484111E+02  0.00000000000E+00 0. -1.
</event>
<event>
 7    1  0.6370239E-006  0.1164199E+03  0.7818608E-02  0.1297752E+00
          2   -1    0    0  502    0  0.00000000000E+00  0.00000000000E+00  0.77500266059E+03  0.77500266059E+03  0.00000000000E+00 0. -1.
          1   -1    0    0  501    0 -0.00000000000E+00 -0.00000000000E+00 -0.11211948279E+03  0.11211948279E+03  0.00000000000E+00 0. -1.
         25    2    1    2    0    0  0.14943997966E+03 -0.27015265556E+02  0.43552227924E+03  0.47786680767E+03  0.12495958573E+03 0.  0.
          2    1    1    2  501    0 -0.64225473320E+02 -0.34537949705E+02 -0.65549177613E+02  0.98053434814E+02  0.00000000000E+00 0. -1.
          1    1    1    2  502    0 -0.85214506343E+02  0.61553215261E+02  0.29291007617E+03  0.31120190090E+03  0.00000000000E+00 0. -1.
         22    1    3    3    0    0  0.13323512595E+03 -0.63874897630E+02  0.39022197428E+03  0.41725866144E+03  0.00000000000E+00 0. -1.
         22    1    3    3    0    0  0.16204853718E+02  0.36859632074E+02  0.45300304953E+02  0.60608146231E+02  0.00000000000E+00 0. -1.
</event>
<event>
 7    1  0.6370239E-006  0.3546889E+02  0.7818608E-02  0.1560855E+00
          2   -1    0    0  502    0  0.00000000000E+00  0.00000000000E+00  0.40596646663E+03  0.40596646663E+03  0.00000000000E+00 0. -1.
          1   -1    0    0  501    0 -0.00000000000E+00 -0.00000000000E+00 -0.52990474009E+03  0.52990474009E+03  0.00000000000E+00 0. -1.
         25    2    1    2    0    0 -0.42520129877E+02  0.75227615999E+01 -0.11846459642E+03  0.17755085380E+03  0.12500356672E+03 0.  0.
          2    1    1    2  501    0  0.28606837159E+02  0.21226227113E+02 -0.38038589150E+03  0.38205016726E+03  0.00000000000E+00 0. -1.
          1    1    1    2  502    0  0.13913292717E+02 -0.28748988712E+02  0.37491221447E+03  0.37627018567E+03  0.00000000000E+00 0. -1.
         22    1    3    3    0    0 -0.87092358829E+02  0.88464979496E+01 -0.82012685289E+02  0.11995590874E+03  0.00000000000E+00 0. -1.
         22    1    3    3    0    0  0.44572228952E+02 -0.13237363497E+01 -0.36451911135E+02  0.57594945065E+02  0.00000000000E+00 0. -1.
</event>
<event>
 7    1  0.6370239E-006  0.4508457E+02  0.7818608E-02  0.1478261E+00
          2   -1    0    0  502    0  0.00000000000E+00  0.00000000000E+00  0.22898755077E+03  0.22898755077E+03  0.00000000000E+00 0. -1.
          1   -1    0    0  501    0 -0.00000000000E+00 -0.00000000000E+00 -0.27050366285E+03  0.27050366285E+03  0.00000000000E+00 0. -1.
         25    2    1    2    0    0  0.28581670540E+02  0.31425092046E+02  0.10436408210E+03  0.16828350535E+03  0.12499211270E+03 0.  0.
          2    1    1    2  501    0  0.17914401687E+02 -0.41372605706E+02 -0.23010938065E+03  0.23448442455E+03  0.00000000000E+00 0. -1.
          1    1    1    2  502    0 -0.46496072227E+02  0.99475136601E+01  0.84229186466E+02  0.96723283719E+02  0.00000000000E+00 0. -1.
         22    1    3    3    0    0  0.73716667586E+02  0.18356230119E+02  0.92731829365E+02  0.11987614626E+03  0.00000000000E+00 0. -1.
         22    1    3    3    0    0 -0.45134997046E+02  0.13068861927E+02  0.11632252739E+02  0.48407359091E+02  0.00000000000E+00 0. -1.
</event>
<event>
 7    1  0.6370239E-006  0.4360255E+02  0.7818608E-02  0.1526067E+00
          2   -1    0    0  502    0  0.00000000000E+00  0.00000000000E+00  0.23826867445E+04  0.23826867445E+04  0.00000000000E+00 0. -1.
          1   -1    0    0  501    0 -0.00000000000E+00 -0.00000000000E+00 -0.21929455925E+03  0.21929455925E+03  0.00000000000E+00 0. -1.
         25    2    1    2    0    0 -0.10230556836E+02  0.69881686197E+02  0.52098180149E+02  0.15273353756E+03  0.12500079505E+03 0.  0.
          2    1    1    2  501    0 -0.71622941112E+01 -0.42367868735E+02 -0.16612705981E+03  0.17159409885E+03  0.00000000000E+00 0. -1.
          1    1    1    2  502    0  0.17392850947E+02 -0.27513817462E+02  0.22774210649E+04  0.22776536673E+04  0.00000000000E+00 0. -1.
         22    1    3    3    0    0 -0.24577272890E+02 -0.28408416494E+02 -0.54157888113E+01  0.37952750083E+02  0.00000000000E+00 0. -1.
         22    1    3    3    0    0  0.14346716054E+02  0.98290102691E+02  0.57513968960E+02  0.11478078748E+03  0.00000000000E+00 0. -1.
</event>
<event>
 7    1  0.6370239E-006  0.5843243E+02  0.7818608E-02  0.1408917E+00
          2   -1    0    0  502    0  0.00000000000E+00  0.00000000000E+00  0.11716888099E+04  0.11716888099E+04  0.00000000000E+00 0. -1.
          1   -1    0    0  501    0 -0.00000000000E+00 -0.00000000000E+00 -0.95885521191E+02  0.95885521191E+02  0.00000000000E+00 0. -1.
         25    2    1    2    0    0 -0.32758210637E+02 -0.20529962188E+02  0.22156307325E+03  0.25730926869E+03  0.12499313827E+03 0.  0.
          2    1    1    2  501    0 -0.18336839502E+02  0.53395991525E+02 -0.66664481703E+02  0.87358598401E+02  0.00000000000E+00 0. -1.
          1    1    1    2  502    0  0.51095050139E+02 -0.32866029337E+02  0.92090469715E+03  0.92290646398E+03  0.00000000000E+00 0. -1.
         22    1    3    3    0    0 -0.79928132978E+02 -0.53546078182E+01  0.11967925432E+03  0.14401493735E+03  0.00000000000E+00 0. -1.
         22    1    3    3    0    0  0.47169922341E+02 -0.15175354370E+02  0.10188381893E+03  0.11329433134E+03  0.00000000000E+00 0. -1.
</event>
<event>
 7    1  0.6370239E-006  0.1416916E+03  0.7818608E-02  0.1368613E+00
          2   -1    0    0  502    0  0.00000000000E+00  0.00000000000E+00  0.45461347300E+03  0.45461347300E+03  0.00000000000E+00 0. -1.
          1   -1    0    0  501    0 -0.00000000000E+00 -0.00000000000E+00 -0.69782227112E+03  0.69782227112E+03  0.00000000000E+00 0. -1.
         25    2    1    2    0    0  0.13135674596E+03  0.52473171062E+02  0.33368951930E+02  0.19169487536E+03  0.12500163958E+03 0.  0.
          2    1    1    2  501    0  0.93013919226E+01 -0.30835501075E+02 -0.60341000286E+03  0.60426895963E+03  0.00000000000E+00 0. -1.
          1    1    1    2  502    0 -0.14065813788E+03 -0.21637669987E+02  0.32683225281E+03  0.35647190912E+03  0.00000000000E+00 0. -1.
         22    1    3    3    0    0  0.73285770597E+02  0.87833693166E+02 -0.33146589647E+01  0.11444015375E+03  0.00000000000E+00 0.  1.
         22    1    3    3    0    0  0.58070975360E+02 -0.35360522104E+02  0.36683610894E+02  0.77254721609E+02  0.00000000000E+00 0.  1.
</event>
<event>
 7    1  0.6370239E-006  0.1031956E+03  0.7818608E-02  0.1356670E+00
          2   -1    0    0  502    0  0.00000000000E+00  0.00000000000E+00  0.21803330070E+04  0.21803330070E+04  0.00000000000E+00 0. -1.
          1   -1    0    0  501    0 -0.00000000000E+00 -0.00000000000E+00 -0.28727035560E+03  0.28727035560E+03  0.00000000000E+00 0. -1.
         25    2    1    2    0    0 -0.94555144409E+02  0.11135253187E+03  0.32634121140E+03  0.37876545039E+03  0.12499847383E+03 0.  0.
          2    1    1    2  501    0  0.41889403653E+02 -0.25173941564E+02 -0.25736170265E+03  0.26196086628E+03  0.00000000000E+00 0. -1.
          1    1    1    2  502    0  0.52665740755E+02 -0.86178590309E+02  0.18240831426E+04  0.18268770459E+04  0.00000000000E+00 0. -1.
         22    1    3    3    0    0  0.54835440908E+01 -0.11096107723E+02 -0.36025592865E+01  0.12890744579E+02  0.00000000000E+00 0. -1.
         22    1    3    3    0    0 -0.10003868850E+03  0.12244863960E+03  0.32994377069E+03  0.36587470581E+03  0.00000000000E+00 0. -1.
</event>
<event>
 7    1  0.6370239E-006  0.8737278E+02  0.7818608E-02  0.1404704E+00
          2   -1    0    0  502    0  0.00000000000E+00  0.00000000000E+00  0.54381125469E+03  0.54381125469E+03  0.00000000000E+00 0. -1.
          1   -1    0    0  501    0 -0.00000000000E+00 -0.00000000000E+00 -0.64738894209E+03  0.64738894209E+03  0.00000000000E+00 0. -1.
         25    2    1    2    0    0  0.71967227013E+02  0.74545346628E+02 -0.15391689235E+03  0.22372270631E+03  0.12500059639E+03 0.  0.
          2    1    1    2  501    0  0.73446728266E+01 -0.38327252948E+02 -0.45399137667E+03  0.45566554910E+03  0.00000000000E+00 0. -1.
          1    1    1    2  502    0 -0.79311899839E+02 -0.36218093680E+02  0.50433058163E+03  0.51181194137E+03  0.00000000000E+00 0. -1.
         22    1    3    3    0    0  0.43914283847E+02  0.16393892039E+02 -0.15207155060E+03  0.15913195947E+03  0.00000000000E+00 0. -1.
         22    1    3    3    0    0  0.28052943166E+02  0.58151454589E+02 -0.18453417510E+01  0.64590746840E+02  0.00000000000E+00 0. -1.
</event>
<event>
 7    1  0.6370239E-006  0.3806971E+02  0.7818608E-02  0.1588491E+00
          2   -1    0    0  502    0  0.00000000000E+00  0.00000000000E+00  0.12844601052E+04  0.12844601052E+04  0.00000000000E+00 0. -1.
          1   -1    0    0  501    0 -0.00000000000E+00 -0.00000000000E+00 -0.73895115687E+03  0.73895115687E+03  0.00000000000E+00 0. -1.
         25    2    1    2    0    0  0.13107238905E+02  0.10802520500E+02  0.68611683244E+02  0.14359986428E+03  0.12499945513E+03 0.  0.
          2    1    1    2  501    0 -0.13115601289E+02 -0.35861268910E+02 -0.70080403433E+03  0.70184353252E+03  0.00000000000E+00 0. -1.
          1    1    1    2  502    0  0.83623844461E-02  0.25058748409E+02  0.11777012994E+04  0.11779678652E+04  0.00000000000E+00 0. -1.
         22    1    3    3    0    0  0.33665935682E+02  0.13837000628E+02  0.99738888266E+02  0.10617298924E+03  0.00000000000E+00 0. -1.
         22    1    3    3    0    0 -0.20558696777E+02 -0.30344801277E+01 -0.31127205022E+02  0.37426875041E+02  0.00000000000E+00 0. -1.
</event>
<event>
 7    1  0.6370239E-006  0.3117340E+02  0.7818608E-02  0.1646176E+00
          2   -1    0    0  502    0  0.00000000000E+00  0.00000000000E+00  0.77210214501E+02  0.77210214501E+02  0.00000000000E+00 0. -1.
          1   -1    0    0  501    0 -0.00000000000E+00 -0.00000000000E+00 -0.17077013135E+03  0.17077013135E+03  0.00000000000E+00 0. -1.
         25    2    1    2    0    0 -0.59926913655E+01 -0.19278005935E+02 -0.96730183274E+02  0.15933885859E+03  0.12499835854E+03 0.  0.
          2    1    1    2  501    0 -0.21562196997E+02  0.31541121094E+01 -0.33535689298E+02  0.39993989789E+02  0.00000000000E+00 0. -1.
          1    1    1    2  502    0  0.27554888363E+02  0.16123893826E+02  0.36705955723E+02  0.48647497472E+02  0.00000000000E+00 0. -1.
         22    1    3    3    0    0 -0.28479169113E+02  0.47381536344E+02 -0.32800327344E+02  0.64280125494E+02  0.00000000000E+00 0. -1.
         22    1    3    3    0    0  0.22486477747E+02 -0.66659542280E+02 -0.63929855930E+02  0.95058733095E+02  0.00000000000E+00 0. -1.
</event>
<event>
 7    1  0.6370239E-006  0.1405062E+03  0.7818608E-02  0.1308223E+00
          2   -1    0    0  502    0  0.00000000000E+00  0.00000000000E+00  0.73629035998E+03  0.73629035998E+03  0.00000000000E+00 0. -1.
          1   -1    0    0  501    0 -0.00000000000E+00 -0.00000000000E+00 -0.10470791148E+03  0.10470791148E+03  0.00000000000E+00 0. -1.
         25    2    1    2    0    0 -0.36929236277E+02  0.10120962449E+03  0.18062230225E+02  0.16600771227E+03  0.12500063916E+03 0.  0.
          2    1    1    2  501    0  0.33256814223E+02  0.43664968222E+02  0.11901244560E+02  0.56163019543E+02  0.00000000000E+00 0. -1.
          1    1    1    2  502    0  0.36724220541E+01 -0.14487459271E+03  0.60161897371E+03  0.61882753965E+03  0.00000000000E+00 0. -1.
         22    1    3    3    0    0 -0.41390210519E+02 -0.18422284895E+02  0.45713492903E+01  0.45534902459E+02  0.00000000000E+00 0. -1.
         22    1    3    3    0    0  0.44609742422E+01  0.11963190939E+03  0.13490880934E+02  0.12047280981E+03  0.00000000000E+00 0. -1.
</event>
<event>
 7    1  0.6370239E-006  0.1557670E+03  0.7818608E-02  0.1232809E+00
          2   -1    0    0  502    0  0.00000000000E+00  0.00000000000E+00  0.11744182403E+04  0.11744182403E+04  0.00000000000E+00 0. -1.
          1   -1    0    0  501    0 -0.00000000000E+00 -0.00000000000E+00 -0.34542599266E+03  0.34542599266E+03  0.00000000000E+00 0. -1.
         25    2    1    2    0    0 -0.78036711374E+02 -0.11784707372E+03  0.48824532179E+03  0.52343658652E+03  0.12499881901E+03 0.  0.
          2    1    1    2  501    0  0.83810112834E+02 -0.59290913149E+02 -0.30759652993E+03  0.32427638307E+03  0.00000000000E+00 0. -1.
          1    1    1    2  502    0 -0.57734014608E+01  0.17713798687E+03  0.64834345578E+03  0.67213126338E+03  0.00000000000E+00 0. -1.
         22    1    3    3    0    0 -0.93475087654E+02 -0.12849747043E+03  0.35580389291E+03  0.38967371239E+03  0.00000000000E+00 0. -1.
         22    1    3    3    0    0  0.15438376280E+02  0.10650396708E+02  0.13244142887E+03  0.13376287413E+03  0.00000000000E+00 0. -1.
</event>
<event>
 7    1  0.6370239E-006  0.1742745E+03  0.7818608E-02  0.1228681E+00
          2   -1    0    0  502    0  0.00000000000E+00  0.00000000000E+00  0.41593365950E+03  0.41593365950E+03  0.00000000000E+00 0. -1.
          1   -1    0    0  501    0 -0.00000000000E+00 -0.00000000000E+00 -0.40746123460E+03  0.40746123460E+03  0.00000000000E+00 0. -1.
         25    2    1    2    0    0 -0.80457339874E+02 -0.22932917171E+03  0.10094548090E+03  0.29134104688E+03  0.12499745176E+03 0.  0.
          2    1    1    2  501    0  0.23742495465E+01  0.95721427067E+02 -0.27591441633E+03  0.29205649077E+03  0.00000000000E+00 0. -1.
          1    1    1    2  502    0  0.78083090327E+02  0.13360774464E+03  0.18344136034E+03  0.23999735645E+03  0.00000000000E+00 0. -1.
         22    1    3    3    0    0 -0.75339287451E+02 -0.83924544293E+02 -0.25208145480E+01  0.11280820836E+03  0.00000000000E+00 0. -1.
         22    1    3    3    0    0 -0.51180524225E+01 -0.14540462742E+03  0.10346629545E+03  0.17853283851E+03  0.00000000000E+00 0. -1.
</event>
<event>
 7    1  0.6776027E-006  0.7153657E+02  0.7818608E-02  0.1358839E+00
          2   -1    0    0  502    0  0.00000000000E+00  0.00000000000E+00  0.73950680335E+03  0.73950680335E+03  0.00000000000E+00 0. -1.
          1   -1    0    0  501    0 -0.00000000000E+00 -0.00000000000E+00 -0.26124194658E+04  0.26124194658E+04  0.00000000000E+00 0. -1.
         25    2    1    2    0    0 -0.21376304893E+02 -0.96480215659E+02 -0.37367145096E+03  0.40622806398E+03  0.12500203307E+03 0.  0.
          2    1    1    2  501    0  0.59252977643E+02  0.35789245817E+02 -0.22201597793E+04  0.22212386704E+04  0.00000000000E+00 0. -1.
          1    1    1    2  502    0 -0.37876672749E+02  0.60690969843E+02  0.72091856777E+03  0.72445953476E+03  0.00000000000E+00 0. -1.
         22    1    3    3    0    0  0.49136120615E+02 -0.16299963518E+02 -0.10357316524E+03  0.11579053380E+03  0.00000000000E+00 0.  1.
         22    1    3    3    0    0 -0.70512425509E+02 -0.80180252141E+02 -0.27009828572E+03  0.29043753017E+03  0.00000000000E+00 0.  1.
</event>
<event>
 7    1  0.6370239E-006  0.5155123E+02  0.7818608E-02  0.1437307E+00
          2   -1    0    0  502    0  0.00000000000E+00  0.00000000000E+00  0.20385853621E+03  0.20385853621E+03  0.00000000000E+00 0. -1.
          1   -1    0    0  501    0 -0.00000000000E+00 -0.00000000000E+00 -0.15150792621E+04  0.15150792621E+04  0.00000000000E+00 0. -1.
         25    2    1    2    0    0  0.82897270143E+01 -0.26425399506E+02 -0.16846398199E+03  0.21159317146E+03  0.12499814265E+03 0.  0.
          2    1    1    2  501    0  0.43138864918E+02  0.29979215447E+02 -0.13208735288E+04  0.13219177713E+04  0.00000000000E+00 0. -1.
          1    1    1    2  502    0 -0.51428591932E+02 -0.35538159400E+01  0.17811678492E+03  0.18542685552E+03  0.00000000000E+00 0. -1.
         22    1    3    3    0    0  0.34540251162E+01 -0.28206333280E+02  0.12150134762E+02  0.30905554539E+02  0.00000000000E+00 0.  1.
         22    1    3    3    0    0  0.48357018980E+01  0.17809337735E+01 -0.18061411675E+03  0.18068761692E+03  0.00000000000E+00 0.  1.
</event>
<event>
 7    1  0.6370239E-006  0.2487889E+02  0.7818608E-02  0.1688914E+00
          2   -1    0    0  502    0  0.00000000000E+00  0.00000000000E+00  0.13817715692E+03  0.13817715692E+03  0.00000000000E+00 0. -1.
          1   -1    0    0  501    0 -0.00000000000E+00 -0.00000000000E+00 -0.88065870256E+03  0.88065870256E+03  0.00000000000E+00 0. -1.
         25    2    1    2    0    0 -0.22600173330E+02  0.61690352468E+01  0.12672398080E+02  0.12780989912E+03  0.12500382318E+03 0.  0.
          2    1    1    2  501    0  0.12967259222E+02  0.17226577041E+02 -0.82058771693E+03  0.82087094354E+03  0.00000000000E+00 0. -1.
          1    1    1    2  502    0  0.96329141079E+01 -0.23395612288E+02  0.65433773207E+02  0.70155016818E+02  0.00000000000E+00 0. -1.
         22    1    3    3    0    0  0.17490363808E+02 -0.15446044782E+02 -0.47158345560E+02  0.52615612526E+02  0.00000000000E+00 0.  1.
         22    1    3    3    0    0 -0.40090537138E+02  0.21615080029E+02  0.59830743639E+02  0.75194286599E+02  0.00000000000E+00 0.  1.
</event>
<event>
 7    1  0.6370239E-006  0.1245227E+03  0.7818608E-02  0.1326237E+00
          2   -1    0    0  502    0  0.00000000000E+00  0.00000000000E+00  0.23404085076E+04  0.23404085076E+04  0.00000000000E+00 0. -1.
          1   -1    0    0  501    0 -0.00000000000E+00 -0.00000000000E+00 -0.26499586130E+03  0.26499586130E+03  0.00000000000E+00 0. -1.
         25    2    1    2    0    0  0.62894632243E+02  0.49656443869E+02  0.41521720380E+03  0.44096790961E+03  0.12500349510E+03 0.  0.
          2    1    1    2  501    0  0.36005498176E+02  0.38467941679E+02 -0.24704506293E+03  0.25260134907E+03  0.00000000000E+00 0. -1.
          1    1    1    2  502    0 -0.98900130419E+02 -0.88124385547E+02  0.19072405054E+04  0.19118351102E+04  0.00000000000E+00 0. -1.
         22    1    3    3    0    0  0.47178763698E+02 -0.29236679267E+02  0.88270451440E+02  0.10427028223E+03  0.00000000000E+00 0.  1.
         22    1    3    3    0    0  0.15715868545E+02  0.78893123135E+02  0.32694675236E+03  0.33669762738E+03  0.00000000000E+00 0.  1.
</event>
<event>
 7    1  0.6370239E-006  0.2033504E+03  0.7818608E-02  0.1335008E+00
          2   -1    0    0  502    0  0.00000000000E+00  0.00000000000E+00  0.52140665551E+03  0.52140665551E+03  0.00000000000E+00 0. -1.
          1   -1    0    0  501    0 -0.00000000000E+00 -0.00000000000E+00 -0.19585706006E+04  0.19585706006E+04  0.00000000000E+00 0. -1.
         25    2    1    2    0    0 -0.15720125582E+03  0.14318294322E+03 -0.16533067411E+02  0.24720836544E+03  0.12500017426E+03 0.  0.
          2    1    1    2  501    0 -0.89504552268E+01 -0.28498595543E+02 -0.18014748385E+04  0.18017224743E+04  0.00000000000E+00 0. -1.
          1    1    1    2  502    0  0.16615171104E+03 -0.11468434768E+03  0.38084396076E+03  0.43104641645E+03  0.00000000000E+00 0. -1.
         22    1    3    3    0    0 -0.17124032751E+03  0.12515673379E+03 -0.38436654489E+02  0.21555703233E+03  0.00000000000E+00 0.  1.
         22    1    3    3    0    0  0.14039071696E+02  0.18026209433E+02  0.21903587078E+02  0.31651333108E+02  0.00000000000E+00 0.  1.
</event>
<event>
 7    1  0.6370239E-006  0.1045244E+03  0.7818608E-02  0.1400316E+00
          2   -1    0    0  502    0  0.00000000000E+00  0.00000000000E+00  0.34269821225E+03  0.34269821225E+03  0.00000000000E+00 0. -1.
          1   -1    0    0  501    0 -0.00000000000E+00 -0.00000000000E+00 -0.21740552972E+04  0.21740552972E+04  0.00000000000E+00 0. -1.
         25    2    1    2    0    0  0.63963135582E+02 -0.12075204822E+03 -0.15159605706E+03  0.23932900839E+03  0.12499867950E+03 0.  0.
          2    1    1    2  501    0 -0.53503881616E+02  0.88642687541E+02 -0.19762791851E+04  0.19789895423E+04  0.00000000000E+00 0. -1.
          1    1    1    2  502    0 -0.10459253966E+02  0.32109360676E+02  0.29651815718E+03  0.29843495870E+03  0.00000000000E+00 0. -1.
         22    1    3    3    0    0  0.96752068714E+02 -0.11642689705E+03 -0.11580116371E+03  0.19059405729E+03  0.00000000000E+00 0. -1.
         22    1    3    3    0    0 -0.32788933132E+02 -0.43251511630E+01 -0.35794893343E+02  0.48734951092E+02  0.00000000000E+00 0. -1.
</event>
<event>
 7    1  0.6370239E-006  0.1192553E+03  0.7818608E-02  0.1375240E+00
          2   -1    0    0  502    0  0.00000000000E+00  0.00000000000E+00  0.47992041262E+03  0.47992041262E+03  0.00000000000E+00 0. -1.
          1   -1    0    0  501    0 -0.00000000000E+00 -0.00000000000E+00 -0.50331625315E+03  0.50331625315E+03  0.00000000000E+00 0. -1.
         25    2    1    2    0    0  0.10201223306E+03 -0.53242539483E+02 -0.36511256727E+02  0.17379298519E+03  0.12501866313E+03 0.  0.
          2    1    1    2  501    0 -0.17335434841E+02 -0.31813807474E+02 -0.38854734919E+03  0.39023285126E+03  0.00000000000E+00 0. -1.
          1    1    1    2  502    0 -0.84676798219E+02  0.85056346958E+02  0.40166276538E+03  0.41921082931E+03  0.00000000000E+00 0. -1.
         22    1    3    3    0    0  0.10982867797E+03 -0.19036372994E+02  0.13945632839E+02  0.11233522456E+03  0.00000000000E+00 0. -1.
         22    1    3    3    0    0 -0.78164449140E+01 -0.34206166489E+02 -0.50456889566E+02  0.61457760630E+02  0.00000000000E+00 0. -1.
</event>
<event>
 7    1  0.6370239E-006  0.7404674E+02  0.7818608E-02  0.1482238E+00
          2   -1    0    0  502    0  0.00000000000E+00  0.00000000000E+00  0.12391356328E+04  0.12391356328E+04  0.00000000000E+00 0. -1.
          1   -1    0    0  501    0 -0.00000000000E+00 -0.00000000000E+00 -0.12083278892E+03  0.12083278892E+03  0.00000000000E+00 0. -1.
         25    2    1    2    0    0  0.40579248349E+02 -0.42296948052E+02  0.53019397634E+03  0.54787580702E+03  0.12500616047E+03 0.  0.
          2    1    1    2  501    0 -0.65506396810E+02  0.35411728515E+02 -0.99343518275E+02  0.12415398972E+03  0.00000000000E+00 0. -1.
          1    1    1    2  502    0  0.24927148461E+02  0.68852195370E+01  0.68745238586E+03  0.68793862502E+03  0.00000000000E+00 0. -1.
         22    1    3    3    0    0 -0.39587294467E+01 -0.79186350192E+02  0.27432369241E+03  0.28555146264E+03  0.00000000000E+00 0.  1.
         22    1    3    3    0    0  0.44537977796E+02  0.36889402141E+02  0.25587028393E+03  0.26232434438E+03  0.00000000000E+00 0.  1.
</event>
<event>
 7    1  0.6370239E-006  0.2945150E+02  0.7818608E-02  0.1621641E+00
          2   -1    0    0  502    0  0.00000000000E+00  0.00000000000E+00  0.89451777970E+03  0.89451777970E+03  0.00000000000E+00 0. -1.
          1   -1    0    0  501    0 -0.00000000000E+00 -0.00000000000E+00 -0.15326105211E+04  0.15326105211E+04  0.00000000000E+00 0. -1.
         25    2    1    2    0    0 -0.18312874098E+01 -0.73564073491E+01 -0.68174043292E+03  0.69314722326E+03  0.12500233956E+03 0.  0.
          2    1    1    2  501    0 -0.18540172612E+02  0.24411973686E+02 -0.84469005998E+03  0.84524610610E+03  0.00000000000E+00 0. -1.
          1    1    1    2  502    0  0.20371460021E+02 -0.17055566337E+02  0.88833775150E+03  0.88873497144E+03  0.00000000000E+00 0. -1.
         22    1    3    3    0    0  0.51439277564E+02 -0.13381954020E+02 -0.15864971717E+03  0.16731649269E+03  0.00000000000E+00 0.  1.
         22    1    3    3    0    0 -0.53270564974E+02  0.60255466705E+01 -0.52309071575E+03  0.52583073057E+03  0.00000000000E+00 0.  1.
</event>
<event>
 7    1  0.6370239E-006  0.2016245E+03  0.7818608E-02  0.1262911E+00
          2   -1    0    0  502    0  0.00000000000E+00  0.00000000000E+00  0.11505472889E+04  0.11505472889E+04  0.00000000000E+00 0. -1.
          1   -1    0    0  501    0 -0.00000000000E+00 -0.00000000000E+00 -0.11511640053E+04  0.11511640053E+04  0.00000000000E+00 0. -1.
         25    2    1    2    0    0  0.21903289540E+03 -0.35147595014E+02  0.20165676045E+03  0.32480933181E+03  0.12499956118E+03 0.  0.
          2    1    1    2  501    0 -0.20013113033E+03 -0.20374306993E+02 -0.10793148343E+04  0.10979016774E+04  0.00000000000E+00 0. -1.
          1    1    1    2  502    0 -0.18901765074E+02  0.55521902007E+02  0.87704135747E+03  0.87900028500E+03  0.00000000000E+00 0. -1.
         22    1    3    3    0    0  0.85382062278E+02  0.16597124547E+02  0.14821334399E+03  0.17185097160E+03  0.00000000000E+00 0.  1.
         22    1    3    3    0    0  0.13365083312E+03 -0.51744719561E+02  0.53443416454E+02  0.15295836021E+03  0.00000000000E+00 0.  1.
</event>
<event>
 7    1  0.6370239E-006  0.3585078E+02  0.7818608E-02  0.1563745E+00
          2   -1    0    0  502    0  0.00000000000E+00  0.00000000000E+00  0.55244634873E+03  0.55244634873E+03  0.00000000000E+00 0. -1.
          1   -1    0    0  501    0 -0.00000000000E+00 -0.00000000000E+00 -0.50087264222E+03  0.50087264222E+03  0.00000000000E+00 0. -1.
         25    2    1    2    0    0 -0.46613663548E+02  0.47487759908E+02 -0.47888144410E+02  0.14948719023E+03  0.12500089879E+03 0.  0.
          2    1    1    2  501    0  0.23211124124E+02 -0.20588900705E+02 -0.40095135149E+03  0.40215002844E+03  0.00000000000E+00 0. -1.
          1    1    1    2  502    0  0.23402539424E+02 -0.26898859203E+02  0.50041320242E+03  0.50168177227E+03  0.00000000000E+00 0. -1.
         22    1    3    3    0    0 -0.71577098540E+02  0.21752770019E+02  0.15745090994E+02  0.76448492001E+02  0.00000000000E+00 0. -1.
         22    1    3    3    0    0  0.24963434991E+02  0.25734989889E+02 -0.63633235404E+02  0.73038698230E+02  0.00000000000E+00 0. -1.
</event>
<event>
 7    1  0.6370239E-006  0.6967394E+02  0.7818608E-02  0.1525837E+00
          2   -1    0    0  502    0  0.00000000000E+00  0.00000000000E+00  0.93626685512E+03  0.93626685512E+03  0.00000000000E+00 0. -1.
          1   -1    0    0  501    0 -0.00000000000E+00 -0.00000000000E+00 -0.86892747042E+02  0.86892747042E+02  0.00000000000E+00 0. -1.
         25    2    1    2    0    0  0.62446693372E+02 -0.30298570085E+02  0.10183397078E+03  0.17553487444E+03  0.12499896670E+03 0.  0.
          2    1    1    2  501    0 -0.69290042945E+02  0.11079296322E+02 -0.25242821945E+02  0.74572521200E+02  0.00000000000E+00 0. -1.
          1    1    1    2  502    0  0.68433495731E+01  0.19219273763E+02  0.77278295924E+03  0.77305220652E+03  0.00000000000E+00 0. -1.
         22    1    3    3    0    0 -0.29271880604E+02  0.15509008004E+02  0.51723508568E+02  0.61422257057E+02  0.00000000000E+00 0. -1.
         22    1    3    3    0    0  0.91718573976E+02 -0.45807578089E+02  0.50110462213E+02  0.11411261738E+03  0.00000000000E+00 0. -1.
</event>
<event>
 7    1  0.6370239E-006  0.6386850E+02  0.7818608E-02  0.1430894E+00
          2   -1    0    0  502    0  0.00000000000E+00  0.00000000000E+00  0.18140318646E+03  0.18140318646E+03  0.00000000000E+00 0. -1.
          1   -1    0    0  501    0 -0.00000000000E+00 -0.00000000000E+00 -0.50793522075E+03  0.50793522075E+03  0.00000000000E+00 0. -1.
         25    2    1    2    0    0 -0.25659955242E+02 -0.80570352942E+02 -0.24132607215E+03  0.28463511721E+03  0.12501544615E+03 0.  0.
          2    1    1    2  501    0  0.45514938818E+02  0.41733066668E+02 -0.23796098311E+03  0.24584281156E+03  0.00000000000E+00 0. -1.
          1    1    1    2  502    0 -0.19854983577E+02  0.38837286274E+02  0.15275502098E+03  0.15886047844E+03  0.00000000000E+00 0. -1.
         22    1    3    3    0    0  0.26820858610E+02 -0.85214069494E+02 -0.19495660187E+03  0.21445016370E+03  0.00000000000E+00 0.  1.
         22    1    3    3    0    0 -0.52480813852E+02  0.46437165522E+01 -0.46369470275E+02  0.70184953512E+02  0.00000000000E+00 0.  1.
</event>
<event>
 7    1  0.6370239E-006  0.1729736E+03  0.7818608E-02  0.1392792E+00
          2   -1    0    0  502    0  0.00000000000E+00  0.00000000000E+00  0.57102426709E+03  0.57102426709E+03  0.00000000000E+00 0. -1.
          1   -1    0    0  501    0 -0.00000000000E+00 -0.00000000000E+00 -0.74420534201E+03  0.74420534201E+03  0.00000000000E+00 0. -1.
         25    2    1    2    0    0 -0.12873464802E+03  0.84433581393E+02 -0.15006745347E+03  0.24869097337E+03  0.12500128150E+03 0.  0.
          2    1    1    2  501    0 -0.12710469340E+02  0.17545524412E+02 -0.53002812827E+03  0.53047075152E+03  0.00000000000E+00 0. -1.
          1    1    1    2  502    0  0.14144511736E+03 -0.10197910581E+03  0.50691450683E+03  0.53606788421E+03  0.00000000000E+00 0. -1.
         22    1    3    3    0    0 -0.10314043576E+03 -0.12117507503E+00 -0.48185802590E+02  0.11384127434E+03  0.00000000000E+00 0.  1.
         22    1    3    3    0    0 -0.25594212262E+02  0.84554756468E+02 -0.10188165088E+03  0.13484969903E+03  0.00000000000E+00 0.  1.
</event>
<event>
 7    1  0.6370239E-006  0.2386224E+03  0.7818608E-02  0.1284461E+00
          2   -1    0    0  502    0  0.00000000000E+00  0.00000000000E+00  0.16680789384E+04  0.16680789384E+04  0.00000000000E+00 0. -1.
          1   -1    0    0  501    0 -0.00000000000E+00 -0.00000000000E+00 -0.94174778664E+03  0.94174778664E+03  0.00000000000E+00 0. -1.
         25    2    1    2    0    0  0.25770011891E+03  0.10465629719E+03 -0.42995721918E+03  0.52711512544E+03  0.12499941328E+03 0.  0.
          2    1    1    2  501    0 -0.37948323548E+02 -0.13519737644E+02 -0.45357731640E+03  0.45536275706E+03  0.00000000000E+00 0. -1.
          1    1    1    2  502    0 -0.21975179536E+03 -0.91136559544E+02  0.16098656873E+04  0.16273488425E+04  0.00000000000E+00 0. -1.
         22    1    3    3    0    0  0.26492560103E+03  0.87935767943E+02 -0.42458463777E+03  0.50812438240E+03  0.00000000000E+00 0.  1.
         22    1    3    3    0    0 -0.72254821223E+01  0.16720529246E+02 -0.53725814091E+01  0.18990743038E+02  0.00000000000E+00 0.  1.
</event>
<event>
 7    1  0.6370239E-006  0.2366467E+03  0.7818608E-02  0.1177961E+00
          2   -1    0    0  502    0  0.00000000000E+00  0.00000000000E+00  0.14995022101E+04  0.14995022101E+04  0.00000000000E+00 0. -1.
          1   -1    0    0  501    0 -0.00000000000E+00 -0.00000000000E+00 -0.10564980181E+04  0.10564980181E+04  0.00000000000E+00 0. -1.
         25    2    1    2    0    0 -0.85581059216E+02  0.82480085150E+02 -0.80755730840E+03  0.82577319911E+03  0.12500195151E+03 0.  0.
          2    1    1    2  501    0 -0.10912702603E+03  0.54473022285E+02 -0.21406926216E+03  0.24637708288E+03  0.00000000000E+00 0. -1.
          1    1    1    2  502    0  0.19470808524E+03 -0.13695310744E+03  0.14646307626E+04  0.14838499462E+04  0.00000000000E+00 0. -1.
         22    1    3    3    0    0 -0.32117741770E+02  0.71432419317E+02 -0.18592096112E+03  0.20174425308E+03  0.00000000000E+00 0.  1.
         22    1    3    3    0    0 -0.53463317446E+02  0.11047665833E+02 -0.62163634728E+03  0.62402894603E+03  0.00000000000E+00 0.  1.
</event>
<event>
 7    1  0.6370239E-006  0.9132783E+02  0.7818608E-02  0.1376112E+00
          2   -1    0    0  502    0  0.00000000000E+00  0.00000000000E+00  0.77834959527E+03  0.77834959527E+03  0.00000000000E+00 0. -1.
          1   -1    0    0  501    0 -0.00000000000E+00 -0.00000000000E+00 -0.37436672416E+03  0.37436672416E+03  0.00000000000E+00 0. -1.
         25    2    1    2    0    0  0.32138734823E+02 -0.51645167321E+02 -0.16817304331E+02  0.14003097706E+03  0.12500292488E+03 0.  0.
          2    1    1    2  501    0 -0.23472519153E+02 -0.40686491861E+02 -0.29105194798E+03  0.29481788650E+03  0.00000000000E+00 0. -1.
          1    1    1    2  502    0 -0.86662156698E+01  0.92331659182E+02  0.71185212342E+03  0.71786745587E+03  0.00000000000E+00 0. -1.
         22    1    3    3    0    0 -0.17496586200E+02 -0.28958722820E+02  0.45817499104E+02  0.56955960006E+02  0.00000000000E+00 0. -1.
         22    1    3    3    0    0  0.49635321023E+02 -0.22686444501E+02 -0.62634803435E+02  0.83075017054E+02  0.00000000000E+00 0. -1.
</event>
<event>
 7    1  0.6370239E-006  0.1021493E+03  0.7818608E-02  0.1338761E+00
          2   -1    0    0  502    0  0.00000000000E+00  0.00000000000E+00  0.57264606208E+03  0.57264606208E+03  0.00000000000E+00 0. -1.
          1   -1    0    0  501    0 -0.00000000000E+00 -0.00000000000E+00 -0.20789073935E+03  0.20789073935E+03  0.00000000000E+00 0. -1.
         25    2    1    2    0    0 -0.30698269074E+02 -0.52399673608E+02  0.15768474000E+02  0.13986268580E+03  0.12499926636E+03 0.  0.
          2    1    1    2  501    0  0.32969171003E+02  0.10990838707E+03 -0.12124420305E+03  0.16693404853E+03  0.00000000000E+00 0. -1.
          1    1    1    2  502    0 -0.22709019291E+01 -0.57508713466E+02  0.47023105177E+03  0.47374006710E+03  0.00000000000E+00 0. -1.
         22    1    3    3    0    0 -0.75290507546E+02 -0.53720481361E+02 -0.16476435556E+00  0.92490960593E+02  0.00000000000E+00 0. -1.
         22    1    3    3    0    0  0.44592238472E+02  0.13208077527E+01  0.15933238356E+02  0.47371725212E+02  0.00000000000E+00 0. -1.
</event>
<event>
 7    1  0.1312552E-005  0.6999098E+02  0.7818608E-02  0.1365692E+00
          2   -1    0    0  502    0  0.00000000000E+00  0.00000000000E+00  0.12045510793E+04  0.12045510793E+04  0.00000000000E+00 0. -1.
          1   -1    0    0  501    0 -0.00000000000E+00 -0.00000000000E+00 -0.19126588202E+04  0.19126588202E+04  0.00000000000E+00 0. -1.
         25    2    1    2    0    0 -0.11054602015E+02  0.37586245090E+01 -0.67125016475E+03  0.68288983440E+03  0.12500164303E+03 0.  0.
          2    1    1    2  501    0  0.76351309584E+02  0.21442114138E+02 -0.12332925011E+04  0.12358396660E+04  0.00000000000E+00 0. -1.
          1    1    1    2  502    0 -0.65296707569E+02 -0.25200738647E+02  0.11964349250E+04  0.11984803991E+04  0.00000000000E+00 0. -1.
         22    1    3    3    0    0 -0.26349483361E+02 -0.26914732568E+02 -0.61093680662E+02  0.71771414362E+02  0.00000000000E+00 0.  1.
         22    1    3    3    0    0  0.15294881346E+02  0.30673357077E+02 -0.61015648409E+03  0.61111842004E+03  0.00000000000E+00 0.  1.
</event>
<event>
 7    1  0.6370239E-006  0.5940119E+02  0.7818608E-02  0.1426796E+00
          2   -1    0    0  502    0  0.00000000000E+00  0.00000000000E+00  0.14196607450E+03  0.14196607450E+03  0.00000000000E+00 0. -1.
          1   -1    0    0  501    0 -0.00000000000E+00 -0.00000000000E+00 -0.23492033037E+04  0.23492033037E+04  0.00000000000E+00 0. -1.
         25    2    1    2    0    0 -0.10349582424E+02 -0.53432219712E+01 -0.75675229122E+03  0.76709508864E+03  0.12500072354E+03 0.  0.
          2    1    1    2  501    0 -0.37294430561E+02 -0.30819092618E+02 -0.15803532937E+04  0.15810936797E+04  0.00000000000E+00 0. -1.
          1    1    1    2  502    0  0.47644012985E+02  0.36162314589E+02  0.12986835574E+03  0.14298060985E+03  0.00000000000E+00 0. -1.
         22    1    3    3    0    0  0.23877847507E+02  0.39314657554E+02 -0.13143291765E+03  0.13924943713E+03  0.00000000000E+00 0. -1.
         22    1    3    3    0    0 -0.34227429931E+02 -0.44657879526E+02 -0.62531937357E+03  0.62784565151E+03  0.00000000000E+00 0. -1.
</event>
<event>
 7    1  0.6370239E-006  0.1372327E+03  0.7818608E-02  0.1320846E+00
          2   -1    0    0  502    0  0.00000000000E+00  0.00000000000E+00  0.13435776042E+04  0.13435776042E+04  0.00000000000E+00 0. -1.
          1   -1    0    0  501    0 -0.00000000000E+00 -0.00000000000E+00 -0.72893206112E+03  0.72893206112E+03  0.00000000000E+00 0. -1.
         25    2    1    2    0    0  0.40279893647E+02 -0.15485469613E+03 -0.24391138636E+03  0.31736458075E+03  0.12500026390E+03 0.  0.
          2    1    1    2  501    0 -0.68521308648E+02  0.11340611035E+03 -0.43800810178E+03  0.45761032859E+03  0.00000000000E+00 0. -1.
          1    1    1    2  502    0  0.28241415001E+02  0.41448585780E+02  0.12965650313E+04  0.12975347560E+04  0.00000000000E+00 0. -1.
         22    1    3    3    0    0  0.45908682208E+02 -0.13767873364E+03 -0.10966033182E+03  0.18190225170E+03  0.00000000000E+00 0. -1.
         22    1    3    3    0    0 -0.56287885610E+01 -0.17175962496E+02 -0.13425105454E+03  0.13546232906E+03  0.00000000000E+00 0. -1.
</event>
<event>
 7    1  0.6370239E-006  0.8025060E+02  0.7818608E-02  0.1501309E+00
          2   -1    0    0  502    0  0.00000000000E+00  0.00000000000E+00  0.60035772131E+02  0.60035772131E+02  0.00000000000E+00 0. -1.
          1   -1    0    0  501    0 -0.00000000000E+00 -0.00000000000E+00 -0.30153261190E+03  0.30153261190E+03  0.00000000000E+00 0. -1.
         25    2    1    2    0    0  0.73934360856E+01 -0.95011353212E+02 -0.13721864168E+03  0.20865299782E+03  0.12500119094E+03 0.  0.
          2    1    1    2  501    0 -0.38482398699E+00  0.75322069788E+02 -0.10801497935E+03  0.13168446397E+03  0.00000000000E+00 0. -1.
          1    1    1    2  502    0 -0.70086120986E+01  0.19689283424E+02  0.37367812602E+01  0.21230922248E+02  0.00000000000E+00 0. -1.
         22    1    3    3    0    0 -0.37394869849E+02 -0.14464404949E+02  0.37082728406E+01  0.40265948256E+02  0.00000000000E+00 0. -1.
         22    1    3    3    0    0  0.44788305934E+02 -0.80546948263E+02 -0.14092691452E+03  0.16838704956E+03  0.00000000000E+00 0. -1.
</event>
<event>
 7    1  0.6370239E-006  0.4623810E+02  0.7818608E-02  0.1565409E+00
          2   -1    0    0  502    0  0.00000000000E+00  0.00000000000E+00  0.12141418599E+03  0.12141418599E+03  0.00000000000E+00 0. -1.
          1   -1    0    0  501    0 -0.00000000000E+00 -0.00000000000E+00 -0.95386158040E+02  0.95386158040E+02  0.00000000000E+00 0. -1.
         25    2    1    2    0    0 -0.35875685660E+02 -0.17380126665E+02  0.10693305450E+02  0.13163561796E+03  0.12499782202E+03 0.  0.
          2    1    1    2  501    0  0.79579793507E+01 -0.22436228782E+02 -0.14728483775E+02  0.27993606977E+02  0.00000000000E+00 0. -1.
          1    1    1    2  502    0  0.27917706309E+02  0.39816355447E+02  0.30063206279E+02  0.57171119093E+02  0.00000000000E+00 0. -1.
         22    1    3    3    0    0 -0.33972194639E+02 -0.37049096178E+02 -0.48122936590E+02  0.69588523208E+02  0.00000000000E+00 0. -1.
         22    1    3    3    0    0 -0.19034910209E+01  0.19668969513E+02  0.58816242040E+02  0.62047094754E+02  0.00000000000E+00 0. -1.
</event>
<event>
 7    1  0.6370239E-006  0.3566379E+02  0.7818608E-02  0.1593953E+00
          2   -1    0    0  502    0  0.00000000000E+00  0.00000000000E+00  0.17509664886E+03  0.17509664886E+03  0.00000000000E+00 0. -1.
          1   -1    0    0  501    0 -0.00000000000E+00 -0.00000000000E+00 -0.13376591507E+04  0.13376591507E+04  0.00000000000E+00 0. -1.
         25    2    1    2    0    0  0.57283460059E+02  0.16885362104E+02 -0.95460919459E+02  0.16824107385E+03  0.12500304611E+03 0.  0.
          2    1    1    2  501    0 -0.22195057818E+02 -0.13299882990E+02 -0.12034245997E+04  0.12037027352E+04  0.00000000000E+00 0. -1.
          1    1    1    2  502    0 -0.35088402241E+02 -0.35854791146E+01  0.13632301732E+03  0.14081199055E+03  0.00000000000E+00 0. -1.
         22    1    3    3    0    0  0.65847739580E+02  0.33984314787E+02 -0.33608533766E+01  0.74176504331E+02  0.00000000000E+00 0. -1.
         22    1    3    3    0    0 -0.85642795213E+01 -0.17098952683E+02 -0.92100066082E+02  0.94064569519E+02  0.00000000000E+00 0. -1.
</event>
<event>
 7    1  0.6370239E-006  0.5800275E+02  0.7818608E-02  0.1422454E+00
          2   -1    0    0  502    0  0.00000000000E+00  0.00000000000E+00  0.24103138750E+04  0.24103138750E+04  0.00000000000E+00 0. -1.
          1   -1    0    0  501    0 -0.00000000000E+00 -0.00000000000E+00 -0.15751237478E+03  0.15751237478E+03  0.00000000000E+00 0. -1.
         25    2    1    2    0    0 -0.30966425974E+01 -0.87572567970E+02  0.89109667177E+02  0.17675594458E+03  0.12499434909E+03 0.  0.
          2    1    1    2  501    0  0.33459284562E+02  0.46324150990E+02 -0.10620140383E+03  0.12059929048E+03  0.00000000000E+00 0. -1.
          1    1    1    2  502    0 -0.30362641965E+02  0.41248416980E+02  0.22698932369E+04  0.22704710147E+04  0.00000000000E+00 0. -1.
         22    1    3    3    0    0  0.19054121307E+02 -0.42858335558E+02  0.11232170741E+03  0.12172124885E+03  0.00000000000E+00 0. -1.
         22    1    3    3    0    0 -0.22150763904E+02 -0.44714232412E+02 -0.23212040238E+02  0.55034695727E+02  0.00000000000E+00 0. -1.
</event>
<event>
 7    1  0.6370239E-006  0.7938053E+02  0.7818608E-02  0.1464218E+00
          2   -1    0    0  502    0  0.00000000000E+00  0.00000000000E+00  0.87786604155E+03  0.87786604155E+03  0.00000000000E+00 0. -1.
          1   -1    0    0  501    0 -0.00000000000E+00 -0.00000000000E+00 -0.28073390262E+03  0.28073390262E+03  0.00000000000E+00 0. -1.
         25    2    1    2    0    0  0.63643811771E+02 -0.70966411906E+02  0.50305966546E+03  0.52705429415E+03  0.12502174038E+03 0.  0.
          2    1    1    2  501    0 -0.29898755199E+01  0.27267076539E+02 -0.26416799019E+03  0.26558832779E+03  0.00000000000E+00 0. -1.
          1    1    1    2  502    0 -0.60653936251E+02  0.43699335367E+02  0.35824046366E+03  0.36595732224E+03  0.00000000000E+00 0. -1.
         22    1    3    3    0    0  0.95088080197E+02 -0.68780358896E+02  0.45252950386E+03  0.46749912581E+03  0.00000000000E+00 0.  1.
         22    1    3    3    0    0 -0.31444268426E+02 -0.21860530103E+01  0.50530161598E+02  0.59555168338E+02  0.00000000000E+00 0.  1.
</event>
<event>
 7    1  0.6370239E-006  0.1525440E+03  0.7818608E-02  0.1214647E+00
          2   -1    0    0  502    0  0.00000000000E+00  0.00000000000E+00  0.33115350380E+03  0.33115350380E+03  0.00000000000E+00 0. -1.
          1   -1    0    0  501    0 -0.00000000000E+00 -0.00000000000E+00 -0.63779800525E+03  0.63779800525E+03  0.00000000000E+00 0. -1.
         25    2    1    2    0    0 -0.64634265718E+02 -0.18969156715E+02 -0.34341360557E+02  0.14609059920E+03  0.12500286764E+03 0.  0.
          2    1    1    2  501    0  0.72734905195E+02 -0.13408689131E+03 -0.51427999564E+03  0.53642667231E+03  0.00000000000E+00 0. -1.
          1    1    1    2  502    0 -0.81006394763E+01  0.15305604802E+03  0.24197685475E+03  0.28643423753E+03  0.00000000000E+00 0. -1.
         22    1    3    3    0    0  0.10239176775E+02  0.42786761558E+02 -0.29880794774E+01  0.44096216670E+02  0.00000000000E+00 0.  1.
         22    1    3    3    0    0 -0.74873442493E+02 -0.61755918273E+02 -0.31353281079E+02  0.10199438253E+03  0.00000000000E+00 0.  1.
</event>
<event>
 7    1  0.6370239E-006  0.1905831E+03  0.7818608E-02  0.1231846E+00
          2   -1    0    0  502    0  0.00000000000E+00  0.00000000000E+00  0.18959575543E+04  0.18959575543E+04  0.00000000000E+00 0. -1.
          1   -1    0    0  501    0 -0.00000000000E+00 -0.00000000000E+00 -0.50061947775E+03  0.50061947775E+03  0.00000000000E+00 0. -1.
         25    2    1    2    0    0 -0.45241860917E+02  0.15617509190E+03  0.12615272340E+04  0.12780900989E+04  0.12500341327E+03 0.  0.
          2    1    1    2  501    0  0.12869661734E+03 -0.14145195440E+03 -0.47070008810E+03  0.50806500337E+03  0.00000000000E+00 0. -1.
          1    1    1    2  502    0 -0.83454756419E+02 -0.14723137505E+02  0.60451093063E+03  0.61042192981E+03  0.00000000000E+00 0. -1.
         22    1    3    3    0    0 -0.44040823703E+01 -0.17259306821E+02  0.27682568145E+03  0.27739815703E+03  0.00000000000E+00 0.  1.
         22    1    3    3    0    0 -0.40837778547E+02  0.17343439872E+03  0.98470155259E+03  0.10006919419E+04  0.00000000000E+00 0.  1.
</event>
<event>
 7    1  0.6370239E-006  0.5062167E+02  0.7818608E-02  0.1465971E+00
          2   -1    0    0  502    0  0.00000000000E+00  0.00000000000E+00  0.20478289325E+04  0.20478289325E+04  0.00000000000E+00 0. -1.
          1   -1    0    0  501    0 -0.00000000000E+00 -0.00000000000E+00 -0.32436772080E+03  0.32436772080E+03  0.00000000000E+00 0. -1.
         25    2    1    2    0    0  0.28496768973E+02  0.38143392590E+02 -0.72389288940E+02  0.15207865439E+03  0.12498289374E+03 0.  0.
          2    1    1    2  501    0 -0.41034978307E+02  0.10961808581E+02 -0.20968435375E+03  0.21394288701E+03  0.00000000000E+00 0. -1.
          1    1    1    2  502    0  0.12538209334E+02 -0.49105201171E+02  0.20055348544E+04  0.20061751119E+04  0.00000000000E+00 0. -1.
         22    1    3    3    0    0  0.72637437417E+02  0.41412498141E+02 -0.67670614718E+02  0.10756627916E+03  0.00000000000E+00 0. -1.
         22    1    3    3    0    0 -0.44140668444E+02 -0.32691055514E+01 -0.47186742222E+01  0.44512375225E+02  0.00000000000E+00 0. -1.
</event>
<event>
 7    1  0.6370239E-006  0.1237765E+03  0.7818608E-02  0.1330227E+00
          2   -1    0    0  502    0  0.00000000000E+00  0.00000000000E+00  0.83453616401E+03  0.83453616401E+03  0.00000000000E+00 0. -1.
          1   -1    0    0  501    0 -0.00000000000E+00 -0.00000000000E+00 -0.66328780850E+02  0.66328780850E+02  0.00000000000E+00 0. -1.
         25    2    1    2    0    0  0.11921334435E+03 -0.87317785438E+02  0.19208287924E+03  0.27268660074E+03  0.12500373035E+03 0.  0.
          2    1    1    2  501    0 -0.68087836952E+02  0.89541019372E+02  0.10371243952E+03  0.15300267253E+03  0.00000000000E+00 0. -1.
          1    1    1    2  502    0 -0.51125507399E+02 -0.22232339339E+01  0.47241206441E+03  0.47517567159E+03  0.00000000000E+00 0. -1.
         22    1    3    3    0    0  0.86108797702E+00 -0.74500057372E+02  0.73329198249E+02  0.10453789426E+03  0.00000000000E+00 0.  1.
         22    1    3    3    0    0  0.11835225637E+03 -0.12817728066E+02  0.11875368099E+03  0.16814870648E+03  0.00000000000E+00 0.  1.
</event>
<event>
 7    1  0.6370239E-006  0.3513951E+03  0.7818608E-02  0.1269017E+00
          2   -1    0    0  502    0  0.00000000000E+00  0.00000000000E+00  0.26295367736E+04  0.26295367736E+04  0.00000000000E+00 0. -1.
          1   -1    0    0  501    0 -0.00000000000E+00 -0.00000000000E+00 -0.58458630077E+03  0.58458630077E+03  0.00000000000E+00 0. -1.
         25    2    1    2    0    0 -0.27664908854E+03  0.17790047963E+03  0.42565553092E+03  0.55225954321E+03  0.12499869288E+03 0.  0.
          2    1    1    2  501    0 -0.14542461470E+02  0.28180459477E+02 -0.50592139004E+03  0.50691426729E+03  0.00000000000E+00 0. -1.
          1    1    1    2  502    0  0.29119155001E+03 -0.20608093910E+03  0.21252163320E+04  0.21549492639E+04  0.00000000000E+00 0. -1.
         22    1    3    3    0    0 -0.23014055096E+03  0.11065463684E+03  0.38222261894E+03  0.45967733496E+03  0.00000000000E+00 0. -1.
         22    1    3    3    0    0 -0.46508537579E+02  0.67245842793E+02  0.43432911979E+02  0.92582208245E+02  0.00000000000E+00 0. -1.
</event>
<event>
 7    1  0.6370239E-006  0.8328343E+02  0.7818608E-02  0.1321119E+00
          2   -1    0    0  502    0  0.00000000000E+00  0.00000000000E+00  0.68111749019E+03  0.68111749019E+03  0.00000000000E+00 0. -1.
          1   -1    0    0  501    0 -0.00000000000E+00 -0.00000000000E+00 -0.94567305481E+03  0.94567305481E+03  0.00000000000E+00 0. -1.
         25    2    1    2    0    0  0.51363931963E+02  0.50613203383E+02  0.14059718047E+03  0.20147852463E+03  0.12500431539E+03 0.  0.
          2    1    1    2  501    0  0.25737804150E+02 -0.79806106988E+02 -0.90996073362E+03  0.91381616642E+03  0.00000000000E+00 0. -1.
          1    1    1    2  502    0 -0.77101736112E+02  0.29192903604E+02  0.50480798852E+03  0.51149585395E+03  0.00000000000E+00 0. -1.
         22    1    3    3    0    0  0.82737033368E+02  0.46529404986E+02  0.53831873210E+02  0.10912503284E+03  0.00000000000E+00 0. -1.
         22    1    3    3    0    0 -0.31373101405E+02  0.40837983977E+01  0.86765307262E+02  0.92353491788E+02  0.00000000000E+00 0. -1.
</event>
<event>
 7    1  0.6370239E-006  0.9073126E+02  0.7818608E-02  0.1411536E+00
          2   -1    0    0  502    0  0.00000000000E+00  0.00000000000E+00  0.20139121129E+03  0.20139121129E+03  0.00000000000E+00 0. -1.
          1   -1    0    0  501    0 -0.00000000000E+00 -0.00000000000E+00 -0.52882085392E+03  0.52882085392E+03  0.00000000000E+00 0. -1.
         25    2    1    2    0    0 -0.46364271947E+02  0.57335487218E+02 -0.17033109910E+02  0.14611966014E+03  0.12499529767E+03 0.  0.
          2    1    1    2  501    0  0.15047165524E+02  0.32290178058E+02 -0.42995239050E+03  0.43142569567E+03  0.00000000000E+00 0. -1.
          1    1    1    2  502    0  0.31317106423E+02 -0.89625665276E+02  0.11955585778E+03  0.15266670940E+03  0.00000000000E+00 0. -1.
         22    1    3    3    0    0 -0.45931812888E+02 -0.31527916550E+02 -0.12752638171E+02  0.57152171765E+02  0.00000000000E+00 0.  1.
         22    1    3    3    0    0 -0.43245905951E+00  0.88863403769E+02 -0.42804717385E+01  0.88967488379E+02  0.00000000000E+00 0.  1.
</event>
<event>
 7    1  0.6370239E-006  0.4917409E+02  0.7818608E-02  0.1555555E+00
          2   -1    0    0  502    0  0.00000000000E+00  0.00000000000E+00  0.47937127063E+03  0.47937127063E+03  0.00000000000E+00 0. -1.
          1   -1    0    0  501    0 -0.00000000000E+00 -0.00000000000E+00 -0.36839591438E+03  0.36839591438E+03  0.00000000000E+00 0. -1.
         25    2    1    2    0    0  0.17448531553E+01  0.69812006520E+02 -0.63245444414E+02  0.15652985192E+03  0.12499939015E+03 0.  0.
          2    1    1    2  501    0  0.71179770118E+01 -0.47695567789E+02 -0.25592671718E+03  0.26043044628E+03  0.00000000000E+00 0. -1.
          1    1    1    2  502    0 -0.88628301672E+01 -0.22116438732E+02  0.43014751784E+03  0.43080688681E+03  0.00000000000E+00 0. -1.
         22    1    3    3    0    0 -0.25958364855E+02 -0.18100280495E+01  0.27360486718E+02  0.37758563810E+02  0.00000000000E+00 0.  1.
         22    1    3    3    0    0  0.27703218011E+02  0.71622034570E+02 -0.90605931132E+02  0.11877128811E+03  0.00000000000E+00 0.  1.
</event>
<event>
 7    1  0.6370239E-006  0.1058649E+03  0.7818608E-02  0.1334733E+00
          2   -1    0    0  502    0  0.00000000000E+00  0.00000000000E+00  0.15522773052E+04  0.15522773052E+04  0.00000000000E+00 0. -1.
          1   -1    0    0  501    0 -0.00000000000E+00 -0.00000000000E+00 -0.21212559563E+03  0.21212559563E+03  0.00000000000E+00 0. -1.
         25    2    1    2    0    0  0.15136022486E+03  0.47126619564E+02  0.30138324079E+03  0.36274970191E+03  0.12499860985E+03 0.  0.
          2    1    1    2  501    0 -0.93953971642E+02 -0.43582576204E+02 -0.16592027732E+03  0.19559224974E+03  0.00000000000E+00 0. -1.
          1    1    1    2  502    0 -0.57406253220E+02 -0.35440433601E+01  0.12046887461E+04  0.12060609492E+04  0.00000000000E+00 0. -1.
         22    1    3    3    0    0  0.47799390791E+02  0.35039510066E+02  0.22716264850E+03  0.23476673081E+03  0.00000000000E+00 0.  1.
         22    1    3    3    0    0  0.10356083407E+03  0.12087109498E+02  0.74220592290E+02  0.12798297109E+03  0.00000000000E+00 0.  1.
</event>
<event>
 7    1  0.6370239E-006  0.2008677E+03  0.7818608E-02  0.1320971E+00
          2   -1    0    0  502    0  0.00000000000E+00  0.00000000000E+00  0.19930748356E+04  0.19930748356E+04  0.00000000000E+00 0. -1.
          1   -1    0    0  501    0 -0.00000000000E+00 -0.00000000000E+00 -0.11865992651E+03  0.11865992651E+03  0.00000000000E+00 0. -1.
         25    2    1    2    0    0 -0.12921869818E+03  0.18704119428E+03  0.89569603828E+03  0.93251196021E+03  0.12500113052E+03 0.  0.
          2    1    1    2  501    0  0.98545968842E+02 -0.17185185104E+03 -0.17966497117E+01  0.19811005687E+03  0.00000000000E+00 0. -1.
          1    1    1    2  502    0  0.30672729340E+02 -0.15189343239E+02  0.98051552054E+03  0.98111274504E+03  0.00000000000E+00 0. -1.
         22    1    3    3    0    0 -0.28189666373E+02 -0.62884176677E-01  0.27422747111E+03  0.27567257236E+03  0.00000000000E+00 0.  1.
         22    1    3    3    0    0 -0.10102903181E+03  0.18710407846E+03  0.62146856717E+03  0.65683938785E+03  0.00000000000E+00 0.  1.
</event>
<event>
 7    1  0.7071474E-006  0.1297948E+03  0.7818608E-02  0.1404178E+00
          2   -1    0    0  502    0  0.00000000000E+00  0.00000000000E+00  0.12899735012E+04  0.12899735012E+04  0.00000000000E+00 0. -1.
          1   -1    0    0  501    0 -0.00000000000E+00 -0.00000000000E+00 -0.11051060605E+04  0.11051060605E+04  0.00000000000E+00 0. -1.
         25    2    1    2    0    0 -0.15187669953E+03 -0.31239735118E+02 -0.58007428577E+03  0.61331338547E+03  0.12499871549E+03 0.  0.
          2    1    1    2  501    0  0.23728381363E+02  0.11524142752E+02 -0.50476645550E+03  0.50545525672E+03  0.00000000000E+00 0. -1.
          1    1    1    2  502    0  0.12814831816E+03  0.19715592367E+02  0.12697081819E+04  0.12763109195E+04  0.00000000000E+00 0. -1.
         22    1    3    3    0    0 -0.10846510453E+03  0.39711755910E+02 -0.35802219019E+03  0.37619355540E+03  0.00000000000E+00 0. -1.
         22    1    3    3    0    0 -0.43411595002E+02 -0.70951491029E+02 -0.22205209558E+03  0.23711983007E+03  0.00000000000E+00 0. -1.
</event>
<event>
 7    1  0.6370239E-006  0.1223128E+03  0.7818608E-02  0.1323903E+00
          2   -1    0    0  502    0  0.00000000000E+00  0.00000000000E+00  0.86780575779E+03  0.86780575779E+03  0.00000000000E+00 0. -1.
          1   -1    0    0  501    0 -0.00000000000E+00 -0.00000000000E+00 -0.47094853414E+03  0.47094853414E+03  0.00000000000E+00 0. -1.
         25    2    1    2    0    0  0.78047937490E+02  0.29725686135E+02 -0.17071859511E+02  0.15129987859E+03  0.12500043165E+03 0.  0.
          2    1    1    2  501    0 -0.10215551854E+03 -0.78896770487E+02 -0.37501783558E+03  0.39660916198E+03  0.00000000000E+00 0. -1.
          1    1    1    2  502    0  0.24107581052E+02  0.49171084352E+02  0.78894691874E+03  0.79084525135E+03  0.00000000000E+00 0. -1.
         22    1    3    3    0    0  0.11910890832E+02  0.32468408508E+02 -0.62212642416E+02  0.71179208677E+02  0.00000000000E+00 0.  1.
         22    1    3    3    0    0  0.66137046658E+02 -0.27427223734E+01  0.45140782905E+02  0.80120669917E+02  0.00000000000E+00 0.  1.
</event>
<event>
 7    1  0.6370239E-006  0.7450405E+02  0.7818608E-02  0.1451360E+00
          2   -1    0    0  502    0  0.00000000000E+00  0.00000000000E+00  0.11363982859E+04  0.11363982859E+04  0.00000000000E+00 0. -1.
          1   -1    0    0  501    0 -0.00000000000E+00 -0.00000000000E+00 -0.39467454247E+02  0.39467454247E+02  0.00000000000E+00 0. -1.
         25    2    1    2    0    0  0.76215771264E+02 -0.15367447617E+02  0.18832135302E+03  0.23902886479E+03  0.12499945584E+03 0.  0.
          2    1    1    2  501    0 -0.33735623250E+01  0.31918686013E+02  0.79253776373E+01  0.33060475651E+02  0.00000000000E+00 0. -1.
          1    1    1    2  502    0 -0.72842208939E+02 -0.16551238396E+02  0.90068410097E+03  0.90377639969E+03  0.00000000000E+00 0. -1.
         22    1    3    3    0    0  0.74491163180E+02  0.17879213022E+02  0.19084067227E+03  0.20564231531E+03  0.00000000000E+00 0. -1.
         22    1    3    3    0    0  0.17246080843E+01 -0.33246660640E+02 -0.25193192494E+01  0.33386549480E+02  0.00000000000E+00 0. -1.
</event>
<event>
 7    1  0.6370239E-006  0.8441721E+02  0.7818608E-02  0.1422509E+00
          2   -1    0    0  502    0  0.00000000000E+00  0.00000000000E+00  0.75479352932E+03  0.75479352932E+03  0.00000000000E+00 0. -1.
          1   -1    0    0  501    0 -0.00000000000E+00 -0.00000000000E+00 -0.30259259895E+03  0.30259259895E+03  0.00000000000E+00 0. -1.
         25    2    1    2    0    0 -0.34541670465E+01 -0.77452909835E+02  0.14900635978E+03  0.20938011338E+03  0.12500500835E+03 0.  0.
          2    1    1    2  501    0 -0.35167493076E+02  0.82528462559E+00 -0.26805200192E+03  0.27035034566E+03  0.00000000000E+00 0. -1.
          1    1    1    2  502    0  0.38621660122E+02  0.76627625209E+02  0.57124657252E+03  0.57765566923E+03  0.00000000000E+00 0. -1.
         22    1    3    3    0    0 -0.95123456188E+01 -0.48366740447E+02  0.16735296127E+03  0.17446157155E+03  0.00000000000E+00 0.  1.
         22    1    3    3    0    0  0.60581785722E+01 -0.29086169388E+02 -0.18346601492E+02  0.34918541831E+02  0.00000000000E+00 0.  1.
</event>
<event>
 7    1  0.6370239E-006  0.3101921E+03  0.7818608E-02  0.1116731E+00
          2   -1    0    0  502    0  0.00000000000E+00  0.00000000000E+00  0.85960621511E+03  0.85960621511E+03  0.00000000000E+00 0. -1.
          1   -1    0    0  501    0 -0.00000000000E+00 -0.00000000000E+00 -0.12323471517E+04  0.12323471517E+04  0.00000000000E+00 0. -1.
         25    2    1    2    0    0  0.15994085764E+03 -0.28105076822E+03 -0.40778889233E+02  0.34908283342E+03  0.12500117809E+03 0.  0.
          2    1    1    2  501    0 -0.18984729484E+03 -0.34536074281E+02 -0.99203280175E+03  0.10106254576E+04  0.00000000000E+00 0. -1.
          1    1    1    2  502    0  0.29906437194E+02  0.31558684250E+03  0.66007075442E+03  0.73224507577E+03  0.00000000000E+00 0. -1.
         22    1    3    3    0    0  0.50042067793E+02 -0.87963145619E+02 -0.72729684089E+02  0.12462475871E+03  0.00000000000E+00 0.  1.
         22    1    3    3    0    0  0.10989878985E+03 -0.19308762260E+03  0.31950794856E+02  0.22445807471E+03  0.00000000000E+00 0.  1.
</event>
<event>
 7    1  0.6370239E-006  0.9552667E+02  0.7818608E-02  0.1422049E+00
          2   -1    0    0  502    0  0.00000000000E+00  0.00000000000E+00  0.10050753460E+04  0.10050753460E+04  0.00000000000E+00 0. -1.
          1   -1    0    0  501    0 -0.00000000000E+00 -0.00000000000E+00 -0.10998060989E+03  0.10998060989E+03  0.00000000000E+00 0. -1.
         25    2    1    2    0    0 -0.64523185633E+02 -0.18690398428E+02  0.33258502036E+03  0.36159379029E+03  0.12499880369E+03 0.  0.
          2    1    1    2  501    0  0.91064013920E+02  0.35084428433E+02 -0.70054015605E+02  0.12012966683E+03  0.00000000000E+00 0. -1.
          1    1    1    2  502    0 -0.26540828287E+02 -0.16394030005E+02  0.63256373132E+03  0.63333249875E+03  0.00000000000E+00 0. -1.
         22    1    3    3    0    0  0.60317776017E+01  0.42465908681E+02  0.62315365218E+02  0.75650118859E+02  0.00000000000E+00 0.  1.
         22    1    3    3    0    0 -0.70554963235E+02 -0.61156307109E+02  0.27026965515E+03  0.28594367143E+03  0.00000000000E+00 0.  1.
</event>
<event>
 7    1  0.6370239E-006  0.9930167E+02  0.7818608E-02  0.1338603E+00
          2   -1    0    0  502    0  0.00000000000E+00  0.00000000000E+00  0.16907510643E+04  0.16907510643E+04  0.00000000000E+00 0. -1.
          1   -1    0    0  501    0 -0.00000000000E+00 -0.00000000000E+00 -0.92747841062E+02  0.92747841062E+02  0.00000000000E+00 0. -1.
         25    2    1    2    0    0 -0.57043872790E+02  0.25400392012E+02  0.80360624575E+02  0.16118845634E+03  0.12499882055E+03 0.  0.
          2    1    1    2  501    0  0.10496736079E+03 -0.60301333011E+02  0.19049365212E+02  0.12254499545E+03  0.00000000000E+00 0. -1.
          1    1    1    2  502    0 -0.47923488001E+02  0.34900940998E+02  0.14985932335E+04  0.14997654536E+04  0.00000000000E+00 0. -1.
         22    1    3    3    0    0 -0.73540528514E+02  0.62562375237E+02  0.42006204530E+02  0.10529378590E+03  0.00000000000E+00 0.  1.
         22    1    3    3    0    0  0.16496655725E+02 -0.37161983225E+02  0.38354420046E+02  0.55894670447E+02  0.00000000000E+00 0.  1.
</event>
<event>
 7    1  0.6370239E-006  0.3202393E+03  0.7818608E-02  0.1161787E+00
          2   -1    0    0  502    0  0.00000000000E+00  0.00000000000E+00  0.89278044018E+03  0.89278044018E+03  0.00000000000E+00 0. -1.
          1   -1    0    0  501    0 -0.00000000000E+00 -0.00000000000E+00 -0.53422172622E+03  0.53422172622E+03  0.00000000000E+00 0. -1.
         25    2    1    2    0    0  0.35855472420E+03 -0.66081712971E+01  0.16404048910E+03  0.41368970566E+03  0.12499892933E+03 0.  0.
          2    1    1    2  501    0 -0.58858002417E+02  0.91087524108E+02 -0.36074984567E+03  0.37669835764E+03  0.00000000000E+00 0. -1.
          1    1    1    2  502    0 -0.29969672179E+03 -0.84479352811E+02  0.55526807054E+03  0.63661410309E+03  0.00000000000E+00 0. -1.
         22    1    3    3    0    0  0.19687879125E+03 -0.63250793156E+02  0.70325566171E+02  0.21842070995E+03  0.00000000000E+00 0.  1.
         22    1    3    3    0    0  0.16167593296E+03  0.56642621858E+02  0.93714922925E+02  0.19526899571E+03  0.00000000000E+00 0.  1.
</event>
<event>
 7    1  0.6370239E-006  0.5610781E+02  0.7818608E-02  0.1522455E+00
          2   -1    0    0  502    0  0.00000000000E+00  0.00000000000E+00  0.33916272593E+03  0.33916272593E+03  0.00000000000E+00 0. -1.
          1   -1    0    0  501    0 -0.00000000000E+00 -0.00000000000E+00 -0.48849277735E+04  0.48849277735E+04  0.00000000000E+00 0. -1.
         25    2    1    2    0    0 -0.37206129570E+02 -0.13254537360E+02 -0.32150077976E+04  0.32176798849E+04  0.12501489543E+03 0.  0.
          2    1    1    2  501    0  0.55672892924E+02  0.31429266729E+02 -0.16674736514E+04  0.16686987888E+04  0.00000000000E+00 0. -1.
          1    1    1    2  502    0 -0.18466763354E+02 -0.18174729369E+02  0.33671640150E+03  0.33771182564E+03  0.00000000000E+00 0. -1.
         22    1    3    3    0    0 -0.12436402156E+02  0.49219894390E+02 -0.72982100537E+03  0.73158455559E+03  0.00000000000E+00 0.  1.
         22    1    3    3    0    0 -0.24769727414E+02 -0.62474431750E+02 -0.24851867923E+04  0.24860953293E+04  0.00000000000E+00 0.  1.
</event>
<event>
 7    1  0.6370239E-006  0.6889898E+02  0.7818608E-02  0.1376146E+00
          2   -1    0    0  502    0  0.00000000000E+00  0.00000000000E+00  0.11949642443E+04  0.11949642443E+04  0.00000000000E+00 0. -1.
          1   -1    0    0  501    0 -0.00000000000E+00 -0.00000000000E+00 -0.11118036536E+03  0.11118036536E+03  0.00000000000E+00 0. -1.
         25    2    1    2    0    0  0.69283036161E+02 -0.10958019595E+03  0.47998634170E+03  0.51265982841E+03  0.12500101201E+03 0.  0.
          2    1    1    2  501    0 -0.35302853215E+02  0.57427828233E+02 -0.81273459732E+02  0.10559177126E+03  0.00000000000E+00 0. -1.
          1    1    1    2  502    0 -0.33980182946E+02  0.52152367721E+02  0.68507099698E+03  0.68789300999E+03  0.00000000000E+00 0. -1.
         22    1    3    3    0    0 -0.25775204510E+02  0.23417085167E+01  0.31628264793E+02  0.40867981356E+02  0.00000000000E+00 0.  1.
         22    1    3    3    0    0  0.95058240671E+02 -0.11192190447E+03  0.44835807690E+03  0.47179184705E+03  0.00000000000E+00 0.  1.
</event>
<event>
 7    1  0.1586794E-005  0.1197460E+03  0.7818608E-02  0.1357926E+00
          2   -1    0    0  502    0  0.00000000000E+00  0.00000000000E+00  0.14293133463E+04  0.14293133463E+04  0.00000000000E+00 0. -1.
          1   -1    0    0  501    0 -0.00000000000E+00 -0.00000000000E+00 -0.21171513358E+04  0.21171513358E+04  0.00000000000E+00 0. -1.
         25    2    1    2    0    0  0.13712606277E+03 -0.13161947175E+02 -0.63936274277E+03  0.66587059215E+03  0.12498853826E+03 0.  0.
          2    1    1    2  501    0 -0.26380234998E+02 -0.32260354556E+02 -0.14617076506E+04  0.14623015773E+04  0.00000000000E+00 0. -1.
          1    1    1    2  502    0 -0.11074582777E+03  0.45422301730E+02  0.14132324039E+04  0.14182925126E+04  0.00000000000E+00 0. -1.
         22    1    3    3    0    0  0.94580986230E+02 -0.61155531051E+02 -0.49893728426E+03  0.51149191153E+03  0.00000000000E+00 0. -1.
         22    1    3    3    0    0  0.42545076543E+02  0.47993583877E+02 -0.14042545851E+03  0.15437868062E+03  0.00000000000E+00 0. -1.
</event>
<event>
 7    1  0.6370239E-006  0.5670010E+02  0.7818608E-02  0.1464304E+00
          2   -1    0    0  502    0  0.00000000000E+00  0.00000000000E+00  0.33814235355E+03  0.33814235355E+03  0.00000000000E+00 0. -1.
          1   -1    0    0  501    0 -0.00000000000E+00 -0.00000000000E+00 -0.20586876075E+03  0.20586876075E+03  0.00000000000E+00 0. -1.
         25    2    1    2    0    0 -0.43088257684E+02 -0.66585603989E+02  0.15908560230E+03  0.21731243676E+03  0.12500490272E+03 0.  0.
          2    1    1    2  501    0  0.36067960363E+02  0.13116927872E+02 -0.16969327744E+03  0.17397919407E+03  0.00000000000E+00 0. -1.
          1    1    1    2  502    0  0.70202973205E+01  0.53468676117E+02  0.14288126794E+03  0.15271948346E+03  0.00000000000E+00 0. -1.
         22    1    3    3    0    0 -0.86746102724E+02 -0.54161758973E+02  0.10279497529E+03  0.14500065316E+03  0.00000000000E+00 0. -1.
         22    1    3    3    0    0  0.43657845040E+02 -0.12423845016E+02  0.56290627012E+02  0.72311783603E+02  0.00000000000E+00 0. -1.
</event>
<event>
 7    1  0.6370239E-006  0.6670878E+02  0.7818608E-02  0.1490963E+00
          2   -1    0    0  502    0  0.00000000000E+00  0.00000000000E+00  0.12357029099E+03  0.12357029099E+03  0.00000000000E+00 0. -1.
          1   -1    0    0  501    0 -0.00000000000E+00 -0.00000000000E+00 -0.31909006085E+03  0.31909006085E+03  0.00000000000E+00 0. -1.
         25    2    1    2    0    0  0.35557060209E+02 -0.77535097727E+02 -0.22879202268E+03  0.27431208235E+03  0.12500133189E+03 0.  0.
          2    1    1    2  501    0  0.60627785838E+01  0.26315369005E+02 -0.53144618848E+02  0.59612133350E+02  0.00000000000E+00 0. -1.
          1    1    1    2  502    0 -0.41619838793E+02  0.51219728722E+02  0.86416871670E+02  0.10873613613E+03  0.00000000000E+00 0. -1.
         22    1    3    3    0    0 -0.41722939772E+02 -0.16118359584E+02 -0.34880059953E+02  0.56720576524E+02  0.00000000000E+00 0. -1.
         22    1    3    3    0    0  0.77279999981E+02 -0.61416738143E+02 -0.19391196273E+03  0.21759150583E+03  0.00000000000E+00 0. -1.
</event>
<event>
 7    1  0.6370239E-006  0.1186399E+03  0.7818608E-02  0.1356929E+00
          2   -1    0    0  502    0  0.00000000000E+00  0.00000000000E+00  0.93577367067E+03  0.93577367067E+03  0.00000000000E+00 0. -1.
          1   -1    0    0  501    0 -0.00000000000E+00 -0.00000000000E+00 -0.14573966616E+03  0.14573966616E+03  0.00000000000E+00 0. -1.
         25    2    1    2    0    0  0.88953028768E+02  0.11207520969E+03  0.32218965412E+03  0.37403629209E+03  0.12499392235E+03 0.  0.
          2    1    1    2  501    0 -0.93774497023E+02 -0.69933349357E+02 -0.90265786992E+02  0.14775737527E+03  0.00000000000E+00 0. -1.
          1    1    1    2  502    0  0.48214682555E+01 -0.42141860329E+02  0.55811013739E+03  0.55971966948E+03  0.00000000000E+00 0. -1.
         22    1    3    3    0    0  0.55237765889E+02  0.39490391989E+01  0.19957609900E+03  0.20711693553E+03  0.00000000000E+00 0.  1.
         22    1    3    3    0    0  0.33715262879E+02  0.10812617049E+03  0.12261355512E+03  0.16691935656E+03  0.00000000000E+00 0.  1.
</event>
<event>
 7    1  0.6370239E-006  0.9579681E+02  0.7818608E-02  0.1343915E+00
          2   -1    0    0  502    0  0.00000000000E+00  0.00000000000E+00  0.73379997905E+03  0.73379997905E+03  0.00000000000E+00 0. -1.
          1   -1    0    0  501    0 -0.00000000000E+00 -0.00000000000E+00 -0.22651325552E+03  0.22651325552E+03  0.00000000000E+00 0. -1.
         25    2    1    2    0    0  0.47087084932E+01 -0.10003125326E+03 -0.56171197379E+02  0.16973147988E+03  0.12500059312E+03 0.  0.
          2    1    1    2  501    0  0.51857549669E+02  0.84364734096E+02 -0.90405787831E+02  0.13408885222E+03  0.00000000000E+00 0. -1.
          1    1    1    2  502    0 -0.56566258162E+02  0.15666519165E+02  0.65386370874E+03  0.65649290247E+03  0.00000000000E+00 0. -1.
         22    1    3    3    0    0  0.22129411377E+02 -0.10073361294E+02 -0.72669169624E+02  0.76628921886E+02  0.00000000000E+00 0. -1.
         22    1    3    3    0    0 -0.17420702884E+02 -0.89957891967E+02  0.16497972244E+02  0.93102557990E+02  0.00000000000E+00 0. -1.
</event>
<event>
 7    1  0.6370239E-006  0.1417599E+03  0.7818608E-02  0.1243142E+00
          2   -1    0    0  502    0  0.00000000000E+00  0.00000000000E+00  0.98780648436E+03  0.98780648436E+03  0.00000000000E+00 0. -1.
          1   -1    0    0  501    0 -0.00000000000E+00 -0.00000000000E+00 -0.64446521345E+03  0.64446521345E+03  0.00000000000E+00 0. -1.
         25    2    1    2    0    0 -0.53200616390E+02 -0.72729824454E+02  0.13270766066E+03  0.20336713554E+03  0.12500774245E+03 0.  0.
          2    1    1    2  501    0  0.57714646578E+02 -0.83535700288E+02 -0.59735945721E+03  0.60592698799E+03  0.00000000000E+00 0. -1.
          1    1    1    2  502    0 -0.45140301878E+01  0.15626552474E+03  0.80799306746E+03  0.82297757428E+03  0.00000000000E+00 0. -1.
         22    1    3    3    0    0 -0.48561440114E+02 -0.10707705859E+03  0.88323016709E+02  0.14705327342E+03  0.00000000000E+00 0. -1.
         22    1    3    3    0    0 -0.46391762759E+01  0.34347234135E+02  0.44384643948E+02  0.56313862127E+02  0.00000000000E+00 0. -1.
</event>
<event>
 7    1  0.6370239E-006  0.9358022E+02  0.7818608E-02  0.1363035E+00
          2   -1    0    0  502    0  0.00000000000E+00  0.00000000000E+00  0.33557648181E+03  0.33557648181E+03  0.00000000000E+00 0. -1.
          1   -1    0    0  501    0 -0.00000000000E+00 -0.00000000000E+00 -0.47538108170E+03  0.47538108170E+03  0.00000000000E+00 0. -1.
         25    2    1    2    0    0 -0.87996101858E+02 -0.58708106155E+02  0.88665324048E+01  0.16399338372E+03  0.12500103535E+03 0.  0.
          2    1    1    2  501    0  0.43095627873E+02  0.83074031779E+02 -0.38959797991E+03  0.40068081292E+03  0.00000000000E+00 0. -1.
          1    1    1    2  502    0  0.44900473985E+02 -0.24365925625E+02  0.24092684761E+03  0.24628336687E+03  0.00000000000E+00 0. -1.
         22    1    3    3    0    0  0.29654224667E+02 -0.16161747386E+01  0.14607528618E+02  0.33096298187E+02  0.00000000000E+00 0. -1.
         22    1    3    3    0    0 -0.11765032653E+03 -0.57091931416E+02 -0.57409962129E+01  0.13089708554E+03  0.00000000000E+00 0. -1.
</event>
<event>
 7    1  0.6370239E-006  0.3186095E+03  0.7818608E-02  0.1185616E+00
          2   -1    0    0  502    0  0.00000000000E+00  0.00000000000E+00  0.40810780703E+04  0.40810780703E+04  0.00000000000E+00 0. -1.
          1   -1    0    0  501    0 -0.00000000000E+00 -0.00000000000E+00 -0.50455026460E+03  0.50455026460E+03  0.00000000000E+00 0. -1.
         25    2    1    2    0    0  0.18223806750E+03 -0.23745866548E+03 -0.29418611559E+03  0.43791004512E+03  0.12498962336E+03 0.  0.
          2    1    1    2  501    0 -0.60162679052E+02 -0.57389218351E+02 -0.11905123742E+03  0.14521111343E+03  0.00000000000E+00 0. -1.
          1    1    1    2  502    0 -0.12207538845E+03  0.29484788384E+03  0.39897651588E+04  0.40025071764E+04  0.00000000000E+00 0. -1.
         22    1    3    3    0    0  0.13627673142E+03 -0.11969853432E+03 -0.23885851333E+03  0.29992078293E+03  0.00000000000E+00 0.  1.
         22    1    3    3    0    0  0.45961336079E+02 -0.11776013116E+03 -0.55327602259E+02  0.13798926218E+03  0.00000000000E+00 0.  1.
</event>
<event>
 7    1  0.6370239E-006  0.1218559E+03  0.7818608E-02  0.1316746E+00
          2   -1    0    0  502    0  0.00000000000E+00  0.00000000000E+00  0.33344425628E+04  0.33344425628E+04  0.00000000000E+00 0. -1.
          1   -1    0    0  501    0 -0.00000000000E+00 -0.00000000000E+00 -0.37719647350E+03  0.37719647350E+03  0.00000000000E+00 0. -1.
         25    2    1    2    0    0 -0.70618035368E+02  0.27227248837E+02  0.14057460217E+03  0.20276678426E+03  0.12499968011E+03 0.  0.
          2    1    1    2  501    0 -0.53182722530E+02 -0.24596798929E+02 -0.34239860745E+03  0.34737618064E+03  0.00000000000E+00 0. -1.
          1    1    1    2  502    0  0.12380075790E+03 -0.26304499080E+01  0.31590700946E+04  0.31614960714E+04  0.00000000000E+00 0. -1.
         22    1    3    3    0    0 -0.85723620569E+01 -0.14114624908E+02 -0.19875122160E+02  0.25840443270E+02  0.00000000000E+00 0. -1.
         22    1    3    3    0    0 -0.62045673311E+02  0.41341873745E+02  0.16044972433E+03  0.17692634099E+03  0.00000000000E+00 0. -1.
</event>
<event>
 7    1  0.6370239E-006  0.8173776E+02  0.7818608E-02  0.1458243E+00
          2   -1    0    0  502    0  0.00000000000E+00  0.00000000000E+00  0.20135705158E+04  0.20135705158E+04  0.00000000000E+00 0. -1.
          1   -1    0    0  501    0 -0.00000000000E+00 -0.00000000000E+00 -0.14438774783E+02  0.14438774783E+02  0.00000000000E+00 0. -1.
         25    2    1    2    0    0 -0.36804697531E+02  0.63093302971E+02  0.66247297891E+03  0.67810892501E+03  0.12500366294E+03 0.  0.
          2    1    1    2  501    0  0.20248197071E+02  0.19076589092E+02  0.31391201600E+02  0.41944168533E+02  0.00000000000E+00 0. -1.
          1    1    1    2  502    0  0.16556500460E+02 -0.82169892063E+02  0.13052675605E+04  0.13079561970E+04  0.00000000000E+00 0. -1.
         22    1    3    3    0    0 -0.50968349997E+01  0.55500110698E+02  0.62870087918E+03  0.63116640872E+03  0.00000000000E+00 0.  1.
         22    1    3    3    0    0 -0.31707862531E+02  0.75931922730E+01  0.33772099729E+02  0.46942516286E+02  0.00000000000E+00 0.  1.
</event>
<event>
 7    1  0.6370239E-006  0.1970211E+03  0.7818608E-02  0.1272123E+00
          2   -1    0    0  502    0  0.00000000000E+00  0.00000000000E+00  0.28814040687E+03  0.28814040687E+03  0.00000000000E+00 0. -1.
          1   -1    0    0  501    0 -0.00000000000E+00 -0.00000000000E+00 -0.16054913328E+04  0.16054913328E+04  0.00000000000E+00 0. -1.
         25    2    1    2    0    0 -0.15460019244E+03 -0.84078513725E+02 -0.87191962954E+03  0.89824239112E+03  0.12500054744E+03 0.  0.
          2    1    1    2  501    0  0.20946939540E+03  0.85477045187E+02 -0.69964691728E+03  0.73531596047E+03  0.00000000000E+00 0. -1.
          1    1    1    2  502    0 -0.54869202963E+02 -0.13985314627E+01  0.25421562085E+03  0.26007338812E+03  0.00000000000E+00 0. -1.
         22    1    3    3    0    0 -0.70743226743E+02 -0.69879072768E+01 -0.58867368993E+03  0.59295037582E+03  0.00000000000E+00 0. -1.
         22    1    3    3    0    0 -0.83856965693E+02 -0.77090606448E+02 -0.28324593961E+03  0.30529201530E+03  0.00000000000E+00 0. -1.
</event>
<event>
 7    1  0.6370239E-006  0.3374027E+03  0.7818608E-02  0.1162367E+00
          2   -1    0    0  502    0  0.00000000000E+00  0.00000000000E+00  0.92532364532E+03  0.92532364532E+03  0.00000000000E+00 0. -1.
          1   -1    0    0  501    0 -0.00000000000E+00 -0.00000000000E+00 -0.29408623557E+03  0.29408623557E+03  0.00000000000E+00 0. -1.
         25    2    1    2    0    0  0.39915825987E+03  0.68037623036E+02  0.27641856837E+03  0.50595310931E+03  0.12499955725E+03 0.  0.
          2    1    1    2  501    0 -0.89182004087E+02 -0.49999408135E+02 -0.11273520057E+03  0.15219262832E+03  0.00000000000E+00 0. -1.
          1    1    1    2  502    0 -0.30997625578E+03 -0.18038214901E+02  0.46755404196E+03  0.56126414325E+03  0.00000000000E+00 0. -1.
         22    1    3    3    0    0  0.62145303582E+02  0.48861800727E+02  0.92013594471E+02  0.12130958699E+03  0.00000000000E+00 0. -1.
         22    1    3    3    0    0  0.33701295629E+03  0.19175822309E+02  0.18440497390E+03  0.38464352233E+03  0.00000000000E+00 0. -1.
</event>
<event>
 7    1  0.6370239E-006  0.8842744E+02  0.7818608E-02  0.1404408E+00
          2   -1    0    0  502    0  0.00000000000E+00  0.00000000000E+00  0.17744099567E+04  0.17744099567E+04  0.00000000000E+00 0. -1.
          1   -1    0    0  501    0 -0.00000000000E+00 -0.00000000000E+00 -0.17993919343E+03  0.17993919343E+03  0.00000000000E+00 0. -1.
         25    2    1    2    0    0 -0.29378567625E+02  0.48726911278E+02  0.96942949639E+02  0.16810695174E+03  0.12499839847E+03 0.  0.
          2    1    1    2  501    0  0.69653203931E+01  0.38016238796E+02 -0.14052404196E+03  0.14574208887E+03  0.00000000000E+00 0. -1.
          1    1    1    2  502    0  0.22413247232E+02 -0.86743150074E+02  0.16380518556E+04  0.16405001095E+04  0.00000000000E+00 0. -1.
         22    1    3    3    0    0 -0.29956932773E+02 -0.38546125392E+02  0.45865880512E+02  0.66984330996E+02  0.00000000000E+00 0. -1.
         22    1    3    3    0    0  0.57836514829E+00  0.87273036670E+02  0.51077069128E+02  0.10112262075E+03  0.00000000000E+00 0. -1.
</event>
<event>
 7    1  0.6370239E-006  0.3320814E+02  0.7818608E-02  0.1583585E+00
          2   -1    0    0  502    0  0.00000000000E+00  0.00000000000E+00  0.36698136150E+02  0.36698136150E+02  0.00000000000E+00 0. -1.
          1   -1    0    0  501    0 -0.00000000000E+00 -0.00000000000E+00 -0.41406597106E+03  0.41406597106E+03  0.00000000000E+00 0. -1.
         25    2    1    2    0    0  0.24825662384E+02  0.36295920821E+02 -0.14135242327E+03  0.19375263072E+03  0.12500346781E+03 0.  0.
          2    1    1    2  501    0 -0.32317899499E+02 -0.76559826942E+01 -0.22161722440E+03  0.22409206779E+03  0.00000000000E+00 0. -1.
          1    1    1    2  502    0  0.74922371144E+01 -0.28639938127E+02 -0.14398187239E+02  0.32919408692E+02  0.00000000000E+00 0. -1.
         22    1    3    3    0    0  0.43731152346E+02  0.60003910742E+02 -0.14530207472E+03  0.16317345344E+03  0.00000000000E+00 0. -1.
         22    1    3    3    0    0 -0.18905489962E+02 -0.23707989921E+02  0.39496514450E+01  0.30579177284E+02  0.00000000000E+00 0. -1.
</event>
<event>
 7    1  0.6370239E-006  0.2032499E+03  0.7818608E-02  0.1293941E+00
          2   -1    0    0  502    0  0.00000000000E+00  0.00000000000E+00  0.10261239000E+04  0.10261239000E+04  0.00000000000E+00 0. -1.
          1   -1    0    0  501    0 -0.00000000000E+00 -0.00000000000E+00 -0.14665415189E+04  0.14665415189E+04  0.00000000000E+00 0. -1.
         25    2    1    2    0    0 -0.20380088619E+03  0.11657165669E+03 -0.21081933473E+03  0.33940349034E+03  0.12500473993E+03 0.  0.
          2    1    1    2  501    0  0.16813875620E+02 -0.39872956375E+02 -0.11804123342E+04  0.11812052479E+04  0.00000000000E+00 0. -1.
          1    1    1    2  502    0  0.18698701057E+03 -0.76698700316E+02  0.95081404994E+03  0.97205668061E+03  0.00000000000E+00 0. -1.
         22    1    3    3    0    0 -0.16238239390E+03  0.12880625621E+03 -0.21161374326E+03  0.29620849047E+03  0.00000000000E+00 0.  1.
         22    1    3    3    0    0 -0.41418492286E+02 -0.12234599520E+02  0.79440853719E+00  0.43194999868E+02  0.00000000000E+00 0.  1.
</event>
<event>
 7    1  0.6370239E-006  0.2230464E+03  0.7818608E-02  0.1219306E+00
          2   -1    0    0  502    0  0.00000000000E+00  0.00000000000E+00  0.92940684010E+03  0.92940684010E+03  0.00000000000E+00 0. -1.
          1   -1    0    0  501    0 -0.00000000000E+00 -0.00000000000E+00 -0.47763455912E+03  0.47763455912E+03  0.00000000000E+00 0. -1.
         25    2    1    2    0    0  0.15610682086E+03 -0.57792681201E+02  0.98273671505E+02  0.23020032836E+03  0.12500057257E+03 0.  0.
          2    1    1    2  501    0 -0.23363108650E+03  0.29582762670E+02 -0.37547423878E+03  0.44321499119E+03  0.00000000000E+00 0. -1.
          1    1    1    2  502    0  0.77524265640E+02  0.28209918532E+02  0.72897284826E+03  0.73362607967E+03  0.00000000000E+00 0. -1.
         22    1    3    3    0    0  0.17223841484E+03 -0.61706903389E+02  0.10647467608E+03  0.21168530917E+03  0.00000000000E+00 0.  1.
         22    1    3    3    0    0 -0.16131593976E+02  0.39142221873E+01 -0.82010045719E+01  0.18515019188E+02  0.00000000000E+00 0.  1.
</event>
<event>
 7    1  0.6370239E-006  0.1371486E+03  0.7818608E-02  0.1412069E+00
          2   -1    0    0  502    0  0.00000000000E+00  0.00000000000E+00  0.79056650744E+02  0.79056650744E+02  0.00000000000E+00 0. -1.
          1   -1    0    0  501    0 -0.00000000000E+00 -0.00000000000E+00 -0.69252403357E+03  0.69252403357E+03  0.00000000000E+00 0. -1.
         25    2    1    2    0    0 -0.76854397695E+02 -0.97492736699E+02 -0.44283983781E+03  0.47659680846E+03  0.12500385488E+03 0.  0.
          2    1    1    2  501    0  0.59308683250E+01 -0.22707904944E+02 -0.15244333035E+03  0.15423940195E+03  0.00000000000E+00 0. -1.
          1    1    1    2  502    0  0.70923529370E+02  0.12020064164E+03 -0.18184214668E+02  0.14074447390E+03  0.00000000000E+00 0. -1.
         22    1    3    3    0    0  0.14554342966E+02  0.20369900417E+02 -0.92491280308E+02  0.95819615295E+02  0.00000000000E+00 0.  1.
         22    1    3    3    0    0 -0.91408740661E+02 -0.11786263712E+03 -0.35034855750E+03  0.38077719317E+03  0.00000000000E+00 0.  1.
</event>
<event>
 7    1  0.6370239E-006  0.8686737E+02  0.7818608E-02  0.1438809E+00
          2   -1    0    0  502    0  0.00000000000E+00  0.00000000000E+00  0.21909896356E+04  0.21909896356E+04  0.00000000000E+00 0. -1.
          1   -1    0    0  501    0 -0.00000000000E+00 -0.00000000000E+00 -0.55520361586E+03  0.55520361586E+03  0.00000000000E+00 0. -1.
         25    2    1    2    0    0 -0.86804951460E+02 -0.72903011083E+02  0.10279965725E+02  0.16905845107E+03  0.12500053424E+03 0.  0.
          2    1    1    2  501    0  0.72031066441E+02  0.46546280265E+02 -0.47184023008E+03  0.47957088471E+03  0.00000000000E+00 0. -1.
          1    1    1    2  502    0  0.14773885019E+02  0.26356730817E+02  0.20973462841E+04  0.20975639157E+04  0.00000000000E+00 0. -1.
         22    1    3    3    0    0 -0.11929969550E+03 -0.59331835931E+02  0.12163621132E+02  0.13379326508E+03  0.00000000000E+00 0. -1.
         22    1    3    3    0    0  0.32494744040E+02 -0.13571175151E+02 -0.18836554063E+01  0.35265185990E+02  0.00000000000E+00 0. -1.
</event>
<event>
 7    1  0.6370239E-006  0.1602833E+03  0.7818608E-02  0.1282646E+00
          2   -1    0    0  502    0  0.00000000000E+00  0.00000000000E+00  0.44314533606E+03  0.44314533606E+03  0.00000000000E+00 0. -1.
          1   -1    0    0  501    0 -0.00000000000E+00 -0.00000000000E+00 -0.24144864690E+04  0.24144864690E+04  0.00000000000E+00 0. -1.
         25    2    1    2    0    0  0.54486352029E+02 -0.98945659129E+02 -0.19316755735E+03  0.25631515430E+03  0.12499898837E+03 0.  0.
          2    1    1    2  501    0 -0.11069336338E+03  0.12268079129E+03 -0.21843461781E+04  0.21905870955E+04  0.00000000000E+00 0. -1.
          1    1    1    2  502    0  0.56207011356E+02 -0.23735132157E+02  0.40617260244E+03  0.41072955530E+03  0.00000000000E+00 0. -1.
         22    1    3    3    0    0 -0.40807905489E+02 -0.29099092675E+02 -0.63398627169E+02  0.80817252315E+02  0.00000000000E+00 0.  1.
         22    1    3    3    0    0  0.95294257517E+02 -0.69846566454E+02 -0.12976893018E+03  0.17549790199E+03  0.00000000000E+00 0.  1.
</event>
<event>
 7    1  0.6370239E-006  0.3763548E+02  0.7818608E-02  0.1536032E+00
          2   -1    0    0  502    0  0.00000000000E+00  0.00000000000E+00  0.45503062111E+03  0.45503062111E+03  0.00000000000E+00 0. -1.
          1   -1    0    0  501    0 -0.00000000000E+00 -0.00000000000E+00 -0.15896399074E+03  0.15896399074E+03  0.00000000000E+00 0. -1.
         25    2    1    2    0    0 -0.71345845125E+02 -0.99355147745E+01 -0.47849134419E+02  0.15199915636E+03  0.12500103919E+03 0.  0.
          2    1    1    2  501    0  0.34009523294E+02  0.95130088649E+01 -0.52802672166E+02  0.63523753039E+02  0.00000000000E+00 0. -1.
          1    1    1    2  502    0  0.37336321831E+02  0.42250590959E+00  0.39671843695E+03  0.39847170246E+03  0.00000000000E+00 0. -1.
         22    1    3    3    0    0 -0.55117017654E+02 -0.34178571964E+01  0.36278189448E+02  0.66073250355E+02  0.00000000000E+00 0. -1.
         22    1    3    3    0    0 -0.16228827471E+02 -0.65176575781E+01 -0.84127323868E+02  0.85925906004E+02  0.00000000000E+00 0. -1.
</event>
<event>
 7    1  0.6370239E-006  0.7849750E+02  0.7818608E-02  0.1421845E+00
          2   -1    0    0  502    0  0.00000000000E+00  0.00000000000E+00  0.15245051064E+04  0.15245051064E+04  0.00000000000E+00 0. -1.
          1   -1    0    0  501    0 -0.00000000000E+00 -0.00000000000E+00 -0.22437110827E+02  0.22437110827E+02  0.00000000000E+00 0. -1.
         25    2    1    2    0    0  0.66778473835E+02 -0.62833062368E+02  0.58800313133E+03  0.60809561115E+03  0.12500092618E+03 0.  0.
          2    1    1    2  501    0 -0.29677182704E+02  0.71153960717E+02  0.11250529939E+03  0.13638571659E+03  0.00000000000E+00 0. -1.
          1    1    1    2  502    0 -0.37101291130E+02 -0.83208983490E+01  0.80155956489E+03  0.80246088953E+03  0.00000000000E+00 0. -1.
         22    1    3    3    0    0  0.70153694555E+01 -0.10529820305E+02  0.43956742335E+03  0.43974948800E+03  0.00000000000E+00 0. -1.
         22    1    3    3    0    0  0.59763104379E+02 -0.52303242063E+02  0.14843570798E+03  0.16834612315E+03  0.00000000000E+00 0. -1.
</event>
<event>
 7    1  0.6370239E-006  0.8226348E+02  0.7818608E-02  0.1367855E+00
          2   -1    0    0  502    0  0.00000000000E+00  0.00000000000E+00  0.71384961891E+02  0.71384961891E+02  0.00000000000E+00 0. -1.
          1   -1    0    0  501    0 -0.00000000000E+00 -0.00000000000E+00 -0.14100732154E+04  0.14100732154E+04  0.00000000000E+00 0. -1.
         25    2    1    2    0    0 -0.12941551321E+03 -0.29860586459E+02 -0.38164377025E+03  0.42298731724E+03  0.12500509388E+03 0.  0.
          2    1    1    2  501    0  0.55752389988E+02  0.28490898502E+01 -0.97612877818E+03  0.97772380451E+03  0.00000000000E+00 0. -1.
          1    1    1    2  502    0  0.73663123222E+02  0.27011496609E+02  0.19084294894E+02  0.80747055571E+02  0.00000000000E+00 0. -1.
         22    1    3    3    0    0 -0.31399565612E+02 -0.45939629771E+02 -0.43712727035E+02  0.70761464153E+02  0.00000000000E+00 0.  1.
         22    1    3    3    0    0 -0.98015947598E+02  0.16079043312E+02 -0.33793104321E+03  0.35222585309E+03  0.00000000000E+00 0.  1.
</event>
<event>
 7    1  0.6370239E-006  0.9009114E+02  0.7818608E-02  0.1336596E+00
          2   -1    0    0  502    0  0.00000000000E+00  0.00000000000E+00  0.94204016262E+02  0.94204016262E+02  0.00000000000E+00 0. -1.
          1   -1    0    0  501    0 -0.00000000000E+00 -0.00000000000E+00 -0.55733049062E+03  0.55733049062E+03  0.00000000000E+00 0. -1.
         25    2    1    2    0    0 -0.32729105805E+02 -0.24866381670E+02 -0.11028823003E+03  0.17169518493E+03  0.12500484607E+03 0.  0.
          2    1    1    2  501    0 -0.39605936656E+02 -0.53415395858E+02 -0.36640861538E+03  0.37239375419E+03  0.00000000000E+00 0. -1.
          1    1    1    2  502    0  0.72335042461E+02  0.78281777528E+02  0.13570371057E+02  0.10744556776E+03  0.00000000000E+00 0. -1.
         22    1    3    3    0    0 -0.55064075004E+02 -0.61461714511E+02 -0.95799900402E+02  0.12644056162E+03  0.00000000000E+00 0.  1.
         22    1    3    3    0    0  0.22334969199E+02  0.36595332841E+02 -0.14488329626E+02  0.45254623302E+02  0.00000000000E+00 0.  1.
</event>
<event>
 7    1  0.6370239E-006  0.1369159E+03  0.7818608E-02  0.1331805E+00
          2   -1    0    0  502    0  0.00000000000E+00  0.00000000000E+00  0.14740438547E+03  0.14740438547E+03  0.00000000000E+00 0. -1.
          1   -1    0    0  501    0 -0.00000000000E+00 -0.00000000000E+00 -0.13955029046E+04  0.13955029046E+04  0.00000000000E+00 0. -1.
         25    2    1    2    0    0 -0.14871622766E+03 -0.23136185674E+02 -0.82472181348E+03  0.84761051671E+03  0.12500287578E+03 0.  0.
          2    1    1    2  501    0  0.12902277988E+03 -0.18020882672E+02 -0.54763994684E+03  0.56292196734E+03  0.00000000000E+00 0. -1.
          1    1    1    2  502    0  0.19693447777E+02  0.41157068345E+02  0.12426324118E+03  0.13237480602E+03  0.00000000000E+00 0. -1.
         22    1    3    3    0    0  0.17595058310E+02  0.14634738770E+02 -0.14637117480E+03  0.14814952740E+03  0.00000000000E+00 0.  1.
         22    1    3    3    0    0 -0.16631128597E+03 -0.37770924443E+02 -0.67835063868E+03  0.69946098931E+03  0.00000000000E+00 0.  1.
</event>
<event>
 7    1  0.6370239E-006  0.1066221E+03  0.7818608E-02  0.1330106E+00
          2   -1    0    0  502    0  0.00000000000E+00  0.00000000000E+00  0.56751537890E+03  0.56751537890E+03  0.00000000000E+00 0. -1.
          1   -1    0    0  501    0 -0.00000000000E+00 -0.00000000000E+00 -0.12880426407E+03  0.12880426407E+03  0.00000000000E+00 0. -1.
         25    2    1    2    0    0 -0.27881277179E+02 -0.66709941266E+02  0.39965619236E+02  0.14983558081E+03  0.12500347465E+03 0.  0.
          2    1    1    2  501    0  0.22910171308E+02  0.12597205667E+03 -0.14612869487E+02  0.12886958899E+03  0.00000000000E+00 0. -1.
          1    1    1    2  502    0  0.49711058704E+01 -0.59262115404E+02  0.41335836508E+03  0.41761447317E+03  0.00000000000E+00 0. -1.
         22    1    3    3    0    0 -0.17311871406E+02  0.35079706186E+02 -0.21349304835E+01  0.39177092871E+02  0.00000000000E+00 0.  1.
         22    1    3    3    0    0 -0.10569405772E+02 -0.10178964745E+03  0.42100549720E+02  0.11065848794E+03  0.00000000000E+00 0.  1.
</event>
<event>
 7    1  0.6370239E-006  0.9887416E+02  0.7818608E-02  0.1361434E+00
          2   -1    0    0  502    0  0.00000000000E+00  0.00000000000E+00  0.48287180332E+03  0.48287180332E+03  0.00000000000E+00 0. -1.
          1   -1    0    0  501    0 -0.00000000000E+00 -0.00000000000E+00 -0.11499382109E+04  0.11499382109E+04  0.00000000000E+00 0. -1.
         25    2    1    2    0    0  0.13578098496E+03 -0.30007450669E+02 -0.49799664144E+02  0.19349855501E+03  0.12499904507E+03 0.  0.
          2    1    1    2  501    0 -0.97680664797E+02 -0.80931255599E+00 -0.10244969969E+04  0.10291434612E+04  0.00000000000E+00 0. -1.
          1    1    1    2  502    0 -0.38100320163E+02  0.30816763225E+02  0.40723025339E+03  0.41016799798E+03  0.00000000000E+00 0. -1.
         22    1    3    3    0    0  0.61177900667E+02 -0.10612652562E+02 -0.87816577302E+02  0.10755052382E+03  0.00000000000E+00 0. -1.
         22    1    3    3    0    0  0.74603084293E+02 -0.19394798107E+02  0.38016913158E+02  0.85948031192E+02  0.00000000000E+00 0. -1.
</event>
<event>
 7    1  0.6370239E-006  0.5490875E+02  0.7818608E-02  0.1448495E+00
          2   -1    0    0  502    0  0.00000000000E+00  0.00000000000E+00  0.10966688176E+04  0.10966688176E+04  0.00000000000E+00 0. -1.
          1   -1    0    0  501    0 -0.00000000000E+00 -0.00000000000E+00 -0.96047742089E+03  0.96047742089E+03  0.00000000000E+00 0. -1.
         25    2    1    2    0    0  0.21645233425E+02 -0.17427090955E+01  0.12295044455E+02  0.12746979016E+03  0.12500330444E+03 0.  0.
          2    1    1    2  501    0 -0.32486375239E+02  0.44881456265E+02 -0.90155750988E+03  0.90325835358E+03  0.00000000000E+00 0. -1.
          1    1    1    2  502    0  0.10841141813E+02 -0.43138747170E+02  0.10254538621E+04  0.10264180947E+04  0.00000000000E+00 0. -1.
         22    1    3    3    0    0  0.76666244310E+01 -0.13344620770E+02  0.67562581448E+02  0.69293278502E+02  0.00000000000E+00 0. -1.
         22    1    3    3    0    0  0.13978608994E+02  0.11601911675E+02 -0.55267536993E+02  0.58176511662E+02  0.00000000000E+00 0. -1.
</event>
<event>
 7    1  0.6370239E-006  0.6131787E+02  0.7818608E-02  0.1474417E+00
          2   -1    0    0  502    0  0.00000000000E+00  0.00000000000E+00  0.95729434074E+03  0.95729434074E+03  0.00000000000E+00 0. -1.
          1   -1    0    0  501    0 -0.00000000000E+00 -0.00000000000E+00 -0.18639588123E+03  0.18639588123E+03  0.00000000000E+00 0. -1.
         25    2    1    2    0    0  0.72066284620E+02 -0.12207124138E+02  0.78102253088E+03  0.79433172466E+03  0.12499652714E+03 0.  0.
          2    1    1    2  501    0 -0.18429895009E+02  0.27382518081E+02 -0.17356392849E+03  0.17667456126E+03  0.00000000000E+00 0. -1.
          1    1    1    2  502    0 -0.53636389612E+02 -0.15175393943E+02  0.16343985711E+03  0.17268393603E+03  0.00000000000E+00 0. -1.
         22    1    3    3    0    0  0.99771867550E+02 -0.34290024800E+02  0.49462407023E+03  0.50575013812E+03  0.00000000000E+00 0.  1.
         22    1    3    3    0    0 -0.27705582930E+02  0.22082900662E+02  0.28639846065E+03  0.28858158654E+03  0.00000000000E+00 0.  1.
</event>
<event>
 7    1  0.6370239E-006  0.4975296E+02  0.7818608E-02  0.1522425E+00
          2   -1    0    0  502    0  0.00000000000E+00  0.00000000000E+00  0.40162068437E+03  0.40162068437E+03  0.00000000000E+00 0. -1.
          1   -1    0    0  501    0 -0.00000000000E+00 -0.00000000000E+00 -0.50454389943E+02  0.50454389943E+02  0.00000000000E+00 0. -1.
         25    2    1    2    0    0 -0.22020739501E+02  0.19705054177E+02  0.16980669601E+03  0.21291341321E+03  0.12499842153E+03 0.  0.
          2    1    1    2  501    0  0.45060737603E+00  0.29222056169E+02 -0.16939538377E+02  0.33779869363E+02  0.00000000000E+00 0. -1.
          1    1    1    2  502    0  0.21570132125E+02 -0.48927110346E+02  0.19829913679E+03  0.20538179174E+03  0.00000000000E+00 0. -1.
         22    1    3    3    0    0 -0.51950337667E+02  0.55738040433E+02  0.73733165316E+02  0.10602898850E+03  0.00000000000E+00 0. -1.
         22    1    3    3    0    0  0.29929598166E+02 -0.36032986256E+02  0.96073530696E+02  0.10688442471E+03  0.00000000000E+00 0. -1.
</event>
<event>
 7    1  0.6370239E-006  0.1009140E+03  0.7818608E-02  0.1361601E+00
          2   -1    0    0  502    0  0.00000000000E+00  0.00000000000E+00  0.15706700496E+04  0.15706700496E+04  0.00000000000E+00 0. -1.
          1   -1    0    0  501    0 -0.00000000000E+00 -0.00000000000E+00 -0.50004596678E+02  0.50004596678E+02  0.00000000000E+00 0. -1.
         25    2    1    2    0    0 -0.41734203915E+02  0.49264970277E+02  0.39398022918E+03  0.41834772687E+03  0.12500247406E+03 0.  0.
          2    1    1    2  501    0  0.87395198422E+02 -0.63889144938E+02  0.41276561954E+02  0.11585982097E+03  0.00000000000E+00 0. -1.
          1    1    1    2  502    0 -0.45660994508E+02  0.14624174660E+02  0.10854086618E+04  0.10864670984E+04  0.00000000000E+00 0. -1.
         22    1    3    3    0    0 -0.38070729007E+02  0.82695716775E+02  0.17970530890E+03  0.20144964638E+03  0.00000000000E+00 0. -1.
         22    1    3    3    0    0 -0.36634749080E+01 -0.33430746497E+02  0.21427492027E+03  0.21689808049E+03  0.00000000000E+00 0. -1.
</event>
<event>
 7    1  0.6370239E-006  0.7137652E+02  0.7818608E-02  0.1373083E+00
          2   -1    0    0  502    0  0.00000000000E+00  0.00000000000E+00  0.11604007758E+04  0.11604007758E+04  0.00000000000E+00 0. -1.
          1   -1    0    0  501    0 -0.00000000000E+00 -0.00000000000E+00 -0.78527938277E+03  0.78527938277E+03  0.00000000000E+00 0. -1.
         25    2    1    2    0    0  0.10978195414E+03 -0.57354929161E+02  0.41042384418E+03  0.44655866935E+03  0.12500099178E+03 0.  0.
          2    1    1    2  501    0 -0.60506068905E+02  0.11648221167E+02 -0.76442673618E+03  0.76690605710E+03  0.00000000000E+00 0. -1.
          1    1    1    2  502    0 -0.49275885233E+02  0.45706707994E+02  0.72912428501E+03  0.73221543211E+03  0.00000000000E+00 0. -1.
         22    1    3    3    0    0  0.45410491502E+01 -0.46977460943E+02  0.24999390902E+03  0.25441001850E+03  0.00000000000E+00 0. -1.
         22    1    3    3    0    0  0.10524090499E+03 -0.10377468218E+02  0.16042993516E+03  0.19214865085E+03  0.00000000000E+00 0. -1.
</event>
<event>
 7    1  0.6370239E-006  0.4420338E+02  0.7818608E-02  0.1530866E+00
          2   -1    0    0  502    0  0.00000000000E+00  0.00000000000E+00  0.60518662235E+03  0.60518662235E+03  0.00000000000E+00 0. -1.
          1   -1    0    0  501    0 -0.00000000000E+00 -0.00000000000E+00 -0.54355021461E+03  0.54355021461E+03  0.00000000000E+00 0. -1.
         25    2    1    2    0    0 -0.68134430586E+01  0.24915148363E+02  0.28738425617E+03  0.31445331265E+03  0.12499595001E+03 0.  0.
          2    1    1    2  501    0  0.37857860283E+02 -0.22970670686E+02 -0.52829198288E+03  0.53014459204E+03  0.00000000000E+00 0. -1.
          1    1    1    2  502    0 -0.31044417225E+02 -0.19444776776E+01  0.30254413444E+03  0.30413893226E+03  0.00000000000E+00 0. -1.
         22    1    3    3    0    0 -0.38589705714E+02 -0.13597049162E+02  0.24663648815E+03  0.25000720474E+03  0.00000000000E+00 0. -1.
         22    1    3    3    0    0  0.31776262656E+02  0.38512197525E+02  0.40747768020E+02  0.64446107914E+02  0.00000000000E+00 0. -1.
</event>
<event>
 7    1  0.6370239E-006  0.7354486E+02  0.7818608E-02  0.1494202E+00
          2   -1    0    0  502    0  0.00000000000E+00  0.00000000000E+00  0.55058191975E+03  0.55058191975E+03  0.00000000000E+00 0. -1.
          1   -1    0    0  501    0 -0.00000000000E+00 -0.00000000000E+00 -0.37509115588E+03  0.37509115588E+03  0.00000000000E+00 0. -1.
         25    2    1    2    0    0  0.60960909555E+02 -0.13393893852E+02 -0.94352657460E+02  0.16859175305E+03  0.12500050537E+03 0.  0.
          2    1    1    2  501    0  0.12534621376E+02  0.20408026091E+02 -0.24036681295E+03  0.24155705129E+03  0.00000000000E+00 0. -1.
          1    1    1    2  502    0 -0.73495530931E+02 -0.70141322388E+01  0.51021023428E+03  0.51552427128E+03  0.00000000000E+00 0. -1.
         22    1    3    3    0    0  0.39091295487E+02 -0.17599580391E+02  0.23338895495E+02  0.48811665160E+02  0.00000000000E+00 0. -1.
         22    1    3    3    0    0  0.21869614068E+02  0.42056865390E+01 -0.11769155296E+03  0.11978008789E+03  0.00000000000E+00 0. -1.
</event>
<event>
 7    1  0.6370239E-006  0.1011674E+03  0.7818608E-02  0.1353296E+00
          2   -1    0    0  502    0  0.00000000000E+00  0.00000000000E+00  0.37412214085E+03  0.37412214085E+03  0.00000000000E+00 0. -1.
          1   -1    0    0  501    0 -0.00000000000E+00 -0.00000000000E+00 -0.18993904699E+03  0.18993904699E+03  0.00000000000E+00 0. -1.
         25    2    1    2    0    0 -0.79893268223E+02 -0.11212578121E+03  0.86186491924E+02  0.20495553378E+03  0.12499413714E+03 0.  0.
          2    1    1    2  501    0  0.66291091169E+01  0.50866281862E+02 -0.11486705319E+03  0.12580049136E+03  0.00000000000E+00 0. -1.
          1    1    1    2  502    0  0.73264159106E+02  0.61259499347E+02  0.21286365513E+03  0.23330516270E+03  0.00000000000E+00 0. -1.
         22    1    3    3    0    0  0.25439286790E+00  0.15857575104E+02  0.46050257542E+02  0.48704759763E+02  0.00000000000E+00 0.  1.
         22    1    3    3    0    0 -0.80147661091E+02 -0.12798335631E+03  0.40136234382E+02  0.15625077402E+03  0.00000000000E+00 0.  1.
</event>
<event>
 7    1  0.6370239E-006  0.8565186E+02  0.7818608E-02  0.1342868E+00
          2   -1    0    0  502    0  0.00000000000E+00  0.00000000000E+00  0.28282477073E+03  0.28282477073E+03  0.00000000000E+00 0. -1.
          1   -1    0    0  501    0 -0.00000000000E+00 -0.00000000000E+00 -0.17070954981E+03  0.17070954981E+03  0.00000000000E+00 0. -1.
         25    2    1    2    0    0 -0.95117916338E+02 -0.48483950636E+02 -0.52775560717E+01  0.16449297151E+03  0.12502789129E+03 0.  0.
          2    1    1    2  501    0  0.59419172698E+02 -0.29283195415E+02 -0.61718801859E+02  0.90539240779E+02  0.00000000000E+00 0. -1.
          1    1    1    2  502    0  0.35698743641E+02  0.77767146051E+02  0.17911157885E+03  0.19850210825E+03  0.00000000000E+00 0. -1.
         22    1    3    3    0    0 -0.10745437603E+03 -0.26461111551E+02 -0.43316831138E+02  0.11884014983E+03  0.00000000000E+00 0.  1.
         22    1    3    3    0    0  0.12336459693E+02 -0.22022839085E+02  0.38039275066E+02  0.45652821673E+02  0.00000000000E+00 0.  1.
</event>
<event>
 7    1  0.6370239E-006  0.8143015E+02  0.7818608E-02  0.1368264E+00
          2   -1    0    0  502    0  0.00000000000E+00  0.00000000000E+00  0.93867630671E+03  0.93867630671E+03  0.00000000000E+00 0. -1.
          1   -1    0    0  501    0 -0.00000000000E+00 -0.00000000000E+00 -0.56360858236E+03  0.56360858236E+03  0.00000000000E+00 0. -1.
         25    2    1    2    0    0 -0.14585628406E+02 -0.60058147599E+02  0.80699347021E+02  0.16110696333E+03  0.12499338933E+03 0.  0.
          2    1    1    2  501    0 -0.40373741712E+02  0.71826400895E+02 -0.51918642028E+03  0.52568394486E+03  0.00000000000E+00 0. -1.
          1    1    1    2  502    0  0.54959370119E+02 -0.11768253296E+02  0.81355479761E+03  0.81549398088E+03  0.00000000000E+00 0. -1.
         22    1    3    3    0    0 -0.14698362119E+02 -0.95723547230E+02  0.34641939027E+02  0.10285476791E+03  0.00000000000E+00 0. -1.
         22    1    3    3    0    0  0.11273371243E+00  0.35665399630E+02  0.46057407994E+02  0.58252195416E+02  0.00000000000E+00 0. -1.
</event>
<event>
 7    1  0.6370239E-006  0.5285803E+02  0.7818608E-02  0.1437442E+00
          2   -1    0    0  502    0  0.00000000000E+00  0.00000000000E+00  0.21666022504E+02  0.21666022504E+02  0.00000000000E+00 0. -1.
          1   -1    0    0  501    0 -0.00000000000E+00 -0.00000000000E+00 -0.80380182067E+03  0.80380182067E+03  0.00000000000E+00 0. -1.
         25    2    1    2    0    0 -0.15567440157E+02  0.47534795886E+02 -0.29018294399E+03  0.31989522826E+03  0.12499965626E+03 0.  0.
          2    1    1    2  501    0 -0.43949529217E+02 -0.24189536028E+02 -0.26884846683E+03  0.27348892645E+03  0.00000000000E+00 0. -1.
          1    1    1    2  502    0  0.59516969374E+02 -0.23345259858E+02 -0.22310438735E+03  0.23208368847E+03  0.00000000000E+00 0. -1.
         22    1    3    3    0    0  0.34700435656E+02 -0.57251979413E+01 -0.21076547092E+02  0.41001450749E+02  0.00000000000E+00 0. -1.
         22    1    3    3    0    0 -0.50267875813E+02  0.53259993827E+02 -0.26910639690E+03  0.27889377751E+03  0.00000000000E+00 0. -1.
</event>
<event>
 7    1  0.6370239E-006  0.8471217E+02  0.7818608E-02  0.1367659E+00
          2   -1    0    0  502    0  0.00000000000E+00  0.00000000000E+00  0.17208466648E+04  0.17208466648E+04  0.00000000000E+00 0. -1.
          1   -1    0    0  501    0 -0.00000000000E+00 -0.00000000000E+00 -0.10284965266E+04  0.10284965266E+04  0.00000000000E+00 0. -1.
         25    2    1    2    0    0 -0.43277740044E+02 -0.11501809181E+03  0.51553929467E+03  0.54452579371E+03  0.12500180575E+03 0.  0.
          2    1    1    2  501    0  0.42851515611E+02  0.33350180100E+02 -0.10118742059E+04  0.10133301019E+04  0.00000000000E+00 0. -1.
          1    1    1    2  502    0  0.42622443229E+00  0.81667911708E+02  0.11886850494E+04  0.11914872958E+04  0.00000000000E+00 0. -1.
         22    1    3    3    0    0 -0.31495522117E+02  0.57069652766E+01  0.25654200149E+03  0.25853111204E+03  0.00000000000E+00 0. -1.
         22    1    3    3    0    0 -0.11782217927E+02 -0.12072505708E+03  0.25899729319E+03  0.28599468167E+03  0.00000000000E+00 0. -1.
</event>
<event>
 7    1  0.6370239E-006  0.3970241E+02  0.7818608E-02  0.1523950E+00
          2   -1    0    0  502    0  0.00000000000E+00  0.00000000000E+00  0.21866683822E+03  0.21866683822E+03  0.00000000000E+00 0. -1.
          1   -1    0    0  501    0 -0.00000000000E+00 -0.00000000000E+00 -0.54341205723E+03  0.54341205723E+03  0.00000000000E+00 0. -1.
         25    2    1    2    0    0 -0.37592419304E+02 -0.41134972353E+02  0.81773502423E+02  0.15942774323E+03  0.12500009469E+03 0.  0.
          2    1    1    2  501    0  0.36204587000E+02  0.18910551940E+01 -0.49997105308E+03  0.50128375410E+03  0.00000000000E+00 0. -1.
          1    1    1    2  502    0  0.13878323036E+01  0.39243917159E+02  0.93452331643E+02  0.10136739812E+03  0.00000000000E+00 0. -1.
         22    1    3    3    0    0 -0.21123248600E+02  0.43988699569E+01  0.10395329408E+03  0.10616887038E+03  0.00000000000E+00 0.  1.
         22    1    3    3    0    0 -0.16469170703E+02 -0.45533842310E+02 -0.22179791653E+02  0.53258872847E+02  0.00000000000E+00 0.  1.
</event>
<event>
 7    1  0.6370239E-006  0.1262376E+03  0.7818608E-02  0.1273275E+00
          2   -1    0    0  502    0  0.00000000000E+00  0.00000000000E+00  0.48305758091E+04  0.48305758091E+04  0.00000000000E+00 0. -1.
          1   -1    0    0  501    0 -0.00000000000E+00 -0.00000000000E+00 -0.15977681359E+04  0.15977681359E+04  0.00000000000E+00 0. -1.
         25    2    1    2    0    0  0.10202989065E+03 -0.79073818189E+02 -0.28584395122E+03  0.33763052990E+03  0.12499937185E+03 0.  0.
          2    1    1    2  501    0 -0.30988617023E+02  0.12522838300E+03 -0.12824210262E+04  0.12888933744E+04  0.00000000000E+00 0. -1.
          1    1    1    2  502    0 -0.71041273629E+02 -0.46154564812E+02  0.48010726506E+04  0.48018200406E+04  0.00000000000E+00 0. -1.
         22    1    3    3    0    0  0.12389839409E+03 -0.38387142109E+02 -0.17742386670E+03  0.21978082994E+03  0.00000000000E+00 0.  1.
         22    1    3    3    0    0 -0.21868503434E+02 -0.40686676080E+02 -0.10842008452E+03  0.11784969996E+03  0.00000000000E+00 0.  1.
</event>
<event>
 7    1  0.6370239E-006  0.6639320E+02  0.7818608E-02  0.1457358E+00
          2   -1    0    0  502    0  0.00000000000E+00  0.00000000000E+00  0.59831178146E+03  0.59831178146E+03  0.00000000000E+00 0. -1.
          1   -1    0    0  501    0 -0.00000000000E+00 -0.00000000000E+00 -0.12909625282E+04  0.12909625282E+04  0.00000000000E+00 0. -1.
         25    2    1    2    0    0  0.47517860196E+02 -0.51254715722E+02  0.30389251739E+03  0.33594647127E+03  0.12499750600E+03 0.  0.
          2    1    1    2  501    0 -0.15704187666E+02  0.64524030925E+02 -0.12729997475E+04  0.12747306889E+04  0.00000000000E+00 0. -1.
          1    1    1    2  502    0 -0.31813672529E+02 -0.13269315203E+02  0.27645648339E+03  0.27859714948E+03  0.00000000000E+00 0. -1.
         22    1    3    3    0    0  0.81591198435E+01 -0.87936794908E+02  0.16817062980E+03  0.18994949819E+03  0.00000000000E+00 0. -1.
         22    1    3    3    0    0  0.39358740352E+02  0.36682079186E+02  0.13572188760E+03  0.14599697308E+03  0.00000000000E+00 0. -1.
</event>
<event>
 7    1  0.6370239E-006  0.1382519E+03  0.7818608E-02  0.1342810E+00
          2   -1    0    0  502    0  0.00000000000E+00  0.00000000000E+00  0.50183148977E+03  0.50183148977E+03  0.00000000000E+00 0. -1.
          1   -1    0    0  501    0 -0.00000000000E+00 -0.00000000000E+00 -0.14316804346E+03  0.14316804346E+03  0.00000000000E+00 0. -1.
         25    2    1    2    0    0  0.99223510921E+02  0.30637484878E+02  0.84471274196E+01  0.16274295867E+03  0.12501982257E+03 0.  0.
          2    1    1    2  501    0  0.34902591104E+02  0.21627565069E+02 -0.45430711754E+02  0.61236361804E+02  0.00000000000E+00 0. -1.
          1    1    1    2  502    0 -0.13412610202E+03 -0.52265049947E+02  0.39564703065E+03  0.42102021276E+03  0.00000000000E+00 0. -1.
         22    1    3    3    0    0  0.43741166912E+02  0.10975480361E+02 -0.58327101704E+02  0.73727889195E+02  0.00000000000E+00 0.  1.
         22    1    3    3    0    0  0.55482344009E+02  0.19662004517E+02  0.66774229124E+02  0.89015069474E+02  0.00000000000E+00 0.  1.
</event>
<event>
 7    1  0.6370239E-006  0.6574192E+02  0.7818608E-02  0.1455133E+00
          2   -1    0    0  502    0  0.00000000000E+00  0.00000000000E+00  0.11980062931E+04  0.11980062931E+04  0.00000000000E+00 0. -1.
          1   -1    0    0  501    0 -0.00000000000E+00 -0.00000000000E+00 -0.13198720666E+03  0.13198720666E+03  0.00000000000E+00 0. -1.
         25    2    1    2    0    0 -0.56153066477E+02 -0.82562148741E+02  0.29687268613E+03  0.33723569517E+03  0.12499938819E+03 0.  0.
          2    1    1    2  501    0  0.39246769120E+02  0.51480957020E+02 -0.10204615137E+03  0.12084707208E+03  0.00000000000E+00 0. -1.
          1    1    1    2  502    0  0.16906297356E+02  0.31081191721E+02  0.87119255172E+03  0.87191073256E+03  0.00000000000E+00 0. -1.
         22    1    3    3    0    0 -0.41096366456E+02 -0.98300073399E+02  0.12612294833E+03  0.16510243445E+03  0.00000000000E+00 0.  1.
         22    1    3    3    0    0 -0.15056700021E+02  0.15737924658E+02  0.17074973779E+03  0.17213326072E+03  0.00000000000E+00 0.  1.
</event>
<event>
 7    1  0.6370239E-006  0.4423563E+02  0.7818608E-02  0.1522709E+00
          2   -1    0    0  502    0  0.00000000000E+00  0.00000000000E+00  0.22145703055E+04  0.22145703055E+04  0.00000000000E+00 0. -1.
          1   -1    0    0  501    0 -0.00000000000E+00 -0.00000000000E+00 -0.51861798618E+01  0.51861798618E+01  0.00000000000E+00 0. -1.
         25    2    1    2    0    0  0.29249391120E+02  0.40348238907E+02  0.12576310659E+04  0.12648104624E+04  0.12500440172E+03 0.  0.
          2    1    1    2  501    0  0.14593639052E+02 -0.29384087583E+02  0.41207315973E+03  0.41337717387E+03  0.00000000000E+00 0. -1.
          1    1    1    2  502    0 -0.43843030171E+02 -0.10964151323E+02  0.53967989994E+03  0.54156884909E+03  0.00000000000E+00 0. -1.
         22    1    3    3    0    0  0.17339521805E+02 -0.38566286499E+02  0.72514764671E+03  0.72637946488E+03  0.00000000000E+00 0. -1.
         22    1    3    3    0    0  0.11909869315E+02  0.78914525406E+02  0.53248341923E+03  0.53843099749E+03  0.00000000000E+00 0. -1.
</event>
<event>
 7    1  0.6370239E-006  0.1427224E+03  0.7818608E-02  0.1353144E+00
          2   -1    0    0  502    0  0.00000000000E+00  0.00000000000E+00  0.29008847182E+03  0.29008847182E+03  0.00000000000E+00 0. -1.
          1   -1    0    0  501    0 -0.00000000000E+00 -0.00000000000E+00 -0.62993162190E+03  0.62993162190E+03  0.00000000000E+00 0. -1.
         25    2    1    2    0    0  0.14079183666E+03 -0.14560185222E+02 -0.30917709561E+03  0.36228367343E+03  0.12499857328E+03 0.  0.
          2    1    1    2  501    0 -0.68860932264E+01 -0.35750513226E+02 -0.27349465843E+03  0.27590731354E+03  0.00000000000E+00 0. -1.
          1    1    1    2  502    0 -0.13390574343E+03  0.50310698449E+02  0.24282860397E+03  0.28182910675E+03  0.00000000000E+00 0. -1.
         22    1    3    3    0    0  0.53577348791E+02 -0.62679214216E+02 -0.18892187029E+03  0.20613269821E+03  0.00000000000E+00 0.  1.
         22    1    3    3    0    0  0.87214487866E+02  0.48119028993E+02 -0.12025522532E+03  0.15615097522E+03  0.00000000000E+00 0.  1.
</event>
<event>
 7    1  0.6370239E-006  0.5756263E+02  0.7818608E-02  0.1521172E+00
          2   -1    0    0  502    0  0.00000000000E+00  0.00000000000E+00  0.17321924835E+04  0.17321924835E+04  0.00000000000E+00 0. -1.
          1   -1    0    0  501    0 -0.00000000000E+00 -0.00000000000E+00 -0.28762305549E+03  0.28762305549E+03  0.00000000000E+00 0. -1.
         25    2    1    2    0    0  0.29720324812E+01  0.82634839987E+02  0.81795247371E+03  0.83156999572E+03  0.12500023512E+03 0.  0.
          2    1    1    2  501    0  0.94676997435E+00 -0.57465591832E+02 -0.27769234893E+03  0.28357755777E+03  0.00000000000E+00 0. -1.
          1    1    1    2  502    0 -0.39188024556E+01 -0.25169248155E+02  0.90430930326E+03  0.90466798552E+03  0.00000000000E+00 0. -1.
         22    1    3    3    0    0 -0.28370812207E+01  0.92631181251E+02  0.81413747475E+03  0.81939515044E+03  0.00000000000E+00 0. -1.
         22    1    3    3    0    0  0.58091137019E+01 -0.99963412642E+01  0.38149989630E+01  0.12174845287E+02  0.00000000000E+00 0. -1.
</event>
<event>
 7    1  0.6370239E-006  0.6239811E+02  0.7818608E-02  0.1413485E+00
          2   -1    0    0  502    0  0.00000000000E+00  0.00000000000E+00  0.18694645656E+04  0.18694645656E+04  0.00000000000E+00 0. -1.
          1   -1    0    0  501    0 -0.00000000000E+00 -0.00000000000E+00 -0.69164564797E+02  0.69164564797E+02  0.00000000000E+00 0. -1.
         25    2    1    2    0    0  0.80429435001E+01  0.18494077845E+02  0.69149861134E+03  0.70299403950E+03  0.12499428082E+03 0.  0.
          2    1    1    2  501    0  0.35004598211E+02  0.37118660036E+02 -0.51915477272E+02  0.72789653105E+02  0.00000000000E+00 0. -1.
          1    1    1    2  502    0 -0.43047541711E+02 -0.55612737881E+02  0.11607168668E+04  0.11628454378E+04  0.00000000000E+00 0. -1.
         22    1    3    3    0    0  0.17933437055E+02  0.57411959645E+02  0.17719272398E+03  0.18712296146E+03  0.00000000000E+00 0.  1.
         22    1    3    3    0    0 -0.98904935553E+01 -0.38917881800E+02  0.51430588736E+03  0.51587107804E+03  0.00000000000E+00 0.  1.
</event>
<event>
 7    1  0.6370239E-006  0.8292007E+02  0.7818608E-02  0.1400936E+00
          2   -1    0    0  502    0  0.00000000000E+00  0.00000000000E+00  0.11402964563E+03  0.11402964563E+03  0.00000000000E+00 0. -1.
          1   -1    0    0  501    0 -0.00000000000E+00 -0.00000000000E+00 -0.80367920446E+03  0.80367920446E+03  0.00000000000E+00 0. -1.
         25    2    1    2    0    0 -0.28842885562E+02  0.39201133286E+02 -0.34610448599E+03  0.37119113518E+03  0.12500361082E+03 0.  0.
          2    1    1    2  501    0  0.48024744042E+01  0.42087314302E+02 -0.42609477949E+03  0.42819524389E+03  0.00000000000E+00 0. -1.
          1    1    1    2  502    0  0.24040411158E+02 -0.81288447587E+02  0.82549706646E+02  0.11832247102E+03  0.00000000000E+00 0. -1.
         22    1    3    3    0    0 -0.53472423580E+02  0.21362793097E+02 -0.33322808534E+03  0.33816656528E+03  0.00000000000E+00 0. -1.
         22    1    3    3    0    0  0.24629538018E+02  0.17838340189E+02 -0.12876400650E+02  0.33024569904E+02  0.00000000000E+00 0. -1.
</event>
<event>
 7    1  0.6370239E-006  0.1018340E+03  0.7818608E-02  0.1463241E+00
          2   -1    0    0  502    0  0.00000000000E+00  0.00000000000E+00  0.33633531096E+03  0.33633531096E+03  0.00000000000E+00 0. -1.
          1   -1    0    0  501    0 -0.00000000000E+00 -0.00000000000E+00 -0.50496408808E+03  0.50496408808E+03  0.00000000000E+00 0. -1.
         25    2    1    2    0    0  0.87906355557E+02  0.24169294263E+02 -0.13656155553E+03  0.20636184360E+03  0.12499787964E+03 0.  0.
          2    1    1    2  501    0 -0.94608356630E+02 -0.44633725511E+02 -0.32489427320E+03  0.34131979045E+03  0.00000000000E+00 0. -1.
          1    1    1    2  502    0  0.67020010728E+01  0.20464431248E+02  0.29282705161E+03  0.29361776499E+03  0.00000000000E+00 0. -1.
         22    1    3    3    0    0  0.49883627837E+02  0.53788940923E+02 -0.14026585405E+02  0.74688497039E+02  0.00000000000E+00 0. -1.
         22    1    3    3    0    0  0.38022727720E+02 -0.29619646661E+02 -0.12253497013E+03  0.13167334656E+03  0.00000000000E+00 0. -1.
</event>
<event>
 7    1  0.6370239E-006  0.1015933E+03  0.7818608E-02  0.1384359E+00
          2   -1    0    0  502    0  0.00000000000E+00  0.00000000000E+00  0.10533930586E+03  0.10533930586E+03  0.00000000000E+00 0. -1.
          1   -1    0    0  501    0 -0.00000000000E+00 -0.00000000000E+00 -0.56540684720E+03  0.56540684720E+03  0.00000000000E+00 0. -1.
         25    2    1    2    0    0 -0.80919390646E+02  0.64549215987E+02 -0.27095529933E+03  0.31584310197E+03  0.12500216702E+03 0.  0.
          2    1    1    2  501    0 -0.17033446333E+02 -0.35616689914E+02 -0.23829384156E+03  0.24154221540E+03  0.00000000000E+00 0. -1.
          1    1    1    2  502    0  0.97952836979E+02 -0.28932526074E+02  0.49181599548E+02  0.11336083570E+03  0.00000000000E+00 0. -1.
         22    1    3    3    0    0 -0.33187489160E+02 -0.16546498082E+02 -0.99535139370E+01  0.38396203917E+02  0.00000000000E+00 0.  1.
         22    1    3    3    0    0 -0.47731901486E+02  0.81095714069E+02 -0.26100178539E+03  0.27744689805E+03  0.00000000000E+00 0.  1.
</event>
<event>
 7    1  0.6370239E-006  0.9506172E+02  0.7818608E-02  0.1348872E+00
          2   -1    0    0  502    0  0.00000000000E+00  0.00000000000E+00  0.14029338198E+04  0.14029338198E+04  0.00000000000E+00 0. -1.
          1   -1    0    0  501    0 -0.00000000000E+00 -0.00000000000E+00 -0.14589286991E+04  0.14589286991E+04  0.00000000000E+00 0. -1.
         25    2    1    2    0    0 -0.27824554063E+02 -0.40352716802E+02  0.96833710889E+02  0.16554071009E+03  0.12499764625E+03 0.  0.
          2    1    1    2  501    0 -0.55696675506E+02 -0.10550516885E+02 -0.14221290215E+04  0.14232583697E+04  0.00000000000E+00 0. -1.
          1    1    1    2  502    0  0.83521229569E+02  0.50903233687E+02  0.12693004313E+04  0.12730634391E+04  0.00000000000E+00 0. -1.
         22    1    3    3    0    0  0.33698827255E+02  0.13597188392E+02  0.70954533974E+02  0.79718507148E+02  0.00000000000E+00 0.  1.
         22    1    3    3    0    0 -0.61523381318E+02 -0.53949905194E+02  0.25879176916E+02  0.85822202938E+02  0.00000000000E+00 0.  1.
</event>
<event>
 7    1  0.6370239E-006  0.4850621E+02  0.7818608E-02  0.1533126E+00
          2   -1    0    0  502    0  0.00000000000E+00  0.00000000000E+00  0.80008714017E+03  0.80008714017E+03  0.00000000000E+00 0. -1.
          1   -1    0    0  501    0 -0.00000000000E+00 -0.00000000000E+00 -0.96311537946E+02  0.96311537946E+02  0.00000000000E+00 0. -1.
         25    2    1    2    0    0  0.15773566773E+02 -0.20045311701E+02  0.23799429177E+03  0.27003158017E+03  0.12500060576E+03 0.  0.
          2    1    1    2  501    0 -0.12147402068E+02  0.47736509807E+02 -0.72341931086E+02  0.87519647730E+02  0.00000000000E+00 0. -1.
          1    1    1    2  502    0 -0.36261647048E+01 -0.27691198106E+02  0.53812324154E+03  0.53884745022E+03  0.00000000000E+00 0. -1.
         22    1    3    3    0    0  0.10990053505E+02 -0.28180784488E+01  0.24885423953E+03  0.24911273627E+03  0.00000000000E+00 0. -1.
         22    1    3    3    0    0  0.47835132682E+01 -0.17227233252E+02 -0.10859947754E+02  0.20918843896E+02  0.00000000000E+00 0. -1.
</event>
<event>
 7    1  0.6370239E-006  0.8210150E+02  0.7818608E-02  0.1413426E+00
          2   -1    0    0  502    0  0.00000000000E+00  0.00000000000E+00  0.21747474668E+04  0.21747474668E+04  0.00000000000E+00 0. -1.
          1   -1    0    0  501    0 -0.00000000000E+00 -0.00000000000E+00 -0.18879440207E+03  0.18879440207E+03  0.00000000000E+00 0. -1.
         25    2    1    2    0    0  0.10164471725E+03 -0.50312465072E+02  0.81902855624E+03  0.83623847594E+03  0.12499608004E+03 0.  0.
          2    1    1    2  501    0 -0.26698742556E+02  0.28145229664E+02 -0.17695279584E+03  0.18115537189E+03  0.00000000000E+00 0. -1.
          1    1    1    2  502    0 -0.74945974696E+02  0.22167235408E+02  0.13438773043E+04  0.13461480210E+04  0.00000000000E+00 0. -1.
         22    1    3    3    0    0 -0.22650240121E+02 -0.15053668455E+02  0.30544095350E+03  0.30664934760E+03  0.00000000000E+00 0. -1.
         22    1    3    3    0    0  0.12429495737E+03 -0.35258796617E+02  0.51358760274E+03  0.52958912834E+03  0.00000000000E+00 0. -1.
</event>
<event>
 7    1  0.6370239E-006  0.8664713E+02  0.7818608E-02  0.1337828E+00
          2   -1    0    0  502    0  0.00000000000E+00  0.00000000000E+00  0.20194702319E+03  0.20194702319E+03  0.00000000000E+00 0. -1.
          1   -1    0    0  501    0 -0.00000000000E+00 -0.00000000000E+00 -0.47770367082E+03  0.47770367082E+03  0.00000000000E+00 0. -1.
         25    2    1    2    0    0 -0.45568570396E+02  0.12061493513E+03  0.13278533490E+02  0.18007175051E+03  0.12500023478E+03 0.  0.
          2    1    1    2  501    0 -0.14616903096E+02 -0.66823008035E+02 -0.37527342181E+03  0.38145656290E+03  0.00000000000E+00 0. -1.
          1    1    1    2  502    0  0.60185473492E+02 -0.53791927095E+02  0.86238240699E+02  0.11812238060E+03  0.00000000000E+00 0. -1.
         22    1    3    3    0    0 -0.98015803583E-01  0.69578504972E+02 -0.50979594741E+02  0.86255997132E+02  0.00000000000E+00 0.  1.
         22    1    3    3    0    0 -0.45470554592E+02  0.51036430159E+02  0.64258128231E+02  0.93815753379E+02  0.00000000000E+00 0.  1.
</event>
